Membrane in water
40167
    1TCq1    O1    1   0.709   1.207  12.030  0.5616  0.3551  0.0019
    1TCq1    C1    2   0.664   1.295  12.120  0.0484  0.0068  0.6117
    1TCq1    O2    3   0.707   1.296  12.234 -0.1181  0.7144  0.3194
    1TCq1    C2    4   0.529   1.332  12.084  0.1924  0.9285  0.1204
    1TCq1    C3    5   0.520   1.442  12.000  0.6050 -0.0113 -0.0419
    1TCq1    C4    6   0.387   1.470  11.960  0.1023  0.5567  0.2590
    1TCq1    C5    7   0.282   1.395  12.005  0.2710  0.2374  0.0424
    1TCq1    C6    8   0.303   1.284  12.087 -0.5507  0.0217  0.1296
    1TCq1    C7    9   0.429   1.250  12.121  0.5298  0.0747 -1.0286
    1TCq1    C8   10   0.186   1.200  12.123 -0.1691 -0.7699  0.3685
    1TCq1    O4   11   0.073   1.239  12.083 -0.0949  0.2361 -0.1275
    1TCq1    C9   12   0.358   1.580  11.867 -0.4010 -0.4952 -0.2833
    1TCq1    O5   13   0.246   1.582  11.811 -0.0315 -0.1410 -0.4092
    1TCq1    O6   14   0.455   1.654  11.834 -0.7913  0.2942 -0.5333
    1TCq1    H1   15   0.660   1.192  11.946  1.0226 -0.3877 -0.1322
    1TCq1    H2   16   0.602   1.507  11.970 -0.1409  0.9918  0.1134
    1TCq1    H3   17   0.177   1.409  11.982  0.0498 -1.5750 -0.0087
    1TCq1    H4   18   0.457   1.176  12.195 -1.6576  1.1436  0.8537
    2MPD2     C   19   4.713   0.760  12.280  0.1414 -0.0535  0.4125
    2MPD2    C1   20   4.654   0.879  12.251  0.5547  0.5157 -0.1844
    2MPD2    C2   21   0.003   0.990  12.224 -0.3382 -0.0248  0.5637
    2MPD2    C3   22   0.140   0.974  12.224  0.1058 -0.0209  0.2266
    2MPD2    C4   23   0.201   0.861  12.267  0.0612 -0.2233  0.3674
    2MPD2    C5   24   0.125   0.752  12.285 -0.1635 -0.2187 -0.8535
    2MPD2     H   25   4.692   1.089  12.200  1.6451  0.6705  0.3171
    2MPD2    H1   26   0.307   0.847  12.285  0.2209 -1.1538 -1.2999
    2MPD2    H2   27   4.658   0.667  12.291 -0.6592  0.5946  1.8405
    2MPD2    H3   28   0.174   0.657  12.296 -1.8030 -1.0112 -0.3358
    2MPD2     N   29   0.223   1.082  12.187 -0.0034  0.3858 -0.9320
    2MPD2    H5   30   0.319   1.066  12.214 -0.7412 -1.4110  0.5827
    2MPD2    N1   31   4.519   0.891  12.244  0.8093  0.4678  0.8968
    2MPD2    H7   32   4.487   0.987  12.228  2.9997  1.0775  0.1387
    3TCq1    O1   33   4.391   1.507  11.050 -0.1451  0.2351  0.1482
    3TCq1    C1   34   4.467   1.596  10.979 -0.7633 -0.3850  0.3775
    3TCq1    O2   35   4.507   1.594  10.863 -0.7887 -0.0466  0.1640
    3TCq1    C2   36   4.432   1.722  11.046  0.1330  0.5048 -0.2241
    3TCq1    C3   37   4.518   1.833  11.028  0.0298 -0.3181  0.1757
    3TCq1    C4   38   4.470   1.958  11.044  0.2890  0.1009  0.5133
    3TCq1    C5   39   4.342   1.972  11.089 -0.3938 -0.1275 -0.3734
    3TCq1    C6   40   4.262   1.863  11.115  0.0700  0.4260  0.1611
    3TCq1    C7   41   4.300   1.736  11.086  0.5546 -0.3672 -0.2681
    3TCq1    C8   42   4.120   1.880  11.152 -0.2513  0.1281 -0.7103
    3TCq1    O4   43   4.044   1.788  11.133 -0.2864 -0.5303  0.3731
    3TCq1    C9   44   4.543   2.071  11.000 -0.2491 -0.1802 -0.4818
    3TCq1    O5   45   4.643   2.041  10.928 -0.0476  0.6100 -0.2305
    3TCq1    O6   46   4.513   2.189  11.040 -0.5444  0.6711 -0.1190
    3TCq1    H1   47   4.377   1.536  11.143  2.8154  0.5322  0.4897
    3TCq1    H2   48   4.618   1.809  10.993 -0.0372  0.9883 -0.8944
    3TCq1    H3   49   4.307   2.075  11.083 -0.5178 -0.2445 -1.7960
    3TCq1    H4   50   4.226   1.656  11.091  0.7557 -0.5049  0.4475
    4MPD2     C   51   3.725   2.114  11.377 -0.3942  0.1193  0.8282
    4MPD2    C1   52   3.814   2.212  11.346 -0.2885 -0.1608 -0.4951
    4MPD2    C2   53   3.931   2.174  11.289 -0.6147 -0.0831 -0.9725
    4MPD2    C3   54   3.956   2.041  11.257  0.2370 -1.1172  0.5609
    4MPD2    C4   55   3.866   1.947  11.297  0.0582  0.2689  0.4327
    4MPD2    C5   56   3.753   1.984  11.357  0.0987 -0.0524  0.2362
    4MPD2     H   57   4.003   2.251  11.264  0.0843 -0.0330  1.1621
    4MPD2    H1   58   3.883   1.841  11.283  1.8925  0.5754  0.3847
    4MPD2    H2   59   3.634   2.133  11.433 -0.1053 -0.9224  1.6506
    4MPD2    H3   60   3.678   1.912  11.389  0.1989  0.1434  0.9008
    4MPD2     N   61   4.083   2.005  11.195 -0.2464 -0.2791  0.5682
    4MPD2    H5   62   4.158   2.072  11.182 -0.9231  0.3266 -0.2274
    4MPD2    N1   63   3.802   2.349  11.380 -0.1309 -0.5201  0.1691
    4MPD2    H7   64   3.868   2.418  11.345  1.6479 -2.7551 -0.8871
    5TCq1    O1   65   3.831   3.558  11.306 -0.2322  0.7936 -0.5142
    5TCq1    C1   66   3.935   3.475  11.307  0.3951  0.5822 -0.1578
    5TCq1    O2   67   3.962   3.396  11.219 -0.0733  0.1035  0.0823
    5TCq1    C2   68   4.023   3.540  11.392 -0.7256  0.3450 -0.4332
    5TCq1    C3   69   3.975   3.572  11.518 -0.2329  0.0824 -0.0237
    5TCq1    C4   70   4.073   3.606  11.615 -0.1330 -0.0192 -0.3641
    5TCq1    C5   71   4.205   3.604  11.579 -0.0406  0.3820  0.0001
    5TCq1    C6   72   4.247   3.575  11.447 -0.0363 -1.0388 -0.5046
    5TCq1    C7   73   4.152   3.542  11.355 -0.4310 -0.1968 -0.2101
    5TCq1    C8   74   4.379   3.533  11.405  0.0295  0.4656  0.0739
    5TCq1    O4   75   4.395   3.436  11.333 -0.0666  0.1372  0.0572
    5TCq1    C9   76   4.029   3.626  11.753  0.1805  0.8756  0.0957
    5TCq1    O5   77   4.121   3.642  11.838  0.2411  0.1447 -0.5318
    5TCq1    O6   78   3.912   3.588  11.780  0.3163 -0.1423  0.2120
    5TCq1    H1   79   3.851   3.642  11.352  1.2940 -1.0724  2.2199
    5TCq1    H2   80   3.872   3.567  11.552 -0.0604 -0.6970  0.3809
    5TCq1    H3   81   4.288   3.624  11.646 -0.0688  1.7393 -0.3694
    5TCq1    H4   82   4.174   3.539  11.249  1.6101  1.0800  0.1777
    6MPD2     C   83   4.691   3.731  11.458  0.4774 -0.2343 -0.3218
    6MPD2    C1   84   4.614   3.624  11.417 -0.3382 -0.1741 -0.1826
    6MPD2    C2   85   4.681   3.515  11.365  0.3804 -0.0259 -0.0457
    6MPD2    C3   86   0.092   3.510  11.357  0.1252 -0.0395 -0.4082
    6MPD2    C4   87   0.166   3.612  11.408  0.0031  0.1368 -0.0815
    6MPD2    C5   88   0.102   3.724  11.455  0.6985 -0.4604  0.1698
    6MPD2     H   89   4.627   3.434  11.318 -2.4262  1.7040  0.2458
    6MPD2    H1   90   0.274   3.609  11.412 -0.0484 -1.6193 -0.1897
    6MPD2    H2   91   4.646   3.823  11.494  0.7365 -0.4495  0.5738
    6MPD2    H3   92   0.157   3.798  11.512 -2.0220  1.3770  0.3957
    6MPD2     N   93   0.153   3.405  11.289 -0.0315  0.8720 -1.0858
    6MPD2    H5   94   0.099   3.327  11.253 -1.6037  1.4530 -0.0333
    6MPD2    N1   95   4.475   3.632  11.436  0.1419  0.3665 -0.4109
    6MPD2    H7   96   4.442   3.714  11.486 -0.2639 -0.5843  0.8858
    7TCq1    O1   97   1.894   3.620  13.072  0.9093  0.1328  0.1223
    7TCq1    C1   98   2.023   3.577  13.104 -0.0596  0.2835 -0.6463
    7TCq1    O2   99   2.107   3.582  13.015 -0.2107 -0.0263  0.3627
    7TCq1    C2  100   2.051   3.603  13.245 -0.2852 -0.2916 -0.1039
    7TCq1    C3  101   2.156   3.687  13.279  0.3586  0.2319  0.0337
    7TCq1    C4  102   2.177   3.700  13.414  0.2901  0.4695  0.6303
    7TCq1    C5  103   2.121   3.618  13.507  0.5262 -0.4303 -0.2223
    7TCq1    C6  104   2.024   3.529  13.467  0.2555  0.0861 -0.4085
    7TCq1    C7  105   1.981   3.524  13.336 -0.1413  0.3234 -0.0297
    7TCq1    C8  106   2.010   3.404  13.538  0.0686  0.3015  0.7039
    7TCq1    O4  107   1.985   3.302  13.476 -0.2578  0.0792 -0.0759
    7TCq1    C9  108   2.283   3.791  13.450  0.4532  0.1436 -0.3097
    7TCq1    O5  109   2.366   3.815  13.361 -0.2908 -0.1686 -0.1784
    7TCq1    O6  110   2.276   3.836  13.572  0.4063  0.1009  0.0012
    7TCq1    H1  111   1.838   3.628  13.152 -2.0974  0.0821 -1.9946
    7TCq1    H2  112   2.207   3.755  13.211  1.4739 -0.8696 -0.2325
    7TCq1    H3  113   2.164   3.619  13.607 -0.7123 -0.6691  0.3126
    7TCq1    H4  114   1.898   3.461  13.306  0.5321 -0.1176 -0.9678
    8MPD2     C  115   2.066   3.128  13.968  0.1198  0.3665 -0.3989
    8MPD2    C1  116   2.070   3.089  13.832 -0.4752  0.4098 -0.4845
    8MPD2    C2  117   2.066   3.185  13.734 -0.3181 -0.2100  0.9476
    8MPD2    C3  118   2.039   3.315  13.765  0.4537  0.6417 -0.1865
    8MPD2    C4  119   2.030   3.350  13.900 -0.3607 -0.4640 -0.7305
    8MPD2    C5  120   2.038   3.257  14.001  0.5770 -0.4594  0.2938
    8MPD2     H  121   2.098   3.159  13.634 -2.2824 -1.0359  0.5338
    8MPD2    H1  122   1.987   3.446  13.926  1.9949  0.0226  1.4396
    8MPD2    H2  123   2.079   3.045  14.037 -0.6571  0.6625  0.1077
    8MPD2    H3  124   2.025   3.298  14.101  1.6522  0.7876 -0.0712
    8MPD2     N  125   2.018   3.419  13.667 -0.5902  0.3880 -0.1822
    8MPD2    H5  126   2.003   3.515  13.698  0.5378  0.0225  1.4891
    8MPD2    N1  127   2.071   2.947  13.816  0.5119 -0.0687 -0.4324
    8MPD2    H7  128   2.066   2.883  13.894 -2.5529  0.3098 -0.3109
    9TCq1    O1  129   0.940   2.071  11.497 -0.1556  0.8508 -0.0535
    9TCq1    C1  130   0.819   2.012  11.509  0.0041 -0.7704 -0.4230
    9TCq1    O2  131   0.804   1.890  11.526 -0.3643 -0.3403  0.2943
    9TCq1    C2  132   0.717   2.115  11.489 -0.1691 -0.1039 -0.0344
    9TCq1    C3  133   0.738   2.208  11.390  0.9169 -0.2929  0.5416
    9TCq1    C4  134   0.624   2.267  11.348  0.1594  0.6336  0.6194
    9TCq1    C5  135   0.505   2.248  11.405 -0.6615  0.0359 -0.2965
    9TCq1    C6  136   0.491   2.147  11.493 -0.5613  0.9528  0.2772
    9TCq1    C7  137   0.597   2.077  11.532 -0.6380  0.2313  0.1009
    9TCq1    C8  138   0.358   2.121  11.556  0.3331  0.3174  0.5770
    9TCq1    O4  139   0.330   2.011  11.605  0.0827  0.0586 -0.0777
    9TCq1    C9  140   0.639   2.369  11.256  0.0097 -0.0859  0.1681
    9TCq1    O5  141   0.749   2.431  11.252  0.1925  0.0834  0.3425
    9TCq1    O6  142   0.527   2.423  11.221 -0.2131 -1.1659  0.0274
    9TCq1    H1  143   0.930   2.166  11.518 -0.0307  0.8496  0.0168
    9TCq1    H2  144   0.832   2.240  11.347  1.4252 -1.0519  1.0878
    9TCq1    H3  145   0.421   2.300  11.360  1.8352  3.3267 -1.2192
    9TCq1    H4  146   0.577   1.995  11.601 -1.2416 -1.1474 -1.6968
   10MPD2     C  147   0.083   2.362  11.564  0.1532  0.2297 -0.3418
   10MPD2    C1  148   0.144   2.239  11.587  0.0681 -0.1318 -0.4892
   10MPD2    C2  149   0.067   2.136  11.638  0.2382  0.8657 -0.2697
   10MPD2    C3  150   4.662   2.160  11.683 -0.0936 -0.0367 -0.3855
   10MPD2    C4  151   4.609   2.288  11.680 -0.0898 -0.4067  0.0407
   10MPD2    C5  152   4.681   2.383  11.609  0.5052  0.6313 -0.3224
   10MPD2     H  153   0.099   2.032  11.639 -2.0048  0.1391 -2.8585
   10MPD2    H1  154   4.507   2.317  11.706 -0.1863  0.5615 -1.4185
   10MPD2    H2  155   0.140   2.440  11.514 -0.2998  1.0314  0.3843
   10MPD2    H3  156   4.633   2.480  11.607  0.4823  0.6348  0.3497
   10MPD2     N  157   4.586   2.062  11.746 -0.2764  0.0967  0.4618
   10MPD2    H5  158   4.510   2.099  11.803 -0.4725  0.0997  0.1979
   10MPD2    N1  159   0.284   2.233  11.549  0.3651 -0.0813  0.0269
   10MPD2    H7  160   0.326   2.324  11.536 -1.7377  1.1410  1.7039
   11TCq1    O1  161   1.233   1.651  14.296  0.3441 -0.2311  0.4250
   11TCq1    C1  162   1.100   1.653  14.269 -0.1558 -0.0558  0.4078
   11TCq1    O2  163   1.056   1.672  14.158 -0.1604 -0.0334 -0.3714
   11TCq1    C2  164   1.036   1.569  14.369  0.6803  0.3402  0.2765
   11TCq1    C3  165   1.066   1.602  14.501 -1.0346  0.3492  0.3170
   11TCq1    C4  166   0.986   1.547  14.597  0.7413 -0.2465 -0.1251
   11TCq1    C5  167   0.864   1.484  14.562 -0.9356  0.5967 -0.6780
   11TCq1    C6  168   0.839   1.463  14.429  0.0170  0.0663  0.2642
   11TCq1    C7  169   0.922   1.508  14.333 -0.9995 -0.0803  0.1693
   11TCq1    C8  170   0.712   1.407  14.392  0.1336 -0.3391  0.6041
   11TCq1    O4  171   0.695   1.386  14.271  0.3033 -0.2640 -0.8458
   11TCq1    C9  172   1.035   1.555  14.735 -0.0834  0.4848  0.4255
   11TCq1    O5  173   1.152   1.604  14.761  0.2588 -0.3023 -0.0529
   11TCq1    O6  174   0.954   1.524  14.831 -0.6402  0.0733 -0.1836
   11TCq1    H1  175   1.256   1.627  14.389  0.6379  1.3361  0.7549
   11TCq1    H2  176   1.157   1.655  14.527  0.2571 -1.3134 -0.8553
   11TCq1    H3  177   0.817   1.431  14.644 -1.5263  1.6953 -0.3144
   11TCq1    H4  178   0.903   1.492  14.227 -0.9495 -3.0339  0.5878
   12MPD2     C  179   0.400   1.449  14.582 -0.1898 -0.0886  0.0210
   12MPD2    C1  180   0.481   1.395  14.484 -0.0646 -0.5989  0.7648
   12MPD2    C2  181   0.420   1.323  14.388 -0.2671 -0.0637  0.6490
   12MPD2    C3  182   0.278   1.315  14.377 -0.2387  0.3782  0.4447
   12MPD2    C4  183   0.202   1.389  14.470 -0.5679  0.2168 -0.0010
   12MPD2    C5  184   0.264   1.442  14.574  0.1958 -0.5786 -0.5366
   12MPD2     H  185   0.476   1.276  14.307  0.8580 -1.2539  2.1259
   12MPD2    H1  186   0.095   1.402  14.462 -0.3964  2.2680  1.1776
   12MPD2    H2  187   0.449   1.493  14.668  2.8815  0.5640 -2.0981
   12MPD2    H3  188   0.209   1.491  14.654  1.4397 -0.7295  0.4036
   12MPD2     N  189   0.227   1.238  14.268 -0.0731 -0.0133  0.1725
   12MPD2    H5  190   0.280   1.166  14.220 -2.0762 -2.1324  1.1226
   12MPD2    N1  191   0.618   1.423  14.495 -0.0979 -0.5876  0.0913
   12MPD2    H7  192   0.648   1.460  14.585 -0.0008  1.1592 -0.6658
   13TCq1    O1  193   4.309   0.980  10.203  0.0713 -0.3533 -0.2342
   13TCq1    C1  194   4.295   1.056  10.313  0.2939  0.3485  0.0707
   13TCq1    O2  195   4.389   1.099  10.378 -0.3102  0.7539  0.4041
   13TCq1    C2  196   4.168   1.001  10.365  0.4962 -0.2892  0.7813
   13TCq1    C3  197   4.069   0.949  10.280  0.2807  0.3595  0.0726
   13TCq1    C4  198   3.954   0.898  10.334  0.4514  0.1692  0.1007
   13TCq1    C5  199   3.945   0.883  10.468 -0.2724  0.1188 -0.2468
   13TCq1    C6  200   4.042   0.935  10.551  0.1069  0.3234  0.2902
   13TCq1    C7  201   4.154   1.003  10.498 -0.5437  0.5240  0.0026
   13TCq1    C8  202   4.013   0.982  10.685  0.1824  0.4770 -0.0324
   13TCq1    O4  203   4.097   1.046  10.739  0.0797  0.6728  0.1748
   13TCq1    C9  204   3.838   0.845  10.258 -0.9855  0.3485 -0.2614
   13TCq1    O5  205   3.870   0.804  10.145  0.1902 -0.1006  0.4773
   13TCq1    O6  206   3.720   0.835  10.310  0.2190  0.0440 -0.3229
   13TCq1    H1  207   4.403   0.979  10.175  0.3317 -1.6995  0.6593
   13TCq1    H2  208   4.075   0.954  10.172 -0.3579 -0.7383 -0.0175
   13TCq1    H3  209   3.865   0.823  10.508 -0.7376  2.1072  1.8203
   13TCq1    H4  210   4.240   1.029  10.558  0.8302 -3.1082 -0.3694
   14MPD2     C  211   3.705   0.958  10.894  0.0601  0.3711 -0.2151
   14MPD2    C1  212   3.836   0.981  10.864  0.4258 -0.2410 -0.2633
   14MPD2    C2  213   3.905   1.051  10.963  0.2162  0.7610 -0.6476
   14MPD2    C3  214   3.852   1.066  11.090 -0.2974  0.6883  0.0385
   14MPD2    C4  215   3.710   1.040  11.108  0.7920  0.1664 -0.0483
   14MPD2    C5  216   3.638   0.991  11.007 -0.2087  0.8874  0.2900
   14MPD2     H  217   4.008   1.080  10.947  0.7109 -0.2689  0.6377
   14MPD2    H1  218   3.664   1.071  11.201 -0.0488 -2.0384  0.2556
   14MPD2    H2  219   3.638   0.925  10.815  0.2013 -1.4308  0.4153
   14MPD2    H3  220   3.530   0.980  11.011  0.1590 -2.7603  0.0233
   14MPD2     N  221   3.928   1.109  11.202  0.3698 -0.0690 -0.0546
   14MPD2    H5  222   3.879   1.116  11.291 -0.4532 -0.5627 -0.4716
   14MPD2    N1  223   3.891   0.942  10.738  0.3849 -0.7589 -0.9387
   14MPD2    H7  224   3.827   0.901  10.670  0.5824 -1.0846 -0.9291
   15TCq1    O1  225   1.766   1.269   1.957 -0.2048 -0.2322  0.0946
   15TCq1    C1  226   1.698   1.165   2.001  0.6821  0.1639 -0.5280
   15TCq1    O2  227   1.590   1.129   1.962 -0.1770  0.1058  0.0546
   15TCq1    C2  228   1.806   1.077   2.047 -0.0579 -0.9792 -0.2490
   15TCq1    C3  229   1.875   1.091   2.165 -0.5509 -0.3448 -0.3028
   15TCq1    C4  230   1.956   0.990   2.205  0.2082  0.0502  0.5112
   15TCq1    C5  231   1.985   0.875   2.133  0.4766 -0.2406 -0.3662
   15TCq1    C6  232   1.905   0.867   2.020  0.4448 -0.0175  0.1899
   15TCq1    C7  233   1.816   0.965   1.979  0.7170  0.0460 -0.4534
   15TCq1    C8  234   1.908   0.742   1.952 -0.1230  0.1724 -0.1157
   15TCq1    O4  235   2.002   0.666   1.973 -0.3945 -0.4144  0.2475
   15TCq1    C9  236   2.033   1.015   2.326 -0.3014  0.3872  0.2170
   15TCq1    O5  237   2.128   0.939   2.352  0.2861 -0.8458  0.4987
   15TCq1    O6  238   1.981   1.102   2.400  0.4416 -0.3158 -0.6133
   15TCq1    H1  239   1.849   1.290   2.005 -0.6469 -1.1863  1.2616
   15TCq1    H2  240   1.887   1.192   2.204 -3.1942 -0.3079  0.4668
   15TCq1    H3  241   2.046   0.795   2.174  0.4211  0.3314  0.8325
   15TCq1    H4  242   1.770   0.954   1.882 -1.4633 -1.2773  0.7238
   16MPD2     C  243   1.643   0.606   1.742 -0.2021  0.0451  0.3554
   16MPD2    C1  244   1.765   0.607   1.805  1.0057  0.9272 -0.4626
   16MPD2    C2  245   1.861   0.506   1.772  0.3198  0.1402 -0.4219
   16MPD2    C3  246   1.836   0.411   1.677 -0.0016  0.2381  0.5302
   16MPD2    C4  247   1.713   0.422   1.614  0.5303  0.5569 -0.7525
   16MPD2    C5  248   1.622   0.521   1.639 -0.2082  0.8766 -0.4222
   16MPD2     H  249   1.963   0.512   1.810  0.9471 -2.1021 -1.7501
   16MPD2    H1  250   1.678   0.351   1.540  1.9181 -0.6086 -0.3061
   16MPD2    H2  251   1.575   0.683   1.776 -0.0553 -0.6477  2.2142
   16MPD2    H3  252   1.528   0.525   1.584 -0.1848 -2.8398 -0.7518
   16MPD2     N  253   1.923   0.303   1.657 -0.0898 -0.0484 -0.0775
   16MPD2    H5  254   2.010   0.304   1.711 -1.0271  1.4262  1.4333
   16MPD2    N1  255   1.792   0.717   1.889  0.1589 -0.2820 -0.1827
   16MPD2    H7  256   1.714   0.779   1.907  0.3492  0.2762 -1.2557
   17TCq1    O1  257   4.245   0.255  11.904  0.1420 -0.3216 -0.0382
   17TCq1    C1  258   4.296   0.344  11.990  0.7755  0.6445  0.1572
   17TCq1    O2  259   4.231   0.399  12.079 -0.3715 -0.2103  0.5108
   17TCq1    C2  260   4.416   0.400  11.937  0.1581 -0.0229  0.1020
   17TCq1    C3  261   4.529   0.328  11.933  0.2157 -0.0738  0.3603
   17TCq1    C4  262   4.642   0.382  11.880  0.2465 -0.0813 -0.2015
   17TCq1    C5  263   4.637   0.509  11.828 -0.3030  0.1850 -0.1946
   17TCq1    C6  264   4.524   0.580  11.851 -0.3696  0.5033  0.6307
   17TCq1    C7  265   4.410   0.530  11.903 -0.2757 -0.2184 -0.5295
   17TCq1    C8  266   4.517   0.718  11.808  0.3520 -0.4777  0.4114
   17TCq1    O4  267   4.418   0.780  11.845 -0.0533  1.0597  0.4230
   17TCq1    C9  268   0.033   0.308  11.885  0.1895 -0.1185 -0.4965
   17TCq1    O5  269   0.138   0.374  11.914  0.5041  0.1008 -0.0342
   17TCq1    O6  270   0.026   0.185  11.918 -0.2375  0.6253  0.1670
   17TCq1    H1  271   4.304   0.243  11.827 -0.0235  0.0067 -0.2141
   17TCq1    H2  272   4.523   0.227  11.973 -2.0186 -0.8976 -2.0871
   17TCq1    H3  273   0.002   0.552  11.787  0.3586  1.3161  2.4700
   17TCq1    H4  274   4.316   0.582  11.922  0.9279  1.5197  0.6764
   18MPD2     C  275   4.650   0.975  11.817  0.2660  0.0925 -0.3697
   18MPD2    C1  276   4.669   0.889  11.714  0.2479 -0.0601 -0.0096
   18MPD2    C2  277   0.012   0.931  11.604  0.0635  0.3560  0.2799
   18MPD2    C3  278   0.040   1.071  11.594 -0.8025  0.6439 -0.7500
   18MPD2    C4  279   0.020   1.155  11.701  0.0624  0.4672 -0.4421
   18MPD2    C5  280   4.691   1.100  11.811 -0.1594 -0.6998 -0.4025
   18MPD2     H  281   0.056   0.861  11.534 -3.3426  0.8579 -2.3417
   18MPD2    H1  282   0.034   1.262  11.695  2.3820  0.2514  1.6160
   18MPD2    H2  283   4.629   0.943  11.918 -0.2156 -0.8385 -0.7726
   18MPD2    H3  284   4.688   1.158  11.902 -0.1836 -0.6166 -0.4568
   18MPD2     N  285   0.108   1.125  11.481  0.0043 -0.9016 -0.0085
   18MPD2    H5  286   0.122   1.225  11.470  2.1376 -1.2329 -0.3090
   18MPD2    N1  287   4.618   0.757  11.723  0.5311 -0.2281 -0.3859
   18MPD2    H7  288   4.665   0.687  11.667 -0.2514 -0.5077 -0.6852
   19TMC2    C1  289   1.350   0.938  14.538 -0.0292  0.1503  0.1564
   19TMC2    C2  290   1.427   1.035  14.500 -0.4599  0.9042 -0.7439
   19TMC2    C3  291   1.435   1.054  14.361 -0.7755 -0.1455 -0.5978
   19TMC2    C4  292   1.267   0.873  14.456 -0.2860 -0.6116  0.3476
   19TMC2    C5  293   1.274   0.889  14.322 -0.4761  0.1208 -0.1072
   19TMC2    C6  294   1.354   0.988  14.275  0.1353 -0.0416  0.4169
   19TMC2     C  295   1.319   0.925  14.686 -0.0306  0.2895 -0.3329
   19TMC2     O  296   1.223   0.858  14.722  0.2171  0.3365 -0.0264
   19TMC2     H  297   1.487   1.099  14.564 -0.4051  0.2941 -0.1808
   19TMC2    H1  298   1.199   0.807  14.507 -1.0446  0.4850  0.7527
   19TMC2    H2  299   1.354   1.022  14.172  0.0169 -2.4264 -0.3605
   19TMC2    C7  300   1.185   0.828  14.223  0.0298  1.2290  0.5211
   19TMC2    C8  301   1.510   1.173  14.322  0.5596  0.0023  0.0686
   19TMC2    O1  302   1.216   0.852  14.106 -0.2464  0.3302  0.2131
   19TMC2    O2  303   1.452   1.264  14.264  0.2779  0.9136 -0.2747
   19TMC2    O5  304   1.616   1.172  14.406  0.5217  0.6780 -0.8302
   19TMC2    H5  305   1.626   1.081  14.443 -2.4357  0.6061 -0.1953
   20MPD2     C  306   1.301   0.938  14.989  0.2686 -0.1517 -0.0901
   20MPD2    C1  307   1.409   0.972  14.913  0.5705 -0.1438 -0.5944
   20MPD2    C2  308   1.527   0.977  14.987  0.5478  0.1184  0.7250
   20MPD2    C3  309   1.526   0.944  15.123  0.1429 -0.5540 -0.1987
   20MPD2    C4  310   1.415   0.906  15.191 -0.3105 -0.1999  0.0524
   20MPD2    C5  311   1.300   0.907  15.121 -0.7912 -0.1783 -0.2113
   20MPD2     H  312   1.617   1.012  14.937 -0.4411  0.2518 -0.9659
   20MPD2    H1  313   1.420   0.862  15.290  2.5647 -4.5251 -2.0342
   20MPD2    H2  314   1.204   0.940  14.941 -0.2828  0.4641  1.0394
   20MPD2    H3  315   1.210   0.863  15.163  0.8342 -1.1395  2.3014
   20MPD2     N  316   1.645   0.938  15.196  0.9172  0.5205 -0.3675
   20MPD2    H5  317   1.632   0.895  15.287  2.1014  3.3027  1.1140
   20MPD2    N1  318   1.420   0.973  14.772 -0.6488 -0.3127 -0.0012
   20MPD2    H7  319   1.510   1.002  14.734 -2.0224  0.3462 -2.7050
   21MPD2     C  320   3.685   1.395  14.090  0.1323  0.4511 -0.4950
   21MPD2    C1  321   3.779   1.359  14.190 -0.6486  0.1278  0.3362
   21MPD2    C2  322   3.747   1.371  14.325  0.7298 -0.2411 -0.0077
   21MPD2    C3  323   3.618   1.406  14.357 -0.2863 -0.8317 -0.0865
   21MPD2    C4  324   3.535   1.466  14.259 -0.3381 -0.4327 -0.4092
   21MPD2    C5  325   3.568   1.454  14.125 -0.2983 -0.1153  0.2117
   21MPD2     H  326   3.825   1.346  14.396 -0.5699  0.2575  1.6131
   21MPD2    H1  327   3.439   1.505  14.289 -0.2487  0.8321 -1.7499
   21MPD2    H2  328   3.709   1.397  13.984 -1.2523  0.4677 -0.8089
   21MPD2    H3  329   3.497   1.480  14.047 -1.4495  0.0369  1.3143
   21MPD2     N  330   3.587   1.428  14.486 -0.0753 -0.2499 -0.4348
   21MPD2    H5  331   3.524   1.497  14.526 -1.5221 -0.4145 -2.4599
   21MPD2    N1  332   3.912   1.322  14.156 -0.0544 -0.0338  0.2011
   21MPD2    H7  333   3.973   1.330  14.237  1.7019 -1.2274 -1.0022
   22TCq2    C1  334   3.641   1.344  14.581  0.7485  1.0602  0.2618
   22TCq2    O2  335   3.703   1.236  14.565 -0.1210 -0.0574  0.2087
   22TCq2    C2  336   3.610   1.386  14.720 -0.4888  0.0536  0.2570
   22TCq2    C3  337   3.600   1.284  14.806  0.5407  0.6251 -0.1624
   22TCq2    C4  338   3.544   1.305  14.924  0.3896 -1.4125  0.4020
   22TCq2    C5  339   3.510   1.431  14.960 -0.0671 -0.2716  0.3956
   22TCq2    C6  340   3.509   1.532  14.866 -0.3602 -0.0388 -0.6486
   22TCq2    C7  341   3.567   1.513  14.746  0.1542  0.9201 -0.0119
   22TCq2    C8  342   3.493   1.675  14.901 -0.3691 -1.0781  0.6653
   22TCq2    O4  343   3.526   1.706  15.017 -0.8256  0.4555 -0.0721
   22TCq2    C9  344   3.549   1.206  15.027  0.2982  1.2799  0.0304
   22TCq2    O5  345   3.526   1.085  14.995  0.6287 -0.3962 -0.6416
   22TCq2    O6  346   3.608   1.246  15.133 -0.5537 -0.3008 -0.1066
   22TCq2    H2  347   3.620   1.181  14.780  1.3314  0.9413 -0.8164
   22TCq2    H3  348   3.480   1.438  15.064  0.2735  0.0293  0.4728
   22TCq2    H4  349   3.586   1.593  14.675  0.4457  1.1693  0.3509
   23MPD2     C  350   0.913   2.174  15.117  0.0371  0.7047  0.0818
   23MPD2    C1  351   0.787   2.225  15.146 -0.0082  0.1260 -0.2864
   23MPD2    C2  352   0.733   2.328  15.062  0.3559  0.4693  0.4013
   23MPD2    C3  353   0.802   2.373  14.951 -0.6604  0.2606  0.4579
   23MPD2    C4  354   0.929   2.316  14.926  0.0133 -0.0849  0.0228
   23MPD2    C5  355   0.988   2.222  15.012  0.0175  0.0510 -0.0193
   23MPD2     H  356   0.632   2.362  15.082 -0.8029 -4.3033  2.6233
   23MPD2    H1  357   0.976   2.352  14.834 -0.6374  2.1897  0.5678
   23MPD2    H2  358   0.964   2.091  15.165  1.6522  0.9597 -1.2079
   23MPD2    H3  359   1.084   2.176  14.990  0.4490  1.0733 -0.2780
   23MPD2     N  360   0.744   2.471  14.863 -0.0171 -0.1958  0.2746
   23MPD2    H5  361   0.782   2.472  14.769  0.3086  1.7262  0.4345
   23MPD2    N1  362   0.707   2.167  15.245 -0.1823 -0.7333 -0.5944
   23MPD2    H7  363   0.609   2.194  15.244  0.2321  0.7695 -0.4095
   24TCq2    C1  364   0.650   2.565  14.899 -0.2348  0.5921  0.4686
   24TCq2    O2  365   0.584   2.579  14.998 -0.1964 -0.2840  0.0634
   24TCq2    C2  366   0.629   2.659  14.789  0.2542  0.0868 -0.6236
   24TCq2    C3  367   0.719   2.676  14.691 -0.0995  0.1903 -1.1348
   24TCq2    C4  368   0.674   2.766  14.600 -0.1508 -0.1349 -0.0162
   24TCq2    C5  369   0.562   2.844  14.604 -0.3223  0.1776 -0.0886
   24TCq2    C6  370   0.480   2.818  14.711  0.0028 -0.9889 -0.0355
   24TCq2    C7  371   0.511   2.734  14.813 -0.1406 -0.4390 -0.4936
   24TCq2    C8  372   0.381   2.921  14.727  0.1835 -0.0493 -0.4724
   24TCq2    O4  373   0.380   2.974  14.836 -0.0420  0.1436  0.3346
   24TCq2    C9  374   0.755   2.785  14.479 -0.0581  0.5000  0.1671
   24TCq2    O5  375   0.854   2.710  14.461 -0.3232  0.2620  0.1472
   24TCq2    O6  376   0.739   2.895  14.418  0.6260 -0.3295  0.2120
   24TCq2    H2  377   0.803   2.619  14.651  0.0554 -0.5907  0.2786
   24TCq2    H3  378   0.537   2.915  14.526 -2.2639 -0.2298  0.1619
   24TCq2    H4  379   0.437   2.711  14.889 -0.4447  0.4880 -0.5164
   25TMC2    C1  380   3.627   0.235  11.665 -1.0664  0.1382  0.4684
   25TMC2    C2  381   3.726   0.304  11.596  0.6341 -0.0748 -0.1086
   25TMC2    C3  382   3.759   0.435  11.627  0.0583  0.3655 -0.2228
   25TMC2    C4  383   3.575   0.300  11.774 -0.3376 -0.4736  0.8460
   25TMC2    C5  384   3.601   0.433  11.794 -0.6727 -0.2136  0.3350
   25TMC2    C6  385   3.676   0.507  11.711 -0.0288 -0.6018 -0.0596
   25TMC2     C  386   3.528   0.168  11.580  0.0459 -0.3895  0.2063
   25TMC2     O  387   3.407   0.195  11.597 -0.3506 -0.5586  0.1444
   25TMC2     H  388   3.766   0.269  11.502 -0.5340  1.5346 -1.1994
   25TMC2    H1  389   3.494   0.250  11.827  0.5640 -0.7068  1.9953
   25TMC2    H2  390   3.691   0.611  11.738  0.5105 -1.0013  1.1750
   25TMC2    C7  391   3.515   0.499  11.892  0.1113  0.3821  0.3158
   25TMC2    C8  392   3.821   0.524  11.531 -0.6553 -0.0922  0.1569
   25TMC2    O1  393   3.491   0.433  11.989 -0.3944  0.1734  0.5854
   25TMC2    O2  394   3.751   0.603  11.467 -0.7207 -0.0812  0.2074
   25TMC2    O5  395   3.944   0.475  11.498  0.3848 -0.1706 -0.5941
   25TMC2    H5  396   3.982   0.407  11.558 -0.0105 -0.1926 -0.3649
   26MPD2     C  397   3.396   4.455  11.366 -0.9651 -0.4185 -0.3767
   26MPD2    C1  398   3.533   4.462  11.352 -0.1331 -0.2131  0.2233
   26MPD2    C2  399   3.587   4.585  11.396  0.1678  0.3790 -0.4781
   26MPD2    C3  400   3.519   4.686  11.453  0.1014  0.1780 -1.0624
   26MPD2    C4  401   3.375   4.668  11.460 -0.7804  0.1830  0.1534
   26MPD2    C5  402   3.319   4.553  11.422  0.1774 -0.8256 -0.0723
   26MPD2     H  403   3.694   4.599  11.386  0.1132 -0.4038 -2.0916
   26MPD2    H1  404   3.304   0.013  11.499 -2.7013 -0.7454 -1.6710
   26MPD2    H2  405   3.352   4.361  11.335 -0.2671 -0.7446 -0.3778
   26MPD2    H3  406   3.212   4.542  11.436 -0.0965 -1.6590 -2.7166
   26MPD2     N  407   3.588   0.071  11.507  0.3492 -1.3661  0.4867
   26MPD2    H5  408   3.690   0.068  11.503  0.4228 -0.9477  1.8093
   26MPD2    N1  409   3.605   4.353  11.299  0.0055  0.3949  0.4743
   26MPD2    H7  410   3.560   4.262  11.304  0.3945  0.3082  2.5789
   27TMC2    C1  411   2.942   2.398  12.226  0.3568 -0.5226 -0.1593
   27TMC2    C2  412   2.862   2.502  12.213 -0.5491 -0.6191  0.3271
   27TMC2    C3  413   2.939   2.607  12.167  0.8946 -0.6389  0.5006
   27TMC2    C4  414   3.081   2.394  12.202  0.4349  0.2709  0.2284
   27TMC2    C5  415   3.150   2.514  12.180  0.3829 -0.2769  0.7016
   27TMC2    C6  416   3.072   2.620  12.159  0.5465  0.2717 -0.3548
   27TMC2     C  417   2.886   2.271  12.276 -0.7138 -0.6231 -0.1490
   27TMC2     O  418   2.955   2.174  12.257 -0.3383 -0.6499 -0.2905
   27TMC2     H  419   2.754   2.494  12.212 -0.6870  1.1977 -0.0434
   27TMC2    H1  420   3.127   2.297  12.221  1.3417  0.7049  0.2801
   27TMC2    H2  421   3.109   2.718  12.132  0.4231  0.1170 -1.0853
   27TMC2    C7  422   3.266   2.526  12.266 -0.5185  0.1303 -0.1806
   27TMC2    C8  423   2.867   2.732  12.155  0.3073  0.5282  0.4041
   27TMC2    O1  424   3.301   2.419  12.312  0.4178 -0.4777  0.1062
   27TMC2    O2  425   2.889   2.808  12.063  0.4578 -0.0154  0.5844
   27TMC2    O5  426   2.750   2.722  12.216 -0.1323 -0.0714  0.2935
   27TMC2    H5  427   2.750   2.662  12.294 -0.0435  0.3234  0.5933
   28MPD2     C  428   2.597   2.006  12.595 -0.2608 -0.1493 -0.2394
   28MPD2    C1  429   2.534   2.127  12.574 -0.9918  0.5850  0.8939
   28MPD2    C2  430   2.593   2.218  12.485  0.5388 -0.7256 -0.2569
   28MPD2    C3  431   2.708   2.181  12.422  0.2388  0.5903 -0.5238
   28MPD2    C4  432   2.762   2.055  12.436 -1.0435  0.1751 -0.1668
   28MPD2    C5  433   2.706   1.971  12.529  0.9307  0.2248 -0.2696
   28MPD2     H  434   2.543   2.313  12.470  3.4536  0.6484 -1.3082
   28MPD2    H1  435   2.852   2.017  12.389  0.2271  1.7516  0.9877
   28MPD2    H2  436   2.553   1.943  12.671 -1.6173 -0.8540 -1.5899
   28MPD2    H3  437   2.749   1.871  12.533  0.6454  0.0041 -2.7942
   28MPD2     N  438   2.768   2.281  12.345  0.2656  0.8531 -0.1280
   28MPD2    H5  439   2.720   2.370  12.334 -0.5287  0.3550 -0.7260
   28MPD2    N1  440   2.412   2.156  12.646  0.2083 -0.7769  0.7048
   28MPD2    H7  441   2.364   2.086  12.702 -1.1156 -1.3652 -1.1753
   29MPD2     C  442   2.242   4.504  14.260 -0.0285 -0.0077  1.0639
   29MPD2    C1  443   2.266   4.469  14.393  0.8578  0.0181 -0.6900
   29MPD2    C2  444   2.270   4.569  14.489 -0.8168 -0.2431 -0.8874
   29MPD2    C3  445   2.242   4.698  14.450  0.7688 -0.1810 -0.1479
   29MPD2    C4  446   2.209   0.004  14.318 -0.7832  0.1422  0.7097
   29MPD2    C5  447   2.214   4.632  14.221  0.0471  0.1181  0.0457
   29MPD2     H  448   2.309   4.549  14.588 -1.0422 -0.7914 -0.9088
   29MPD2    H1  449   2.171   0.099  14.285  2.3056 -0.2553 -4.0273
   29MPD2    H2  450   2.242   4.427  14.184  1.4519 -0.3639  1.4207
   29MPD2    H3  451   2.182   4.658  14.120 -1.6533  0.4916  0.6867
   29MPD2     N  452   2.275   0.079  14.536 -0.0972 -0.8601 -0.2798
   29MPD2    H5  453   2.264   0.175  14.503 -0.1516  0.4848  3.6452
   29MPD2    N1  454   2.302   4.343  14.437  0.8742 -0.7830  0.1803
   29MPD2    H7  455   2.339   4.338  14.531  0.8361 -2.0912  0.1285
   30TCq2    C1  456   2.300   0.066  14.675 -0.4362 -0.1851 -0.2822
   30TCq2    O2  457   2.298   4.695  14.747 -0.3082  0.4517 -0.2750
   30TCq2    C2  458   2.330   0.195  14.732 -0.5603  0.4555  0.8309
   30TCq2    C3  459   2.293   0.213  14.863  0.1424  0.8031  0.1701
   30TCq2    C4  460   2.299   0.337  14.920 -0.3884 -0.0388 -0.1512
   30TCq2    C5  461   2.351   0.446  14.847 -0.1791 -0.1182  0.3734
   30TCq2    C6  462   2.401   0.413  14.721 -0.8328 -0.0872 -0.7258
   30TCq2    C7  463   2.392   0.290  14.659  0.3115  0.0719 -0.4733
   30TCq2    C8  464   2.464   0.526  14.641  0.1016 -0.5085  0.7326
   30TCq2    O4  465   2.480   0.514  14.519  0.1878  0.2296  0.4615
   30TCq2    C9  466   2.263   0.367  15.057 -0.0416 -0.1141 -0.8018
   30TCq2    O5  467   2.251   0.274  15.140 -0.6461  0.4460  0.0447
   30TCq2    O6  468   2.248   0.489  15.084 -0.0586  0.0198  0.7594
   30TCq2    H2  469   2.268   0.127  14.924 -0.0858  1.6256  1.2170
   30TCq2    H3  470   2.344   0.546  14.888  1.3587  0.5314 -0.9478
   30TCq2    H4  471   2.430   0.275  14.558 -0.6084 -0.6916 -0.7087
   31MPD2     C  472   0.217   3.449  15.036 -0.2873 -0.0179  1.1785
   31MPD2    C1  473   0.103   3.527  15.045 -0.3811 -0.1095  0.3852
   31MPD2    C2  474   4.726   3.498  15.131 -0.2231  0.8657  0.0667
   31MPD2    C3  475   0.017   3.378  15.212 -0.7764  0.5645  0.6521
   31MPD2    C4  476   0.129   3.297  15.201  0.1014 -0.1912 -0.2443
   31MPD2    C5  477   0.229   3.335  15.115 -0.6534 -0.1799 -0.6629
   31MPD2     H  478   4.635   3.556  15.140 -0.3581  0.1480  3.5305
   31MPD2    H1  479   0.149   3.207  15.258  2.0543  1.5375  1.8166
   31MPD2    H2  480   0.294   3.464  14.961  0.0471  0.4767  1.6167
   31MPD2    H3  481   0.317   3.271  15.118 -1.2235 -0.8431  1.9861
   31MPD2     N  482   4.642   3.334  15.305  0.3583 -0.4121  0.0211
   31MPD2    H5  483   4.661   3.247  15.354 -0.1580 -1.9572 -2.4646
   31MPD2    N1  484   0.101   3.635  14.950 -0.8873 -0.0042 -0.3826
   31MPD2    H7  485   0.177   3.633  14.883 -0.0211  0.6752  0.5843
   32TCq2    C1  486   4.518   3.385  15.305  0.8650  0.2640  0.1130
   32TCq2    O2  487   4.464   3.471  15.236  0.1792  0.0237  0.0697
   32TCq2    C2  488   4.435   3.312  15.396  0.1219 -0.8275  0.4179
   32TCq2    C3  489   4.305   3.279  15.370 -0.2551 -0.6002  0.2453
   32TCq2    C4  490   4.229   3.224  15.473 -0.0114  0.2197 -0.1236
   32TCq2    C5  491   4.286   3.206  15.593 -0.6603 -0.0172 -0.4541
   32TCq2    C6  492   4.416   3.220  15.612 -0.8741 -0.7368  0.5203
   32TCq2    C7  493   4.496   3.273  15.512  0.2097 -0.1344 -0.1996
   32TCq2    C8  494   4.483   3.171  15.725  0.0710  0.0011 -0.4414
   32TCq2    O4  495   4.599   3.140  15.701 -0.0618 -0.1032  0.0492
   32TCq2    C9  496   4.093   3.177  15.451 -0.5424  0.0854 -0.3554
   32TCq2    O5  497   4.016   3.166  15.549 -0.1588 -0.7375  0.0074
   32TCq2    O6  498   4.057   3.163  15.333 -0.0005  0.7049  0.1697
   32TCq2    H2  499   4.259   3.290  15.272  1.1018  1.6496 -0.1329
   32TCq2    H3  500   4.228   3.159  15.672  0.8943  2.4112  2.1599
   32TCq2    H4  501   4.595   3.304  15.542 -0.0045 -0.4874  0.9099
   33MPD2     C  502   4.466   1.234  10.879 -0.1011 -0.4768  0.1580
   33MPD2    C1  503   4.597   1.259  10.845  0.0823  0.2747  0.2642
   33MPD2    C2  504   4.629   1.287  10.717 -0.7495  0.0760  0.3213
   33MPD2    C3  505   4.546   1.269  10.617  1.1090  0.2268 -0.0828
   33MPD2    C4  506   4.410   1.246  10.645 -0.4544 -0.2965  0.0627
   33MPD2    C5  507   4.373   1.232  10.779  0.3009  0.2633 -0.1758
   33MPD2     H  508   0.005   1.274  10.685 -0.3363 -0.8517  2.0350
   33MPD2    H1  509   4.329   1.228  10.575 -1.1326  0.1991  0.7173
   33MPD2    H2  510   4.441   1.207  10.981 -1.3131 -2.9895 -0.8031
   33MPD2    H3  511   4.270   1.227  10.813  0.5658  0.2319  0.6264
   33MPD2     N  512   4.587   1.266  10.481 -1.0105 -0.3660  0.7134
   33MPD2    H5  513   4.515   1.220  10.426 -0.7178  0.8113 -0.6592
   33MPD2    N1  514   4.697   1.239  10.936 -0.0893 -0.5178 -0.3030
   33MPD2    H7  515   4.678   1.180  11.016  0.5365  0.8423  0.8610
   34TCq2    C1  516   4.700   1.324  10.422 -0.1193  0.0268 -0.0943
   34TCq2    O2  517   0.043   1.417  10.460  0.1925 -0.0550 -0.0394
   34TCq2    C2  518   4.708   1.288  10.282 -0.1406  0.2221 -0.0229
   34TCq2    C3  519   4.673   1.161  10.242  0.2788 -1.0978 -0.1288
   34TCq2    C4  520   4.701   1.123  10.115 -0.2439 -0.3832 -0.7074
   34TCq2    C5  521   0.053   1.203  10.035  0.1756 -0.4874 -0.6085
   34TCq2    C6  522   0.087   1.328  10.075 -1.1655 -0.3025 -0.2143
   34TCq2    C7  523   0.061   1.372  10.198 -0.5829 -0.4079  0.2042
   34TCq2    C8  524   0.183   1.410  10.001  0.9775 -0.1829  0.4938
   34TCq2    O4  525   0.214   1.519  10.054 -0.1345 -0.0210  0.1263
   34TCq2    C9  526   4.647   1.001  10.062  0.7569 -0.2113  0.7617
   34TCq2    O5  527   4.690   0.966   9.950  0.0688 -0.0641 -0.0113
   34TCq2    O6  528   4.555   0.934  10.123  0.3216 -0.0200  0.0499
   34TCq2    H2  529   4.623   1.094  10.311 -0.3188  0.5152  1.0241
   34TCq2    H3  530   0.068   1.175   9.932 -1.0743  0.5371 -1.0690
   34TCq2    H4  531   0.076   1.474  10.232  0.6794 -1.3043  2.3531
   35MPD2     C  532   2.010   2.444  11.974 -0.3740 -0.4772 -0.3453
   35MPD2    C1  533   1.872   2.450  11.969 -0.0022  0.2663 -0.4221
   35MPD2    C2  534   1.815   2.507  11.858  0.3968  0.1183  0.0081
   35MPD2    C3  535   1.895   2.579  11.767  0.1422 -0.5290  0.4019
   35MPD2    C4  536   2.029   2.599  11.791 -0.2894  0.9313  0.4391
   35MPD2    C5  537   2.092   2.517  11.887  0.2616  0.2521 -0.5078
   35MPD2     H  538   1.707   2.507  11.847  0.3832 -1.0641  0.1476
   35MPD2    H1  539   2.098   2.652  11.726 -1.0228  1.7663  0.3414
   35MPD2    H2  540   2.062   2.387  12.050 -0.3903  0.2802  0.2395
   35MPD2    H3  541   2.198   2.534  11.905 -0.0340  3.1206 -1.3288
   35MPD2     N  542   1.831   2.637  11.656 -0.5558  0.4446 -0.1247
   35MPD2    H5  543   1.741   2.601  11.625  0.3815 -1.2707 -0.8697
   35MPD2    N1  544   1.792   2.406  12.083  0.5324 -0.0900 -0.5802
   35MPD2    H7  545   1.844   2.374  12.164  1.2550  1.0773 -0.5888
   36TCq2    C1  546   1.875   2.753  11.588  0.1529  0.2820 -0.2050
   36TCq2    O2  547   1.951   2.838  11.633  0.0037  0.6594 -1.2194
   36TCq2    C2  548   1.832   2.761  11.450 -0.4749 -0.4283  0.3566
   36TCq2    C3  549   1.856   2.882  11.381 -0.2840 -0.0862  0.4584
   36TCq2    C4  550   1.791   2.900  11.265  0.1078  0.1656  0.0218
   36TCq2    C5  551   1.724   2.798  11.200 -0.9917  0.7091  0.0700
   36TCq2    C6  552   1.691   2.685  11.275 -0.8347  0.3045  0.6535
   36TCq2    C7  553   1.752   2.664  11.395  0.0082 -0.7765  0.0807
   36TCq2    C8  554   1.606   2.585  11.216 -0.3350  0.4954  0.0842
   36TCq2    O4  555   1.604   2.581  11.097  0.5000  0.5079  0.5478
   36TCq2    C9  556   1.812   3.029  11.198 -0.1172 -0.4750  0.5397
   36TCq2    O5  557   1.785   3.030  11.073  0.4967 -0.3158  0.1249
   36TCq2    O6  558   1.872   3.113  11.266 -0.1803  1.4441 -0.4817
   36TCq2    H2  559   1.925   2.954  11.424 -1.0382  0.5735  0.5536
   36TCq2    H3  560   1.670   2.824  11.110  0.1950  1.1427 -0.5095
   36TCq2    H4  561   1.749   2.566  11.442  2.6060 -2.0863 -2.4935
   37TMC2    C1  562   3.863   2.444  12.047  0.2280 -0.2190  0.3146
   37TMC2    C2  563   3.737   2.486  12.025 -0.4576 -0.1570 -0.0552
   37TMC2    C3  564   3.711   2.572  11.924 -0.3566  0.0782  0.1517
   37TMC2    C4  565   3.964   2.496  11.969  0.1288 -0.4629 -0.5316
   37TMC2    C5  566   3.926   2.572  11.858 -0.0799  0.0843  0.0883
   37TMC2    C6  567   3.799   2.613  11.829 -0.5067 -0.7057 -0.6066
   37TMC2     C  568   3.897   2.412  12.186  0.0279 -0.0388 -0.2632
   37TMC2     O  569   3.813   2.354  12.251  0.2767  0.7770 -0.3593
   37TMC2     H  570   3.668   2.447  12.098  2.0743 -1.4319  1.6643
   37TMC2    H1  571   4.065   2.458  11.982  0.5307  0.9242  0.3987
   37TMC2    H2  572   3.760   2.663  11.742 -2.2824  0.1317  0.6617
   37TMC2    C7  573   4.028   2.662  11.827  0.4213 -0.3260  0.1895
   37TMC2    C8  574   3.582   2.622  11.921 -0.4433  0.4068  0.4910
   37TMC2    O1  575   4.130   2.654  11.891 -0.4791  0.1315  0.2404
   37TMC2    O2  576   3.529   2.617  11.807  0.5739 -0.3736  0.3169
   37TMC2    O5  577   3.518   2.601  12.036  0.6752  0.2257 -0.5086
   37TMC2    H5  578   3.572   2.639  12.109  0.9157 -0.9792 -0.0621
   38MPD2     C  579   4.241   2.408  12.575  0.4370 -0.5922  0.8886
   38MPD2    C1  580   4.283   2.486  12.467 -0.7744 -0.6261  0.4309
   38MPD2    C2  581   4.214   2.495  12.352  0.2896 -0.9042 -0.2277
   38MPD2    C3  582   4.095   2.427  12.342  0.8219  0.5116  0.3464
   38MPD2    C4  583   4.040   2.362  12.455  0.3246 -0.1739 -0.0396
   38MPD2    C5  584   4.122   2.344  12.565 -0.0949  0.6212  0.0429
   38MPD2     H  585   4.260   2.544  12.267 -0.3384 -0.1809 -0.1447
   38MPD2    H1  586   3.945   2.312  12.441 -0.3676  0.7844  1.2136
   38MPD2    H2  587   4.300   2.394  12.665  1.8022 -2.5978 -0.3512
   38MPD2    H3  588   4.086   2.287  12.650  0.2635  2.2160  1.2544
   38MPD2     N  589   4.023   2.453  12.226 -0.0676  0.0237 -0.4177
   38MPD2    H5  590   4.063   2.515  12.156 -1.2889  0.3699 -0.8146
   38MPD2    N1  591   4.404   2.556  12.465 -0.7754 -0.2432 -0.3486
   38MPD2    H7  592   4.425   2.616  12.386  1.7383 -0.4354  0.1683
   39MPD2     C  593   2.247   4.334   1.880 -0.1827  0.1544  0.0565
   39MPD2    C1  594   2.181   4.438   1.942  0.2854  0.7340  0.2772
   39MPD2    C2  595   2.088   4.516   1.875  0.2315 -0.7685 -0.1273
   39MPD2    C3  596   2.048   4.477   1.749  0.7808  0.8886 -0.6890
   39MPD2    C4  597   2.108   4.369   1.686 -0.1563  0.9810  0.1094
   39MPD2    C5  598   2.201   4.290   1.753 -0.1320  0.6240  0.1671
   39MPD2     H  599   2.039   4.595   1.932 -0.9285 -1.1398 -0.6105
   39MPD2    H1  600   2.055   4.321   1.604  1.6866 -2.4302  0.9320
   39MPD2    H2  601   2.319   4.275   1.936  0.1111  0.6169  0.1645
   39MPD2    H3  602   2.240   4.197   1.712 -0.5729 -0.5401  2.4035
   39MPD2     N  603   1.934   4.536   1.682  0.3739  0.0930 -0.2376
   39MPD2    H5  604   1.937   4.514   1.583 -0.8592  2.0459 -0.7179
   39MPD2    N1  605   2.224   4.457   2.067  0.0359  0.1893  0.2934
   39MPD2    H7  606   2.305   4.406   2.102  0.9389  1.2572 -0.2239
   40TCq2    C1  607   2.195   4.566   2.146  0.2101  0.1597  0.4753
   40TCq2    O2  608   2.120   4.661   2.118  0.0743  0.5251  0.5032
   40TCq2    C2  609   2.302   4.599   2.233 -0.3584 -0.8354  0.8141
   40TCq2    C3  610   2.333   0.005   2.257 -0.1823 -0.3097 -0.0950
   40TCq2    C4  611   2.426   0.032   2.350 -0.0174 -0.6378  0.5927
   40TCq2    C5  612   2.496   4.665   2.416 -0.5264  0.6536  0.1040
   40TCq2    C6  613   2.472   4.532   2.385 -0.2106 -0.2656  0.1914
   40TCq2    C7  614   2.374   4.504   2.301  0.1950 -0.4032  0.2045
   40TCq2    C8  615   2.574   4.433   2.400  0.3914 -0.5271  0.1318
   40TCq2    O4  616   2.545   4.316   2.411 -0.4633 -0.2266 -0.5916
   40TCq2    C9  617   2.458   0.175   2.372  0.3413 -0.1536 -0.5731
   40TCq2    O5  618   2.426   0.260   2.284 -0.9417 -0.0162 -0.8103
   40TCq2    O6  619   2.558   0.191   2.450  0.1957  0.3020 -0.0528
   40TCq2    H2  620   2.286   0.089   2.208 -0.5631  0.6720  1.9185
   40TCq2    H3  621   2.565   4.691   2.495 -1.5685 -0.0847  1.2425
   40TCq2    H4  622   2.354   4.399   2.280  0.3102 -0.4776  0.4674
   41TMC2    C1  623   1.358   2.602  14.532  0.5654  0.2077 -0.5221
   41TMC2    C2  624   1.487   2.560  14.560 -0.2277  0.0057 -0.4889
   41TMC2    C3  625   1.574   2.582  14.456  0.4980 -0.1951 -0.6318
   41TMC2    C4  626   1.319   2.655  14.411  0.3630 -0.5812 -0.2207
   41TMC2    C5  627   1.407   2.670  14.312  0.7729 -0.5828  0.4456
   41TMC2    C6  628   1.533   2.631  14.336 -0.0846 -0.2064 -0.0037
   41TMC2     C  629   1.278   2.606  14.648 -0.1904 -0.5332 -0.1669
   41TMC2     O  630   1.288   2.527  14.736 -0.5565  0.3280  0.3027
   41TMC2     H  631   1.517   2.517  14.655 -2.0880  0.0261  0.1136
   41TMC2    H1  632   1.211   2.648  14.401  0.1588 -0.4812  1.7614
   41TMC2    H2  633   1.591   2.637  14.244 -0.7622 -2.3107 -0.5598
   41TMC2    C7  634   1.358   2.707  14.180 -0.0123  0.1112 -0.2029
   41TMC2    C8  635   1.710   2.534  14.463 -0.3454 -0.6811 -0.5089
   41TMC2    O1  636   1.391   2.636  14.085  0.3026  0.5212  0.5176
   41TMC2    O2  637   1.804   2.600  14.415 -0.5600 -0.0420  0.1646
   41TMC2    O5  638   1.722   2.423  14.545 -0.2321  0.2515  0.0369
   41TMC2    H5  639   1.632   2.388  14.561 -0.8877  2.1754  0.6022
   42MPD2     C  640   1.074   2.672  14.858  0.5323 -0.0761 -0.1099
   42MPD2    C1  641   1.113   2.759  14.762 -0.1606 -0.1051  0.2710
   42MPD2    C2  642   1.072   2.893  14.770  0.9403  0.0973  0.0202
   42MPD2    C3  643   0.980   2.932  14.866  0.9137 -0.3838 -0.2709
   42MPD2    C4  644   0.937   2.842  14.958 -0.2590  0.5598  0.2534
   42MPD2    C5  645   0.992   2.717  14.958 -0.7447 -0.0177  0.2391
   42MPD2     H  646   1.107   2.967  14.699 -1.5365  2.1191  0.9075
   42MPD2    H1  647   0.862   2.876  15.028 -0.9464  2.0413 -1.2051
   42MPD2    H2  648   1.112   2.571  14.867  0.4836 -0.2267 -1.7009
   42MPD2    H3  649   0.966   2.639  15.029 -2.7522 -1.2919 -1.8797
   42MPD2     N  650   0.926   3.065  14.865  0.2569 -0.5879  0.5819
   42MPD2    H5  651   0.854   3.086  14.933  2.2318  1.0618  2.1850
   42MPD2    N1  652   1.204   2.721  14.651  1.0248 -0.0317 -0.7198
   42MPD2    H7  653   1.208   2.788  14.575  2.8752 -0.0591 -0.6306
   43MPD2     C  654   2.418   0.977   1.029  0.2011  1.0004 -0.5007
   43MPD2    C1  655   2.548   0.991   1.083  0.9577  0.4355  0.2010
   43MPD2    C2  656   2.569   1.100   1.160  0.1564 -0.2132 -0.9771
   43MPD2    C3  657   2.470   1.190   1.194 -0.3951  0.3615  0.3150
   43MPD2    C4  658   2.340   1.174   1.151  0.6583  0.4755  0.1057
   43MPD2    C5  659   2.321   1.066   1.064 -0.0706  0.1442 -0.0403
   43MPD2     H  660   2.673   1.118   1.185  0.3587 -0.2123 -1.8313
   43MPD2    H1  661   2.266   1.251   1.170 -0.5409 -0.5635 -0.3973
   43MPD2    H2  662   2.404   0.897   0.957 -1.5153 -0.8981  1.9867
   43MPD2    H3  663   2.225   1.059   1.014  0.5710  0.4656 -1.3464
   43MPD2     N  664   2.469   1.294   1.284  0.9188  0.6939  0.8656
   43MPD2    H5  665   2.383   1.347   1.291 -0.7202 -2.3099  3.5942
   43MPD2    N1  666   2.646   0.899   1.053 -0.0710 -0.9030  0.0452
   43MPD2    H7  667   2.737   0.915   1.097  0.8798  0.6423 -2.4471
   44TCq2    C1  668   2.723   1.756   1.512  0.3630 -0.3264  0.3069
   44TCq2    O2  669   2.842   1.723   1.495  0.3372  0.0680 -0.6156
   44TCq2    C2  670   2.615   1.677   1.453  0.1842 -0.0158 -0.7983
   44TCq2    C3  671   2.484   1.718   1.463 -0.3972 -0.1462 -0.1484
   44TCq2    C4  672   2.384   1.629   1.462 -0.3601 -0.5626 -0.2271
   44TCq2    C5  673   2.408   1.494   1.449  0.0796 -0.7033  0.1292
   44TCq2    C6  674   2.541   1.457   1.441  0.6457 -0.7770 -0.0846
   44TCq2    C7  675   2.639   1.542   1.457  0.0516 -0.3462  0.4788
   44TCq2    C8  676   2.574   1.337   1.361  0.4089 -0.3127  0.3380
   44TCq2    O4  677   2.690   1.298   1.350  0.3344  0.2783 -0.2070
   44TCq2    C9  678   2.250   1.685   1.482 -0.0207 -0.4553  0.1391
   44TCq2    O5  679   2.153   1.607   1.449  0.0575 -0.2770  0.5627
   44TCq2    O6  680   2.248   1.802   1.525 -0.1546 -0.4467  0.2658
   44TCq2    H2  681   2.461   1.822   1.447  0.9879  0.1309 -0.2575
   44TCq2    H3  682   2.325   1.426   1.450  1.4331 -2.3622 -0.6451
   44TCq2    H4  683   2.736   1.495   1.456  0.2496  0.0459  1.6007
   45TMC2    C1  684   3.073   3.071   9.464 -0.3867  1.0163 -0.1653
   45TMC2    C2  685   3.078   3.152   9.356 -0.7240 -0.5674  0.2577
   45TMC2    C3  686   3.197   3.212   9.328 -0.8112  0.1455 -0.2635
   45TMC2    C4  687   3.189   3.053   9.547 -0.1188 -0.2139  0.2623
   45TMC2    C5  688   3.296   3.132   9.519  0.0464  0.3504 -1.3468
   45TMC2    C6  689   3.303   3.204   9.411 -0.2599 -0.4871 -0.1917
   45TMC2     C  690   2.974   2.955   9.458  0.0849  0.7770  0.5403
   45TMC2     O  691   2.991   2.852   9.522 -0.3596 -0.0065  0.4270
   45TMC2     H  692   2.997   3.150   9.284  0.4867  1.4652 -1.1574
   45TMC2    H1  693   3.182   2.997   9.640 -0.4395 -0.3011  0.1872
   45TMC2    H2  694   3.393   3.264   9.409  0.4946 -1.6189 -0.2757
   45TMC2    C7  695   3.381   3.159   9.632  0.6120  0.2919 -0.2582
   45TMC2    C8  696   3.191   3.308   9.217 -0.7489  0.2794  0.0642
   45TMC2    O1  697   3.431   3.271   9.635  0.7160 -0.2070  0.2514
   45TMC2    O2  698   3.084   3.339   9.166  0.0628  0.3195 -0.1381
   45TMC2    O5  699   3.303   3.387   9.220  0.2472  0.0161  0.4873
   45TMC2    H5  700   3.387   3.341   9.243  0.7178  0.0888 -1.0969
   46MPD2     C  701   2.709   2.825   9.451  0.1353  0.0206 -0.1185
   46MPD2    C1  702   2.734   2.962   9.439 -0.2796  0.0467 -0.1886
   46MPD2    C2  703   2.631   3.056   9.432  0.6335  0.2826  0.0288
   46MPD2    C3  704   2.498   3.020   9.425  0.0650  0.2853 -0.1611
   46MPD2    C4  705   2.476   2.888   9.432 -0.4013 -0.3326 -0.4368
   46MPD2    C5  706   2.578   2.791   9.439  0.6459  0.0005 -0.5839
   46MPD2     H  707   2.650   3.162   9.424  0.1097  0.3687 -0.1111
   46MPD2    H1  708   2.374   2.858   9.413 -0.6236 -0.5913  1.1871
   46MPD2    H2  709   2.783   2.748   9.468  0.1836  0.2433  0.6886
   46MPD2    H3  710   2.555   2.685   9.447  0.1804  0.2145  0.8749
   46MPD2     N  711   2.397   3.120   9.422 -0.5414 -0.3270  0.2813
   46MPD2    H5  712   2.430   3.216   9.427  0.8341 -0.7387 -0.9811
   46MPD2    N1  713   2.855   3.014   9.420 -0.5363 -0.0517 -0.1534
   46MPD2    H7  714   2.854   3.115   9.411 -0.7364  0.0685  1.2186
   47TMC2    C1  715   0.663   3.362   9.776 -0.6651  0.3713 -0.0642
   47TMC2    C2  716   0.696   3.409   9.652  0.0741  0.7234 -0.1853
   47TMC2    C3  717   0.606   3.478   9.578  0.2325 -0.1878 -0.6889
   47TMC2    C4  718   0.540   3.383   9.825 -0.0450 -0.2780 -0.3119
   47TMC2    C5  719   0.451   3.441   9.742 -0.3900 -0.4262  0.5187
   47TMC2    C6  720   0.481   3.486   9.616 -0.1659  0.0742 -0.5263
   47TMC2     C  721   0.762   3.317   9.873  0.0861 -0.7430 -0.4125
   47TMC2     O  722   0.745   3.337   9.992  0.1763 -0.9687 -0.4007
   47TMC2     H  723   0.800   3.406   9.622 -0.6676 -2.0768 -2.4415
   47TMC2    H1  724   0.522   3.349   9.926 -0.8650  2.7046  0.5558
   47TMC2    H2  725   0.398   3.530   9.562  1.6544  3.1378 -0.8525
   47TMC2    C7  726   0.320   3.472   9.785 -0.3779 -0.3783 -0.4064
   47TMC2    C8  727   0.633   3.501   9.446 -0.4423 -0.5799  0.0692
   47TMC2    O1  728   0.265   3.560   9.720 -0.4236 -0.6020 -0.6003
   47TMC2    O2  729   0.685   3.425   9.370 -0.7311  0.0390  0.0674
   47TMC2    O5  730   0.583   3.619   9.409 -0.1242  0.6167 -0.2371
   47TMC2    H5  731   0.562   3.681   9.482 -1.1101 -2.2146  1.9218
   48MPD2     C  732   1.011   3.180   9.988  0.0896  0.3336 -0.0016
   48MPD2    C1  733   0.962   3.160   9.860  0.9313 -0.7849  0.3487
   48MPD2    C2  734   1.036   3.079   9.774  0.0464 -0.7730 -0.0352
   48MPD2    C3  735   1.148   3.012   9.818 -0.4930 -1.0006  0.4313
   48MPD2    C4  736   1.191   3.033   9.942  0.1916  0.4513 -0.1658
   48MPD2    C5  737   1.124   3.117  10.028 -0.4606 -0.1434  0.3594
   48MPD2     H  738   1.013   3.054   9.671  2.0628 -1.0272 -0.4186
   48MPD2    H1  739   1.280   2.983   9.980 -0.5095 -1.8107 -1.5339
   48MPD2    H2  740   0.969   3.259  10.048 -0.8891 -0.5591  0.4818
   48MPD2    H3  741   1.173   3.143  10.121 -0.1761  1.0100 -0.1194
   48MPD2     N  742   1.222   2.926   9.732 -0.1890 -0.4629  0.5412
   48MPD2    H5  743   1.176   2.882   9.652  1.1679 -0.9400  0.0313
   48MPD2    N1  744   0.849   3.231   9.808  0.4160  0.4487 -0.0083
   48MPD2    H7  745   0.836   3.217   9.708  1.9518 -1.3318  0.0463
   49MPD2     C  746   4.262   0.781  10.784  0.0391  0.4784  0.3585
   49MPD2    C1  747   4.254   0.656  10.816 -0.0373  0.6960  0.1915
   49MPD2    C2  748   4.282   0.621  10.945 -0.3340 -0.3413 -0.4037
   49MPD2    C3  749   4.341   0.713  11.034 -0.0839  0.2562 -0.0751
   49MPD2    C4  750   4.352   0.847  10.994  0.0236  0.3850 -0.3339
   49MPD2    C5  751   4.305   0.874  10.868 -0.1919  0.3079  0.0523
   49MPD2     H  752   4.263   0.518  10.976  0.1808 -0.7113 -1.3286
   49MPD2    H1  753   4.394   0.927  11.053 -0.2177  1.1712 -1.2228
   49MPD2    H2  754   4.209   0.809  10.693 -1.2474 -3.1129 -0.0034
   49MPD2    H3  755   4.293   0.977  10.839 -3.0779  0.3275  1.2959
   49MPD2     N  756   4.392   0.672  11.158 -0.5336  0.1741  0.4130
   49MPD2    H5  757   4.436   0.745  11.214  0.9115 -1.8435  1.9194
   49MPD2    N1  758   4.202   0.547  10.738 -0.4845  0.2262 -0.4541
   49MPD2    H7  759   4.191   0.456  10.781  0.5676  0.4595  0.2963
   50TCq2    C1  760   4.171   0.552  10.602 -0.2628  0.1790 -0.0513
   50TCq2    O2  761   4.201   0.637  10.519  0.1631 -0.5948 -0.3080
   50TCq2    C2  762   4.107   0.434  10.553  0.5840 -0.4066 -0.3446
   50TCq2    C3  763   4.076   0.440  10.417 -0.2098  0.0796  0.1712
   50TCq2    C4  764   4.019   0.332  10.358 -0.2133  0.6163 -0.0777
   50TCq2    C5  765   3.997   0.222  10.428 -1.4221  0.6196 -0.4506
   50TCq2    C6  766   4.038   0.218  10.560  0.0589  0.3374  0.4418
   50TCq2    C7  767   4.092   0.323  10.625  0.2179 -0.6777  0.5050
   50TCq2    C8  768   4.014   0.094  10.633 -0.0489 -0.5481  0.3207
   50TCq2    O4  769   3.942   0.009  10.580 -0.2675  0.2997 -0.3988
   50TCq2    C9  770   3.989   0.334  10.214  0.2857  0.1366 -0.0927
   50TCq2    O5  771   3.999   0.446  10.159 -0.9791 -0.2770 -0.0499
   50TCq2    O6  772   3.976   0.225  10.150 -0.1475  0.0605 -0.4254
   50TCq2    H2  773   4.080   0.532  10.359 -1.8358 -1.2392 -2.0235
   50TCq2    H3  774   3.952   0.138  10.377  0.5307 -1.5620  1.4105
   50TCq2    H4  775   4.122   0.310  10.729 -0.5942  1.8308  1.0496
   51MPD2     C  776   0.886   3.636   1.886 -0.7153 -0.4539  0.1178
   51MPD2    C1  777   0.746   3.648   1.899 -0.0925  0.1841  0.7544
   51MPD2    C2  778   0.694   3.769   1.954 -0.6150  0.5009  0.8860
   51MPD2    C3  779   0.778   3.857   2.025  0.1817  0.2591 -0.6731
   51MPD2    C4  780   0.910   3.831   2.016  0.3284 -0.3494 -0.0597
   51MPD2    C5  781   0.965   3.721   1.953 -0.0348  0.4252 -1.0397
   51MPD2     H  782   0.586   3.785   1.958 -1.0637 -2.1549 -0.7842
   51MPD2    H1  783   0.972   3.901   2.070 -0.5072  0.6295 -0.3582
   51MPD2    H2  784   0.933   3.540   1.869  0.1005 -0.1312  0.5864
   51MPD2    H3  785   1.071   3.702   1.952 -0.2408 -0.6240 -4.6567
   51MPD2     N  786   0.734   3.965   2.110  0.1924  0.8891  0.0925
   51MPD2    H5  787   0.807   4.022   2.149  0.6407  0.2591  0.1838
   51MPD2    N1  788   0.662   3.542   1.855  0.0570  0.7477 -0.1920
   51MPD2    H7  789   0.562   3.553   1.866  0.4822  1.7296  2.8082
   52TCq2    C1  790   0.602   3.998   2.147  0.7272  0.3745  0.4396
   52TCq2    O2  791   0.500   3.956   2.091 -0.0365 -0.0875  0.3628
   52TCq2    C2  792   0.607   4.096   2.251 -0.4754 -0.6681 -0.3319
   52TCq2    C3  793   0.723   4.125   2.327  0.4430  0.0721 -0.8460
   52TCq2    C4  794   0.721   4.229   2.416 -0.6056 -0.6592 -0.6517
   52TCq2    C5  795   0.600   4.291   2.442  0.1851 -0.1385  0.5026
   52TCq2    C6  796   0.487   4.250   2.368  0.1310 -0.5434 -0.3912
   52TCq2    C7  797   0.488   4.155   2.273 -0.3987  0.0860 -0.2832
   52TCq2    C8  798   0.385   4.350   2.359 -0.3748 -0.1374  0.0749
   52TCq2    O4  799   0.309   4.335   2.261 -0.5884  0.3445 -0.4946
   52TCq2    C9  800   0.835   4.253   2.497 -0.3677 -0.7196  0.3477
   52TCq2    O5  801   0.822   4.332   2.596 -0.1137 -0.1012  0.3400
   52TCq2    O6  802   0.942   4.192   2.472 -0.0817 -0.6680  0.0912
   52TCq2    H2  803   0.808   4.057   2.330  0.4969  0.2467  1.8547
   52TCq2    H3  804   0.597   4.366   2.520  1.0674  0.1818  0.2343
   52TCq2    H4  805   0.401   4.139   2.209 -0.8699  0.7735  0.1929
   53TMC2    C1  806   4.553   3.145  11.823  0.6320 -0.5660  0.7048
   53TMC2    C2  807   4.685   3.116  11.827  0.1882 -0.6244  0.3344
   53TMC2    C3  808   0.025   3.121  11.943 -0.0326  0.3298 -0.2553
   53TMC2    C4  809   4.477   3.174  11.934 -0.1526  0.7713 -0.5077
   53TMC2    C5  810   4.555   3.167  12.052 -0.2699  0.5521  0.7890
   53TMC2    C6  811   4.686   3.139  12.059 -0.8212 -0.3931  0.4961
   53TMC2     C  812   4.480   3.108  11.704  0.6870 -0.6334 -0.2714
   53TMC2     O  813   4.512   3.145  11.593 -0.4362  0.4584  0.1139
   53TMC2     H  814   0.012   3.074  11.743 -1.6574 -0.4069 -0.9514
   53TMC2    H1  815   4.370   3.189  11.935 -0.6803 -2.9443 -0.9572
   53TMC2    H2  816   0.019   3.133  12.149  0.1090 -0.5956 -0.1274
   53TMC2    C7  817   4.475   3.146  12.173  0.3575 -0.1319 -0.4068
   53TMC2    C8  818   0.165   3.085  11.952  0.3422  0.0608  0.9324
   53TMC2    O1  819   4.352   3.142  12.151 -0.1780  0.5172  0.3378
   53TMC2    O2  820   0.200   3.047  12.065  0.3566 -0.0037 -0.0157
   53TMC2    O5  821   0.222   3.175  11.866 -0.0403 -0.0577  1.0842
   53TMC2    H5  822   0.153   3.210  11.806  2.1079 -0.8090 -1.7894
   54MPD2     C  823   4.247   3.029  11.551  0.3275  0.3769 -0.0359
   54MPD2    C1  824   4.272   2.991  11.681 -0.6289 -0.0487  0.0572
   54MPD2    C2  825   4.189   2.895  11.732  0.0989 -0.3053 -0.3941
   54MPD2    C3  826   4.079   2.839  11.666 -0.3294 -0.2406  0.2511
   54MPD2    C4  827   4.048   2.893  11.538 -0.2264  0.1328 -0.0587
   54MPD2    C5  828   4.134   2.979  11.485 -0.4120  0.3941 -0.4017
   54MPD2     H  829   4.201   2.873  11.837  0.0298 -0.4205 -0.4094
   54MPD2    H1  830   3.973   2.850  11.474 -0.5764 -0.3802  0.6924
   54MPD2    H2  831   4.308   3.100  11.496 -0.4207  1.2852  0.3013
   54MPD2    H3  832   4.121   3.003  11.380 -1.0572  0.6342 -0.2638
   54MPD2     N  833   3.997   2.735  11.720  0.5688  0.3431 -0.6197
   54MPD2    H5  834   3.920   2.701  11.664 -1.0303 -0.0531  1.8225
   54MPD2    N1  835   4.375   3.034  11.760  0.3231 -0.2861 -0.1363
   54MPD2    H7  836   4.386   3.000  11.854 -0.4767  0.2427  0.1418
   55MPD2     C  837   0.671   0.974   0.131  0.1772  1.2791  0.5856
   55MPD2    C1  838   0.698   0.878   0.228  0.5358 -0.4324  0.3360
   55MPD2    C2  839   0.611   0.866   0.331  0.2061  0.6311  0.2473
   55MPD2    C3  840   0.500   0.944   0.345 -0.1319  0.4159  0.4746
   55MPD2    C4  841   0.478   1.043   0.255 -0.4088 -0.1843 -0.3304
   55MPD2    C5  842   0.561   1.055   0.150  0.1413  1.0606 -0.8447
   55MPD2     H  843   0.638   0.810   0.420  0.8924 -1.8225 -1.5025
   55MPD2    H1  844   0.402   1.120   0.266 -0.7412 -0.2613 -2.1401
   55MPD2    H2  845   0.729   1.001   0.044 -0.1355 -1.1771 -0.3637
   55MPD2    H3  846   0.545   1.131   0.074  2.0399  1.8989 -0.3964
   55MPD2     N  847   0.427   0.937   0.466 -0.1205 -0.0631  0.8810
   55MPD2    H5  848   0.448   0.860   0.529 -0.3274 -0.3226  0.6326
   55MPD2    N1  849   0.813   0.802   0.208 -0.3838 -0.0116  0.3142
   55MPD2    H7  850   0.872   0.828   0.130  0.9889  0.4996  1.5348
   56TCq2    C1  851   0.851   0.685   0.269 -0.0856  0.4735  0.0856
   56TCq2    O2  852   0.801   0.621   0.358  0.6574  0.0021  0.6392
   56TCq2    C2  853   0.971   0.627   0.207  0.0995 -0.3936  0.6226
   56TCq2    C3  854   1.043   0.696   0.118 -0.9541 -0.6790  0.3017
   56TCq2    C4  855   1.137   0.636   0.044 -0.0992 -0.1608  0.2540
   56TCq2    C5  856   1.171   0.507   0.060  0.3588  0.5231 -0.1707
   56TCq2    C6  857   1.098   0.437   0.149  0.7059 -0.3075  0.2265
   56TCq2    C7  858   1.000   0.497   0.224  0.0200 -0.1282  0.2212
   56TCq2    C8  859   1.126   0.300   0.154  0.3557 -0.5650  0.2436
   56TCq2    O4  860   1.241   0.267   0.122  0.0055 -0.3492  0.4840
   56TCq2    C9  861   1.224   0.715  17.666  0.9073 -0.4082 -0.7347
   56TCq2    O5  862   1.216   0.839  17.689 -0.0429  0.6418  0.3938
   56TCq2    O6  863   1.334   0.664  17.627 -0.4347 -0.1403  0.6409
   56TCq2    H2  864   1.032   0.803   0.099  0.8355 -0.3908  0.9019
   56TCq2    H3  865   1.259   0.462   0.015 -1.3437 -1.2673 -1.6993
   56TCq2    H4  866   0.940   0.437   0.291  1.3755 -0.5101  1.1052
   57TMC2    C1  867   0.075   1.572  13.918 -0.5691 -0.5981  0.2217
   57TMC2    C2  868   0.099   1.637  14.036  0.5196  0.3628  0.8280
   57TMC2    C3  869   0.217   1.612  14.104  0.0581  0.3074 -0.7417
   57TMC2    C4  870   0.160   1.474  13.869 -0.1192 -0.4818 -0.1279
   57TMC2    C5  871   0.265   1.436  13.948  0.2154  0.4991 -0.1729
   57TMC2    C6  872   0.304   1.507  14.055  1.2761  0.5612 -0.2595
   57TMC2     C  873   4.666   1.576  13.872 -0.0360 -1.0160  0.0581
   57TMC2     O  874   4.592   1.659  13.927  0.0821  0.2462 -0.7655
   57TMC2     H  875   0.025   1.700  14.084  1.5504  0.8815  1.7415
   57TMC2    H1  876   0.144   1.419  13.777  1.3765 -2.0207  0.5269
   57TMC2    H2  877   0.371   1.468  14.132  0.6116  1.4855  0.7833
   57TMC2    C7  878   0.351   1.323  13.918 -0.7544  0.2707 -0.3630
   57TMC2    C8  879   0.219   1.658  14.246  0.1897 -0.6653  0.2159
   57TMC2    O1  880   0.443   1.310  13.996  0.2568 -0.3073 -0.7811
   57TMC2    O2  881   0.120   1.707  14.298 -0.0309 -0.7746 -0.0400
   57TMC2    O5  882   0.335   1.731  14.251  0.3341  0.2375 -0.3007
   57TMC2    H5  883   0.409   1.678  14.213 -0.2927 -1.0008  0.2060
   58MPD2     C  884   4.264   1.470  13.572 -0.5758  0.6242  0.3862
   58MPD2    C1  885   4.273   1.499  13.710  0.3149  0.5882 -0.6612
   58MPD2    C2  886   4.400   1.511  13.770 -0.3786  0.4463 -0.9030
   58MPD2    C3  887   4.516   1.485  13.697  0.7779  0.1367 -0.5548
   58MPD2    C4  888   4.504   1.459  13.560  0.5506 -0.3241 -0.1796
   58MPD2    C5  889   4.380   1.456  13.497 -0.6387 -0.0599  0.2986
   58MPD2     H  890   4.412   1.530  13.876  3.4926 -1.9615 -0.9350
   58MPD2    H1  891   4.596   1.446  13.504 -1.1444 -2.6098 -2.4200
   58MPD2    H2  892   4.175   1.474  13.511  0.0716  0.6179 -0.5583
   58MPD2    H3  893   4.373   1.430  13.392  0.1132 -0.0519  0.2447
   58MPD2     N  894   4.647   1.512  13.752 -0.7093 -0.7518  0.4865
   58MPD2    H5  895   0.001   1.468  13.709  0.2896  0.8425  0.7186
   58MPD2    N1  896   4.157   1.517  13.788  0.3151 -0.6632  0.2813
   58MPD2    H7  897   4.173   1.558  13.879  2.1844 -1.9275  0.5304
   59MPD2     C  898   1.821   1.540  13.620  0.0255 -0.2219  0.5223
   59MPD2    C1  899   1.914   1.535  13.519  0.4977  0.4216  0.9061
   59MPD2    C2  900   2.049   1.526  13.545  0.6614 -0.4569  0.1427
   59MPD2    C3  901   2.088   1.522  13.677  0.6188  0.2273  0.4695
   59MPD2    C4  902   1.998   1.527  13.779  0.0053  0.2827  0.4809
   59MPD2    C5  903   1.864   1.537  13.746  0.1598  0.1917  0.2469
   59MPD2     H  904   2.122   1.547  13.467  0.2224 -2.4854 -0.8154
   59MPD2    H1  905   2.029   1.509  13.881  2.6170  0.5365 -0.2779
   59MPD2    H2  906   1.713   1.535  13.606 -0.0344 -0.9381  1.2267
   59MPD2    H3  907   1.791   1.544  13.825 -1.1294 -0.5626 -0.8737
   59MPD2     N  908   2.224   1.496  13.705 -0.2839  0.2159 -0.6590
   59MPD2    H5  909   2.261   1.503  13.800 -1.1389  3.7988 -0.5832
   59MPD2    N1  910   1.874   1.549  13.388 -0.4150 -0.7219  0.3043
   59MPD2    H7  911   1.940   1.559  13.311 -0.9973 -0.4175 -0.1560
   60TCq2    C1  912   1.742   1.546  13.335  0.2961  0.3099  0.5148
   60TCq2    O2  913   1.634   1.543  13.398 -0.5044 -0.2545 -0.1631
   60TCq2    C2  914   1.739   1.565  13.190 -0.3068 -0.9137  0.1563
   60TCq2    C3  915   1.633   1.515  13.125 -0.5601 -0.5120  0.3307
   60TCq2    C4  916   1.608   1.563  13.000  0.8386 -0.0967 -0.6296
   60TCq2    C5  917   1.680   1.660  12.942 -0.0033 -0.1213  0.7160
   60TCq2    C6  918   1.789   1.710  13.012  0.0171 -0.1679 -0.0948
   60TCq2    C7  919   1.828   1.656  13.132  0.6129  0.1090  0.4658
   60TCq2    C8  920   1.888   1.792  12.944 -0.3989  0.3223  0.5858
   60TCq2    O4  921   2.006   1.791  12.982  0.3457  0.4185 -0.2860
   60TCq2    C9  922   1.490   1.499  12.931  0.7732 -0.3514  0.4629
   60TCq2    O5  923   1.466   1.384  12.974  0.0023  0.2921  0.2486
   60TCq2    O6  924   1.473   1.537  12.810  0.7294  0.6255  0.1321
   60TCq2    H2  925   1.572   1.441  13.175  0.5120 -1.0791  0.8030
   60TCq2    H3  926   1.652   1.695  12.843 -1.2025 -1.8294  0.4538
   60TCq2    H4  927   1.915   1.697  13.181  1.1336 -0.9716  0.4398
   61MPD2     C  928   1.716   2.850  15.128  0.3044  0.7369  0.3803
   61MPD2    C1  929   1.627   2.937  15.070  0.1674  0.0998 -0.0254
   61MPD2    C2  930   1.680   3.046  15.002  0.4031  0.0983 -0.2367
   61MPD2    C3  931   1.818   3.077  14.998 -0.3227  0.3415  0.2549
   61MPD2    C4  932   1.901   2.988  15.063  0.1175 -0.1521  0.0691
   61MPD2    C5  933   1.851   2.872  15.114 -0.4736 -0.1370 -0.3988
   61MPD2     H  934   1.606   3.112  14.959 -2.2577 -1.6835  1.5836
   61MPD2    H1  935   2.008   2.988  15.044 -0.1216  1.9169 -1.3245
   61MPD2    H2  936   1.681   2.758  15.174  1.8336 -1.2007 -2.2660
   61MPD2    H3  937   1.926   2.803  15.150  0.4592  1.2953  0.4309
   61MPD2     N  938   1.875   3.187  14.933 -0.1020  0.0988 -0.3074
   61MPD2    H5  939   1.974   3.201  14.948 -0.5743  2.5914  0.5229
   61MPD2    N1  940   1.484   2.948  15.095 -0.1610  0.1940  0.0858
   61MPD2    H7  941   1.437   3.027  15.052 -0.3452 -0.6250 -1.2135
   62TCq2    C1  942   1.407   2.868  15.172 -0.6017 -0.4679  0.4554
   62TCq2    O2  943   1.447   2.784  15.253  0.0115 -0.2552  0.1694
   62TCq2    C2  944   1.259   2.886  15.167  0.7699  0.0980  0.7146
   62TCq2    C3  945   1.186   2.816  15.255 -0.1028 -0.0099 -0.1886
   62TCq2    C4  946   1.073   2.880  15.293 -0.1537  0.4178 -0.7969
   62TCq2    C5  947   1.042   3.011  15.267  0.2758 -0.1565 -0.8120
   62TCq2    C6  948   1.115   3.086  15.182  0.0043 -0.2844 -0.1691
   62TCq2    C7  949   1.223   3.015  15.124  0.2214  0.3904  0.0879
   62TCq2    C8  950   1.101   3.227  15.161 -0.1589  0.0115  1.4534
   62TCq2    O4  951   1.198   3.279  15.098 -0.2460  0.1070 -0.2653
   62TCq2    C9  952   0.994   2.802  15.387  0.0766 -0.2071  0.1178
   62TCq2    O5  953   1.007   2.677  15.382 -0.1423 -0.0665 -0.1105
   62TCq2    O6  954   0.917   2.860  15.469  0.0241  0.2102 -0.5362
   62TCq2    H2  955   1.214   2.716  15.287  0.7775  1.0214  2.2005
   62TCq2    H3  956   0.950   3.057  15.300  1.3094  1.2467  0.1542
   62TCq2    H4  957   1.271   3.046  15.032 -0.5713 -1.2675 -0.9015
   63TMC2    C1  958   1.163   3.457  10.702  0.6199 -0.3498 -0.2804
   63TMC2    C2  959   1.263   3.384  10.649 -0.1720  0.1929  0.3658
   63TMC2    C3  960   1.318   3.436  10.537  0.0162 -0.2907 -0.6041
   63TMC2    C4  961   1.127   3.577  10.650 -0.3210 -0.0640  0.0264
   63TMC2    C5  962   1.181   3.618  10.530  0.1805 -0.1474  0.2144
   63TMC2    C6  963   1.278   3.549  10.469  0.4249 -0.2733 -0.8457
   63TMC2     C  964   1.079   3.396  10.805  0.0341 -0.2158  0.8123
   63TMC2     O  965   1.019   3.474  10.887 -0.1209  0.6870  0.2655
   63TMC2     H  966   1.285   3.284  10.685 -0.5744  0.8386  2.3565
   63TMC2    H1  967   1.046   3.630  10.698 -0.2017  0.3934 -0.2788
   63TMC2    H2  968   1.327   3.586  10.379 -0.2761 -1.3700 -1.6790
   63TMC2    C7  969   1.115   3.732  10.475  0.6925 -0.2233  0.4373
   63TMC2    C8  970   1.433   3.379  10.469 -0.1641 -0.6411  0.0823
   63TMC2    O1  971   1.023   3.776  10.545  0.6315 -0.5035 -0.0518
   63TMC2    O2  972   1.429   3.362  10.346  0.0754 -0.0118  0.1062
   63TMC2    O5  973   1.529   3.443  10.538  0.5781  0.6685 -0.1124
   63TMC2    H5  974   1.498   3.443  10.631  3.1218 -1.1583  0.7198
   64MPD2     C  975   0.939   2.934  11.027 -0.3683 -0.6194  1.0298
   64MPD2    C1  976   0.988   2.915  10.893 -0.4819  1.0087  0.5389
   64MPD2    C2  977   1.033   3.031  10.828  0.4321  0.2671  0.1829
   64MPD2    C3  978   1.022   3.157  10.873 -0.1573 -0.2872  0.2314
   64MPD2    C4  979   0.957   3.175  10.997 -0.1429  0.9160  0.4974
   64MPD2    C5  980   0.932   3.058  11.075 -0.0442 -0.0186 -0.0762
   64MPD2     H  981   1.094   3.009  10.742  0.0320 -0.0540 -0.0144
   64MPD2    H1  982   0.958   3.278  11.031 -2.5820  1.0126  0.2716
   64MPD2    H2  983   0.915   2.848  11.089  2.6710 -1.1765  1.4618
   64MPD2    H3  984   0.896   3.077  11.175  0.5635 -2.6097  0.6407
   64MPD2     N  985   1.059   3.260  10.778 -0.1965  0.4060 -0.1376
   64MPD2    H5  986   1.112   3.229  10.697  0.5151 -0.4725  0.6516
   64MPD2    N1  987   0.995   2.793  10.829 -0.5730 -1.1708  0.0196
   64MPD2    H7  988   1.047   2.790  10.742 -0.4287  1.2019  0.0301
   65MPD2     C  989   2.392   2.302  16.099  0.0637 -0.0483  0.0189
   65MPD2    C1  990   2.347   2.324  15.969 -0.3171  0.0169 -0.9352
   65MPD2    C2  991   2.294   2.217  15.903  0.1017 -0.0203 -0.5527
   65MPD2    C3  992   2.266   2.096  15.968 -0.6718 -0.5973 -0.3075
   65MPD2    C4  993   2.316   2.075  16.098  0.0046  0.5394  0.0642
   65MPD2    C5  994   2.376   2.178  16.162  0.2179 -0.2861  0.0178
   65MPD2     H  995   2.272   2.225  15.797  1.9435 -1.8231 -1.0744
   65MPD2    H1  996   2.301   1.981  16.150 -0.8467  0.5697 -0.1381
   65MPD2    H2  997   2.436   2.387  16.152  1.1178 -0.7690  0.2940
   65MPD2    H3  998   2.418   2.156  16.259 -0.4896  0.0191  0.3931
   65MPD2     N  999   2.216   1.983  15.902 -0.0654  0.5237 -0.3053
   65MPD2    H5 1000   2.204   1.902  15.962  0.1283 -0.9526 -2.2589
   65MPD2    N1 1001   2.366   2.450  15.912 -0.1177  0.0924 -0.1205
   65MPD2    H7 1002   2.338   2.459  15.815 -1.3885 -1.4002  0.0930
   66TCq2    C1 1003   2.394   2.570  15.972  0.0488 -0.7605  0.4722
   66TCq2    O2 1004   2.363   2.606  16.086 -0.0776 -0.2236 -0.0087
   66TCq2    C2 1005   2.405   2.676  15.876  1.0434  0.2262 -0.2373
   66TCq2    C3 1006   2.458   2.643  15.754 -0.0733 -0.2649 -0.7507
   66TCq2    C4 1007   2.475   2.738  15.660  0.0055 -0.3820  0.4539
   66TCq2    C5 1008   2.453   2.872  15.689  0.0243  0.5471 -0.1212
   66TCq2    C6 1009   2.399   2.901  15.818 -0.2269 -0.0733  1.0165
   66TCq2    C7 1010   2.382   2.804  15.913 -0.1113 -0.7351 -0.2720
   66TCq2    C8 1011   2.392   3.043  15.851  0.5533  0.0989 -0.2181
   66TCq2    O4 1012   2.453   3.119  15.774 -0.2401  0.6741 -0.2463
   66TCq2    C9 1013   2.513   2.697  15.534  0.4791 -0.4042 -0.4661
   66TCq2    O5 1014   2.529   2.574  15.516  0.1058 -0.3568  0.2312
   66TCq2    O6 1015   2.553   2.781  15.452 -0.1714 -0.8911 -0.1223
   66TCq2    H2 1016   2.481   2.540  15.731 -0.6242 -0.2175 -1.5326
   66TCq2    H3 1017   2.458   2.943  15.608  1.0668  0.9927  0.3398
   66TCq2    H4 1018   2.350   2.827  16.014  0.4821  0.1667 -0.2915
   67MPD2     C 1019   2.373   1.943  14.219  0.2909  0.0003 -0.3975
   67MPD2    C1 1020   2.323   1.901  14.341  0.6507 -0.7836 -0.3889
   67MPD2    C2 1021   2.199   1.845  14.350  0.3898  0.0510 -0.0997
   67MPD2    C3 1022   2.111   1.840  14.246 -0.7227 -0.0070 -0.4221
   67MPD2    C4 1023   2.155   1.896  14.126 -0.1177 -0.3335  0.4308
   67MPD2    C5 1024   2.286   1.939  14.114 -0.1828 -0.0859 -0.8408
   67MPD2     H 1025   2.177   1.804  14.448  2.8496 -1.0039  0.0266
   67MPD2    H1 1026   2.097   1.892  14.035  1.5333  0.7394 -0.6755
   67MPD2    H2 1027   2.472   1.986  14.211 -0.1224  0.7714 -1.3668
   67MPD2    H3 1028   2.318   1.976  14.018 -1.2880  1.3421 -0.6624
   67MPD2     N 1029   1.985   1.778  14.244  0.3434 -0.1328  0.1279
   67MPD2    H5 1030   1.939   1.788  14.154  0.8788  0.0067 -0.1333
   67MPD2    N1 1031   2.395   1.937  14.462 -0.0299 -0.1980  0.4813
   67MPD2    H7 1032   2.348   1.922  14.551 -0.6788  2.2989  0.5406
   68TCq2    C1 1033   2.528   1.982  14.474  0.4609 -0.0430  0.3076
   68TCq2    O2 1034   2.620   1.971  14.395  0.3022  0.3644  0.1901
   68TCq2    C2 1035   2.547   2.043  14.601  0.0203  0.4756 -0.0572
   68TCq2    C3 1036   2.451   2.124  14.655  0.1414 -0.0521 -0.4489
   68TCq2    C4 1037   2.493   2.189  14.767 -0.7341  0.5184 -0.6239
   68TCq2    C5 1038   2.617   2.175  14.830  0.2684  0.6825  0.0222
   68TCq2    C6 1039   2.703   2.086  14.777  0.0243 -0.3959  0.6539
   68TCq2    C7 1040   2.670   2.021  14.660  0.2514  0.6461  0.1182
   68TCq2    C8 1041   2.821   2.039  14.852 -0.9314  0.3870 -0.2018
   68TCq2    O4 1042   2.931   2.010  14.804  0.1223 -0.1809 -0.2391
   68TCq2    C9 1043   2.407   2.288  14.826 -0.2204 -0.5576  0.6718
   68TCq2    O5 1044   2.303   2.322  14.763  0.2814  0.3681  0.1804
   68TCq2    O6 1045   2.424   2.317  14.947 -0.8652 -0.3473 -0.6485
   68TCq2    H2 1046   2.355   2.137  14.607 -0.1727 -1.1319 -0.1168
   68TCq2    H3 1047   2.626   2.253  14.905 -1.0865  0.6347  0.2400
   68TCq2    H4 1048   2.744   1.960  14.609  1.8363  1.2164  1.6980
   69TMC2    C1 1049   4.444   3.353  12.748  0.1779  0.6458  0.1467
   69TMC2    C2 1050   4.325   3.310  12.708 -0.3168  0.1031 -0.1964
   69TMC2    C3 1051   4.291   3.308  12.572 -0.3160 -0.5778 -0.1009
   69TMC2    C4 1052   4.518   3.427  12.663  0.0032  0.0263 -0.3091
   69TMC2    C5 1053   4.487   3.425  12.527 -0.6332  0.4356  0.5673
   69TMC2    C6 1054   4.378   3.356  12.471  0.4750 -0.3802 -0.0040
   69TMC2     C 1055   4.514   3.260  12.829 -0.1301 -0.2312 -0.5087
   69TMC2     O 1056   4.449   3.174  12.887 -0.4204 -0.4037 -0.0043
   69TMC2     H 1057   4.249   3.277  12.778  1.9979 -0.3038  2.1160
   69TMC2    H1 1058   4.616   3.467  12.688  0.0534 -0.6142  0.5330
   69TMC2    H2 1059   4.364   3.336  12.365  2.3595  1.3551 -0.5670
   69TMC2    C7 1060   4.607   3.422  12.442  0.5212 -0.0887  0.2511
   69TMC2    C8 1061   4.172   3.229  12.545  0.2571  0.3974  0.7832
   69TMC2    O1 1062   4.714   3.408  12.499  0.2928 -0.0514 -0.1651
   69TMC2    O2 1063   4.104   3.159  12.620 -0.2480 -0.1780 -0.5090
   69TMC2    O5 1064   4.140   3.242  12.413 -0.6786  0.6050  0.8208
   69TMC2    H5 1065   4.187   3.304  12.353 -0.5361 -1.9473 -1.7122
   70MPD2     C 1066   0.139   3.190  12.758  0.5982 -0.0176  0.4419
   70MPD2    C1 1067   0.015   3.157  12.805  0.4182 -0.1979 -0.7374
   70MPD2    C2 1068   4.724   3.032  12.869 -0.2786  0.3526 -0.0027
   70MPD2    C3 1069   0.097   2.938  12.870  0.3731  0.1497  0.0084
   70MPD2    C4 1070   0.220   2.974  12.819  0.1111 -0.4775  0.7129
   70MPD2    C5 1071   0.242   3.102  12.768  0.2616  0.0160  0.5088
   70MPD2     H 1072   4.627   3.000  12.907 -0.4579  0.0551 -0.7094
   70MPD2    H1 1073   0.291   2.892  12.810  0.5766 -0.0111  0.1309
   70MPD2    H2 1074   0.161   3.288  12.717 -0.2842  0.7316  1.7806
   70MPD2    H3 1075   0.337   3.125  12.723  0.0083  1.4441  0.6858
   70MPD2     N 1076   0.075   2.809  12.925  0.1731  0.1685  0.5615
   70MPD2    H5 1077   0.156   2.749  12.932  0.6851  0.6730 -1.0488
   70MPD2    N1 1078   4.644   3.255  12.783 -0.2570  0.1965  0.4908
   70MPD2    H7 1079   4.673   3.330  12.721 -0.2783 -0.8477 -0.7923
   71TMC2    C1 1080   1.431   4.329   2.176 -0.2522 -0.5386 -0.5144
   71TMC2    C2 1081   1.538   4.390   2.231  0.1388  0.0475  0.4763
   71TMC2    C3 1082   1.512   4.497   2.308  0.0144 -0.9969 -0.3806
   71TMC2    C4 1083   1.299   4.362   2.205 -0.6920 -0.2251  0.1357
   71TMC2    C5 1084   1.279   4.464   2.294 -0.1750  0.4740 -0.7734
   71TMC2    C6 1085   1.383   4.530   2.349  0.1511 -0.1310 -0.0524
   71TMC2     C 1086   1.454   4.247   2.068 -0.1342  0.2309 -0.4565
   71TMC2     O 1087   1.552   4.262   1.997  0.3474  0.1635 -0.0081
   71TMC2     H 1088   1.639   4.360   2.206 -0.7419  0.1715 -3.2905
   71TMC2    H1 1089   1.222   4.295   2.170 -0.6754 -0.0464 -0.2416
   71TMC2    H2 1090   1.371   4.607   2.425 -1.1658 -1.8996  1.5470
   71TMC2    C7 1091   1.153   4.505   2.343 -1.0339 -0.2414  0.0251
   71TMC2    C8 1092   1.620   4.565   2.379 -0.0374  0.3868  0.1677
   71TMC2    O1 1093   1.145   4.570   2.445  0.2506  0.0804  0.0741
   71TMC2    O2 1094   1.619   4.579   2.502 -0.5584 -0.5954  0.0568
   71TMC2    O5 1095   1.731   4.530   2.311  0.1685 -0.1451 -0.8157
   71TMC2    H5 1096   1.725   4.523   2.213  1.3168 -0.3030 -0.8824
   72MPD2     C 1097   1.411   3.795   1.858  0.4650 -0.3588  0.7402
   72MPD2    C1 1098   1.473   3.909   1.812  0.4520  0.0926 -0.2144
   72MPD2    C2 1099   1.465   4.025   1.885 -0.4405 -0.5073 -0.2868
   72MPD2    C3 1100   1.392   4.025   2.002 -0.0482  0.3537  0.9159
   72MPD2    C4 1101   1.341   3.907   2.045 -0.3140 -0.5546 -0.2412
   72MPD2    C5 1102   1.352   3.793   1.976 -0.2282  0.6107  0.4451
   72MPD2     H 1103   1.507   4.117   1.845  0.6485 -0.6732  0.4897
   72MPD2    H1 1104   1.283   3.900   2.137  0.7692  1.0869  0.5720
   72MPD2    H2 1105   1.413   3.699   1.808  0.3908  0.0272 -0.0031
   72MPD2    H3 1106   1.292   3.704   1.993 -2.2278  1.7521 -0.5508
   72MPD2     N 1107   1.382   4.134   2.087  0.2114 -0.2719  0.3533
   72MPD2    H5 1108   1.334   4.123   2.176 -0.5664 -1.3331 -0.1879
   72MPD2    N1 1109   1.551   3.913   1.690 -0.2090  0.1526  0.4234
   72MPD2    H7 1110   1.624   3.983   1.695  0.7331 -0.7780 -0.6773
   73TMC2    C1 1111   1.247   0.453  13.994  0.1147  0.5556  1.0773
   73TMC2    C2 1112   1.158   0.436  14.094  0.4997  0.1356 -0.0795
   73TMC2    C3 1113   1.198   0.421  14.226  0.0467 -0.6694 -0.2464
   73TMC2    C4 1114   1.379   0.457  14.029  0.4065  0.7502  0.3547
   73TMC2    C5 1115   1.412   0.463  14.160  0.5564 -0.2954  0.8616
   73TMC2    C6 1116   1.327   0.448  14.260  0.1825 -0.4348 -0.0637
   73TMC2     C 1117   1.230   0.556  13.893  0.1598 -0.2320 -0.0158
   73TMC2     O 1118   1.326   0.631  13.867 -0.5127 -0.1497 -0.0993
   73TMC2     H 1119   1.053   0.422  14.071 -0.1274 -0.1967  3.0428
   73TMC2    H1 1120   1.455   0.462  13.951 -0.5178  0.0194 -0.5870
   73TMC2    H2 1121   1.363   0.441  14.362  0.3497 -0.5320 -0.1307
   73TMC2    C7 1122   1.531   0.553  14.191 -0.3813 -0.0869 -0.5335
   73TMC2    C8 1123   1.121   0.314  14.288 -0.2274 -0.7176 -0.4334
   73TMC2    O1 1124   1.595   0.545  14.295 -0.3579  0.5787  0.2674
   73TMC2    O2 1125   1.021   0.275  14.233 -0.6391  0.0482  0.0029
   73TMC2    O5 1126   1.215   0.236  14.328 -0.1483 -0.5772  0.1643
   73TMC2    H5 1127   1.275   0.265  14.400 -2.1850 -0.1989  1.7124
   74MPD2     C 1128   0.940   0.868  13.600  0.8500  0.5384  0.0936
   74MPD2    C1 1129   1.061   0.893  13.655 -0.2709  0.3020 -0.4619
   74MPD2    C2 1130   1.114   0.785  13.731  0.3424 -0.3428 -0.2787
   74MPD2    C3 1131   1.048   0.666  13.758  0.1221 -0.0809 -0.0627
   74MPD2    C4 1132   0.928   0.640  13.694  0.2063 -0.1157  0.0909
   74MPD2    C5 1133   0.877   0.747  13.618  0.6029  1.0647  0.4223
   74MPD2     H 1134   1.216   0.802  13.766  0.1059 -1.6352  1.0195
   74MPD2    H1 1135   0.880   0.547  13.718 -1.0986  0.5980  0.2261
   74MPD2    H2 1136   0.888   0.950  13.551  1.1688  0.1374 -0.9217
   74MPD2    H3 1137   0.778   0.723  13.581  0.4077  1.4706  0.6875
   74MPD2     N 1138   1.103   0.561  13.839  0.0793 -0.0706 -0.5129
   74MPD2    H5 1139   1.038   0.485  13.857  2.1871 -1.9153 -0.6999
   74MPD2    N1 1140   1.133   1.012  13.630  0.4846 -0.4373  0.3948
   74MPD2    H7 1141   1.101   1.071  13.554  1.4966  0.7292  0.8621
   75TCq2    C1 1142   1.920   1.713  14.343 -0.2864  0.1810  0.0633
   75TCq2    O2 1143   1.948   1.712  14.460 -0.4192 -0.3037 -0.1770
   75TCq2    C2 1144   1.800   1.639  14.310  0.4223 -0.4316  0.7948
   75TCq2    C3 1145   1.727   1.586  14.412 -0.1616 -0.1511 -0.0584
   75TCq2    C4 1146   1.598   1.554  14.393 -0.2772  0.4466  0.1001
   75TCq2    C5 1147   1.545   1.557  14.269 -0.5913  0.0197 -0.6501
   75TCq2    C6 1148   1.622   1.601  14.163 -0.4582  0.2877  1.0559
   75TCq2    C7 1149   1.751   1.644  14.178  0.6468  0.8543 -0.3212
   75TCq2    C8 1150   1.572   1.597  14.027 -0.0134 -1.0198 -0.5962
   75TCq2    O4 1151   1.640   1.655  13.942 -0.1818 -0.0964  0.2633
   75TCq2    C9 1152   1.512   1.541  14.507  0.2831  0.0394  0.3061
   75TCq2    O5 1153   1.570   1.546  14.621  0.3283  0.0183  0.1532
   75TCq2    O6 1154   1.388   1.570  14.494 -0.2568  0.1448 -0.2063
   75TCq2    H2 1155   1.767   1.586  14.513  2.6279  0.5378 -1.1604
   75TCq2    H3 1156   1.439   1.533  14.268 -0.0300 -2.4398 -1.1725
   75TCq2    H4 1157   1.815   1.661  14.092  0.3756 -0.4310 -0.7822
   76MPD2     C 1158   1.010   3.038  12.447  0.4135 -0.0590  0.2783
   76MPD2    C1 1159   0.947   2.940  12.377  0.1239 -0.4698  0.3312
   76MPD2    C2 1160   0.995   2.807  12.395 -0.3257  0.1082  0.4836
   76MPD2    C3 1161   1.103   2.780  12.475 -0.4981  0.6890  0.0245
   76MPD2    C4 1162   1.163   2.884  12.539 -0.0206  0.5911 -0.5589
   76MPD2    C5 1163   1.119   3.015  12.521  0.2533  0.1248  0.5589
   76MPD2     H 1164   0.946   2.725  12.343 -0.4556 -0.5033  1.5779
   76MPD2    H1 1165   1.248   2.859  12.601 -0.9584  1.6160  1.1311
   76MPD2    H2 1166   0.967   3.137  12.436  1.9344  0.4822 -0.8197
   76MPD2    H3 1167   1.162   3.095  12.580  2.8508 -2.2472  1.8753
   76MPD2     N 1168   1.159   2.651  12.492 -0.0779  0.1560 -0.1278
   76MPD2    H5 1169   1.215   2.645  12.576 -0.6401  5.0816  0.5968
   76MPD2    N1 1170   0.833   2.961  12.306  0.4404  0.2619  0.0005
   76MPD2    H7 1171   0.782   2.881  12.269  0.5674  0.2256 -0.0960
   77TCq2    C1 1172   1.127   2.543  12.411 -0.3166  0.0060 -0.6513
   77TCq2    O2 1173   1.086   2.553  12.295  0.3715  0.5033 -0.2965
   77TCq2    C2 1174   1.185   2.412  12.449  0.3405  0.1992  0.7399
   77TCq2    C3 1175   1.227   2.327  12.347 -0.0802 -0.5892  0.1096
   77TCq2    C4 1176   1.314   2.222  12.373  0.6116  0.3086 -0.3609
   77TCq2    C5 1177   1.365   2.195  12.498  0.3802 -0.0133 -0.2628
   77TCq2    C6 1178   1.315   2.274  12.601 -0.6210 -0.5702  0.8411
   77TCq2    C7 1179   1.229   2.386  12.580 -0.3964  0.2962 -0.1431
   77TCq2    C8 1180   1.345   2.237  12.735  0.2193  0.0956 -0.2669
   77TCq2    O4 1181   1.366   2.115  12.749 -0.1334  0.4150 -0.4718
   77TCq2    C9 1182   1.352   2.141  12.262 -0.5288  0.3067 -0.0906
   77TCq2    O5 1183   1.293   2.161  12.152  0.3707 -0.7308 -0.3577
   77TCq2    O6 1184   1.454   2.070  12.279  0.0293 -0.4023  0.2702
   77TCq2    H2 1185   1.194   2.341  12.244  0.2998  0.8628  0.1895
   77TCq2    H3 1186   1.423   2.106  12.521 -2.3163 -2.1940 -1.9535
   77TCq2    H4 1187   1.191   2.456  12.653 -2.4295  0.5310 -1.4104
   78MPD1     C 1188   0.902   2.111   1.779  0.1576  0.3160  0.5670
   78MPD1    C1 1189   0.861   2.219   1.855 -0.1685  0.5570  0.0053
   78MPD1    C2 1190   0.727   2.228   1.883  0.7097  0.7072  0.0578
   78MPD1    C3 1191   0.630   2.153   1.822  0.4959  1.0782 -0.2427
   78MPD1    C4 1192   0.676   2.041   1.755  0.0938  0.3487 -0.0849
   78MPD1    C5 1193   0.809   2.024   1.727  0.3417  0.4933  0.9598
   78MPD1     H 1194   0.700   2.306   1.953  1.5597  0.6622  0.4293
   78MPD1    H1 1195   0.611   1.968   1.710 -0.5501  0.8056  0.1141
   78MPD1    H2 1196   1.007   2.085   1.778 -0.5864 -2.6729 -0.6060
   78MPD1    H3 1197   0.838   1.927   1.687 -1.0200  0.6886 -0.5245
   78MPD1     N 1198   0.492   2.178   1.850 -0.6290 -0.0100  1.0035
   78MPD1    H5 1199   0.430   2.116   1.799  1.3090 -1.2399  0.1239
   78MPD1    N1 1200   0.959   2.290   1.922  0.3766  0.3148 -0.1112
   78MPD1    H6 1201   0.941   2.377   1.972  1.2386  1.0144 -1.0210
   78MPD1    H7 1202   1.052   2.279   1.880  0.5274  0.4103  0.1988
   79TCq2    C1 1203   0.427   2.281   1.914  0.0103  0.1665  0.9745
   79TCq2    O2 1204   0.474   2.376   1.971 -0.1234 -0.0104  0.2747
   79TCq2    C2 1205   0.286   2.248   1.937  0.0610  0.6544 -0.7466
   79TCq2    C3 1206   0.253   2.115   1.937  0.0547 -0.4331 -0.8627
   79TCq2    C4 1207   0.122   2.071   1.962  0.8751  0.2259 -1.0242
   79TCq2    C5 1208   0.023   2.165   1.988 -0.2832 -0.7062  0.8394
   79TCq2    C6 1209   0.073   2.297   1.998 -0.7718  0.3257 -0.8263
   79TCq2    C7 1210   0.198   2.346   1.961  0.4769 -0.3340 -0.3586
   79TCq2    C8 1211   4.700   2.401   2.038 -0.2941  0.1414 -0.3836
   79TCq2    O4 1212   4.695   2.511   1.994 -0.6140 -0.4029 -0.1069
   79TCq2    C9 1213   0.084   1.927   1.952 -0.4910  0.7704 -0.7947
   79TCq2    O5 1214   4.702   1.885   2.009  0.6075  0.7440 -0.5703
   79TCq2    O6 1215   0.160   1.849   1.883  0.7874 -0.6240  0.6180
   79TCq2    H2 1216   0.320   2.033   1.915  0.1468 -0.9268  1.2769
   79TCq2    H3 1217   4.649   2.133   2.012 -0.9178  0.3813 -0.3192
   79TCq2    H4 1218   0.226   2.451   1.961 -0.2099 -0.1478 -0.9080
   80MPD2     C 1219   0.096   2.790  11.692  0.3654  0.0601  0.1693
   80MPD2    C1 1220   4.696   2.780  11.738  0.0380  0.0670 -0.4988
   80MPD2    C2 1221   4.681   2.777  11.876  0.2415 -0.4088  0.6161
   80MPD2    C3 1222   0.065   2.768  11.963 -0.0134  0.2578 -0.1955
   80MPD2    C4 1223   0.189   2.784  11.909  0.0558 -0.2856  0.5132
   80MPD2    C5 1224   0.202   2.791  11.778 -0.2536  0.7431 -0.4236
   80MPD2     H 1225   4.581   2.766  11.917  1.0615  1.0983  2.9980
   80MPD2    H1 1226   0.279   2.803  11.966 -0.2297 -0.3456  0.9825
   80MPD2    H2 1227   0.117   2.800  11.587 -1.1689  0.3635 -0.1077
   80MPD2    H3 1228   0.304   2.812  11.748 -0.2769 -0.5454 -1.3706
   80MPD2     N 1229   0.066   2.768  12.106 -0.3267  0.2396 -0.4325
   80MPD2    H5 1230   0.156   2.786  12.149  0.0498 -0.3807 -0.9622
   80MPD2    N1 1231   4.585   2.767  11.654 -1.1530  0.2959  0.7005
   80MPD2    H7 1232   4.494   2.744  11.692 -1.3397 -1.5781 -0.8578
   81TCq2    C1 1233   4.586   2.787  11.521  0.2645  0.6772  0.5691
   81TCq2    O2 1234   4.669   2.841  11.448 -0.0632  0.2537 -0.4746
   81TCq2    C2 1235   4.459   2.747  11.457 -0.9478 -0.5608  0.3017
   81TCq2    C3 1236   4.437   2.802  11.339 -0.8099  0.1669 -0.2195
   81TCq2    C4 1237   4.324   2.776  11.273  0.3680 -0.2644  0.6240
   81TCq2    C5 1238   4.237   2.687  11.321  0.3383 -0.0480 -0.8478
   81TCq2    C6 1239   4.268   2.614  11.434 -0.1643 -0.2556 -0.5409
   81TCq2    C7 1240   4.387   2.642  11.503  0.5091 -0.1320 -0.3390
   81TCq2    C8 1241   4.181   2.506  11.479  0.4542 -0.4652 -0.2088
   81TCq2    O4 1242   4.079   2.496  11.416  0.1605  0.5595 -0.5539
   81TCq2    C9 1243   4.294   2.848  11.151 -0.1198 -0.0223 -0.4735
   81TCq2    O5 1244   4.363   2.949  11.123  0.4441 -0.4453 -0.4598
   81TCq2    O6 1245   4.199   2.802  11.088 -0.2201 -0.3758 -0.1049
   81TCq2    H2 1246   4.491   2.893  11.317 -0.1101 -0.3413 -0.5988
   81TCq2    H3 1247   4.140   2.673  11.273 -0.2896 -3.3258  1.3291
   81TCq2    H4 1248   4.423   2.587  11.589 -1.0413 -0.5570  0.0505
   82MPD2     C 1249   2.929   2.226  10.976  0.0369  0.4363 -0.0032
   82MPD2    C1 1250   2.843   2.125  10.994 -0.3599  0.3882 -0.1266
   82MPD2    C2 1251   2.893   2.012  11.043  0.0368  0.5752  0.2142
   82MPD2    C3 1252   3.026   1.993  11.081  0.6945 -0.0450  1.0465
   82MPD2    C4 1253   3.108   2.101  11.071  0.1581  0.0633  0.4628
   82MPD2    C5 1254   3.060   2.213  11.013  0.0176  0.3260 -0.6321
   82MPD2     H 1255   2.825   1.933  11.075  0.2658 -0.3363 -1.5418
   82MPD2    H1 1256   3.208   2.107  11.114 -0.3615  3.0272  1.1992
   82MPD2    H2 1257   2.893   2.319  10.932 -0.6477 -0.0612 -0.4883
   82MPD2    H3 1258   3.124   2.301  11.012  0.2516  0.1718  0.3377
   82MPD2     N 1259   3.082   1.874  11.131 -0.3336  0.1686  0.1882
   82MPD2    H5 1260   3.172   1.889  11.176  1.2779 -2.0405 -2.2975
   82MPD2    N1 1261   2.709   2.141  10.952 -0.2273  0.3685 -0.5575
   82MPD2    H7 1262   2.668   2.232  10.932  1.3463  1.2506  0.2940
   83TCq2    C1 1263   3.016   1.753  11.137  0.4565 -0.2661  0.0740
   83TCq2    O2 1264   2.917   1.715  11.075 -0.2894 -0.3113  0.4422
   83TCq2    C2 1265   3.079   1.656  11.225  0.6315 -0.0952  0.0744
   83TCq2    C3 1266   3.188   1.704  11.299  0.4006 -0.2210  0.4306
   83TCq2    C4 1267   3.248   1.613  11.380  0.2569 -0.7458 -0.4369
   83TCq2    C5 1268   3.190   1.494  11.404  0.3803 -0.2740 -1.1073
   83TCq2    C6 1269   3.084   1.447  11.324 -0.3992  0.0623 -0.2919
   83TCq2    C7 1270   3.031   1.534  11.229 -0.3741  0.4661  0.3499
   83TCq2    C8 1271   3.011   1.324  11.340  0.3418 -0.5760 -0.8971
   83TCq2    O4 1272   2.974   1.299  11.453  0.2838 -0.2817  0.7369
   83TCq2    C9 1273   3.372   1.635  11.450  0.1864  0.0962 -0.2095
   83TCq2    O5 1274   3.435   1.739  11.429 -0.6308 -0.0349 -0.3416
   83TCq2    O6 1275   3.389   1.558  11.548  0.6416 -0.3264 -0.0657
   83TCq2    H2 1276   3.240   1.798  11.287 -0.1608 -0.0215 -0.4591
   83TCq2    H3 1277   3.236   1.418  11.465 -1.1240  1.1172  1.7332
   83TCq2    H4 1278   2.934   1.510  11.187 -1.1895  2.9709  0.7671
   84TCq2    C1 1279   4.406   0.541  11.205  0.9699  0.7365  0.2732
   84TCq2    O2 1280   4.391   0.437  11.142  0.0128 -0.0218  0.0053
   84TCq2    C2 1281   4.425   0.531  11.349  0.6028  0.5505 -0.0768
   84TCq2    C3 1282   4.449   0.407  11.394 -0.5871  0.3913  0.0016
   84TCq2    C4 1283   4.399   0.372  11.516 -0.2974  0.5330  0.8337
   84TCq2    C5 1284   4.324   0.452  11.592  0.1298  0.5597  0.8759
   84TCq2    C6 1285   4.297   0.573  11.546 -0.4239  0.6649  0.1662
   84TCq2    C7 1286   4.358   0.618  11.433 -0.2091 -0.0666  0.0640
   84TCq2    C8 1287   4.213   0.668  11.625 -0.5297 -0.3992  0.1817
   84TCq2    O4 1288   4.208   0.777  11.572  0.2165 -0.3527  0.3352
   84TCq2    C9 1289   4.432   0.244  11.571  0.1765  0.1920  0.4774
   84TCq2    O5 1290   4.379   0.216  11.684  0.6105  0.1193 -0.3236
   84TCq2    O6 1291   4.493   0.154  11.507 -0.2306 -0.1000 -0.1934
   84TCq2    H2 1292   4.515   0.340  11.340 -0.6038  0.0733  0.3758
   84TCq2    H3 1293   4.291   0.411  11.687 -0.5319 -0.4634  0.2115
   84TCq2    H4 1294   4.341   0.721  11.402  1.1907  0.3679  0.7624
   85MPD2     C 1295   0.008   3.265  16.724 -0.6191  0.1471 -0.0433
   85MPD2    C1 1296   4.653   3.267  16.610  0.1240 -0.2273  0.8549
   85MPD2    C2 1297   4.653   3.367  16.517  0.2875  0.0291  0.2151
   85MPD2    C3 1298   4.723   3.477  16.551 -0.3233 -0.1216 -0.8063
   85MPD2    C4 1299   0.077   3.483  16.657  0.3579  0.0608  0.5691
   85MPD2    C5 1300   0.080   3.379  16.752  0.4192 -0.8151 -0.0684
   85MPD2     H 1301   4.584   3.373  16.433  0.6866  0.4184 -0.0807
   85MPD2    H1 1302   0.131   3.574  16.678 -1.4795  1.4633 -0.7681
   85MPD2    H2 1303   0.013   3.185  16.797 -0.8388  0.9725  0.8681
   85MPD2    H3 1304   0.147   3.382  16.837  0.0807 -1.6583  0.2251
   85MPD2     N 1305   4.712   3.593  16.474 -0.0818 -0.1955 -0.4353
   85MPD2    H5 1306   4.668   3.589  16.383  1.8923 -1.7017 -1.3152
   85MPD2    N1 1307   4.558   3.163  16.588 -0.2590 -0.2323 -0.4704
   85MPD2    H7 1308   4.499   3.170  16.506 -0.8036  1.3047  0.0586
   86TCq2    C1 1309   0.008   3.729  16.506  0.8211 -0.6830 -0.2984
   86TCq2    O2 1310   0.024   3.778  16.613 -0.5102  0.0623 -0.5213
   86TCq2    C2 1311   4.711   3.825  16.394  1.2432  0.3944 -0.0518
   86TCq2    C3 1312   4.670   3.955  16.417  0.2909  0.2936 -0.5878
   86TCq2    C4 1313   4.671   4.040  16.308 -0.2257 -0.0544  0.0509
   86TCq2    C5 1314   4.723   3.999  16.187 -0.0072  0.0868  0.1454
   86TCq2    C6 1315   0.035   3.867  16.169  0.0390  0.0654  0.4234
   86TCq2    C7 1316   0.036   3.779  16.272 -1.1302  0.2554 -0.1960
   86TCq2    C8 1317   0.088   3.835  16.036 -0.7139 -0.2635 -0.0254
   86TCq2    O4 1318   0.095   3.713  16.008 -0.9468  0.0897 -0.6051
   86TCq2    C9 1319   4.617   4.171  16.323 -0.0513  0.0861 -0.9961
   86TCq2    O5 1320   4.627   4.248  16.225  0.1791 -0.0037 -0.2765
   86TCq2    O6 1321   4.571   4.200  16.436 -0.2956  0.4193  0.1976
   86TCq2    H2 1322   4.630   3.979  16.515 -0.2199  1.5241 -1.0920
   86TCq2    H3 1323   4.698   4.065  16.105 -1.2695 -1.7624 -0.9509
   86TCq2    H4 1324   0.077   3.680  16.261 -0.4259  0.4528  0.6681
   87MPD2     C 1325   1.672   2.498   1.326 -0.3866 -0.3508  0.0537
   87MPD2    C1 1326   1.679   2.626   1.375 -0.3480  0.2365  0.4025
   87MPD2    C2 1327   1.563   2.702   1.380 -0.0436  0.0392  0.8338
   87MPD2    C3 1328   1.446   2.647   1.334  0.2078  0.3135  0.2975
   87MPD2    C4 1329   1.445   2.522   1.276 -0.3062 -0.4302 -0.2224
   87MPD2    C5 1330   1.554   2.449   1.267 -0.2172  0.0748 -0.7885
   87MPD2     H 1331   1.561   2.803   1.419  1.8054  0.8192 -1.1442
   87MPD2    H1 1332   1.354   2.490   1.226 -1.3819  1.0500  0.8126
   87MPD2    H2 1333   1.748   2.421   1.324 -0.4437 -0.3934 -0.5128
   87MPD2    H3 1334   1.555   2.351   1.220  1.2160  0.9814 -2.6212
   87MPD2     N 1335   1.323   2.713   1.348  0.3061 -0.2652 -0.2562
   87MPD2    H5 1336   1.251   2.673   1.288  0.5153  1.5819 -1.7635
   87MPD2    N1 1337   1.814   2.668   1.407 -0.1185 -0.2730 -0.0699
   87MPD2    H7 1338   1.892   2.606   1.391  0.3118  0.3596 -0.4506
   88TCq2    C1 1339   1.844   2.787   1.470  0.5883  0.1525 -0.3546
   88TCq2    O2 1340   1.774   2.880   1.495 -0.2281 -0.1851 -0.0465
   88TCq2    C2 1341   1.983   2.807   1.492 -0.2570 -0.0886  0.1567
   88TCq2    C3 1342   2.021   2.931   1.546  0.0774 -0.4160  0.1154
   88TCq2    C4 1343   2.147   2.980   1.508  0.4439 -0.1363  0.2385
   88TCq2    C5 1344   2.234   2.915   1.428 -0.2898  0.0583  0.1269
   88TCq2    C6 1345   2.196   2.793   1.379 -0.4309  0.7928 -0.5165
   88TCq2    C7 1346   2.070   2.741   1.406  0.9918  0.3112 -0.2057
   88TCq2    C8 1347   2.277   2.720   1.275  0.9009  0.5119  0.9248
   88TCq2    O4 1348   2.392   2.759   1.261  0.6952  1.0162 -0.2373
   88TCq2    C9 1349   2.179   3.109   1.555  0.2606 -0.0186  0.4841
   88TCq2    O5 1350   2.297   3.147   1.526  0.4609  0.3388 -0.2110
   88TCq2    O6 1351   2.108   3.167   1.640  0.1894 -0.3356 -0.0334
   88TCq2    H2 1352   1.955   2.979   1.617 -0.3550 -1.0041  0.1110
   88TCq2    H3 1353   2.332   2.958   1.411 -1.6431  3.0790 -0.0783
   88TCq2    H4 1354   2.049   2.640   1.375 -0.1130  0.8818 -1.3125
   89MPD2     C 1355   2.840   4.292   2.402 -0.6469 -0.8031  0.5758
   89MPD2    C1 1356   2.819   4.427   2.369  0.0669  0.1998 -0.3905
   89MPD2    C2 1357   2.929   4.501   2.320 -1.1279  0.2946 -0.1302
   89MPD2    C3 1358   3.048   4.439   2.296 -0.0171  0.1606  0.7890
   89MPD2    C4 1359   3.066   4.308   2.319 -0.2763 -0.6718 -0.4182
   89MPD2    C5 1360   2.964   4.239   2.378 -0.5400 -0.4046 -0.6404
   89MPD2     H 1361   2.908   4.603   2.291 -2.2623  0.2457  0.5015
   89MPD2    H1 1362   3.166   4.269   2.307  0.7655  1.4323  1.4355
   89MPD2    H2 1363   2.756   4.224   2.418 -1.6505  0.3370  0.1283
   89MPD2    H3 1364   2.973   4.137   2.414  1.8362 -0.1989 -0.6314
   89MPD2     N 1365   3.146   4.525   2.239 -0.0797  0.1960  0.6355
   89MPD2    H5 1366   3.112   4.612   2.201 -2.4841 -1.2302 -0.5344
   89MPD2    N1 1367   2.696   4.495   2.378  0.2488 -0.4218 -0.0340
   89MPD2    H7 1368   2.690   4.596   2.371  0.4074 -0.5833 -2.3546
   90TCq2    C1 1369   3.279   4.497   2.224  0.0514  0.0757 -0.0454
   90TCq2    O2 1370   3.341   4.393   2.246 -0.1697  0.3979 -0.2502
   90TCq2    C2 1371   3.345   4.609   2.154 -0.1781  0.3216  0.6146
   90TCq2    C3 1372   3.474   4.587   2.118 -0.1194 -0.0235 -0.0656
   90TCq2    C4 1373   3.540   4.693   2.075  0.6032 -0.5213 -0.0237
   90TCq2    C5 1374   3.479   0.086   2.074  0.1879  0.1301  0.6336
   90TCq2    C6 1375   3.348   0.108   2.105 -0.3626  0.5755 -0.7951
   90TCq2    C7 1376   3.275   0.000   2.147 -0.0634 -0.0062 -0.5355
   90TCq2    C8 1377   3.280   0.238   2.084  1.1560  0.2540  0.7281
   90TCq2    O4 1378   3.170   0.249   2.140  0.0334 -0.4958 -0.0555
   90TCq2    C9 1379   3.668   4.679   2.014 -0.1935  0.3049  0.0403
   90TCq2    O5 1380   3.712   0.046   1.942 -0.2668 -0.5853  0.1472
   90TCq2    O6 1381   3.745   4.583   2.054  0.0616  0.1453 -0.1031
   90TCq2    H2 1382   3.518   4.488   2.125  1.1577  0.6384  1.2582
   90TCq2    H3 1383   3.545   0.162   2.034  0.0433  0.5362  1.1743
   90TCq2    H4 1384   3.184   0.029   2.199  0.4789  0.4647  0.1395
   91TMC2    C1 1385   4.251   4.174  16.627  0.5035  0.3700  0.3429
   91TMC2    C2 1386   4.272   4.106  16.505  0.1325  0.4369  0.1249
   91TMC2    C3 1387   4.175   4.116  16.407 -0.7059  0.1718 -0.2871
   91TMC2    C4 1388   4.138   4.237  16.647 -0.3148 -0.2055  0.1642
   91TMC2    C5 1389   4.041   4.247  16.553 -0.3115  0.5133 -0.2595
   91TMC2    C6 1390   4.063   4.193  16.424  0.1202  0.4467  0.8136
   91TMC2     C 1391   4.355   4.180  16.735 -0.5005 -0.0459 -0.2651
   91TMC2     O 1392   4.301   4.199  16.845  0.2802 -0.5874  0.0665
   91TMC2     H 1393   4.361   4.047  16.486  0.2857  0.7372 -0.0914
   91TMC2    H1 1394   4.135   4.303  16.734  2.2759  1.9225 -1.3743
   91TMC2    H2 1395   3.997   4.202  16.338 -1.1496  1.5337  1.9091
   91TMC2    C7 1396   3.929   4.343  16.578  0.3226  0.7058  0.3066
   91TMC2    C8 1397   4.189   4.053  16.275 -0.3850  0.1945 -0.2594
   91TMC2    O1 1398   3.916   4.395  16.686 -0.4037 -0.1219  0.2023
   91TMC2    O2 1399   4.121   4.078  16.177  0.1034  0.1782  0.0037
   91TMC2    O5 1400   4.298   3.968  16.279 -0.2664 -0.3100  0.2815
   91TMC2    H5 1401   4.311   3.910  16.358  1.0135 -0.3071  0.0717
   92MPD2     C 1402   4.576   4.124  16.929 -0.0731 -0.9615 -0.3171
   92MPD2    C1 1403   4.588   4.154  16.792 -0.1167  0.3937  0.7764
   92MPD2    C2 1404   4.718   4.155  16.742 -0.0357 -0.6162 -0.0886
   92MPD2    C3 1405   0.107   4.125  16.814 -0.1523 -0.3995  0.1632
   92MPD2    C4 1406   0.089   4.104  16.948 -0.4303  0.1443  0.4182
   92MPD2    C5 1407   4.691   4.095  17.007 -0.2779 -0.0173  0.1418
   92MPD2     H 1408   4.723   4.167  16.635  1.6414  1.0697  0.1746
   92MPD2    H1 1409   0.177   4.096  17.011 -0.8333 -0.0914  0.9526
   92MPD2    H2 1410   4.479   4.125  16.977 -0.3753 -0.5806 -0.9323
   92MPD2    H3 1411   4.684   4.083  17.114  0.1612 -0.3288  0.1341
   92MPD2     N 1412   0.233   4.134  16.745 -0.0472 -0.2175 -0.1561
   92MPD2    H5 1413   0.232   4.170  16.650 -2.6473  0.9353  0.3046
   92MPD2    N1 1414   4.485   4.173  16.702 -0.3974  0.5216  0.3298
   92MPD2    H7 1415   4.506   4.178  16.603  1.0724 -1.5735  0.5329
   93MPD2     C 1416   1.172   4.481  14.052 -0.1024  0.2393  0.6167
   93MPD2    C1 1417   1.163   4.599  14.122  0.3654  0.3620  0.9892
   93MPD2    C2 1418   1.039   4.636  14.161 -0.9174  0.3634 -0.6677
   93MPD2    C3 1419   0.922   4.574  14.119 -1.2506 -0.9538  0.2277
   93MPD2    C4 1420   0.935   4.469  14.038  0.3475 -0.3785 -0.0531
   93MPD2    C5 1421   1.057   4.420  14.017  0.2056 -0.2861  0.8726
   93MPD2     H 1422   1.041   0.007  14.208 -2.1612  0.5197 -0.9357
   93MPD2    H1 1423   0.850   4.411  14.005  0.8574  0.3514 -2.6705
   93MPD2    H2 1424   1.260   4.434  14.009 -0.8228 -0.4369 -0.1209
   93MPD2    H3 1425   1.067   4.326  13.963  1.8410  0.5433 -0.2854
   93MPD2     N 1426   0.787   4.612  14.151  0.5229  0.3202  0.4498
   93MPD2    H5 1427   0.709   4.570  14.102  1.7094 -2.0519  0.6088
   93MPD2    N1 1428   1.275   4.679  14.158  0.0951 -0.5139 -0.5804
   93MPD2    H7 1429   1.268   0.029  14.225 -3.0515 -1.1608 -0.1571
   94TCq2    C1 1430   1.402   4.666  14.101  0.6928 -0.1022  0.1126
   94TCq2    O2 1431   1.442   4.587  14.015  0.0392 -0.1008 -0.0120
   94TCq2    C2 1432   1.505   0.002  14.179 -1.2293  0.3507  0.0076
   94TCq2    C3 1433   1.476   0.070  14.302 -0.2336 -0.7505 -0.1463
   94TCq2    C4 1434   1.557   0.174  14.341  0.0285  0.6115  0.3603
   94TCq2    C5 1435   1.684   0.181  14.290 -0.2999  0.2663 -1.2511
   94TCq2    C6 1436   1.722   0.092  14.190 -0.5444 -0.2014  0.8921
   94TCq2    C7 1437   1.635   0.005  14.130  1.0499 -0.5212  0.5393
   94TCq2    C8 1438   1.859   0.108  14.129  0.3269 -0.1037  0.1256
   94TCq2    O4 1439   1.948   0.155  14.199 -0.3096  0.3526 -0.5002
   94TCq2    C9 1440   1.529   0.250  14.462  0.1094  0.1353 -0.2455
   94TCq2    O5 1441   1.412   0.231  14.512  0.3737 -0.0570  0.1010
   94TCq2    O6 1442   1.609   0.342  14.492 -0.2541 -0.2393 -0.2669
   94TCq2    H2 1443   1.382   0.064  14.356 -0.6143  0.4421 -0.6751
   94TCq2    H3 1444   1.765   0.232  14.342 -1.4503 -1.4839  2.2182
   94TCq2    H4 1445   1.667   4.672  14.045 -0.4069 -1.1199  0.4061
   95TMC2    C1 1446   1.479   1.365  16.452  0.1567 -0.1873  0.8502
   95TMC2    C2 1447   1.453   1.235  16.417 -0.7416  0.4474 -0.3549
   95TMC2    C3 1448   1.385   1.161  16.507  0.3682  0.0276 -0.3894
   95TMC2    C4 1449   1.444   1.414  16.578  0.0869 -0.3093  0.2724
   95TMC2    C5 1450   1.380   1.331  16.665 -0.1584 -0.1665  0.1507
   95TMC2    C6 1451   1.362   1.199  16.634 -0.4909  0.1336  0.5266
   95TMC2     C 1452   1.555   1.447  16.355 -0.2847 -0.3192  0.0220
   95TMC2     O 1453   1.584   1.397  16.247  0.4433  0.6276 -0.0716
   95TMC2     H 1454   1.495   1.199  16.324 -1.2364 -0.4230 -0.2392
   95TMC2    H1 1455   1.471   1.515  16.605 -0.8579 -0.1478  0.6250
   95TMC2    H2 1456   1.290   1.143  16.694  2.7791 -1.5217  2.9272
   95TMC2    C7 1457   1.383   1.372  16.805 -0.2582 -0.4432  0.3416
   95TMC2    C8 1458   1.411   1.019  16.489  0.4755  0.0739  0.6256
   95TMC2    O1 1459   1.391   1.494  16.817 -0.0251 -0.0955  0.2523
   95TMC2    O2 1460   1.454   0.971  16.384  0.6007  0.1147  0.1357
   95TMC2    O5 1461   1.433   0.956  16.610  0.1622 -0.0020  0.2201
   95TMC2    H5 1462   1.412   1.003  16.693  1.1163  2.4653 -0.9230
   96MPD2     C 1463   1.670   1.917  16.180 -0.2126 -0.1677  0.0677
   96MPD2    C1 1464   1.711   1.793  16.128 -0.3227 -0.0523 -0.5222
   96MPD2    C2 1465   1.677   1.677  16.201  0.4458  0.8966  0.3086
   96MPD2    C3 1466   1.618   1.687  16.324 -0.2384  0.4857 -0.7689
   96MPD2    C4 1467   1.579   1.810  16.368 -0.9920  0.0724 -0.1107
   96MPD2    C5 1468   1.608   1.925  16.301 -0.6167 -1.1382  0.2084
   96MPD2     H 1469   1.714   1.583  16.163 -0.4601 -0.4746  2.8036
   96MPD2    H1 1470   1.527   1.818  16.463  2.0914 -0.0047  1.5811
   96MPD2    H2 1471   1.699   2.011  16.135 -1.2121  0.4788  0.7726
   96MPD2    H3 1472   1.570   2.022  16.330  2.0435 -0.2304  0.5982
   96MPD2     N 1473   1.578   1.576  16.397  0.4905  0.0949  0.1966
   96MPD2    H5 1474   1.541   1.596  16.490 -1.5615 -0.6935 -0.4502
   96MPD2    N1 1475   1.788   1.799  16.002  0.1229 -0.2382 -0.1424
   96MPD2    H7 1476   1.835   1.884  15.975 -1.0875 -0.4847 -2.9907
   97MPD2     C 1477   3.827   3.496   1.096  0.3613 -0.0872  0.5838
   97MPD2    C1 1478   3.814   3.637   1.088 -0.0339  0.5240  0.3071
   97MPD2    C2 1479   3.886   3.706   0.997 -0.4154  0.1874 -0.2093
   97MPD2    C3 1480   3.970   3.635   0.910 -0.8843 -0.6409 -0.1017
   97MPD2    C4 1481   3.978   3.498   0.912  0.2929 -0.3629 -0.4756
   97MPD2    C5 1482   3.903   3.432   1.003  0.4261 -0.0711 -0.7076
   97MPD2     H 1483   3.880   3.815   0.996  0.4201  0.2470  4.4096
   97MPD2    H1 1484   4.020   3.433   0.836  0.1248  0.9851 -1.7251
   97MPD2    H2 1485   3.779   3.433   1.170 -0.3981 -0.4065 -0.1822
   97MPD2    H3 1486   3.914   3.324   0.999  3.4235  0.2775 -1.4198
   97MPD2     N 1487   4.044   3.692   0.803  0.6439  0.0803 -0.0639
   97MPD2    H5 1488   4.091   3.631   0.737  0.0990 -0.4403  0.0281
   97MPD2    N1 1489   3.723   3.692   1.178 -0.0272 -0.9931 -0.5428
   97MPD2    H7 1490   3.671   3.629   1.239 -0.8555  0.7834  0.5966
   98TCq2    C1 1491   4.073   3.825   0.778 -0.5027 -0.1213 -0.3654
   98TCq2    O2 1492   4.027   3.925   0.833  0.7173  0.8277 -0.4923
   98TCq2    C2 1493   4.167   3.848   0.676  0.1789 -0.4768 -0.2325
   98TCq2    C3 1494   4.197   3.735   0.599  1.0535 -0.2952  0.3666
   98TCq2    C4 1495   4.248   3.763   0.478  0.2839  0.5683  0.0565
   98TCq2    C5 1496   4.271   3.896   0.434  1.3765  0.1830  0.8668
   98TCq2    C6 1497   4.227   3.995   0.512  0.6887 -0.0999 -0.2030
   98TCq2    C7 1498   4.166   3.977   0.635 -0.8677  0.6033 -0.4187
   98TCq2    C8 1499   4.255   4.125   0.470  0.3204  0.2241  0.5102
   98TCq2    O4 1500   4.349   4.143   0.392  0.4522  0.3722 -0.3916
   98TCq2    C9 1501   4.307   3.656   0.399 -0.1046 -0.7324  0.8015
   98TCq2    O5 1502   4.363   3.688   0.291 -0.1224  0.4061  0.0841
   98TCq2    O6 1503   4.306   3.541   0.451  0.0635  0.2689 -0.5269
   98TCq2    H2 1504   4.199   3.632   0.634 -1.4170 -0.1927  0.8128
   98TCq2    H3 1505   4.319   3.914   0.338 -0.3934 -0.3544 -0.1143
   98TCq2    H4 1506   4.140   4.059   0.701  1.0660  2.7344 -2.2921
   99MPD2     C 1507   2.845   2.176   1.783  0.3826 -0.1659  0.1551
   99MPD2    C1 1508   2.710   2.176   1.755 -0.5131 -0.2401 -0.4960
   99MPD2    C2 1509   2.661   2.068   1.692  0.0685  0.4542  0.3566
   99MPD2    C3 1510   2.739   1.970   1.640 -0.5649  0.0700  0.0482
   99MPD2    C4 1511   2.876   1.969   1.662  0.3476  0.4188 -0.4286
   99MPD2    C5 1512   2.924   2.071   1.741  0.5875  0.4876  0.0636
   99MPD2     H 1513   2.553   2.064   1.683  0.0736  0.7709  0.1551
   99MPD2    H1 1514   2.938   1.886   1.631  0.6261 -0.8518  3.5171
   99MPD2    H2 1515   2.891   2.255   1.841  2.9670 -1.0888 -0.6254
   99MPD2    H3 1516   3.030   2.071   1.765  0.9734  2.8788 -1.5786
   99MPD2     N 1517   2.673   1.865   1.574 -0.2148 -0.2099 -0.5698
   99MPD2    H5 1518   2.573   1.876   1.585 -0.1825  0.5713 -0.9936
   99MPD2    N1 1519   2.623   2.273   1.792 -0.4507 -0.2857 -0.2069
   99MPD2    H7 1520   2.526   2.244   1.801 -0.0619 -0.7225  2.5948
  100TCq2    C1 1521   2.661   2.394   1.852  0.5315  0.3032 -0.3791
  100TCq2    O2 1522   2.772   2.447   1.858 -0.3290  0.1488 -0.1475
  100TCq2    C2 1523   2.549   2.473   1.900 -0.7467 -0.5753  0.0487
  100TCq2    C3 1524   2.585   2.575   1.991 -0.3389  0.0535  0.0905
  100TCq2    C4 1525   2.483   2.641   2.051 -0.1614 -0.1028 -0.8542
  100TCq2    C5 1526   2.353   2.603   2.038  0.3752  0.2573  0.6877
  100TCq2    C6 1527   2.322   2.491   1.956  0.5493 -0.2618  0.6039
  100TCq2    C7 1528   2.418   2.431   1.875 -0.2978  0.0440 -0.3192
  100TCq2    C8 1529   2.179   2.441   1.975 -1.4956  0.2313  1.0488
  100TCq2    O4 1530   2.103   2.514   2.046  0.3236  0.1321  0.1867
  100TCq2    C9 1531   2.517   2.744   2.151  0.5213 -0.4671 -0.1118
  100TCq2    O5 1532   2.421   2.794   2.212  0.5377  0.2413 -0.0645
  100TCq2    O6 1533   2.639   2.789   2.157 -0.0686 -0.0399  0.2732
  100TCq2    H2 1534   2.691   2.596   2.000 -0.6344  1.4239  0.4316
  100TCq2    H3 1535   2.276   2.651   2.096 -1.8783 -0.0472 -2.0138
  100TCq2    H4 1536   2.391   2.366   1.793 -0.3619  0.2028 -0.4231
  101MPD2     C 1537   3.064   1.715  13.112  0.0926  0.2960 -0.2559
  101MPD2    C1 1538   3.079   1.781  13.235  0.1970 -0.0853  0.0911
  101MPD2    C2 1539   2.990   1.758  13.342 -0.0298  0.3653 -0.6887
  101MPD2    C3 1540   2.889   1.669  13.331 -0.0065  0.1728  0.2720
  101MPD2    C4 1541   2.868   1.619  13.196  0.5519 -0.5856 -0.5899
  101MPD2    C5 1542   2.952   1.638  13.089 -0.0428  0.3702 -0.0462
  101MPD2     H 1543   3.009   1.799  13.441 -0.3456  0.7549 -0.7889
  101MPD2    H1 1544   2.789   1.548  13.173 -0.5192  0.3118  0.2958
  101MPD2    H2 1545   3.137   1.715  13.032 -0.6466 -2.8695 -0.9320
  101MPD2    H3 1546   2.928   1.601  12.991 -2.2953  1.5650  0.0401
  101MPD2     N 1547   2.824   1.629  13.446  0.4438 -0.2802  0.5185
  101MPD2    H5 1548   2.856   1.671  13.533 -1.1885  1.1207  0.4566
  101MPD2    N1 1549   3.195   1.871  13.243 -0.1449  0.8391 -0.3467
  101MPD2    H7 1550   3.250   1.889  13.160 -1.4273  1.7379 -1.0198
  102TCq2    C1 1551   3.574   2.162  13.070  0.2082 -0.6902 -0.0941
  102TCq2    O2 1552   3.646   2.259  13.074  0.7181  0.1594  0.3888
  102TCq2    C2 1553   3.534   2.112  13.200  0.4139 -0.3476  0.3892
  102TCq2    C3 1554   3.563   2.195  13.303  0.9857 -0.5257  0.2844
  102TCq2    C4 1555   3.491   2.189  13.417 -0.4455 -0.2299 -0.3098
  102TCq2    C5 1556   3.380   2.107  13.429  0.1590 -0.3088 -0.4748
  102TCq2    C6 1557   3.348   2.033  13.329 -0.1715 -0.9062  0.1291
  102TCq2    C7 1558   3.429   2.027  13.211 -0.5982 -0.6614 -0.3419
  102TCq2    C8 1559   3.231   1.950  13.350  0.4157  0.0702  1.1345
  102TCq2    O4 1560   3.174   1.955  13.459  0.7820 -0.6273  0.2900
  102TCq2    C9 1561   3.538   2.274  13.525  0.0879  0.4778  0.1091
  102TCq2    O5 1562   3.598   2.373  13.491 -0.6207 -0.2299  0.1597
  102TCq2    O6 1563   3.492   2.253  13.643 -0.4905  0.2502 -0.3419
  102TCq2    H2 1564   3.645   2.264  13.290  0.4607 -0.4080 -2.3836
  102TCq2    H3 1565   3.320   2.104  13.519 -0.7835 -0.7125 -1.1080
  102TCq2    H4 1566   3.408   1.954  13.135 -0.7897 -0.5675 -0.3791
  103TMC2    C1 1567   1.335   2.813  13.291 -0.0804  0.5039 -0.1643
  103TMC2    C2 1568   1.313   2.944  13.246 -0.2778 -0.3442  0.0907
  103TMC2    C3 1569   1.328   3.051  13.341 -0.3803  1.1101  0.2505
  103TMC2    C4 1570   1.355   2.787  13.423  0.3391  0.5058 -0.1649
  103TMC2    C5 1571   1.347   2.892  13.511  0.4765 -0.2007 -0.0769
  103TMC2    C6 1572   1.338   3.022  13.476 -0.3475 -0.4274  0.1388
  103TMC2     C 1573   1.328   2.713  13.192  0.2710 -0.1564 -0.0531
  103TMC2     O 1574   1.335   2.749  13.079  0.3004  0.0556 -0.2041
  103TMC2     H 1575   1.300   2.965  13.141  1.4212  2.0965  0.3821
  103TMC2    H1 1576   1.362   2.688  13.469 -0.6886  0.6772  0.3809
  103TMC2    H2 1577   1.325   3.104  13.546  2.6104  0.6629 -0.5496
  103TMC2    C7 1578   1.332   2.861  13.653 -0.9533  0.1894 -0.1614
  103TMC2    C8 1579   1.273   3.179  13.305  0.1560 -0.3324 -0.0653
  103TMC2    O1 1580   1.394   2.766  13.698 -0.8159 -0.0197 -0.2604
  103TMC2    O2 1581   1.191   3.190  13.220 -0.5076  0.8411  0.5142
  103TMC2    O5 1582   1.309   3.278  13.385 -0.1170 -0.1329  0.2179
  103TMC2    H5 1583   1.398   3.251  13.415  0.1701  0.6019  0.0340
  104MPD2     C 1584   1.327   2.361  13.239 -0.5953  0.0917  0.2333
  104MPD2    C1 1585   1.337   2.471  13.167 -0.5364  1.0233 -0.7655
  104MPD2    C2 1586   1.354   2.469  13.024  0.2220  0.5833  0.5267
  104MPD2    C3 1587   1.358   2.345  12.965  0.2041  0.2829 -0.3377
  104MPD2    C4 1588   1.351   2.227  13.040  0.1992  0.5090  0.1816
  104MPD2    C5 1589   1.343   2.235  13.181 -0.4014  0.1040  0.5074
  104MPD2     H 1590   1.346   2.558  12.962  1.8082  1.5400  1.6635
  104MPD2    H1 1591   1.345   2.131  12.989  0.2148  1.0184 -0.7782
  104MPD2    H2 1592   1.329   2.362  13.347 -0.4036  1.4483  0.2099
  104MPD2    H3 1593   1.333   2.152  13.250  1.9780  1.2131  2.2131
  104MPD2     N 1594   1.356   2.346  12.816  0.2908 -0.6087 -0.0658
  104MPD2    H5 1595   1.352   2.436  12.769 -0.0650 -0.3317  0.5003
  104MPD2    N1 1596   1.326   2.589  13.241  0.7409 -0.4915  0.8640
  104MPD2    H7 1597   1.328   2.588  13.343  2.4808  0.5277  0.8397
  105MPD2     C 1598   3.167   1.948   0.299 -0.5472  0.1471  0.3675
  105MPD2    C1 1599   3.063   2.038   0.292  0.2768 -0.2024 -0.6500
  105MPD2    C2 1600   3.027   2.099   0.411 -0.5112 -0.0954  0.1147
  105MPD2    C3 1601   3.088   2.081   0.537 -0.2314  0.0293  0.3691
  105MPD2    C4 1602   3.181   1.984   0.542  0.6168 -0.1073  0.2240
  105MPD2    C5 1603   3.225   1.923   0.426  1.4616  0.0501 -0.0355
  105MPD2     H 1604   2.949   2.172   0.399  0.5647  1.2189  1.1220
  105MPD2    H1 1605   3.223   1.959   0.639  0.2875  0.4815  0.5213
  105MPD2    H2 1606   3.205   1.896   0.212  1.1824  0.5455  0.8887
  105MPD2    H3 1607   3.291   1.837   0.429 -0.2441 -1.2695 -0.2209
  105MPD2     N 1608   3.034   2.158   0.649  0.4091 -0.7787 -0.5939
  105MPD2    H5 1609   2.952   2.216   0.635  1.4815  0.9169  0.2224
  105MPD2    N1 1610   2.979   2.064   0.180 -0.6842 -0.0987 -0.2302
  105MPD2    H7 1611   2.899   2.123   0.198  0.9923  2.1957 -0.2476
  106TCq2    C1 1612   3.093   2.175   0.766  0.9576 -0.3942 -0.4692
  106TCq2    O2 1613   3.213   2.160   0.795 -0.0222  0.1287 -0.1123
  106TCq2    C2 1614   3.004   2.233   0.862 -0.0527 -1.3079  0.5257
  106TCq2    C3 1615   3.067   2.297   0.963  0.1219 -0.2189 -1.1249
  106TCq2    C4 1616   3.000   2.370   1.054  0.5346 -0.0848 -0.2860
  106TCq2    C5 1617   2.866   2.386   1.035 -0.0896 -0.3429 -0.6761
  106TCq2    C6 1618   2.804   2.311   0.939 -0.3361  0.4390 -0.2506
  106TCq2    C7 1619   2.869   2.225   0.853  0.8757  0.1508  0.3534
  106TCq2    C8 1620   2.662   2.317   0.918 -0.1846  1.2581  0.8114
  106TCq2    O4 1621   2.614   2.217   0.865 -0.5869 -0.2018 -0.7278
  106TCq2    C9 1622   3.070   2.429   1.163  0.3058 -0.0435 -0.2537
  106TCq2    O5 1623   3.016   2.527   1.222  0.1102 -0.3245 -0.4207
  106TCq2    O6 1624   3.193   2.395   1.178 -0.8646  0.2369  0.0483
  106TCq2    H2 1625   3.175   2.296   0.974  0.1619 -0.9002 -1.5569
  106TCq2    H3 1626   2.813   2.445   1.108  1.6639 -0.4226  0.6640
  106TCq2    H4 1627   2.812   2.173   0.776 -0.2354  1.4572  0.2989
  107TMC2    C1 1628   3.431   1.220  11.808 -0.5051 -0.0831  0.0066
  107TMC2    C2 1629   3.463   1.265  11.682  0.6538 -1.1516 -0.5964
  107TMC2    C3 1630   3.567   1.198  11.617 -0.0347 -0.2023 -0.0799
  107TMC2    C4 1631   3.512   1.140  11.878 -0.6880 -0.5878 -0.4155
  107TMC2    C5 1632   3.610   1.075  11.815  0.5966  0.2132 -0.3034
  107TMC2    C6 1633   3.641   1.100  11.679 -0.3296 -0.2877  0.3528
  107TMC2     C 1634   3.342   1.307  11.883  0.0373  0.1457 -0.0885
  107TMC2     O 1635   3.308   1.267  11.990  0.3650  0.1776 -0.0747
  107TMC2     H 1636   3.397   1.321  11.617  1.6068  0.3166 -0.3055
  107TMC2    H1 1637   3.495   1.121  11.983  0.2450 -2.9644 -0.6860
  107TMC2    H2 1638   3.721   1.054  11.624 -0.3663 -3.0302  2.5886
  107TMC2    C7 1639   3.672   0.966  11.884 -0.2022 -0.0875 -0.0024
  107TMC2    C8 1640   3.640   1.268  11.510  0.6020 -0.0956  0.1986
  107TMC2    O1 1641   3.621   0.926  11.986  0.3308 -0.3743 -0.3838
  107TMC2    O2 1642   3.743   1.228  11.453  0.8706 -0.0167  0.0856
  107TMC2    O5 1643   3.593   1.398  11.506  0.3819 -0.0182  0.4292
  107TMC2    H5 1644   3.498   1.412  11.527  0.0245  0.4755 -1.5398
  108MPD2     C 1645   3.182   1.632  11.813 -0.1456 -0.4115  0.3628
  108MPD2    C1 1646   3.199   1.512  11.876 -0.1724 -0.3165  0.3864
  108MPD2    C2 1647   3.122   1.493  11.992  0.8055  0.7927 -0.0612
  108MPD2    C3 1648   3.029   1.591  12.030  0.2309 -0.1387  0.1140
  108MPD2    C4 1649   3.015   1.713  11.967  0.2941 -0.0774 -0.2821
  108MPD2    C5 1650   3.097   1.728  11.854  1.0496 -0.2695  0.6841
  108MPD2     H 1651   3.130   1.397  12.041 -0.2720 -0.8539 -3.1124
  108MPD2    H1 1652   2.942   1.789  11.991  0.4869 -0.2188  0.7572
  108MPD2    H2 1653   3.240   1.646  11.723 -0.8110 -2.2924 -0.3498
  108MPD2    H3 1654   3.101   1.824  11.803  0.5717 -0.0595  1.0445
  108MPD2     N 1655   2.943   1.573  12.146  0.0452  0.0722 -0.0985
  108MPD2    H5 1656   2.878   1.648  12.163  0.1047 -0.0563  0.7219
  108MPD2    N1 1657   3.307   1.429  11.827  0.2187  0.2143  0.6912
  108MPD2    H7 1658   3.355   1.465  11.746  1.7026  1.7150  2.2419
  109MPD2     C 1659   3.645   2.774   2.250 -0.0173  0.1012  0.0260
  109MPD2    C1 1660   3.696   2.898   2.214 -0.1246  0.3256 -0.0703
  109MPD2    C2 1661   3.614   3.005   2.226 -0.1735 -0.4794 -1.0927
  109MPD2    C3 1662   3.480   2.994   2.261  0.2441  0.5198 -0.0985
  109MPD2    C4 1663   3.424   2.872   2.288  0.1321 -0.4678  0.4525
  109MPD2    C5 1664   3.516   2.764   2.291 -0.5128 -0.1963 -0.1270
  109MPD2     H 1665   3.640   3.104   2.191  1.8084 -0.5074  0.2895
  109MPD2    H1 1666   3.318   2.858   2.311 -0.5501  1.0219 -1.9014
  109MPD2    H2 1667   3.711   2.687   2.248  0.1775  0.1466  4.1973
  109MPD2    H3 1668   3.493   2.666   2.330 -3.0009  0.2981 -0.3504
  109MPD2     N 1669   3.417   3.122   2.273 -0.2661 -0.2942 -0.3902
  109MPD2    H5 1670   3.465   3.203   2.235  0.0025 -0.5754 -0.6444
  109MPD2    N1 1671   3.829   2.905   2.166  0.6556 -0.0079  0.1882
  109MPD2    H7 1672   3.878   2.817   2.152 -0.0054 -0.5444  1.2242
  110TCq2    C1 1673   3.283   3.134   2.299  0.4906 -0.1513  0.1081
  110TCq2    O2 1674   3.204   3.062   2.355  0.0188 -0.3745  0.0220
  110TCq2    C2 1675   3.241   3.275   2.286 -0.2205 -0.9653 -0.0176
  110TCq2    C3 1676   3.145   3.330   2.366 -0.5604  0.5662  0.4724
  110TCq2    C4 1677   3.126   3.468   2.350  0.1611  0.4851 -0.5013
  110TCq2    C5 1678   3.216   3.542   2.266 -0.1871  0.1764 -0.6157
  110TCq2    C6 1679   3.308   3.478   2.194 -0.2237  0.5140  0.4056
  110TCq2    C7 1680   3.321   3.344   2.197 -0.9814  0.1031  0.0842
  110TCq2    C8 1681   3.370   3.539   2.077  0.2068 -0.0746  0.5179
  110TCq2    O4 1682   3.307   3.624   2.021  0.6781 -0.0260  0.3659
  110TCq2    C9 1683   3.053   3.544   2.448  0.6034  0.0357 -0.8911
  110TCq2    O5 1684   3.001   3.482   2.548  0.3202 -0.3545  0.3174
  110TCq2    O6 1685   3.028   3.663   2.418 -0.0490  0.0018  0.1839
  110TCq2    H2 1686   3.091   3.265   2.434 -0.7538 -0.3200 -0.5282
  110TCq2    H3 1687   3.204   3.649   2.260 -0.5033  0.1300 -0.7730
  110TCq2    H4 1688   3.382   3.296   2.122  1.7984 -0.3011  2.5856
  111TMC2    C1 1689   3.064   3.217  11.918 -0.3707  0.0511  0.3147
  111TMC2    C2 1690   2.986   3.226  12.029  0.4529 -0.2402 -0.4180
  111TMC2    C3 1691   3.026   3.155  12.143 -0.1298 -0.3887  0.1023
  111TMC2    C4 1692   3.165   3.135  11.909 -0.2847  0.2550  0.5712
  111TMC2    C5 1693   3.191   3.043  12.013  0.4479 -0.2970 -0.2204
  111TMC2    C6 1694   3.123   3.053  12.131 -0.6116 -0.3533 -0.3610
  111TMC2     C 1695   3.047   3.310  11.808 -0.3160  0.2287  0.0506
  111TMC2     O 1696   3.135   3.300  11.725 -0.1126  0.6139 -0.1958
  111TMC2     H 1697   2.899   3.290  12.040  0.7588  0.7862 -4.1860
  111TMC2    H1 1698   3.214   3.119  11.814  0.5122  1.4553  0.7873
  111TMC2    H2 1699   3.153   2.991  12.215 -3.4300  2.1603  2.5178
  111TMC2    C7 1700   3.314   2.968  12.031 -0.3345 -0.0385 -0.5995
  111TMC2    C8 1701   2.911   3.110  12.217  0.0535  0.2040 -0.3053
  111TMC2    O1 1702   3.320   2.884  12.126 -0.3804 -0.2418 -0.1469
  111TMC2    O2 1703   2.811   3.075  12.153  0.2693  0.2823  0.4391
  111TMC2    O5 1704   2.957   3.062  12.336  0.3815  0.5564  0.1515
  111TMC2    H5 1705   3.044   3.102  12.360 -0.2500  1.6159  0.6854
  112MPD2     C 1706   2.816   3.675  11.542 -0.8060 -0.3168 -0.0201
  112MPD2    C1 1707   2.949   3.625  11.525 -0.7597 -0.3370 -0.4359
  112MPD2    C2 1708   2.992   3.526  11.612  0.0846  0.0654  0.6033
  112MPD2    C3 1709   2.904   3.486  11.716  0.1602 -0.0389  0.4951
  112MPD2    C4 1710   2.783   3.552  11.732 -0.1443 -0.3593  0.1879
  112MPD2    C5 1711   2.734   3.641  11.646 -0.2513 -0.5034 -0.0004
  112MPD2     H 1712   3.090   3.480  11.600  0.6428  1.2852  0.4305
  112MPD2    H1 1713   2.742   3.550  11.833 -1.2975  0.6543 -0.2664
  112MPD2    H2 1714   2.774   3.737  11.464 -2.4514  0.8256  1.7826
  112MPD2    H3 1715   2.637   3.686  11.666 -0.2529 -0.6604  0.3345
  112MPD2     N 1716   2.938   3.395  11.815 -0.3055  0.0128  0.1969
  112MPD2    H5 1717   2.867   3.374  11.885  0.8508  1.0869  1.6819
  112MPD2    N1 1718   3.037   3.654  11.416  0.3677  0.2172  0.1264
  112MPD2    H7 1719   3.109   3.589  11.389 -0.2885  0.4632 -2.2425
  113MPD2     C 1720   1.913   1.841   1.338  0.3295  0.4573  0.4250
  113MPD2    C1 1721   1.786   1.889   1.347 -0.3276 -0.2567  0.1119
  113MPD2    C2 1722   1.685   1.827   1.282  0.3617 -0.7434 -0.7715
  113MPD2    C3 1723   1.710   1.707   1.212 -0.7447  0.6737  0.5948
  113MPD2    C4 1724   1.839   1.667   1.197 -0.1817  0.6553 -0.5218
  113MPD2    C5 1725   1.939   1.733   1.258 -0.3748  0.4421  0.1917
  113MPD2     H 1726   1.582   1.860   1.289  0.6773  0.1952 -0.5845
  113MPD2    H1 1727   1.872   1.581   1.139  1.9259  1.6242 -0.7571
  113MPD2    H2 1728   2.000   1.888   1.384  0.8326 -1.0674  1.0527
  113MPD2    H3 1729   2.037   1.687   1.256  0.0391  1.3230  0.5726
  113MPD2     N 1730   1.616   1.631   1.138 -0.5190 -0.4301  0.1200
  113MPD2    H5 1731   1.638   1.540   1.100 -0.4736 -0.1625 -0.4968
  113MPD2    N1 1732   1.751   2.011   1.413  0.3898 -0.3874  0.4006
  113MPD2    H7 1733   1.658   2.046   1.395 -0.0921 -2.1617 -0.5096
  114TCq2    C1 1734   1.484   1.660   1.114  0.4689 -0.3635 -0.5198
  114TCq2    O2 1735   1.421   1.763   1.127  0.0461 -0.3081  0.3973
  114TCq2    C2 1736   1.412   1.539   1.069  0.6713 -0.0997 -0.2513
  114TCq2    C3 1737   1.299   1.553   0.993 -0.2085  0.0299  0.1989
  114TCq2    C4 1738   1.246   1.432   0.948  0.5570  0.7867 -0.1237
  114TCq2    C5 1739   1.287   1.314   0.992  0.2890 -0.0666 -0.0342
  114TCq2    C6 1740   1.392   1.308   1.080 -0.2908  0.4618 -0.9026
  114TCq2    C7 1741   1.457   1.422   1.114 -0.0957  0.0716  0.7278
  114TCq2    C8 1742   1.410   1.195   1.167 -0.1619  0.4659 -0.0346
  114TCq2    O4 1743   1.517   1.190   1.224  0.3622  0.0995  0.1124
  114TCq2    C9 1744   1.117   1.431   0.882  0.1865  0.1769  0.2921
  114TCq2    O5 1745   1.082   1.547   0.840  0.2713  0.2901 -0.0202
  114TCq2    O6 1746   1.039   1.344   0.929 -0.5888  0.1816  0.0349
  114TCq2    H2 1747   1.260   1.651   0.966 -0.4170 -0.1575 -0.1802
  114TCq2    H3 1748   1.228   1.227   0.964 -2.0601  1.0396  1.4500
  114TCq2    H4 1749   1.529   1.417   1.195 -1.1291 -1.1547  1.5692
  115TMC2    C1 1750   1.969   3.819   0.254  0.8508 -0.1086  0.3114
  115TMC2    C2 1751   2.094   3.779   0.228 -0.6265 -1.0549  0.7141
  115TMC2    C3 1752   2.195   3.869   0.223  0.0621  0.4607 -0.3582
  115TMC2    C4 1753   1.938   3.952   0.264 -0.4240  0.5585  0.9544
  115TMC2    C5 1754   2.043   4.037   0.264  0.7300  0.4933  0.4244
  115TMC2    C6 1755   2.178   4.002   0.246  0.3067 -0.0840 -0.2978
  115TMC2     C 1756   1.877   3.717   0.226  0.3299 -0.4266  0.0794
  115TMC2     O 1757   1.908   3.639   0.134 -0.1561 -0.5345 -0.0945
  115TMC2     H 1758   2.129   3.677   0.233  1.1229 -0.5179 -0.4481
  115TMC2    H1 1759   1.833   3.979   0.265 -0.3584  0.8198  0.0943
  115TMC2    H2 1760   2.263   4.066   0.267 -1.1883  1.6029  0.5910
  115TMC2    C7 1761   1.999   4.175   0.256 -0.2068 -0.6630  0.3357
  115TMC2    C8 1762   2.322   3.815   0.242 -0.1560  0.4522 -0.0784
  115TMC2    O1 1763   1.882   4.203   0.277 -1.0301 -0.2750  0.3825
  115TMC2    O2 1764   2.341   3.698   0.265 -0.0249  0.1868  0.7328
  115TMC2    O5 1765   2.408   3.889   0.168  0.7187 -0.1430 -0.4154
  115TMC2    H5 1766   2.373   3.966   0.119 -2.3484 -1.1780  0.1457
  116MPD2     C 1767   1.415   3.506   0.270  0.2226 -0.1296 -0.2047
  116MPD2    C1 1768   1.526   3.460   0.205  0.6604  0.0848  0.4770
  116MPD2    C2 1769   1.646   3.536   0.205 -0.7472 -0.2262 -0.2597
  116MPD2    C3 1770   1.648   3.653   0.280  0.1166  0.4479  0.0348
  116MPD2    C4 1771   1.541   3.692   0.351 -0.4145  0.2632  0.6332
  116MPD2    C5 1772   1.423   3.625   0.341  0.2895  0.3248 -0.0605
  116MPD2     H 1773   1.731   3.494   0.153  1.2530 -0.5813  3.2776
  116MPD2    H1 1774   1.547   3.786   0.404  0.6444  0.4367  0.2026
  116MPD2    H2 1775   1.316   3.464   0.263  0.8308 -1.8523  1.3829
  116MPD2    H3 1776   1.339   3.671   0.390 -0.3021 -3.3977  2.4572
  116MPD2     N 1777   1.759   3.741   0.298  0.6313  0.0866  0.2471
  116MPD2    H5 1778   1.761   3.814   0.368  1.2778 -0.2741  0.5999
  116MPD2    N1 1779   1.496   3.349   0.125  0.0153 -0.7571 -0.5986
  116MPD2    H7 1780   1.399   3.321   0.116 -1.0855  2.5168  0.9175
  117TMC2    C1 1781   0.388   0.200  14.343  0.2406  0.1198  0.1083
  117TMC2    C2 1782   0.371   0.149  14.469 -0.2670  0.7965 -0.1090
  117TMC2    C3 1783   0.467   0.189  14.558 -0.7474 -0.2633  0.3394
  117TMC2    C4 1784   0.484   0.291  14.312  0.5863 -0.4920 -0.4459
  117TMC2    C5 1785   0.573   0.336  14.404 -0.9577 -0.5850  0.3185
  117TMC2    C6 1786   0.565   0.282  14.529  0.5318 -0.8041 -0.4317
  117TMC2     C 1787   0.267   0.197  14.263 -0.5200 -0.2080 -0.1306
  117TMC2     O 1788   0.190   0.103  14.277 -0.5369 -0.5031  0.7330
  117TMC2     H 1789   0.288   0.081  14.483 -0.3685  1.2150  1.3329
  117TMC2    H1 1790   0.507   0.318  14.210 -1.8076  1.2868 -0.5115
  117TMC2    H2 1791   0.625   0.323  14.610 -1.3028 -1.0599  1.0635
  117TMC2    C7 1792   0.696   0.408  14.377 -0.2328 -0.4151 -0.8646
  117TMC2    C8 1793   0.442   0.182  14.705 -0.0932  0.3163  0.0568
  117TMC2    O1 1794   0.782   0.412  14.468 -0.1040 -0.2143 -0.3264
  117TMC2    O2 1795   0.432   0.279  14.775 -0.2274 -0.0235  0.3002
  117TMC2    O5 1796   0.351   0.081  14.706  0.3445 -0.4829 -0.2494
  117TMC2    H5 1797   0.377   4.724  14.661  2.0307 -1.1577  1.9752
  118MPD2     C 1798   0.749   0.615  14.086 -0.0789  0.8083  0.1828
  118MPD2    C1 1799   0.781   0.573  14.210 -0.1548 -0.3446  0.0465
  118MPD2    C2 1800   0.898   0.604  14.270 -0.7807  0.2346 -0.2864
  118MPD2    C3 1801   0.982   0.694  14.209 -0.9767  0.0175 -0.1197
  118MPD2    C4 1802   0.944   0.746  14.087  0.2574 -0.1948 -0.0473
  118MPD2    C5 1803   0.824   0.715  14.024 -0.0582  0.7401  0.5122
  118MPD2     H 1804   0.923   0.571  14.370  0.5491 -0.6730 -0.9160
  118MPD2    H1 1805   0.998   0.828  14.042  1.3179  0.1805  1.9048
  118MPD2    H2 1806   0.671   0.568  14.027 -1.2440  2.2714  0.5326
  118MPD2    H3 1807   0.799   0.763  13.931 -0.0422  1.9204  1.1166
  118MPD2     N 1808   1.092   0.752  14.281  0.0383  0.0804 -0.0753
  118MPD2    H5 1809   1.103   0.726  14.378  0.7505  1.2404  0.1553
  118MPD2    N1 1810   0.685   0.482  14.258 -0.0388  0.3206 -0.1000
  118MPD2    H7 1811   0.598   0.471  14.208 -0.3182  0.0269  0.4459
  119MPD2     C 1812   4.245   1.874  13.872  0.2536  0.2333  0.6614
  119MPD2    C1 1813   4.113   1.888  13.898  0.5416  0.2136  0.3890
  119MPD2    C2 1814   4.022   1.890  13.794  0.3225 -0.7253 -0.0475
  119MPD2    C3 1815   4.064   1.878  13.662  0.4118  0.4018 -0.3527
  119MPD2    C4 1816   4.192   1.858  13.637 -0.2974  0.0930 -0.1955
  119MPD2    C5 1817   4.284   1.854  13.742  0.2511 -0.9905  0.1728
  119MPD2     H 1818   3.917   1.904  13.818  0.0615  1.1683 -2.2596
  119MPD2    H1 1819   4.227   1.843  13.536 -1.8482  0.8709 -0.8568
  119MPD2    H2 1820   4.322   1.881  13.947  1.3575 -2.9075 -0.1532
  119MPD2    H3 1821   4.387   1.831  13.718  0.5260  0.1638  0.2204
  119MPD2     N 1822   3.980   1.879  13.547 -0.1031  0.3191  0.0293
  119MPD2    H5 1823   4.019   1.858  13.455 -0.3719  0.6053 -0.1510
  119MPD2    N1 1824   4.065   1.872  14.035  0.5194 -0.1026 -0.2941
  119MPD2    H7 1825   4.130   1.909  14.103  0.0005  1.0312 -0.4248
  120TCq2    C1 1826   3.844   1.909  13.551  0.2871 -1.0620  0.1767
  120TCq2    O2 1827   3.764   1.929  13.645 -0.1599  0.3513 -0.4286
  120TCq2    C2 1828   3.785   1.892  13.422  0.2661 -0.0243  0.1892
  120TCq2    C3 1829   3.856   1.917  13.311 -0.1890 -0.9040  0.3317
  120TCq2    C4 1830   3.830   1.854  13.193  0.0783  0.0509  1.0805
  120TCq2    C5 1831   3.739   1.757  13.189  0.7592 -1.4231 -0.0782
  120TCq2    C6 1832   3.663   1.736  13.299 -0.1756  0.6733  0.4968
  120TCq2    C7 1833   3.672   1.815  13.413  0.0745  0.4307 -0.3314
  120TCq2    C8 1834   3.540   1.662  13.283 -0.5401 -0.2335  0.1437
  120TCq2    O4 1835   3.513   1.652  13.165 -0.5982  0.1044 -0.1664
  120TCq2    C9 1836   3.905   1.882  13.074  0.0389 -0.8369  0.0062
  120TCq2    O5 1837   4.001   1.962  13.076  0.3975 -0.1342 -0.2447
  120TCq2    O6 1838   3.889   1.790  12.984  0.0036  0.2144 -0.0692
  120TCq2    H2 1839   3.941   1.982  13.322 -0.2796 -1.2308  2.9050
  120TCq2    H3 1840   3.727   1.701  13.097  0.8566 -0.5430 -0.6236
  120TCq2    H4 1841   3.604   1.814  13.497  2.8731 -1.2192  1.9031
  121TMC2    C1 1842   0.571   3.559  14.414  0.6663  0.9510  0.9489
  121TMC2    C2 1843   0.497   3.584  14.522  0.4299 -0.1760 -0.0426
  121TMC2    C3 1844   0.387   3.505  14.539 -0.2892 -0.6396 -0.3399
  121TMC2    C4 1845   0.538   3.466  14.323  0.4682 -0.5969 -0.3476
  121TMC2    C5 1846   0.422   3.396  14.345 -0.2368  0.4844  0.7958
  121TMC2    C6 1847   0.345   3.403  14.455  0.7698 -0.2302 -0.4136
  121TMC2     C 1848   0.677   3.659  14.376 -0.4001  0.2531  0.2018
  121TMC2     O 1849   0.736   3.709  14.471  0.0199  0.5137 -0.7828
  121TMC2     H 1850   0.528   3.660  14.593 -0.7353 -0.3640  0.6679
  121TMC2    H1 1851   0.601   3.435  14.241  1.8500 -1.5947  1.1007
  121TMC2    H2 1852   0.256   3.342  14.463  1.1364 -0.5572  1.2419
  121TMC2    C7 1853   0.371   3.321  14.228 -0.5161 -0.2080 -0.5297
  121TMC2    C8 1854   0.276   3.564  14.609  0.2694  0.3323 -0.1652
  121TMC2    O1 1855   0.442   3.309  14.132  0.4940 -0.3810  0.3511
  121TMC2    O2 1856   0.162   3.554  14.573  0.0565 -0.2746 -0.3866
  121TMC2    O5 1857   0.329   3.612  14.725  0.2808  0.4508 -0.4519
  121TMC2    H5 1858   0.418   3.576  14.746  0.2139 -0.8026 -2.3639
  122MPD2     C 1859   0.932   3.743  14.247 -1.2446  0.4872  0.9079
  122MPD2    C1 1860   0.810   3.712  14.185  0.0395  0.0401  1.3193
  122MPD2    C2 1861   0.804   3.726  14.050 -0.2247  0.8932 -0.2255
  122MPD2    C3 1862   0.915   3.755  13.972  0.2077 -0.0756  0.4214
  122MPD2    C4 1863   1.040   3.776  14.033  0.7053  0.0556  0.3160
  122MPD2    C5 1864   1.040   3.777  14.172  0.1340  0.2543 -0.4094
  122MPD2     H 1865   0.714   3.694  13.998  0.2720 -3.8409  1.8190
  122MPD2    H1 1866   1.137   3.803  13.993 -0.0028  1.6746 -0.3001
  122MPD2    H2 1867   0.944   3.741  14.355  1.0322  1.2412  0.6529
  122MPD2    H3 1868   1.135   3.792  14.222  0.4663  1.0187 -1.2626
  122MPD2     N 1869   0.902   3.776  13.832  0.5962 -0.0618  0.4459
  122MPD2    H5 1870   0.988   3.782  13.778  0.3088  2.1194  0.2552
  122MPD2    N1 1871   0.696   3.664  14.245 -0.1579  0.5788  0.3422
  122MPD2    H7 1872   0.618   3.636  14.186 -0.4721 -0.6441  1.3494
  123MPD2     C 1873   3.824   0.540   9.416 -0.3699  0.0110  0.2851
  123MPD2    C1 1874   3.832   0.650   9.495  0.1200  0.4652 -0.6813
  123MPD2    C2 1875   3.924   0.748   9.461 -0.0296 -0.0289  0.0940
  123MPD2    C3 1876   4.003   0.737   9.348  0.2408 -0.0400 -0.2389
  123MPD2    C4 1877   3.987   0.631   9.264  0.0910 -1.0752 -0.3997
  123MPD2    C5 1878   3.906   0.531   9.303 -0.3057  0.4903 -0.7176
  123MPD2     H 1879   3.920   0.839   9.520  0.7892  0.3760 -0.4580
  123MPD2    H1 1880   4.039   0.607   9.173  1.8941  0.8471  0.1323
  123MPD2    H2 1881   3.758   0.457   9.437  2.3718 -2.2001  0.1752
  123MPD2    H3 1882   3.900   0.455   9.227 -0.5299  0.6364 -0.8467
  123MPD2     N 1883   4.104   0.828   9.312  0.4446 -0.1388  0.1957
  123MPD2    H5 1884   4.128   0.904   9.376 -0.6208 -1.5237  2.2201
  123MPD2    N1 1885   3.734   0.659   9.599  0.0514 -0.1685 -0.3063
  123MPD2    H7 1886   3.678   0.578   9.623 -2.5666  1.7824  0.1028
  124TCq2    C1 1887   4.182   0.825   9.199  0.3098  0.5465 -0.4792
  124TCq2    O2 1888   4.171   0.759   9.093  0.0766  0.0508  0.3855
  124TCq2    C2 1889   4.300   0.914   9.200 -0.0407  0.5439 -0.1679
  124TCq2    C3 1890   4.370   0.923   9.085  0.2764 -0.2469  0.4057
  124TCq2    C4 1891   4.491   0.992   9.086  0.4749 -0.4984 -0.4231
  124TCq2    C5 1892   4.538   1.055   9.193  0.1043  0.1285 -0.4242
  124TCq2    C6 1893   4.449   1.062   9.300 -0.1965  0.1654 -1.0094
  124TCq2    C7 1894   4.331   0.990   9.307 -0.6227  0.4336 -0.8497
  124TCq2    C8 1895   4.487   1.130   9.419 -0.0445  0.5326  0.1449
  124TCq2    O4 1896   4.417   1.103   9.513  0.0670  0.2100  0.0259
  124TCq2    C9 1897   4.566   1.000   8.963 -0.3125  0.6315 -0.2626
  124TCq2    O5 1898   4.691   1.008   8.966 -0.1912 -0.5692  0.0334
  124TCq2    O6 1899   4.499   0.985   8.861 -0.0536 -0.5293  0.4949
  124TCq2    H2 1900   4.344   0.864   8.999 -0.8427  0.0913  0.5153
  124TCq2    H3 1901   4.634   1.106   9.192 -0.4028  1.0509 -1.2267
  124TCq2    H4 1902   4.269   0.985   9.396  0.4321 -2.9336 -0.3029
  125TMC2    C1 1903   4.224   3.912  10.098 -0.4411 -0.4055  1.1842
  125TMC2    C2 1904   4.282   4.023  10.049 -0.9655 -0.1246 -0.4083
  125TMC2    C3 1905   4.413   4.011  10.003 -0.3506 -0.3720 -0.5318
  125TMC2    C4 1906   4.276   3.784  10.087 -1.1296  0.2694  0.0805
  125TMC2    C5 1907   4.397   3.775  10.032  0.0938 -0.0311 -0.1262
  125TMC2    C6 1908   4.467   3.888   9.984 -0.0860  0.5729 -0.1526
  125TMC2     C 1909   4.110   3.942  10.175 -0.6076 -0.3412 -0.7009
  125TMC2     O 1910   4.118   4.045  10.247 -0.0330 -0.3263  0.9606
  125TMC2     H 1911   4.231   4.118  10.037  0.0268  0.5121  0.4115
  125TMC2    H1 1912   4.223   3.695  10.120  1.1079 -1.4897 -1.0529
  125TMC2    H2 1913   4.569   3.896   9.950  0.1932  0.8317  0.7571
  125TMC2    C7 1914   4.466   3.641  10.049 -0.1412 -0.3609  0.7545
  125TMC2    C8 1915   4.484   4.130   9.964  1.2815  0.6337  0.4255
  125TMC2    O1 1916   4.404   3.557  10.113 -0.6170 -0.0139 -0.3481
  125TMC2    O2 1917   4.579   4.131   9.886  0.5273 -0.2042  0.1620
  125TMC2    O5 1918   4.466   4.217  10.070  0.4333 -0.3014 -0.1947
  125TMC2    H5 1919   4.384   4.208  10.124  0.0396 -1.9467 -1.0714
  126MPD1     C 1920   3.625   3.860  10.276  0.0865  0.4334  0.0667
  126MPD1    C1 1921   3.652   3.784  10.157 -0.2857 -0.2025 -0.4350
  126MPD1    C2 1922   3.779   3.792  10.112 -0.1105  0.3427 -0.4960
  126MPD1    C3 1923   3.874   3.858  10.184 -0.2917 -0.7996 -0.1070
  126MPD1    C4 1924   3.857   3.917  10.305  0.3885  0.2699 -0.4373
  126MPD1    C5 1925   3.727   3.915  10.347 -0.8192 -0.4438  0.0520
  126MPD1     H 1926   3.810   3.759  10.014 -3.3494 -1.4969 -0.9135
  126MPD1    H1 1927   3.930   3.960  10.373 -0.1296  0.6511 -0.1279
  126MPD1    H2 1928   3.525   3.871  10.316 -0.5712  1.0509 -1.7681
  126MPD1    H3 1929   3.703   3.944  10.448 -0.6800 -1.3127  0.3284
  126MPD1     N 1930   4.008   3.861  10.136 -0.1368  0.2621 -0.2024
  126MPD1    H5 1931   4.029   3.809  10.052  3.5593 -1.0446  1.5084
  126MPD1    N1 1932   3.548   3.745  10.065  0.3071 -0.5743 -0.2447
  126MPD1    H6 1933   3.466   3.717  10.117 -1.0293  1.4376 -1.2703
  126MPD1    H7 1934   3.584   3.665  10.013  0.7815 -0.6376  0.1841
  127MPD2     C 1935   1.000   2.169   9.337 -0.1017  0.2552 -0.4095
  127MPD2    C1 1936   0.974   2.202   9.468 -0.4512 -0.1017 -0.2669
  127MPD2    C2 1937   1.056   2.294   9.536  0.2240  0.6693  0.4702
  127MPD2    C3 1938   1.164   2.353   9.469 -0.2353 -0.3377 -1.3867
  127MPD2    C4 1939   1.187   2.317   9.333  0.3636  0.1185 -0.0404
  127MPD2    C5 1940   1.107   2.224   9.269  0.0415 -0.8480  0.2304
  127MPD2     H 1941   1.032   2.326   9.636 -1.1389  3.9896 -0.9207
  127MPD2    H1 1942   1.272   2.353   9.276  0.0970  3.8138  1.8845
  127MPD2    H2 1943   0.937   2.100   9.282 -1.0952 -0.1442  1.2500
  127MPD2    H3 1944   1.117   2.209   9.162 -0.4530  1.1949 -0.0977
  127MPD2     N 1945   1.246   2.454   9.531  0.3176 -0.0490  0.3464
  127MPD2    H5 1946   1.231   2.487   9.625 -1.1760  1.1255 -0.3020
  127MPD2    N1 1947   0.849   2.163   9.517 -0.0234  0.4104  0.0267
  127MPD2    H7 1948   0.780   2.138   9.447 -0.2111  0.1207  0.3178
  128TCq2    C1 1949   0.801   2.188   9.640 -0.3422 -0.5265 -0.0348
  128TCq2    O2 1950   0.848   2.256   9.731  0.6627 -0.3225 -0.8246
  128TCq2    C2 1951   0.664   2.142   9.653 -0.6518 -0.1641 -0.0851
  128TCq2    C3 1952   0.593   2.193   9.761 -0.0448 -0.2641 -0.1862
  128TCq2    C4 1953   0.480   2.121   9.800 -0.5328 -0.7194 -0.2111
  128TCq2    C5 1954   0.438   2.008   9.742  0.2864  0.0668 -0.6594
  128TCq2    C6 1955   0.513   1.965   9.636  0.1323 -0.4911 -0.0804
  128TCq2    C7 1956   0.633   2.021   9.601 -0.1928 -0.0138 -0.4621
  128TCq2    C8 1957   0.515   1.827   9.592  0.2096  0.4668  0.2418
  128TCq2    O4 1958   0.571   1.791   9.490  1.2018  0.8208  0.0813
  128TCq2    C9 1959   0.405   2.183   9.906  0.0480  0.4101  0.7618
  128TCq2    O5 1960   0.291   2.132   9.928 -0.7650  0.7449 -0.2664
  128TCq2    O6 1961   0.449   2.288   9.953 -0.0392  0.0365 -0.3499
  128TCq2    H2 1962   0.611   2.287   9.811  3.1010 -1.1056  0.2399
  128TCq2    H3 1963   0.339   1.975   9.767  0.5596  0.5380  1.0068
  128TCq2    H4 1964   0.711   1.974   9.542  1.2107  0.8495  0.7108
  129MPD2     C 1965   0.399   2.523   1.622  0.2119  0.1059  0.4320
  129MPD2    C1 1966   0.293   2.602   1.587  0.5992  0.5731  0.0002
  129MPD2    C2 1967   0.308   2.744   1.577 -0.0520  0.5337  0.2323
  129MPD2    C3 1968   0.430   2.803   1.601  0.4983 -0.9084 -0.2985
  129MPD2    C4 1969   0.535   2.719   1.632  0.5301 -0.3228 -0.2185
  129MPD2    C5 1970   0.517   2.583   1.651 -0.2526  1.1674  0.2058
  129MPD2     H 1971   0.227   2.808   1.544 -1.5272 -2.1654 -1.3454
  129MPD2    H1 1972   0.635   2.756   1.649  0.7466 -2.8686  4.0133
  129MPD2    H2 1973   0.397   2.415   1.636 -1.2215  0.0134 -0.4485
  129MPD2    H3 1974   0.600   2.520   1.679 -2.2263 -1.8089 -0.6364
  129MPD2     N 1975   0.448   2.940   1.595  0.1785 -0.3963 -0.3074
  129MPD2    H5 1976   0.369   2.998   1.570  0.1424 -0.1042  0.4812
  129MPD2    N1 1977   0.158   2.551   1.585 -0.1206 -0.3404 -0.1929
  129MPD2    H7 1978   0.079   2.614   1.573  0.1867  0.2305  0.8996
  130TCq2    C1 1979   0.121   2.426   1.620  0.1415 -0.5122  0.0339
  130TCq2    O2 1980   0.197   2.329   1.630 -0.0821 -0.6837 -0.2358
  130TCq2    C2 1981   4.705   2.397   1.634  0.1664  0.1633  0.2536
  130TCq2    C3 1982   4.674   2.262   1.630  0.0929 -0.1401  0.2774
  130TCq2    C4 1983   4.553   2.224   1.677  0.0921 -0.0189 -0.1670
  130TCq2    C5 1984   4.466   2.311   1.723  0.4653 -0.6752 -0.4634
  130TCq2    C6 1985   4.499   2.444   1.724 -1.0921  0.1489  0.0555
  130TCq2    C7 1986   4.613   2.492   1.677  0.5218  0.1525 -0.0539
  130TCq2    C8 1987   4.386   2.536   1.723 -0.2370  0.7793 -0.1178
  130TCq2    O4 1988   4.284   2.497   1.773  0.0993 -0.5826  0.5800
  130TCq2    C9 1989   4.518   2.086   1.677  0.7811  0.8918  0.5336
  130TCq2    O5 1990   4.590   2.003   1.613  0.9959  0.2421 -0.5862
  130TCq2    O6 1991   4.413   2.058   1.729 -0.4212  0.2787  0.4171
  130TCq2    H2 1992   0.016   2.190   1.588  1.2768  1.0784  0.1051
  130TCq2    H3 1993   4.374   2.278   1.771  0.9893 -0.2707  0.8265
  130TCq2    H4 1994   4.641   2.594   1.698  0.1942  0.7926 -2.7767
  131MPD2     C 1995   3.176   1.401   9.979  0.8228  0.0273  0.0924
  131MPD2    C1 1996   3.308   1.392   9.950  0.2709 -0.6666 -0.0112
  131MPD2    C2 1997   3.362   1.271   9.904 -0.2848 -0.7571  0.0646
  131MPD2    C3 1998   3.288   1.153   9.911  0.4245 -0.2947  0.1272
  131MPD2    C4 1999   3.163   1.156   9.965  0.1917  0.5447 -0.2948
  131MPD2    C5 2000   3.114   1.282   9.995 -0.1281  0.7006  0.2970
  131MPD2     H 2001   3.465   1.264   9.870 -0.1247 -2.3870  0.8932
  131MPD2    H1 2002   3.099   1.069   9.975  1.1740 -0.0515  0.8665
  131MPD2    H2 2003   3.119   1.490  10.003 -0.7587 -0.6834 -0.9576
  131MPD2    H3 2004   3.013   1.292  10.033 -1.0440 -2.6341 -1.2746
  131MPD2     N 2005   3.345   1.035   9.857  0.4190  0.2860  0.1224
  131MPD2    H5 2006   3.441   1.039   9.825 -0.0033 -1.2280 -1.3399
  131MPD2    N1 2007   3.377   1.511   9.939 -0.1173 -0.7230 -0.2091
  131MPD2    H7 2008   3.321   1.595   9.937  0.3645 -0.4350 -1.5309
  132TCq2    C1 2009   3.827   1.862   9.760  0.0468  0.3475  0.3271
  132TCq2    O2 2010   3.871   1.808   9.661  0.0167 -0.1712  1.0876
  132TCq2    C2 2011   3.704   1.825   9.822  0.5250  0.1923  0.1949
  132TCq2    C3 2012   3.617   1.928   9.854  0.3393  0.0069 -0.5879
  132TCq2    C4 2013   3.495   1.896   9.904 -0.2922  0.6884 -0.0574
  132TCq2    C5 2014   3.466   1.766   9.918  0.0156 -0.0236  0.6131
  132TCq2    C6 2015   3.548   1.665   9.879 -0.1556 -0.3437 -0.4650
  132TCq2    C7 2016   3.666   1.695   9.823 -0.3126 -0.2435 -0.2382
  132TCq2    C8 2017   3.514   1.527   9.914  0.5573  0.2089  0.6939
  132TCq2    O4 2018   3.603   1.441   9.915 -0.4855  0.3068 -0.3089
  132TCq2    C9 2019   3.400   2.003   9.932  0.5147 -0.0461  0.2974
  132TCq2    O5 2020   3.279   1.964   9.942 -1.1225 -0.3315 -1.3200
  132TCq2    O6 2021   3.446   2.116   9.895  0.2754 -0.1774 -0.5708
  132TCq2    H2 2022   3.649   2.031   9.847 -0.7562  0.3476 -0.5685
  132TCq2    H3 2023   3.371   1.755   9.971 -1.1950  1.3553 -1.2626
  132TCq2    H4 2024   3.730   1.620   9.779  1.0062  1.3154 -0.9989
  133MPD2     C 2025   1.365   3.507   9.330 -0.1307  0.4597  0.2024
  133MPD2    C1 2026   1.432   3.397   9.272  0.1778 -0.4054 -0.0799
  133MPD2    C2 2027   1.562   3.370   9.292  0.0295 -0.5561  0.3892
  133MPD2    C3 2028   1.632   3.440   9.387  0.3377  0.1785 -0.2735
  133MPD2    C4 2029   1.567   3.550   9.440  0.0257 -0.6896  0.0358
  133MPD2    C5 2030   1.445   3.587   9.405 -0.7069 -0.2900  0.3255
  133MPD2     H 2031   1.608   3.295   9.228 -1.7922 -1.3831  0.0597
  133MPD2    H1 2032   1.613   3.616   9.512  3.1135 -1.1964 -1.4853
  133MPD2    H2 2033   1.265   3.538   9.305 -0.2668  1.1396  1.6161
  133MPD2    H3 2034   1.407   3.678   9.450  0.4484  0.2611  0.2076
  133MPD2     N 2035   1.775   3.433   9.412  0.5168  0.1947  0.0913
  133MPD2    H5 2036   1.822   3.502   9.470 -0.8097  1.2373 -0.0579
  133MPD2    N1 2037   1.342   3.329   9.184 -0.2358  0.4209 -0.2699
  133MPD2    H7 2038   1.251   3.373   9.174 -0.3887  0.3780  0.8312
  134TCq2    C1 2039   1.361   3.219   9.111 -0.2362 -0.3868 -0.2170
  134TCq2    O2 2040   1.469   3.173   9.077 -0.6208  0.2735  0.2567
  134TCq2    C2 2041   1.239   3.174   9.048  0.5808 -0.2985  0.9357
  134TCq2    C3 2042   1.122   3.207   9.115  0.4693 -0.9905  0.4298
  134TCq2    C4 2043   1.009   3.128   9.088 -0.8197 -0.4878  0.3021
  134TCq2    C5 2044   1.023   3.009   9.013 -0.3219  0.2174 -0.4171
  134TCq2    C6 2045   1.145   2.976   8.962  0.2317  0.8466  0.6733
  134TCq2    C7 2046   1.254   3.057   8.983  0.2600 -0.3016 -0.1144
  134TCq2    C8 2047   1.165   2.843   8.902 -0.4977 -0.1236 -0.6388
  134TCq2    O4 2048   1.275   2.816   8.862 -0.5865  0.5562 -0.0792
  134TCq2    C9 2049   0.880   3.176   9.132  0.8370  0.0065 -0.0990
  134TCq2    O5 2050   0.783   3.096   9.134 -0.4470 -0.3327 -0.2897
  134TCq2    O6 2051   0.867   3.294   9.168  0.6001  0.0009 -0.2987
  134TCq2    H2 2052   1.112   3.292   9.182  0.3431 -1.6559  1.2527
  134TCq2    H3 2053   0.937   2.952   8.983 -0.4925  0.3253 -0.1301
  134TCq2    H4 2054   1.347   3.038   8.932 -0.0495  0.4531 -0.9646
  135MPD2     C 2055   0.829   3.588  10.188  0.8614  0.2724 -0.2961
  135MPD2    C1 2056   0.809   3.624  10.063  0.1286  0.4410  0.2725
  135MPD2    C2 2057   0.923   3.626   9.989 -0.3673  0.1496  0.9959
  135MPD2    C3 2058   1.039   3.560  10.032 -0.5504  0.6287  0.0926
  135MPD2    C4 2059   1.049   3.524  10.161  0.8074  0.0330  0.3692
  135MPD2    C5 2060   0.941   3.540  10.240 -0.1284  0.1020  0.1915
  135MPD2     H 2061   0.910   3.643   9.882  0.0097 -1.0325  0.7658
  135MPD2    H1 2062   1.141   3.481  10.201  0.5625 -1.0610 -0.2383
  135MPD2    H2 2063   0.744   3.589  10.256  0.2152  1.1790 -1.1182
  135MPD2    H3 2064   0.949   3.526  10.347 -1.0344  0.7819  0.3407
  135MPD2     N 2065   1.146   3.505   9.953 -0.0206  0.2019 -0.7553
  135MPD2    H5 2066   1.219   3.457  10.004 -2.1140 -0.3164  1.7830
  135MPD2    N1 2067   0.687   3.663  10.007  0.5039  0.5739 -0.0890
  135MPD2    H7 2068   0.695   3.716   9.920  1.0829 -1.4659 -1.2619
  136TCq2    C1 2069   0.567   3.656  10.060  0.5347 -0.3997 -0.5060
  136TCq2    O2 2070   0.542   3.620  10.171  0.3599  0.0096  0.1396
  136TCq2    C2 2071   0.460   3.710   9.981  0.2522 -0.7540  0.0696
  136TCq2    C3 2072   0.485   3.737   9.853 -0.2794 -0.5460 -0.2238
  136TCq2    C4 2073   0.413   3.833   9.784  1.0451 -0.3599  0.2875
  136TCq2    C5 2074   0.317   3.907   9.850  0.5686 -0.3383  0.6499
  136TCq2    C6 2075   0.275   3.860   9.974  0.4370  0.4881 -0.5800
  136TCq2    C7 2076   0.353   3.775  10.043 -0.7189  0.4267  0.1449
  136TCq2    C8 2077   0.166   3.930  10.052 -1.3451 -0.6528 -0.6660
  136TCq2    O4 2078   0.137   4.042  10.014  0.2280  0.3166  0.3688
  136TCq2    C9 2079   0.444   3.852   9.641  0.4821 -0.1586 -0.3302
  136TCq2    O5 2080   0.404   3.965   9.595 -0.9361 -0.3676  0.5766
  136TCq2    O6 2081   0.539   3.787   9.594  0.2104 -0.3553  0.4009
  136TCq2    H2 2082   0.546   3.671   9.793  1.4392 -0.2145  1.1435
  136TCq2    H3 2083   0.268   3.989   9.798  3.8231  0.2639 -1.4717
  136TCq2    H4 2084   0.337   3.750  10.148  0.1678 -3.0190 -0.5659
  137MPD2     C 2085   0.785   2.917   9.971  0.5083 -0.7702 -0.1554
  137MPD2    C1 2086   0.656   2.966   9.988 -0.5835 -0.0788  0.5984
  137MPD2    C2 2087   0.629   3.011  10.120 -0.1775 -0.4398 -0.4203
  137MPD2    C3 2088   0.729   3.003  10.216  0.5181  0.6988 -0.0922
  137MPD2    C4 2089   0.858   2.963  10.186 -0.0668 -0.1922 -0.0009
  137MPD2    C5 2090   0.883   2.912  10.064 -0.1768  0.7919  0.7342
  137MPD2     H 2091   0.534   3.049  10.157  0.8063 -0.3095  1.9488
  137MPD2    H1 2092   0.943   2.969  10.253 -1.0511  2.6383  1.0039
  137MPD2    H2 2093   0.817   2.888   9.871  0.6925  0.4158 -0.4363
  137MPD2    H3 2094   0.984   2.881  10.041 -0.9345 -0.7947 -0.4766
  137MPD2     N 2095   0.693   3.038  10.346  0.0427  0.8992 -0.6352
  137MPD2    H5 2096   0.602   3.077  10.368  0.9266  1.9772  1.1758
  137MPD2    N1 2097   0.567   2.976   9.876  0.3158 -0.7435 -0.6050
  137MPD2    H7 2098   0.599   2.941   9.787  0.6357 -2.0484  0.0262
  138TCq2    C1 2099   0.440   3.032   9.876 -0.1270  0.4060 -0.0267
  138TCq2    O2 2100   0.369   3.066   9.970 -0.0839 -0.2334  0.0655
  138TCq2    C2 2101   0.381   3.048   9.746 -0.1563 -0.1415  0.3314
  138TCq2    C3 2102   0.467   3.069   9.636  0.4347 -0.2812  0.3158
  138TCq2    C4 2103   0.407   3.132   9.528 -0.3157 -0.0817 -0.0291
  138TCq2    C5 2104   0.279   3.166   9.518  0.3325  0.4260  0.0487
  138TCq2    C6 2105   0.202   3.141   9.626  0.1028  0.4571  0.3357
  138TCq2    C7 2106   0.251   3.089   9.741  0.8914  0.4189  0.1895
  138TCq2    C8 2107   0.066   3.186   9.613 -0.4813  1.1667  0.6309
  138TCq2    O4 2108   0.047   3.289   9.548  0.4167  0.8940  0.4102
  138TCq2    C9 2109   0.495   3.170   9.424  0.4457 -0.0156  0.0368
  138TCq2    O5 2110   0.450   3.247   9.338 -0.3291  0.1499  0.0495
  138TCq2    O6 2111   0.614   3.125   9.420  0.1945  0.3743  0.2382
  138TCq2    H2 2112   0.574   3.049   9.630  0.5294  0.3301  0.0469
  138TCq2    H3 2113   0.236   3.216   9.432 -0.1680 -0.2575 -0.1008
  138TCq2    H4 2114   0.189   3.070   9.828 -0.8949 -0.8799 -1.3584
  139TMC2    C1 2115   0.420   1.187  13.319 -1.1903 -0.5087  0.4346
  139TMC2    C2 2116   0.318   1.144  13.232 -0.4894  0.0587  0.2047
  139TMC2    C3 2117   0.194   1.196  13.250  0.5654 -0.6589  0.0130
  139TMC2    C4 2118   0.397   1.288  13.408  0.4079 -0.3112 -0.7891
  139TMC2    C5 2119   0.273   1.343  13.409 -0.5621 -0.4403 -0.7265
  139TMC2    C6 2120   0.167   1.300  13.330 -0.4153  0.6879 -0.5698
  139TMC2     C 2121   0.551   1.121  13.309 -0.3006  0.5431 -0.3875
  139TMC2     O 2122   0.550   1.007  13.262 -0.3673  0.4528  0.4457
  139TMC2     H 2123   0.339   1.053  13.178  0.8937  1.5713 -1.8235
  139TMC2    H1 2124   0.467   1.285  13.490  0.3436  1.5711 -0.6629
  139TMC2    H2 2125   0.068   1.343  13.338 -0.1991  0.5414  3.1020
  139TMC2    C7 2126   0.247   1.448  13.501 -0.5018 -0.4415  0.1044
  139TMC2    C8 2127   0.095   1.159  13.152 -0.2456  0.8352  1.3229
  139TMC2    O1 2128   0.135   1.470  13.548  0.6186 -0.4923 -0.4730
  139TMC2    O2 2129   0.027   1.058  13.156 -0.1235  0.1079  0.1604
  139TMC2    O5 2130   0.070   1.268  13.076 -0.3617  0.0037 -0.5473
  139TMC2    H5 2131   0.146   1.331  13.072 -0.8788  0.4118 -3.6822
  140MPD2     C 2132   0.883   1.291  13.334  0.0364  0.2089 -0.3473
  140MPD2    C1 2133   0.787   1.185  13.339 -0.5397  0.1525 -0.1089
  140MPD2    C2 2134   0.838   1.056  13.314  0.0224  1.3609  0.1180
  140MPD2    C3 2135   0.966   1.022  13.303 -0.4723 -0.1591 -0.0330
  140MPD2    C4 2136   1.060   1.123  13.307 -0.6447  0.4280 -0.1110
  140MPD2    C5 2137   1.016   1.253  13.325 -0.7083 -0.7968 -0.6931
  140MPD2     H 2138   0.765   0.977  13.300 -0.9449  2.1566  0.6489
  140MPD2    H1 2139   1.165   1.116  13.280 -0.0886  1.9135  1.7015
  140MPD2    H2 2140   0.853   1.395  13.331 -1.6732 -0.2597  0.1654
  140MPD2    H3 2141   1.095   1.327  13.317 -0.8812 -0.2200  3.1462
  140MPD2     N 2142   0.997   0.886  13.289  0.1045 -0.4950  0.1976
  140MPD2    H5 2143   0.914   0.829  13.278  0.1153 -0.2267 -1.2214
  140MPD2    N1 2144   0.650   1.210  13.347  0.3010 -0.4211  0.1271
  140MPD2    H7 2145   0.626   1.307  13.362 -0.6305 -0.6954  0.4236
  141TCq2    C1 2146   0.970   3.177  14.783  0.5119  0.4043 -0.0333
  141TCq2    O2 2147   1.069   3.187  14.714  0.7160  0.1239 -0.5745
  141TCq2    C2 2148   0.909   3.299  14.824 -0.0105 -0.0654 -0.9633
  141TCq2    C3 2149   0.775   3.324  14.837 -0.0950 -0.4976  0.6213
  141TCq2    C4 2150   0.723   3.446  14.856  0.6967  0.1177 -0.2176
  141TCq2    C5 2151   0.813   3.556  14.853 -0.3375 -0.5633  0.2066
  141TCq2    C6 2152   0.944   3.535  14.841 -0.4871 -0.2563 -0.4858
  141TCq2    C7 2153   0.992   3.408  14.827 -0.4840 -0.2409 -0.1953
  141TCq2    C8 2154   1.030   3.648  14.818  0.0619  0.5258 -0.8738
  141TCq2    O4 2155   0.981   3.765  14.818 -0.2435 -0.7749 -0.0354
  141TCq2    C9 2156   0.584   3.470  14.856 -0.4028  0.6886 -0.7052
  141TCq2    O5 2157   0.510   3.367  14.838 -0.7609 -0.7979 -0.1326
  141TCq2    O6 2158   0.542   3.585  14.844  0.7029 -0.3393  0.1268
  141TCq2    H2 2159   0.704   3.244  14.825 -1.4395  0.6886  0.6359
  141TCq2    H3 2160   0.774   3.657  14.859  2.3555  0.6586 -3.1716
  141TCq2    H4 2161   1.098   3.389  14.835 -0.6844  0.1448  3.3822
  142MPD2     C 2162   3.787   1.237  10.584 -0.5639 -0.2782 -1.0441
  142MPD2    C1 2163   3.772   1.231  10.446 -0.4606  0.6785  0.8091
  142MPD2    C2 2164   3.878   1.273  10.367 -0.0083  1.0617  0.4814
  142MPD2    C3 2165   3.992   1.328  10.427 -0.2151 -0.2895 -0.2685
  142MPD2    C4 2166   4.001   1.335  10.564 -0.3801  0.2211 -0.1276
  142MPD2    C5 2167   3.903   1.288  10.637 -0.1148 -0.3782 -0.2807
  142MPD2     H 2168   3.868   1.271  10.259 -0.7722  0.1838  0.5703
  142MPD2    H1 2169   4.089   1.366  10.620 -0.8912  1.4720 -0.0436
  142MPD2    H2 2170   3.705   1.209  10.650  0.1684 -1.9604 -0.8421
  142MPD2    H3 2171   3.924   1.278  10.742 -1.3507 -2.0301 -0.1785
  142MPD2     N 2172   4.101   1.374  10.359 -0.6841  1.1026  0.2842
  142MPD2    H5 2173   4.163   1.429  10.418 -0.0796  0.2176  0.4710
  142MPD2    N1 2174   3.653   1.175  10.387 -0.4936  0.4514  0.5318
  142MPD2    H7 2175   3.593   1.123  10.451 -1.7531  0.2623 -0.8052
  143TCq2    C1 2176   4.122   1.374  10.225  0.2376 -0.1916  0.0835
  143TCq2    O2 2177   4.075   1.299  10.141 -0.1746  0.6426 -1.0902
  143TCq2    C2 2178   4.245   1.431  10.186  0.8034  0.7597  0.5756
  143TCq2    C3 2179   4.313   1.506  10.274 -0.0387  0.4008  0.0143
  143TCq2    C4 2180   4.439   1.546  10.238 -0.5337  0.1248 -0.4914
  143TCq2    C5 2181   4.491   1.507  10.113 -0.0020  0.7427 -0.4376
  143TCq2    C6 2182   4.410   1.442  10.022  0.4723 -0.2011 -0.1869
  143TCq2    C7 2183   4.290   1.389  10.063 -0.8674 -0.4225  0.1285
  143TCq2    C8 2184   4.458   1.391   9.890 -0.4471 -0.3014  0.0510
  143TCq2    O4 2185   4.384   1.310   9.832  0.2439  0.1413  0.3005
  143TCq2    C9 2186   4.522   1.622  10.326  0.3666 -0.4441 -0.0524
  143TCq2    O5 2187   4.482   1.650  10.443 -0.6635  0.4043  0.8549
  143TCq2    O6 2188   4.632   1.660  10.281  0.1357  0.1539 -0.0335
  143TCq2    H2 2189   4.273   1.554  10.362 -1.6611  0.1184 -0.5763
  143TCq2    H3 2190   4.592   1.545  10.096  0.6028 -0.9357 -0.5690
  143TCq2    H4 2191   4.238   1.318   9.999 -2.7221 -0.6877  1.9363
  144MPD2     C 2192   1.726   0.897   1.097  0.9210  0.3652  0.0445
  144MPD2    C1 2193   1.775   0.768   1.104  0.3739 -0.0525  0.3923
  144MPD2    C2 2194   1.908   0.747   1.140  0.2803  0.0472 -0.3370
  144MPD2    C3 2195   1.995   0.848   1.172  0.0876 -0.1259 -0.7384
  144MPD2    C4 2196   1.949   0.973   1.161  0.2320 -0.1210 -0.2220
  144MPD2    C5 2197   1.814   1.004   1.123  0.0370 -0.0933 -0.1410
  144MPD2     H 2198   1.945   0.646   1.149 -0.9263 -0.4422 -0.9241
  144MPD2    H1 2199   2.007   1.055   1.201  2.0758 -2.0072  0.9293
  144MPD2    H2 2200   1.624   0.924   1.071  1.3434  2.5974  0.6928
  144MPD2    H3 2201   1.774   1.104   1.114  1.8427  0.8820  2.4837
  144MPD2     N 2202   2.125   0.832   1.225 -0.1567 -0.1632  0.1107
  144MPD2    H5 2203   2.175   0.911   1.265 -0.6562 -0.4030  1.1986
  144MPD2    N1 2204   1.698   0.652   1.082  0.2233 -0.2559  0.2094
  144MPD2    H7 2205   1.753   0.570   1.104 -1.8732 -2.0641 -1.3122
  145TCq2    C1 2206   2.196   0.712   1.231 -0.1709 -0.2263 -0.0746
  145TCq2    O2 2207   2.165   0.596   1.198  0.3740  0.8708  0.7215
  145TCq2    C2 2208   2.329   0.728   1.287 -0.0775  0.2744 -0.1389
  145TCq2    C3 2209   2.419   0.632   1.254  0.1497  0.1394 -0.1021
  145TCq2    C4 2210   2.539   0.644   1.310  0.1927 -0.3250 -0.1897
  145TCq2    C5 2211   2.577   0.738   1.401  0.8255 -0.6032  0.0163
  145TCq2    C6 2212   2.487   0.830   1.435  0.5957  0.3512  0.2486
  145TCq2    C7 2213   2.357   0.832   1.376 -0.2032  0.3290  0.2555
  145TCq2    C8 2214   2.545   0.935   1.513 -0.4723  0.1330 -0.1531
  145TCq2    O4 2215   2.665   0.922   1.539 -0.1371  0.1582  0.6052
  145TCq2    C9 2216   2.634   0.538   1.283  0.0035 -0.1735 -0.4148
  145TCq2    O5 2217   2.605   0.453   1.195 -0.2552  0.2033 -0.4747
  145TCq2    O6 2218   2.729   0.524   1.362 -0.5419 -0.1254  0.5063
  145TCq2    H2 2219   2.393   0.562   1.175  0.0758  2.2391 -1.9171
  145TCq2    H3 2220   2.675   0.722   1.445 -0.0985 -1.2157  1.8590
  145TCq2    H4 2221   2.285   0.904   1.411 -1.4391  0.4549 -2.5454
  146TMC2    C1 2222   3.120   3.753  12.130  0.5594 -0.9442 -0.7371
  146TMC2    C2 2223   3.034   3.796  12.030 -1.3371 -0.6569 -0.0557
  146TMC2    C3 2224   3.060   3.758  11.905 -0.2640 -0.4173 -0.6547
  146TMC2    C4 2225   3.217   3.661  12.110  0.5205 -0.1986  0.3430
  146TMC2    C5 2226   3.227   3.611  11.984 -1.3148 -0.0793  0.1275
  146TMC2    C6 2227   3.157   3.665  11.876 -0.9282 -0.3505  0.2564
  146TMC2     C 2228   3.135   3.823  12.260 -0.0452  0.0476  0.2673
  146TMC2     O 2229   3.095   3.939  12.268 -0.1116 -0.1364  0.4398
  146TMC2     H 2230   2.957   3.866  12.060  0.1615  0.1437  1.8925
  146TMC2    H1 2231   3.298   3.646  12.181  1.3075  1.2055 -0.2634
  146TMC2    H2 2232   3.185   3.631  11.777 -1.7571  1.7170 -0.6892
  146TMC2    C7 2233   3.332   3.508  11.965  0.3607  0.1640  0.1228
  146TMC2    C8 2234   3.006   3.845  11.800 -0.2438  0.3205 -0.6263
  146TMC2    O1 2235   3.401   3.532  11.863 -0.4239 -0.1130 -0.0765
  146TMC2    O2 2236   2.910   3.921  11.823  0.3673 -0.1709  0.7491
  146TMC2    O5 2237   3.096   3.866  11.698 -0.0846  0.4303  0.2413
  146TMC2    H5 2238   3.155   3.788  11.692  3.1351  2.8441  0.8849
  147MPD2     C 2239   3.698   3.231  12.184 -0.3723  0.2055  0.6252
  147MPD2    C1 2240   3.599   3.245  12.277  0.1573  0.0029  0.6503
  147MPD2    C2 2241   3.485   3.316  12.237 -0.2223 -0.3669 -0.9865
  147MPD2    C3 2242   3.472   3.368  12.110  0.4258 -0.1134 -0.4447
  147MPD2    C4 2243   3.566   3.348  12.013  0.1324 -0.0840  0.5216
  147MPD2    C5 2244   3.680   3.280  12.056  0.0124 -0.4701 -0.8705
  147MPD2     H 2245   3.404   3.330  12.308  0.5177 -0.3963 -0.1402
  147MPD2    H1 2246   3.545   3.367  11.908  3.5415  0.7022 -0.0274
  147MPD2    H2 2247   3.781   3.164  12.200  0.7635  1.3324 -0.5047
  147MPD2    H3 2248   3.756   3.249  11.985  1.8400  1.4493  0.2275
  147MPD2     N 2249   3.354   3.445  12.082  0.2932  0.5152  0.3437
  147MPD2    H5 2250   3.289   3.443  12.160  2.4197  0.9231  2.1091
  147MPD2    N1 2251   3.631   3.214  12.411 -0.2720  0.1644  0.2536
  147MPD2    H7 2252   3.726   3.185  12.431 -0.2985 -0.5565 -0.6948
  148MPD2     C 2253   4.133   2.622  10.427  0.3404  0.0581 -0.3139
  148MPD2    C1 2254   4.100   2.486  10.419 -0.0911  0.0019 -0.4797
  148MPD2    C2 2255   3.990   2.448  10.489 -0.1379  0.7551  0.5164
  148MPD2    C3 2256   3.906   2.537  10.551 -0.3618  0.6804  0.1646
  148MPD2    C4 2257   3.934   2.670  10.545  0.2328  0.2522  0.3730
  148MPD2    C5 2258   4.049   2.712  10.490 -0.1549 -0.5229  0.4691
  148MPD2     H 2259   3.971   2.342  10.496 -1.5997  0.8856 -1.2135
  148MPD2    H1 2260   3.855   2.740  10.571 -0.5764 -0.2964 -0.6310
  148MPD2    H2 2261   4.227   2.658  10.386  0.0740  0.7386 -0.3227
  148MPD2    H3 2262   4.085   2.815  10.496 -0.1351 -0.4865 -0.3238
  148MPD2     N 2263   3.790   2.498  10.621 -0.2542  0.0283 -0.0734
  148MPD2    H5 2264   3.733   2.570  10.664  3.1327  0.6830  3.3225
  148MPD2    N1 2265   4.176   2.385  10.359 -0.3842  0.0407 -0.5165
  148MPD2    H7 2266   4.152   2.288  10.372  0.8786 -0.5816 -2.7280
  149TCq2    C1 2267   4.287   2.407  10.271 -0.9728 -0.1437 -0.2508
  149TCq2    O2 2268   4.348   2.515  10.252 -0.3920  0.1692 -0.6713
  149TCq2    C2 2269   4.327   2.286  10.198  0.4640  0.0384  0.0955
  149TCq2    C3 2270   4.437   2.292  10.111 -0.0053 -0.1113 -0.3820
  149TCq2    C4 2271   4.479   2.174  10.057  0.0326 -0.2233 -0.2935
  149TCq2    C5 2272   4.404   2.059  10.061  0.5262  0.3300 -0.1627
  149TCq2    C6 2273   4.297   2.064  10.141  0.0251 -0.1306  0.1708
  149TCq2    C7 2274   4.251   2.173  10.212  0.2305  1.0511 -0.0087
  149TCq2    C8 2275   4.199   1.952  10.140  0.1352  0.2519 -0.1466
  149TCq2    O4 2276   4.098   1.973  10.202 -0.0399 -0.5443 -0.1184
  149TCq2    C9 2277   4.587   2.182   9.951  0.2279 -0.1800 -0.1780
  149TCq2    O5 2278   4.637   2.297   9.926  0.5427 -0.2023  0.0137
  149TCq2    O6 2279   4.602   2.077   9.879  0.1750 -0.3930  0.1643
  149TCq2    H2 2280   4.493   2.380  10.082 -0.8097  0.9924  1.4487
  149TCq2    H3 2281   4.423   1.970  10.002  0.9838  0.7874 -0.7111
  149TCq2    H4 2282   4.158   2.172  10.267  0.9599  1.1465  1.2390
  150MPD2     C 2283   0.035   1.512  12.294 -0.2284  0.5855 -0.0265
  150MPD2    C1 2284   0.038   1.630  12.233 -0.1005  0.4145  0.6393
  150MPD2    C2 2285   0.154   1.698  12.229 -0.7433  0.2431  0.3620
  150MPD2    C3 2286   0.273   1.645  12.279 -0.0546 -0.0620 -0.8357
  150MPD2    C4 2287   0.270   1.518  12.341  0.9730 -0.5336 -0.1303
  150MPD2    C5 2288   0.151   1.448  12.344  0.3202 -0.0341  0.3294
  150MPD2     H 2289   0.159   1.794  12.180 -0.4258  0.6013  1.0963
  150MPD2    H1 2290   0.360   1.472  12.382  0.3949 -3.3709 -2.0614
  150MPD2    H2 2291   4.668   1.462  12.318  2.0617 -2.5327  2.5593
  150MPD2    H3 2292   0.149   1.348  12.387 -0.4658  0.2830  1.0248
  150MPD2     N 2293   0.392   1.721  12.261 -1.0306 -0.6907  0.1848
  150MPD2    H5 2294   0.380   1.803  12.202  0.5972 -1.5249 -1.3315
  150MPD2    N1 2295   4.644   1.676  12.186 -0.3668 -0.2192 -0.2301
  150MPD2    H7 2296   4.586   1.599  12.154 -0.9917  0.0912  0.1544
  151TCq2    C1 2297   0.517   1.681  12.289  0.2418  0.1687 -1.1614
  151TCq2    O2 2298   0.562   1.593  12.367  0.7902 -0.5903 -0.5652
  151TCq2    C2 2299   0.610   1.753  12.210 -0.8391  0.2792 -0.6819
  151TCq2    C3 2300   0.582   1.812  12.088  0.2752 -0.1530  0.8621
  151TCq2    C4 2301   0.676   1.878  12.021  0.2553  0.3039  0.4808
  151TCq2    C5 2302   0.803   1.899  12.071  0.1533 -0.4026 -0.3087
  151TCq2    C6 2303   0.831   1.837  12.191  0.3496 -0.3054  0.2794
  151TCq2    C7 2304   0.738   1.758  12.258  0.7810  0.0522 -0.2532
  151TCq2    C8 2305   0.970   1.838  12.235  0.0719  0.4065  0.5568
  151TCq2    O4 2306   1.044   1.922  12.187  0.5965 -0.2231  0.0581
  151TCq2    C9 2307   0.644   1.942  11.897 -0.2571  0.2826  0.3117
  151TCq2    O5 2308   0.518   1.954  11.874 -0.9481  0.0121 -0.6943
  151TCq2    O6 2309   0.731   1.996  11.831 -0.2936  0.3964  0.2321
  151TCq2    H2 2310   0.488   1.788  12.039  1.0192 -0.4349 -0.4005
  151TCq2    H3 2311   0.876   1.968  12.030  0.9415 -0.4545  1.0152
  151TCq2    H4 2312   0.755   1.692  12.342  0.3124  2.2299  1.5173
  152MPD2     C 2313   4.496   1.495  12.591 -0.3968 -0.3445 -0.6828
  152MPD2    C1 2314   4.573   1.603  12.607 -0.5349  0.0477 -0.2678
  152MPD2    C2 2315   4.516   1.716  12.557  0.8353 -0.0432 -0.6258
  152MPD2    C3 2316   4.387   1.715  12.504  0.8368  0.1143 -0.4345
  152MPD2    C4 2317   4.318   1.602  12.481 -0.0298 -0.3543  0.8776
  152MPD2    C5 2318   4.370   1.492  12.531  0.2111 -0.6236 -0.1012
  152MPD2     H 2319   4.562   1.813  12.542  0.1770  0.4170  0.3168
  152MPD2    H1 2320   4.213   1.595  12.454  0.0877 -2.3294  0.8948
  152MPD2    H2 2321   4.546   1.406  12.630  1.6296 -0.2916 -3.1744
  152MPD2    H3 2322   4.311   1.401  12.532 -0.8975  0.1003 -0.0568
  152MPD2     N 2323   4.350   1.840  12.452  0.3599 -0.3794 -0.1954
  152MPD2    H5 2324   4.404   1.920  12.484 -0.3308 -0.0151  0.0603
  152MPD2    N1 2325   4.708   1.588  12.648  0.0040 -0.8549  0.1108
  152MPD2    H7 2326   0.012   1.495  12.674  0.4166 -1.1055 -1.2382
  153TCq2    C1 2327   0.072   1.693  12.658 -0.1210  0.1824  0.0768
  153TCq2    O2 2328   0.056   1.806  12.616 -0.0016 -0.6663 -0.2885
  153TCq2    C2 2329   0.202   1.646  12.693 -0.0187 -0.5763  0.1471
  153TCq2    C3 2330   0.208   1.547  12.789 -0.2895  0.0904  0.1544
  153TCq2    C4 2331   0.330   1.529  12.851  0.5118 -0.2650  0.5329
  153TCq2    C5 2332   0.446   1.590  12.808 -0.1947  0.3657  0.2193
  153TCq2    C6 2333   0.428   1.684  12.716  0.4121 -0.1776 -0.2896
  153TCq2    C7 2334   0.310   1.710  12.651 -0.1225  0.8270 -0.0438
  153TCq2    C8 2335   0.538   1.771  12.676  0.4253 -0.2522 -0.3438
  153TCq2    O4 2336   0.514   1.858  12.589  0.4998  0.5536  0.0693
  153TCq2    C9 2337   0.346   1.442  12.963 -0.7137  0.3845 -0.6763
  153TCq2    O5 2338   0.245   1.434  13.037 -0.7258  0.0297 -0.5311
  153TCq2    O6 2339   0.462   1.428  13.009  0.3783  0.0819  0.0672
  153TCq2    H2 2340   0.125   1.490  12.828 -2.1353  1.1823 -2.2404
  153TCq2    H3 2341   0.538   1.561  12.858 -1.0384 -2.8050 -0.0889
  153TCq2    H4 2342   0.308   1.796  12.585  0.4570  1.0212  0.1922
  154MPD2     C 2343   1.675   1.862   0.722  0.2685 -0.3498  0.4205
  154MPD2    C1 2344   1.654   1.940   0.834  0.0360 -0.2591 -0.4793
  154MPD2    C2 2345   1.523   1.952   0.878 -0.1489 -0.9884 -0.1281
  154MPD2    C3 2346   1.416   1.896   0.813 -0.4619 -0.2108  0.5518
  154MPD2    C4 2347   1.439   1.826   0.692  0.2386  0.3463  0.1904
  154MPD2    C5 2348   1.567   1.812   0.648  0.7051  0.7902 -0.1269
  154MPD2     H 2349   1.503   1.990   0.977  1.0326 -0.1163 -0.2116
  154MPD2    H1 2350   1.366   1.772   0.633  1.1813 -1.7590  0.9530
  154MPD2    H2 2351   1.776   1.840   0.690  0.2292 -1.6773  1.1966
  154MPD2    H3 2352   1.582   1.738   0.570  0.5241  1.7526 -1.0623
  154MPD2     N 2353   1.288   1.914   0.869  0.2604  0.1449 -0.0822
  154MPD2    H5 2354   1.289   1.947   0.964  1.7485  0.8462 -0.3400
  154MPD2    N1 2355   1.761   1.988   0.909 -0.0958  0.1207 -0.2428
  154MPD2    H7 2356   1.849   1.954   0.872  0.1824 -0.9630  1.4271
  155TCq2    C1 2357   1.756   2.076   1.016 -0.6806  0.2250 -0.1552
  155TCq2    O2 2358   1.660   2.125   1.077  0.4970 -0.3854 -0.0312
  155TCq2    C2 2359   1.891   2.107   1.060  1.0415 -0.2255  0.2988
  155TCq2    C3 2360   1.903   2.215   1.142 -0.1627  0.3753 -0.0190
  155TCq2    C4 2361   2.030   2.241   1.208  0.2722 -0.1055 -0.5365
  155TCq2    C5 2362   2.129   2.151   1.192  0.1039  0.1434 -0.2607
  155TCq2    C6 2363   2.115   2.049   1.103 -0.8301  0.1895  0.6794
  155TCq2    C7 2364   1.999   2.022   1.043 -0.2504 -0.2499 -0.4193
  155TCq2    C8 2365   2.205   1.933   1.125  0.2314 -0.7723 -0.6517
  155TCq2    O4 2366   2.290   1.943   1.213 -0.5814 -0.6799 -0.5110
  155TCq2    C9 2367   2.040   2.349   1.302  0.3660  0.0937 -0.5267
  155TCq2    O5 2368   1.964   2.446   1.285  0.0123  0.6357 -0.2962
  155TCq2    O6 2369   2.119   2.325   1.395  0.1004 -0.1713 -0.1065
  155TCq2    H2 2370   1.833   2.297   1.143 -2.1839 -1.3571 -1.5502
  155TCq2    H3 2371   2.216   2.155   1.256 -0.3294 -0.1566  0.3424
  155TCq2    H4 2372   1.978   1.925   1.001 -1.7211 -0.9354  1.8890
  156MPD2     C 2373   0.268   4.034  12.592  0.5643  0.2174 -0.6102
  156MPD2    C1 2374   0.279   4.126  12.489 -0.0198  0.4008 -0.1225
  156MPD2    C2 2375   0.189   4.234  12.486  0.3806  0.0074  0.0760
  156MPD2    C3 2376   0.096   4.249  12.589  0.1429 -0.0699 -0.1537
  156MPD2    C4 2377   0.103   4.169  12.699 -0.3513 -0.1837 -0.3650
  156MPD2    C5 2378   0.183   4.064  12.694 -0.3052  0.1587  0.3434
  156MPD2     H 2379   0.191   4.309  12.408 -0.3885 -0.6294 -0.5569
  156MPD2    H1 2380   0.037   4.177  12.785 -0.8373 -1.8006 -0.5920
  156MPD2    H2 2381   0.337   3.951  12.599  1.1684  0.8425  0.7377
  156MPD2    H3 2382   0.177   3.999  12.781 -3.1442 -2.0805 -1.5117
  156MPD2     N 2383   4.717   4.343  12.564  0.0615 -0.1199 -0.0369
  156MPD2    H5 2384   4.721   4.394  12.476  1.9737  0.2868  0.2789
  156MPD2    N1 2385   0.375   4.097  12.391 -0.5538  0.0468  0.1255
  156MPD2    H7 2386   0.421   4.007  12.405 -1.8445 -0.2917  2.2389
  157TCq2    C1 2387   0.399   4.181  12.294 -0.4219 -0.4427  0.9133
  157TCq2    O2 2388   0.369   4.300  12.280  0.7278 -0.5640  0.0518
  157TCq2    C2 2389   0.496   4.123  12.200 -0.0842 -0.2169 -0.0879
  157TCq2    C3 2390   0.502   3.988  12.180  0.6441  0.3456 -0.4063
  157TCq2    C4 2391   0.561   3.934  12.071  0.4209  0.0712  0.6559
  157TCq2    C5 2392   0.591   4.016  11.970 -0.6509 -0.1383 -0.7378
  157TCq2    C6 2393   0.587   4.155  11.990 -0.0793  0.1650 -0.0874
  157TCq2    C7 2394   0.537   4.213  12.102 -0.1946  0.3595 -0.7100
  157TCq2    C8 2395   0.575   4.241  11.870  0.2501  0.0230 -0.0922
  157TCq2    O4 2396   0.565   4.362  11.885  0.0570 -0.6411  0.2988
  157TCq2    C9 2397   0.574   3.790  12.043 -0.6333  1.2675 -0.4214
  157TCq2    O5 2398   0.633   3.759  11.934  0.1235  0.2880 -0.1366
  157TCq2    O6 2399   0.511   3.707  12.109 -0.1607 -0.0973  0.0451
  157TCq2    H2 2400   0.464   3.907  12.242 -0.6658  0.8037 -0.6125
  157TCq2    H3 2401   0.646   3.972  11.887  1.0019 -1.7617  1.2354
  157TCq2    H4 2402   0.542   4.321  12.106 -1.7233  0.3475  1.6048
  158TMC2    C1 2403   0.620   2.562  13.387 -0.5260  0.0795 -0.8800
  158TMC2    C2 2404   0.666   2.566  13.260 -0.2496 -0.1911 -0.2658
  158TMC2    C3 2405   0.602   2.645  13.171  0.1558  0.9722 -0.3417
  158TMC2    C4 2406   0.513   2.634  13.433  0.1786  0.8384  0.2450
  158TMC2    C5 2407   0.442   2.706  13.338  0.0155 -0.4358  0.1785
  158TMC2    C6 2408   0.489   2.717  13.208  0.0292 -0.6982  0.0331
  158TMC2     C 2409   0.693   2.464  13.471  0.5012 -0.0850  0.0244
  158TMC2     O 2410   0.775   2.397  13.412 -0.6540  0.3660  0.0824
  158TMC2     H 2411   0.751   2.509  13.223 -0.5929 -2.0521  1.8197
  158TMC2    H1 2412   0.494   2.640  13.540  0.6483  0.4779  0.3482
  158TMC2    H2 2413   0.440   2.789  13.144 -1.4999 -1.5492  0.2457
  158TMC2    C7 2414   0.299   2.724  13.350 -0.6398 -0.7295  0.3010
  158TMC2    C8 2415   0.640   2.658  13.033 -0.8865 -0.9299 -0.2649
  158TMC2    O1 2416   0.240   2.762  13.248 -0.1119 -0.8655  0.1027
  158TMC2    O2 2417   0.592   2.749  12.969  0.2028 -0.0121  0.0951
  158TMC2    O5 2418   0.676   2.544  12.981 -0.2741 -0.1675  0.3051
  158TMC2    H5 2419   0.667   2.467  13.041  1.7392  0.0632  0.8942
  159MPD2     C 2420   0.874   2.301  13.921  0.3945  0.1370  0.7620
  159MPD2    C1 2421   0.769   2.389  13.949 -0.3017 -0.6568  1.0018
  159MPD2    C2 2422   0.703   2.446  13.851 -0.2755 -0.5316 -0.8255
  159MPD2    C3 2423   0.731   2.413  13.715  0.0037  0.4822 -0.5885
  159MPD2    C4 2424   0.813   2.310  13.696 -0.1356  0.0064  0.9814
  159MPD2    C5 2425   0.883   2.254  13.795  1.2140 -0.3683 -0.6861
  159MPD2     H 2426   0.634   2.524  13.878  0.8526  0.1753  0.0257
  159MPD2    H1 2427   0.820   2.279  13.592 -0.0134 -0.2126  1.0555
  159MPD2    H2 2428   0.926   2.250  14.001  1.4452 -0.6785 -0.4466
  159MPD2    H3 2429   0.960   2.182  13.769  0.7031 -0.7905 -1.0244
  159MPD2     N 2430   0.672   2.485  13.604 -0.3580 -0.9143 -0.6242
  159MPD2    H5 2431   0.603   2.557  13.618  0.8033  0.1610 -0.4366
  159MPD2    N1 2432   0.739   2.421  14.083  0.3073  0.3566 -1.1362
  159MPD2    H7 2433   0.796   2.374  14.152  0.7328  0.4793 -1.4015
  160TMC2    C1 2434   0.629   0.646   2.158  0.5146  0.1607  0.3404
  160TMC2    C2 2435   0.647   0.621   2.287 -0.4153  0.3070 -0.1097
  160TMC2    C3 2436   0.775   0.621   2.334  0.5343 -0.5628 -0.4483
  160TMC2    C4 2437   0.733   0.680   2.076 -0.1448  0.3844  0.5280
  160TMC2    C5 2438   0.860   0.687   2.122 -0.1012 -0.0663 -0.4352
  160TMC2    C6 2439   0.885   0.666   2.254 -0.1149  0.0805 -0.1424
  160TMC2     C 2440   0.493   0.653   2.100  0.3692 -0.3154  0.1273
  160TMC2     O 2441   0.416   0.567   2.143 -0.3881  0.1979 -0.4301
  160TMC2     H 2442   0.559   0.586   2.340 -0.9646  2.3916  0.3747
  160TMC2    H1 2443   0.714   0.683   1.969  0.7060 -1.5137  0.3259
  160TMC2    H2 2444   0.987   0.655   2.289  0.3315  0.8794 -1.1748
  160TMC2    C7 2445   0.981   0.721   2.048  0.2432  0.5891  0.2437
  160TMC2    C8 2446   0.788   0.623   2.478  0.7781  0.3882 -0.3756
  160TMC2    O1 2447   1.088   0.682   2.092 -0.0951  0.6479  0.6117
  160TMC2    O2 2448   0.683   0.619   2.544 -0.2013  0.4640 -0.0801
  160TMC2    O5 2449   0.878   0.718   2.497  0.1027 -0.1742  0.7084
  160TMC2    H5 2450   0.906   0.768   2.418 -0.7135 -2.4626 -1.0199
  161MPD2     C 2451   0.248   0.685   1.948 -0.1515 -0.6723  0.1144
  161MPD2    C1 2452   0.347   0.785   1.957 -0.4677  0.6096  0.3645
  161MPD2    C2 2453   0.327   0.903   1.893  0.5389  0.0921 -0.3700
  161MPD2    C3 2454   0.208   0.921   1.823  0.2268  0.4025  0.2827
  161MPD2    C4 2455   0.111   0.824   1.817 -0.1436  0.1757 -0.1411
  161MPD2    C5 2456   0.128   0.698   1.884 -0.0068  0.0461 -0.0933
  161MPD2     H 2457   0.410   0.973   1.899  1.1166 -0.5663 -0.5928
  161MPD2    H1 2458   0.023   0.844   1.757 -1.2217 -1.1848  0.9664
  161MPD2    H2 2459   0.267   0.583   1.982 -1.2444 -1.2848 -1.1244
  161MPD2    H3 2460   0.057   0.616   1.886  0.3697 -0.2764  0.1942
  161MPD2     N 2461   0.183   1.037   1.757 -0.3612  0.4201 -0.5990
  161MPD2    H5 2462   0.096   1.038   1.704  0.1913  1.1160 -1.5002
  161MPD2    N1 2463   0.472   0.760   2.022 -0.3559 -0.1776 -0.8545
  161MPD2    H7 2464   0.538   0.837   2.024 -0.9195  0.2930 -0.0278
  162TMC2    C1 2465   3.109   3.652   1.424  0.1910  0.2313  0.1402
  162TMC2    C2 2466   2.993   3.709   1.376 -0.4325  0.1134  1.3341
  162TMC2    C3 2467   2.900   3.742   1.473  0.5566 -0.2315 -0.4848
  162TMC2    C4 2468   3.114   3.620   1.558  0.0761 -0.4690  0.0569
  162TMC2    C5 2469   3.015   3.647   1.649  0.0890 -0.4266  0.8839
  162TMC2    C6 2470   2.906   3.708   1.605 -0.1183 -0.2941  0.4053
  162TMC2     C 2471   3.208   3.602   1.338  0.0557 -0.8157  0.1905
  162TMC2     O 2472   3.278   3.514   1.384  0.0181  0.0892  0.2222
  162TMC2     H 2473   2.975   3.733   1.272 -1.6391 -1.3413  1.2001
  162TMC2    H1 2474   3.204   3.565   1.583 -0.4038 -1.0292  0.5404
  162TMC2    H2 2475   2.828   3.738   1.675  0.3043  1.0061  0.3219
  162TMC2    C7 2476   2.991   3.543   1.754  0.4698  0.1924 -0.2033
  162TMC2    C8 2477   2.802   3.846   1.442 -0.2159 -0.3984  0.8039
  162TMC2    O1 2478   2.875   3.527   1.782 -0.1868  0.0886  0.0572
  162TMC2    O2 2479   2.729   3.830   1.347 -0.7005  0.4386 -0.2618
  162TMC2    O5 2480   2.809   3.946   1.527 -0.0688  0.8064 -0.5958
  162TMC2    H5 2481   2.886   3.956   1.587  0.8250  0.8825 -1.7737
  163MPD2     C 2482   3.485   3.576   0.907  1.0096  0.1501 -0.3825
  163MPD2    C1 2483   3.461   3.484   1.004  0.4044 -0.2427 -0.4384
  163MPD2    C2 2484   3.363   3.511   1.102  0.0206  0.1569 -0.4371
  163MPD2    C3 2485   3.302   3.636   1.117  0.4087  0.0636 -0.0930
  163MPD2    C4 2486   3.332   3.727   1.019 -0.2000  0.0148 -0.5624
  163MPD2    C5 2487   3.420   3.694   0.920  0.7292  0.3882 -0.8143
  163MPD2     H 2488   3.329   3.429   1.164  2.4530 -0.6715 -0.2399
  163MPD2    H1 2489   3.271   3.817   1.020  0.5138  0.4985  0.7574
  163MPD2    H2 2490   3.555   3.559   0.826  0.2812 -1.7880 -0.5986
  163MPD2    H3 2491   3.433   3.773   0.846 -2.0017  3.0376  1.5625
  163MPD2     N 2492   3.213   3.663   1.218  0.5962 -0.2768  0.2506
  163MPD2    H5 2493   3.149   3.739   1.200 -0.1565 -1.3241 -1.4947
  163MPD2    N1 2494   3.528   3.358   0.989  0.1575  0.3057  0.0414
  163MPD2    H7 2495   3.599   3.340   0.919  0.0483  0.3144 -0.0720
  164TCq2    C1 2496   3.686   2.406  11.424  0.3335  0.3667  0.1726
  164TCq2    O2 2497   3.587   2.363  11.477  0.0028 -0.3505  0.1036
  164TCq2    C2 2498   3.707   2.550  11.428 -0.0918 -0.7498 -0.2906
  164TCq2    C3 2499   3.777   2.606  11.323  0.4598 -0.2789 -0.1887
  164TCq2    C4 2500   3.758   2.740  11.292  0.5040 -0.3855  0.0370
  164TCq2    C5 2501   3.672   2.813  11.367  0.2725 -0.0749  0.3787
  164TCq2    C6 2502   3.598   2.758  11.474 -0.8221  0.1164  0.4675
  164TCq2    C7 2503   3.620   2.625  11.508 -0.1342  0.2177 -0.4717
  164TCq2    C8 2504   3.468   2.826  11.502  0.4539  0.2405 -0.0456
  164TCq2    O4 2505   3.452   2.932  11.440 -0.2152 -0.2540 -0.2910
  164TCq2    C9 2506   3.816   2.790  11.170 -0.9880 -0.0993  0.0913
  164TCq2    O5 2507   3.862   2.709  11.089 -0.1661 -0.6048  0.4553
  164TCq2    O6 2508   3.833   2.910  11.170  0.5753 -0.1047 -0.2687
  164TCq2    H2 2509   3.852   2.556  11.264  1.3973  1.7485 -0.7144
  164TCq2    H3 2510   3.675   2.916  11.332  1.3169 -0.0990  0.3881
  164TCq2    H4 2511   3.553   2.581  11.581 -0.8430  1.0735 -0.6064
  165MPD2     C 2512   0.296   4.624   2.600 -0.8623 -0.5445  0.2577
  165MPD2    C1 2513   0.288   4.542   2.487 -0.4535 -0.1103  0.1495
  165MPD2    C2 2514   0.208   4.587   2.387  0.1501  0.0446  0.0310
  165MPD2    C3 2515   0.138   4.706   2.394 -0.6706 -0.2877  0.5210
  165MPD2    C4 2516   0.144   0.048   2.509  0.3214 -0.0614  0.0292
  165MPD2    C5 2517   0.232   0.015   2.611  1.1931 -0.9283  0.8183
  165MPD2     H 2518   0.196   4.519   2.304  1.4568  1.3913 -1.2513
  165MPD2    H1 2519   0.091   0.142   2.521 -2.8221 -2.1580  2.3122
  165MPD2    H2 2520   0.366   4.606   2.681 -0.4083  1.2552  0.2633
  165MPD2    H3 2521   0.242   0.090   2.689  1.4133  1.1996 -1.2544
  165MPD2     N 2522   0.053   0.018   2.296  1.0160  0.2906 -0.0943
  165MPD2    H5 2523   0.001   0.104   2.310 -1.4969 -1.3309  0.4778
  165MPD2    N1 2524   0.381   4.432   2.468 -0.1888 -0.3583 -0.2038
  165MPD2    H7 2525   0.449   4.410   2.540  1.0408 -2.5360 -2.0420
  166TCq2    C1 2526   0.049   4.690   2.165  0.5194  0.0574  0.5118
  166TCq2    O2 2527   0.127   4.605   2.118  0.2993  0.0938  0.1720
  166TCq2    C2 2528   4.716   0.062   2.079 -0.4789 -0.1627  0.5296
  166TCq2    C3 2529   4.606   0.130   2.126 -0.6021  0.0193  0.2476
  166TCq2    C4 2530   4.556   0.240   2.051 -0.1969  0.4790  0.2787
  166TCq2    C5 2531   4.633   0.294   1.951  0.6515  0.6747 -0.1116
  166TCq2    C6 2532   0.020   0.227   1.917 -0.8102 -0.5881 -0.0215
  166TCq2    C7 2533   0.058   0.109   1.975  0.3387  0.9118 -0.0962
  166TCq2    C8 2534   0.116   0.280   1.823  0.4852 -0.2682 -0.1580
  166TCq2    O4 2535   0.231   0.241   1.830  0.8885  0.1172  0.1485
  166TCq2    C9 2536   4.446   0.313   2.109  1.2114 -0.2811 -0.3413
  166TCq2    O5 2537   4.432   0.432   2.065 -0.0801 -0.5875  0.1699
  166TCq2    O6 2538   4.415   0.274   2.224 -0.1969  0.0519  0.2487
  166TCq2    H2 2539   4.538   0.094   2.202 -0.3713 -0.1741  0.3599
  166TCq2    H3 2540   4.600   0.386   1.905 -1.4447 -1.6358 -3.2387
  166TCq2    H4 2541   0.146   0.052   1.947  0.1460  1.2745 -1.4348
  167TMC2    C1 2542   3.371   2.475  12.990 -0.4161 -0.3718 -0.8258
  167TMC2    C2 2543   3.355   2.519  13.119  0.1060 -0.1687  0.3106
  167TMC2    C3 2544   3.272   2.445  13.204 -0.4810  0.0897  0.2757
  167TMC2    C4 2545   3.307   2.362  12.945  0.6542  0.0491  0.1672
  167TMC2    C5 2546   3.214   2.307  13.024 -0.2143 -0.3826 -0.1731
  167TMC2    C6 2547   3.196   2.346  13.153 -0.0936  0.4185  0.5956
  167TMC2     C 2548   3.428   2.575  12.898 -0.3970  0.3445  0.3948
  167TMC2     O 2549   3.478   2.676  12.950  0.1827 -0.2422  0.7422
  167TMC2     H 2550   3.394   2.615  13.152 -2.5114  0.8559  0.3906
  167TMC2    H1 2551   3.344   2.315  12.855  0.9033 -0.6698  0.6496
  167TMC2    H2 2552   3.120   2.296  13.212  0.1709 -1.2589 -0.4808
  167TMC2    C7 2553   3.153   2.183  12.985 -0.0821  0.6736  0.3840
  167TMC2    C8 2554   3.233   2.495  13.329  0.4278 -0.0277  0.6627
  167TMC2    O1 2555   3.119   2.107  13.071  0.3302 -0.1258  0.7966
  167TMC2    O2 2556   3.124   2.479  13.388 -0.0435 -0.1508 -0.5163
  167TMC2    O5 2557   3.337   2.572  13.365 -0.0437 -0.1630 -0.5858
  167TMC2    H5 2558   3.420   2.558  13.314 -0.4887  1.6853 -1.7952
  168MPD2     C 2559   3.478   2.764  12.666 -0.4744 -0.1107 -0.0280
  168MPD2    C1 2560   3.425   2.636  12.657 -0.5874  0.4718  0.1199
  168MPD2    C2 2561   3.385   2.598  12.527 -0.6157  0.6225  0.0334
  168MPD2    C3 2562   3.373   2.683  12.415 -0.3158 -0.5215  0.6617
  168MPD2    C4 2563   3.405   2.810  12.437 -0.1140  0.0851  0.5638
  168MPD2    C5 2564   3.454   2.850  12.560 -0.1056  0.7364  0.5601
  168MPD2     H 2565   3.356   2.494  12.531  0.5014  0.4292  3.1038
  168MPD2    H1 2566   3.400   2.877  12.353  0.1437  0.8786  1.1868
  168MPD2    H2 2567   3.515   2.813  12.756  1.2400 -3.7907  1.2912
  168MPD2    H3 2568   3.472   2.956  12.578 -2.3545  0.9008  1.8223
  168MPD2     N 2569   3.307   2.650  12.293 -0.2825  0.7465  0.3252
  168MPD2    H5 2570   3.287   2.724  12.227 -1.6654  0.0627 -0.0029
  168MPD2    N1 2571   3.405   2.555  12.768 -0.4848 -0.7021  0.5183
  168MPD2    H7 2572   3.336   2.481  12.755  1.2094 -2.2988  0.5912
  169MPD1     C 2573   0.533   1.847  10.253  0.0697 -0.0073  0.9704
  169MPD1    C1 2574   0.503   1.725  10.189  0.6304  0.0028 -0.1687
  169MPD1    C2 2575   0.558   1.702  10.066  0.2521 -0.2969 -0.1563
  169MPD1    C3 2576   0.637   1.795  10.000 -0.4691  0.0597 -0.2549
  169MPD1    C4 2577   0.645   1.925  10.053 -0.4485  0.0019 -0.7531
  169MPD1    C5 2578   0.606   1.944  10.187  0.3394  0.3355 -0.1022
  169MPD1     H 2579   0.560   1.603  10.022 -0.4895  0.2108 -1.3099
  169MPD1    H1 2580   0.677   2.006   9.988 -0.0954 -1.0289 -1.8654
  169MPD1    H2 2581   0.495   1.887  10.346  0.5363  1.0810  0.6927
  169MPD1    H3 2582   0.609   2.037  10.242 -0.5034  1.5156 -2.0388
  169MPD1     N 2583   0.711   1.753   9.884  0.3335 -0.2884  0.9550
  169MPD1    H5 2584   0.704   1.659   9.849 -0.3485 -0.1649  0.7511
  169MPD1    N1 2585   0.431   1.624  10.250 -0.1273  0.2419  0.1414
  169MPD1    H6 2586   0.371   1.571  10.188 -1.4054 -1.3219  2.7024
  169MPD1    H7 2587   0.378   1.656  10.331 -0.1348  2.4269 -0.7255
  170MPD1     C 2588   3.455   4.269  12.934 -0.4550 -0.4539  0.5917
  170MPD1    C1 2589   3.556   4.256  13.032 -0.1026  0.7096 -0.0552
  170MPD1    C2 2590   3.577   4.359  13.117  0.0710  0.5917  0.0236
  170MPD1    C3 2591   3.499   4.473  13.107 -0.6074  0.3575 -0.6293
  170MPD1    C4 2592   3.396   4.488  13.016 -0.3877  0.2539  0.5573
  170MPD1    C5 2593   3.373   4.380  12.943  0.2376 -0.2684  0.0162
  170MPD1     H 2594   3.660   4.348  13.187 -0.3951  2.9849  0.9564
  170MPD1    H1 2595   3.338   4.577  12.999  0.6946  0.4150 -2.2219
  170MPD1    H2 2596   3.451   4.201  12.849 -1.1114 -0.9449  1.0140
  170MPD1    H3 2597   3.286   4.372  12.879  0.8635 -0.9646 -0.7410
  170MPD1     N 2598   3.513   4.566  13.209 -0.1609 -0.2735  0.2669
  170MPD1    H5 2599   3.575   4.528  13.279 -0.9192  0.4390  1.3250
  170MPD1    N1 2600   3.653   4.155  13.021 -0.1413 -0.2329  0.3295
  170MPD1    H6 2601   3.692   4.126  13.110  0.4277 -1.5939 -0.3641
  170MPD1    H7 2602   3.611   4.072  12.979  1.6349 -0.2025 -1.5447
  171MPD1     C 2603   2.827   1.333  15.650 -0.0317  0.1702  0.4309
  171MPD1    C1 2604   2.765   1.229  15.585  0.4387  0.0817  0.2706
  171MPD1    C2 2605   2.740   1.112  15.658 -0.3018 -0.3360  0.3670
  171MPD1    C3 2606   2.789   1.096  15.790 -0.3536 -0.3944  0.2657
  171MPD1    C4 2607   2.853   1.195  15.848 -0.2758  0.3095 -0.6590
  171MPD1    C5 2608   2.876   1.312  15.778  0.0217 -0.6203 -0.0128
  171MPD1     H 2609   2.706   1.022  15.608  0.4308 -0.1116 -0.5204
  171MPD1    H1 2610   2.918   1.182  15.933  2.1266  1.0087 -2.3782
  171MPD1    H2 2611   2.841   1.425  15.595  0.9973 -1.0310 -1.2875
  171MPD1    H3 2612   2.928   1.390  15.832  0.3354 -1.0951  0.3722
  171MPD1     N 2613   2.771   0.973  15.868 -0.0767 -0.3349  0.2959
  171MPD1    H5 2614   2.801   0.977  15.965  2.6464  1.8667 -0.6105
  171MPD1    N1 2615   2.696   1.261  15.470 -0.5964 -0.5449  0.3569
  171MPD1    H6 2616   2.760   1.316  15.414 -1.4333  0.5996  0.5396
  171MPD1    H7 2617   2.676   1.172  15.425 -2.0162  0.3767 -0.8080
  172MPD1     C 2618   1.494   0.475   0.270 -0.2248  0.2925  0.2035
  172MPD1    C1 2619   1.537   0.411   0.381  0.8883  0.2232  0.0088
  172MPD1    C2 2620   1.608   0.487   0.470 -0.8596 -0.0938  0.7178
  172MPD1    C3 2621   1.656   0.611   0.439 -0.5039 -0.0147  0.9115
  172MPD1    C4 2622   1.622   0.666   0.316  0.4013  0.9218 -0.4009
  172MPD1    C5 2623   1.543   0.591   0.227  0.2380 -0.0426 -0.0228
  172MPD1     H 2624   1.614   0.445   0.569 -0.9465  2.4866  1.8024
  172MPD1    H1 2625   1.654   0.768   0.303  3.3201  0.1035  0.3110
  172MPD1    H2 2626   1.417   0.423   0.215  1.0724 -2.3625  0.9346
  172MPD1    H3 2627   1.511   0.635   0.133 -0.0686 -0.7840 -0.2637
  172MPD1     N 2628   1.717   0.689   0.538  0.9357  0.2440  0.4269
  172MPD1    H5 2629   1.714   0.790   0.525 -0.1042 -0.1749 -2.5297
  172MPD1    N1 2630   1.469   0.298   0.423 -1.0346 -0.5805 -0.6989
  172MPD1    H6 2631   1.525   0.233   0.478  0.4239  0.7837 -0.5582
  172MPD1    H7 2632   1.454   0.258   0.330  0.0962  0.4027 -1.3162
  173MPD1     C 2633   2.550   0.384  14.045 -0.2308 -0.1300 -0.2675
  173MPD1    C1 2634   2.471   0.318  14.141 -0.2358  0.0765  0.0949
  173MPD1    C2 2635   2.531   0.269  14.250 -0.4304  0.2759 -0.1141
  173MPD1    C3 2636   2.665   0.280  14.264 -0.7852  1.1304  0.0460
  173MPD1    C4 2637   2.745   0.357  14.179 -0.4051  0.4870 -0.7660
  173MPD1    C5 2638   2.680   0.412  14.071 -0.0963  0.2220 -0.2526
  173MPD1     H 2639   2.470   0.194  14.300  1.4438 -1.4340 -0.3843
  173MPD1    H1 2640   2.853   0.360  14.185 -0.2535  0.5484 -3.3158
  173MPD1    H2 2641   2.499   0.414  13.955  0.0355 -0.9857 -0.7065
  173MPD1    H3 2642   2.733   0.469  13.995 -0.4339 -0.5914 -1.1093
  173MPD1     N 2643   2.722   0.199  14.365  0.3430 -0.2467 -0.0317
  173MPD1    H5 2644   2.670   0.127  14.415  1.0945 -1.4198 -0.9619
  173MPD1    N1 2645   2.348   0.273  14.108  0.4822  0.3695 -0.1106
  173MPD1    H6 2646   2.287   0.269  14.189  0.8256  1.7341  0.2211
  173MPD1    H7 2647   2.297   0.332  14.043  1.9070  1.7580  0.0319
  174MPD1     C 2648   3.655   4.600  14.467  0.0068  0.3503  0.1506
  174MPD1    C1 2649   3.605   4.583  14.593  0.6499 -0.5518 -0.3558
  174MPD1    C2 2650   3.463   4.592  14.610 -0.0131 -0.0346  0.2680
  174MPD1    C3 2651   3.379   4.618  14.500 -0.0889 -0.0622  0.3657
  174MPD1    C4 2652   3.440   4.634  14.375 -0.4038 -0.0653 -0.3538
  174MPD1    C5 2653   3.573   4.623  14.362 -0.0388  0.5008  0.4782
  174MPD1     H 2654   3.421   4.582  14.710 -0.1087  0.9762  0.3309
  174MPD1    H1 2655   3.373   4.640  14.290 -0.4209  2.1975 -0.1914
  174MPD1    H2 2656   3.759   4.593  14.436 -0.4379  0.3312 -1.3491
  174MPD1    H3 2657   3.616   4.641  14.264  0.2099  1.5013  0.7629
  174MPD1     N 2658   3.235   4.628  14.508  0.2440 -0.6250 -0.1175
  174MPD1    H5 2659   3.186   4.646  14.421  1.0995 -1.4919 -0.7677
  174MPD1    N1 2660   3.696   4.553  14.697  0.4339 -0.2562 -0.0376
  174MPD1    H6 2661   3.662   4.570  14.791  0.6373 -0.4519  0.0710
  174MPD1    H7 2662   3.796   4.567  14.682  0.2602 -1.7749 -2.7041
  175MPD1     C 2663   1.703   0.563  15.815 -0.5266 -0.4136  0.4100
  175MPD1    C1 2664   1.570   0.587  15.833 -0.7222 -1.5070  0.2945
  175MPD1    C2 2665   1.525   0.609  15.960 -0.2779 -0.1106 -1.0132
  175MPD1    C3 2666   1.611   0.602  16.070  0.0402 -0.6097 -0.4469
  175MPD1    C4 2667   1.747   0.573  16.049  0.2629 -0.2369 -0.0493
  175MPD1    C5 2668   1.790   0.560  15.922  0.2353 -0.1493  1.0472
  175MPD1     H 2669   1.419   0.626  15.975 -0.3174 -0.1039 -1.3129
  175MPD1    H1 2670   1.818   0.568  16.131  0.9518  1.7833 -0.5175
  175MPD1    H2 2671   1.737   0.550  15.713  2.3075  0.7487  1.1818
  175MPD1    H3 2672   1.894   0.540  15.903  0.2594  0.1841  0.8183
  175MPD1     N 2673   1.570   0.604  16.201  0.6507  0.7356  0.4508
  175MPD1    H5 2674   1.643   0.590  16.271 -0.7322  0.5313  1.8489
  175MPD1    N1 2675   1.490   0.611  15.723  0.4176  0.0687 -0.4719
  175MPD1    H6 2676   1.392   0.626  15.746  1.2675 -0.4892  3.6029
  175MPD1    H7 2677   1.490   0.527  15.665 -1.8358 -0.3381  0.0854
  176MPD1     C 2678   2.948   3.406   0.951 -0.1212  0.1047  0.3076
  176MPD1    C1 2679   3.079   3.393   0.912 -0.1533  0.6945 -0.0267
  176MPD1    C2 2680   3.136   3.503   0.843  0.6650 -0.6126 -1.0348
  176MPD1    C3 2681   3.052   3.613   0.814  0.5846 -0.7425  0.1151
  176MPD1    C4 2682   2.924   3.613   0.861 -0.4209  0.2567 -0.2323
  176MPD1    C5 2683   2.877   3.517   0.939 -0.1048  0.1307  0.2182
  176MPD1     H 2684   3.230   3.489   0.791  1.4581  0.0312  0.2537
  176MPD1    H1 2685   2.847   3.688   0.846 -1.2751 -0.5269  0.2352
  176MPD1    H2 2686   2.885   3.329   0.994  0.1203  1.1498  2.5176
  176MPD1    H3 2687   2.774   3.521   0.974 -0.0902 -1.3939  0.4312
  176MPD1     N 2688   3.102   3.709   0.729  0.4065 -0.3938  0.0264
  176MPD1    H5 2689   3.190   3.680   0.687 -0.1998 -0.7901 -0.9788
  176MPD1    N1 2690   3.153   3.273   0.911 -0.1847  0.4079  0.0980
  176MPD1    H6 2691   3.252   3.285   0.887  0.5128 -2.4626  1.5391
  176MPD1    H7 2692   3.123   3.214   0.988  3.1375 -1.0966  0.2836
  177MPD1     C 2693   2.220   2.478   9.556  1.0309  0.2280 -0.0845
  177MPD1    C1 2694   2.126   2.379   9.570  0.3119 -0.0440 -0.3895
  177MPD1    C2 2695   1.997   2.419   9.580 -0.0504  0.1531  0.3424
  177MPD1    C3 2696   1.970   2.555   9.611  0.8850 -0.3357  0.5253
  177MPD1    C4 2697   2.071   2.651   9.609  0.8593  0.5418 -0.8596
  177MPD1    C5 2698   2.194   2.602   9.589 -0.1068  0.0158 -0.4324
  177MPD1     H 2699   1.916   2.348   9.582  1.0381 -1.1043 -0.1379
  177MPD1    H1 2700   2.057   2.756   9.630 -2.5301 -0.1677  0.3747
  177MPD1    H2 2701   2.319   2.445   9.525  0.5251 -1.0289 -0.3658
  177MPD1    H3 2702   2.272   2.677   9.584  1.3958 -1.5706 -0.9205
  177MPD1     N 2703   1.831   2.585   9.633 -0.3099 -0.4005 -0.0404
  177MPD1    H5 2704   1.765   2.511   9.656 -0.2238 -1.3428 -2.7795
  177MPD1    N1 2705   2.159   2.254   9.518  0.1944 -0.0102  0.0363
  177MPD1    H6 2706   2.097   2.179   9.548 -1.7222  0.4039 -2.8241
  177MPD1    H7 2707   2.255   2.225   9.533  0.1887 -1.5133 -2.7510
  178MPD1     C 2708   3.764   4.035   0.527 -0.0821  0.2729 -0.4607
  178MPD1    C1 2709   3.800   3.896   0.535 -0.1369 -0.1877  0.2461
  178MPD1    C2 2710   3.878   3.841   0.432  0.4563  0.1624  0.1039
  178MPD1    C3 2711   3.936   3.924   0.340  0.4849  1.0996  0.6409
  178MPD1    C4 2712   3.911   4.059   0.344 -0.5069  0.4628 -0.1174
  178MPD1    C5 2713   3.834   4.114   0.439  0.2840  0.3437 -0.0229
  178MPD1     H 2714   3.906   3.737   0.432 -0.1424  0.0005  0.5045
  178MPD1    H1 2715   3.952   4.129   0.272 -0.6088 -0.6505 -1.2495
  178MPD1    H2 2716   3.686   4.082   0.586 -0.4388 -0.5203 -0.3023
  178MPD1    H3 2717   3.803   4.217   0.426 -1.3378 -0.0754  0.5052
  178MPD1     N 2718   4.007   3.879   0.230  0.6491  0.2613  0.1005
  178MPD1    H5 2719   4.046   3.951   0.170 -1.6970  0.0638 -1.6413
  178MPD1    N1 2720   3.737   3.814   0.629 -0.2760 -0.1454 -0.4662
  178MPD1    H6 2721   3.719   3.864   0.716  0.0574  0.9567 -1.0276
  178MPD1    H7 2722   3.785   3.725   0.638 -1.2397 -0.7056 -0.9436
  179MPD1     C 2723   4.151   1.246  15.303 -0.5963  0.3392 -0.5129
  179MPD1    C1 2724   4.018   1.215  15.299 -0.3850 -0.3321 -0.0970
  179MPD1    C2 2725   3.938   1.280  15.387 -0.2074  0.4432 -0.0021
  179MPD1    C3 2726   3.990   1.367  15.482  0.0832  0.7363 -0.0482
  179MPD1    C4 2727   4.123   1.401  15.477  0.2993 -0.3412  0.0892
  179MPD1    C5 2728   4.204   1.331  15.396  0.2355  0.0198 -0.8564
  179MPD1     H 2729   3.833   1.256  15.383 -0.0626 -0.0781 -0.5449
  179MPD1    H1 2730   4.166   1.467  15.552 -0.1308  0.8083 -0.6815
  179MPD1    H2 2731   4.223   1.220  15.227  0.8998 -2.2251  1.7861
  179MPD1    H3 2732   4.312   1.336  15.402  0.0751  0.2849  1.7486
  179MPD1     N 2733   3.907   1.443  15.572 -0.1817 -0.3137 -0.0551
  179MPD1    H5 2734   3.957   1.497  15.642  1.6789 -0.6986 -1.0836
  179MPD1    N1 2735   3.968   1.144  15.186 -0.0455  0.3006 -0.4038
  179MPD1    H6 2736   3.878   1.100  15.204  0.1139 -0.2943 -1.0180
  179MPD1    H7 2737   4.033   1.071  15.158 -1.2274 -0.1747 -1.9411
  180MPD1     C 2738   3.576   3.529  15.348  0.6969  0.1885  0.1014
  180MPD1    C1 2739   3.470   3.465  15.291  0.3508 -0.1003  0.5165
  180MPD1    C2 2740   3.482   3.449  15.153 -0.0585 -0.7708 -0.0161
  180MPD1    C3 2741   3.578   3.509  15.072  0.9418 -0.1270 -0.3573
  180MPD1    C4 2742   3.676   3.588  15.132  0.5528 -0.1459  0.8857
  180MPD1    C5 2743   3.665   3.593  15.268 -0.1912 -0.1911 -0.0116
  180MPD1     H 2744   3.412   3.380  15.109 -0.7451 -0.5292  0.7076
  180MPD1    H1 2745   3.756   3.639  15.081  0.8514 -1.6571 -0.1541
  180MPD1    H2 2746   3.591   3.542  15.454  0.3228 -2.7602  0.5045
  180MPD1    H3 2747   3.735   3.665  15.308 -1.5504  0.8180  0.5735
  180MPD1     N 2748   3.575   3.475  14.935  0.1781 -0.5155 -0.5317
  180MPD1    H5 2749   3.522   3.390  14.918 -0.2003 -0.1511 -1.1997
  180MPD1    N1 2750   3.390   3.381  15.369 -0.3669  0.6717  0.5599
  180MPD1    H6 2751   3.374   3.423  15.461  1.6111  1.6903  0.4428
  180MPD1    H7 2752   3.299   3.375  15.322 -0.4988  3.5819  0.4292
  181MPD1     C 2753   0.128   4.514   9.497 -0.1273  0.1108 -0.8087
  181MPD1    C1 2754   0.141   4.637   9.441  0.1815 -0.2791  0.2902
  181MPD1    C2 2755   0.241   4.717   9.487  0.2331 -0.5023 -0.1847
  181MPD1    C3 2756   0.323   4.675   9.585  0.6706 -0.2094  0.5951
  181MPD1    C4 2757   0.318   4.546   9.633 -0.4347 -0.4460 -0.1694
  181MPD1    C5 2758   0.223   4.467   9.579 -0.3216  0.4367 -0.2634
  181MPD1     H 2759   0.241   0.093   9.454  1.7534  0.2474  2.1512
  181MPD1    H1 2760   0.388   4.491   9.696 -0.0288 -0.6265 -0.7803
  181MPD1    H2 2761   0.051   4.447   9.462 -0.3177  0.1768 -0.5103
  181MPD1    H3 2762   0.216   4.367   9.620  1.1894 -0.3896 -2.0134
  181MPD1     N 2763   0.423   0.037   9.643 -0.4481  0.1008  0.4885
  181MPD1    H5 2764   0.486   0.003   9.715  0.7720 -0.2536 -0.7428
  181MPD1    N1 2765   0.037   4.690   9.366  0.2072  0.5775  0.2233
  181MPD1    H6 2766   0.052   0.049   9.313  1.8654  1.0353  1.4142
  181MPD1    H7 2767   4.726   4.621   9.300 -0.6630 -0.4346  1.7727
  182MPD1     C 2768   1.203   4.198   1.589 -0.2919  0.3803  0.2010
  182MPD1    C1 2769   1.271   4.234   1.474 -0.2681  0.5779 -0.3758
  182MPD1    C2 2770   1.202   4.283   1.363  0.3272 -0.6419 -0.1043
  182MPD1    C3 2771   1.062   4.288   1.365 -0.2827  0.1007  0.0022
  182MPD1    C4 2772   0.997   4.254   1.479  0.6401 -0.9365  0.3984
  182MPD1    C5 2773   1.068   4.218   1.587 -0.0350  0.3114  0.2383
  182MPD1     H 2774   1.253   4.306   1.270  1.1258  0.3384  0.5746
  182MPD1    H1 2775   0.889   4.261   1.492  0.7041 -0.2292  0.4941
  182MPD1    H2 2776   1.250   4.157   1.678  3.2972  1.3286 -1.2964
  182MPD1    H3 2777   1.003   4.216   1.674 -0.1232  1.9664  0.2028
  182MPD1     N 2778   0.982   4.341   1.253  0.2984 -0.4644  0.0719
  182MPD1    H5 2779   0.886   4.363   1.277 -0.2721 -1.3319 -1.3943
  182MPD1    N1 2780   1.406   4.197   1.453 -0.0951 -0.4043 -0.0821
  182MPD1    H6 2781   1.447   4.248   1.375  1.0407  0.0848  0.8390
  182MPD1    H7 2782   1.470   4.196   1.532 -1.2732 -0.7185  0.8646
  183MPD1     C 2783   2.061   1.079  10.269  0.1644 -0.1231 -0.0627
  183MPD1    C1 2784   1.935   1.135  10.284 -0.0045 -0.5513  0.4324
  183MPD1    C2 2785   1.831   1.052  10.312 -0.3151  0.3423  0.5166
  183MPD1    C3 2786   1.842   0.921  10.348 -0.7616 -0.0294  0.9888
  183MPD1    C4 2787   1.968   0.865  10.341  0.5667  0.0092 -0.5826
  183MPD1    C5 2788   2.076   0.946  10.302 -0.1251 -0.2455  1.0653
  183MPD1     H 2789   1.731   1.091  10.303 -0.9688 -0.8904  2.5494
  183MPD1    H1 2790   1.985   0.759  10.358 -2.4516 -0.3139  0.3507
  183MPD1    H2 2791   2.152   1.137  10.264 -1.4749  2.4852  0.5127
  183MPD1    H3 2792   2.177   0.908  10.301 -0.0642 -0.0174 -0.8987
  183MPD1     N 2793   1.729   0.842  10.376 -0.1613 -0.1735 -0.0530
  183MPD1    H5 2794   1.640   0.882  10.347  0.1857 -0.2361 -1.2058
  183MPD1    N1 2795   1.914   1.272  10.247  0.2403  0.4820  0.0523
  183MPD1    H6 2796   2.003   1.321  10.251  1.0781 -1.1368  1.4702
  183MPD1    H7 2797   1.860   1.314  10.323 -1.7448 -0.2304 -0.9705
  184MPD1     C 2798   0.581   2.638  10.660  0.0036  0.8903  0.1678
  184MPD1    C1 2799   0.504   2.582  10.565  0.3641  0.3980  0.4448
  184MPD1    C2 2800   0.561   2.550  10.440 -0.6204 -0.8548 -0.2650
  184MPD1    C3 2801   0.695   2.578  10.420  0.6733  0.0578  0.2520
  184MPD1    C4 2802   0.773   2.640  10.513 -0.0170  0.3410  0.4739
  184MPD1    C5 2803   0.709   2.668  10.634  0.3743  0.3626 -0.2228
  184MPD1     H 2804   0.501   2.503  10.362  0.0146  0.4237 -1.5177
  184MPD1    H1 2805   0.881   2.645  10.509 -0.0279 -0.6272 -1.0664
  184MPD1    H2 2806   0.551   2.658  10.763  0.8426  1.6717  0.2641
  184MPD1    H3 2807   0.766   2.724  10.707 -0.5332  1.0311 -0.0238
  184MPD1     N 2808   0.751   2.545  10.293 -0.2037  0.4514 -0.1009
  184MPD1    H5 2809   0.698   2.483  10.233  1.7953 -0.8552 -0.5102
  184MPD1    N1 2810   0.375   2.551  10.590 -0.0436 -0.1009 -0.9002
  184MPD1    H6 2811   0.339   2.604  10.669 -0.2974 -0.9601 -0.4308
  184MPD1    H7 2812   0.316   2.571  10.509  1.3675  0.6675 -1.7202
  185MPD1     C 2813   0.575   2.579   9.321 -0.0738  0.3801 -0.3795
  185MPD1    C1 2814   0.516   2.642   9.430  0.0981  0.4711 -0.4745
  185MPD1    C2 2815   0.593   2.632   9.547 -0.1979  0.0725 -0.1013
  185MPD1    C3 2816   0.710   2.558   9.557  0.2612 -0.6226 -0.5466
  185MPD1    C4 2817   0.759   2.499   9.444 -0.1115 -0.0424  0.0126
  185MPD1    C5 2818   0.684   2.504   9.329  0.1958 -0.3385  0.2734
  185MPD1     H 2819   0.552   2.684   9.633  1.5981  2.1936 -0.5272
  185MPD1    H1 2820   0.847   2.437   9.446  0.4791  0.8594  1.8090
  185MPD1    H2 2821   0.523   2.585   9.226 -1.2976  0.6090  0.3017
  185MPD1    H3 2822   0.710   2.461   9.233 -1.4673  0.0005 -0.3278
  185MPD1     N 2823   0.792   2.543   9.672 -0.6915 -0.1973 -0.0682
  185MPD1    H5 2824   0.886   2.504   9.667  0.0126  1.4919  0.0588
  185MPD1    N1 2825   0.400   2.724   9.417  0.1717  0.4248  0.0086
  185MPD1    H6 2826   0.358   2.747   9.507  1.1160 -0.6061  0.7137
  185MPD1    H7 2827   0.327   2.679   9.362 -0.8145 -0.5733  2.0934
  186MPD1     C 2828   3.759   1.993  15.994  0.1340  0.3766  0.0273
  186MPD1    C1 2829   3.779   1.887  16.086 -0.0242 -0.4316  0.2007
  186MPD1    C2 2830   3.794   1.931  16.220  0.7587  0.1561 -0.3629
  186MPD1    C3 2831   3.780   2.062  16.256 -0.3485  0.0797 -0.2917
  186MPD1    C4 2832   3.769   2.161  16.158  0.6303  0.6989 -0.5025
  186MPD1    C5 2833   3.749   2.121  16.035 -0.1568 -0.0950 -0.4972
  186MPD1     H 2834   3.825   1.860  16.295  1.3546  0.7978 -0.0062
  186MPD1    H1 2835   3.770   2.264  16.192  0.1410  0.1812  1.0503
  186MPD1    H2 2836   3.753   1.971  15.889 -1.0586 -0.1174  0.1989
  186MPD1    H3 2837   3.737   2.198  15.961 -3.2084  0.0178  0.1268
  186MPD1     N 2838   3.786   2.106  16.389  0.0415 -0.1997 -0.4104
  186MPD1    H5 2839   3.803   2.205  16.397  0.2119 -0.4325  2.2169
  186MPD1    N1 2840   3.795   1.755  16.041  0.1605  0.0221 -0.5572
  186MPD1    H6 2841   3.753   1.695  16.112  0.8678  0.0403 -0.1170
  186MPD1    H7 2842   3.747   1.745  15.952 -1.3443 -3.2181  0.6137
  187MPD1     C 2843   2.237   4.443   0.494  1.0946  0.2864  0.1065
  187MPD1    C1 2844   2.267   4.306   0.487 -0.0347 -0.2182  0.3963
  187MPD1    C2 2845   2.385   4.264   0.422  0.0163 -0.5633  0.5661
  187MPD1    C3 2846   2.472   4.357   0.371 -0.1697  0.1953  0.2895
  187MPD1    C4 2847   2.437   4.495   0.378 -0.8739  0.6004 -0.1866
  187MPD1    C5 2848   2.317   4.535   0.435 -0.1548  0.7903 -0.6353
  187MPD1     H 2849   2.410   4.160   0.405 -0.9270 -0.8251  0.7945
  187MPD1    H1 2850   2.501   4.569   0.331  0.2429 -1.6821 -2.2760
  187MPD1    H2 2851   2.144   4.484   0.534  1.1827 -0.6170  1.2486
  187MPD1    H3 2852   2.301   4.641   0.424  2.7972  1.2274 -0.7105
  187MPD1     N 2853   2.587   4.334   0.291  0.1776 -0.3469 -0.5921
  187MPD1    H5 2854   2.632   4.419   0.260  2.2767 -0.8573  1.0577
  187MPD1    N1 2855   2.165   4.218   0.522 -0.5465 -0.1357  0.6509
  187MPD1    H6 2856   2.206   4.126   0.530 -0.3847 -0.2624 -1.6015
  187MPD1    H7 2857   2.105   4.236   0.602  0.0252  1.0501  0.8171
  188MPD1     C 2858   3.236   3.822  10.209  0.0780 -0.3082  0.7084
  188MPD1    C1 2859   3.200   3.816  10.077 -0.1332  0.3621 -0.2943
  188MPD1    C2 2860   3.175   3.695  10.023  0.9561  0.5802 -0.5957
  188MPD1    C3 2861   3.190   3.582  10.098  0.9491 -0.1508 -0.8889
  188MPD1    C4 2862   3.233   3.588  10.227 -0.1887  0.2812  0.2480
  188MPD1    C5 2863   3.253   3.711  10.280 -0.3220 -0.1172 -0.0758
  188MPD1     H 2864   3.142   3.687   9.920 -1.8347 -0.6830  0.4098
  188MPD1    H1 2865   3.222   3.503  10.295  0.9452  0.3749  0.5548
  188MPD1    H2 2866   3.274   3.910  10.260 -0.0260  0.1998 -0.0998
  188MPD1    H3 2867   3.281   3.707  10.384 -0.6934 -2.2061 -0.0596
  188MPD1     N 2868   3.173   3.450  10.056 -0.5091 -0.1152 -0.5029
  188MPD1    H5 2869   3.189   3.378  10.126 -1.1517 -0.5174 -0.7694
  188MPD1    N1 2870   3.213   3.934  10.007  0.1563 -0.0232 -0.2763
  188MPD1    H6 2871   3.160   3.931   9.920  0.7185  1.0270 -0.6656
  188MPD1    H7 2872   3.189   4.014  10.065  1.5720  0.1490  0.0678
  189MPD1     C 2873   0.363   4.589  17.450 -0.1886 -0.1690  0.5770
  189MPD1    C1 2874   0.337   4.521  17.572  0.2086  0.2171  0.2526
  189MPD1    C2 2875   0.252   4.574  17.666 -0.1524 -0.9746 -0.0998
  189MPD1    C3 2876   0.173   4.679  17.633  0.0092  0.0927 -0.8597
  189MPD1    C4 2877   0.198   0.021  17.511  1.0751 -0.4951 -0.9389
  189MPD1    C5 2878   0.306   4.710  17.431  0.1028  0.6703 -0.2465
  189MPD1     H 2879   0.238   4.515   0.049 -2.9517 -2.2868 -1.4079
  189MPD1    H1 2880   0.150   0.114  17.482 -2.0832 -1.9161 -0.3112
  189MPD1    H2 2881   0.438   4.554  17.380  0.1640 -1.2141  1.4887
  189MPD1    H3 2882   0.325   0.034  17.337  1.4495  0.2601 -0.1896
  189MPD1     N 2883   0.076   4.721   0.024  0.1761 -0.3688  0.2225
  189MPD1    H5 2884   0.065   4.668   0.110 -1.8291 -1.4165 -0.6868
  189MPD1    N1 2885   0.411   4.411  17.594 -0.2165 -0.8028  0.4118
  189MPD1    H6 2886   0.457   4.362  17.517 -1.0617 -0.2789 -0.4282
  189MPD1    H7 2887   0.372   4.338  17.652  0.9438 -0.5371  1.5130
  190MPD1     C 2888   3.155   3.664  16.191  0.3285 -0.0340 -0.1556
  190MPD1    C1 2889   3.194   3.613  16.315 -0.1795 -0.8752 -0.5842
  190MPD1    C2 2890   3.300   3.523  16.318  0.6027  0.0161 -0.2011
  190MPD1    C3 2891   3.369   3.484  16.200 -0.4198  0.5727 -0.2141
  190MPD1    C4 2892   3.339   3.557  16.086  0.6948 -0.0219  0.2437
  190MPD1    C5 2893   3.226   3.635  16.077  0.0460 -0.8725  0.1974
  190MPD1     H 2894   3.332   3.483  16.413 -0.8969 -0.7198 -0.0043
  190MPD1    H1 2895   3.398   3.551  15.995  0.0903  2.4633 -0.3293
  190MPD1    H2 2896   3.065   3.723  16.178  1.5035  1.8492  0.2762
  190MPD1    H3 2897   3.202   3.670  15.977  0.8937 -2.6571 -0.6176
  190MPD1     N 2898   3.473   3.387  16.202 -0.0075  0.1441  0.1820
  190MPD1    H5 2899   3.493   3.358  16.298  0.2123 -1.7321 -0.4197
  190MPD1    N1 2900   3.121   3.646  16.432 -0.2801  0.5042  0.3876
  190MPD1    H6 2901   3.185   3.642  16.511 -1.7767 -0.5625  1.5411
  190MPD1    H7 2902   3.062   3.729  16.428  0.5315  1.1205  1.2669
  191MPD1     C 2903   2.867   0.330  13.335  0.1940 -0.1590 -0.3177
  191MPD1    C1 2904   2.957   0.433  13.304  0.4999 -0.6032  0.2647
  191MPD1    C2 2905   2.906   0.538  13.229 -0.0864  0.2039  0.3174
  191MPD1    C3 2906   2.770   0.553  13.206 -0.2557  0.1463 -0.3487
  191MPD1    C4 2907   2.683   0.452  13.248  0.0692  0.2128  0.2043
  191MPD1    C5 2908   2.735   0.344  13.313 -0.0394  0.1978  0.4685
  191MPD1     H 2909   2.977   0.603  13.178 -0.2870  1.0589  1.1347
  191MPD1    H1 2910   2.576   0.451  13.230 -0.5026  1.3587  3.4624
  191MPD1    H2 2911   2.898   0.231  13.363  2.5826  1.1174  1.5663
  191MPD1    H3 2912   2.673   0.260  13.340  1.3259  0.3302  3.9886
  191MPD1     N 2913   2.727   0.676  13.141  0.4621 -0.0083 -0.5008
  191MPD1    H5 2914   2.801   0.740  13.112 -0.4947  0.3013 -2.2622
  191MPD1    N1 2915   3.096   0.404  13.308 -0.2337  0.3996  0.1681
  191MPD1    H6 2916   3.163   0.479  13.296 -1.3302  1.0557 -1.8521
  191MPD1    H7 2917   3.110   0.378  13.405  2.1202  1.9943  0.2547
  192MPD1     C 2918   2.051   1.467  12.774 -0.6729 -0.3466 -0.1168
  192MPD1    C1 2919   2.034   1.366  12.861 -0.3504  0.2047  1.1599
  192MPD1    C2 2920   2.135   1.282  12.891 -0.8438 -0.1188 -0.1594
  192MPD1    C3 2921   2.244   1.276  12.808 -0.5972 -0.1687  0.7461
  192MPD1    C4 2922   2.250   1.359  12.698 -0.4716  0.4616 -0.2287
  192MPD1    C5 2923   2.154   1.461  12.685 -0.1433 -0.1087 -0.2902
  192MPD1     H 2924   2.109   1.205  12.962 -0.0306  1.1046  1.4615
  192MPD1    H1 2925   2.327   1.359  12.622  0.2721  1.2842  0.5254
  192MPD1    H2 2926   1.979   1.548  12.760  1.4985  1.9037  1.7243
  192MPD1    H3 2927   2.164   1.524  12.598  2.0904 -0.6124 -0.3742
  192MPD1     N 2928   2.345   1.182  12.819 -0.6670  0.1990  0.5590
  192MPD1    H5 2929   2.419   1.189  12.750 -1.7140 -1.7954 -0.7641
  192MPD1    N1 2930   1.925   1.368  12.953 -0.4767  0.5912  0.1636
  192MPD1    H6 2931   1.835   1.396  12.916 -0.8419 -0.5140  0.2045
  192MPD1    H7 2932   1.917   1.279  13.001  0.8056  0.8533  0.8779
  193MPD1     C 2933   2.664   0.936   0.218  0.4985 -0.7817 -0.1118
  193MPD1    C1 2934   2.671   0.824   0.139  0.0724 -0.4070  0.5840
  193MPD1    C2 2935   2.696   0.843   0.009  0.6231  0.4298  0.1404
  193MPD1    C3 2936   2.729   0.967  17.665  0.2788 -0.1116 -0.0553
  193MPD1    C4 2937   2.740   1.081   0.038 -0.5007 -0.1763 -0.8301
  193MPD1    C5 2938   2.703   1.058   0.167  0.0788 -0.7329 -0.4206
  193MPD1     H 2939   2.677   0.770  17.638  0.8448  1.8669 -1.2418
  193MPD1    H1 2940   2.756   1.181  17.706  1.3883 -0.1697 -0.0311
  193MPD1    H2 2941   2.658   0.941   0.326  2.7229 -0.0945 -0.0263
  193MPD1    H3 2942   2.708   1.134   0.244 -0.8618 -0.9898 -0.1036
  193MPD1     N 2943   2.768   0.990  17.526  0.5008 -0.4283 -0.2219
  193MPD1    H5 2944   2.795   1.086  17.507  0.2316  0.2512  2.8716
  193MPD1    N1 2945   2.625   0.699   0.192  0.0904  0.2285 -0.6743
  193MPD1    H6 2946   2.668   0.615   0.153  0.9136  0.0026  0.7490
  193MPD1    H7 2947   2.643   0.686   0.291  0.3302 -0.5982 -0.8254
  194MPD1     C 2948   1.644   2.533  16.523  0.1862 -0.6568  0.7045
  194MPD1    C1 2949   1.590   2.623  16.614  0.3599  0.3900  0.4379
  194MPD1    C2 2950   1.513   2.563  16.714 -0.1835  0.1054  0.5630
  194MPD1    C3 2951   1.508   2.428  16.741 -0.4654  0.4164 -0.0341
  194MPD1    C4 2952   1.577   2.346  16.654 -0.4170  0.4101  0.2050
  194MPD1    C5 2953   1.643   2.400  16.545 -0.0683  0.6651  0.3097
  194MPD1     H 2954   1.454   2.640  16.762  0.0527 -0.2481  1.4029
  194MPD1    H1 2955   1.580   2.238  16.663  0.1537  0.1683 -2.8912
  194MPD1    H2 2956   1.692   2.574  16.435 -0.6782  0.3274  0.6838
  194MPD1    H3 2957   1.687   2.333  16.472  1.5325 -0.0598  1.9454
  194MPD1     N 2958   1.436   2.361  16.845 -0.5865  0.2756 -0.1924
  194MPD1    H5 2959   1.456   2.262  16.840 -0.4225  0.2450  1.0760
  194MPD1    N1 2960   1.585   2.763  16.601 -0.1304 -0.3498  0.1356
  194MPD1    H6 2961   1.575   2.804  16.693  1.8539 -1.1622  0.7204
  194MPD1    H7 2962   1.667   2.803  16.556 -1.7386  0.4635 -2.0481
  195MPD1     C 2963   1.558   0.038   1.077 -0.6748 -0.4444  0.2548
  195MPD1    C1 2964   1.679   0.077   1.144 -0.8204 -0.5433  0.2635
  195MPD1    C2 2965   1.798   0.001   1.132 -0.1619 -0.7148  0.0907
  195MPD1    C3 2966   1.796   4.620   1.044 -0.1166  0.6052 -0.4302
  195MPD1    C4 2967   1.686   4.589   0.971  0.6012 -0.8018  0.1931
  195MPD1    C5 2968   1.567   4.657   0.990 -0.0231 -0.8716  0.3690
  195MPD1     H 2969   1.888   0.021   1.189 -1.4547  3.2341  0.7557
  195MPD1    H1 2970   1.683   4.509   0.898 -0.7974 -1.2876  0.7787
  195MPD1    H2 2971   1.470   0.101   1.085 -0.4421 -0.1894  0.7867
  195MPD1    H3 2972   1.478   4.637   0.931  0.0162  0.3825 -0.1015
  195MPD1     N 2973   1.908   4.543   1.016 -1.1235  0.2851  0.2731
  195MPD1    H5 2974   1.895   4.489   0.931 -0.9379 -0.7630  0.9099
  195MPD1    N1 2975   1.681   0.197   1.216  0.0748 -0.3726 -0.0356
  195MPD1    H6 2976   1.589   0.234   1.240  0.4453 -1.7007  3.3916
  195MPD1    H7 2977   1.727   0.189   1.306  1.2982 -2.5024 -0.8503
  196MPD1     C 2978   1.138   3.698   0.847 -0.1319 -0.3876 -0.4667
  196MPD1    C1 2979   1.271   3.722   0.803  0.1702 -0.8185 -0.4409
  196MPD1    C2 2980   1.373   3.741   0.898 -0.3523 -0.4072  0.5838
  196MPD1    C3 2981   1.343   3.749   1.034 -0.4293 -0.3816 -0.0221
  196MPD1    C4 2982   1.214   3.721   1.074  0.6322  0.1315  0.3570
  196MPD1    C5 2983   1.117   3.689   0.984 -0.0260  0.2708 -0.5333
  196MPD1     H 2984   1.476   3.736   0.863 -0.8043  0.6978 -0.9215
  196MPD1    H1 2985   1.191   3.724   1.180  1.5891 -2.6819  0.6402
  196MPD1    H2 2986   1.063   3.666   0.776 -0.6120 -1.5391  0.5658
  196MPD1    H3 2987   1.017   3.661   1.016 -0.9493  0.1704 -3.5142
  196MPD1     N 2988   1.435   3.777   1.140 -0.1199 -0.8807 -0.5734
  196MPD1    H5 2989   1.400   3.772   1.235 -1.1341 -0.5522 -0.9341
  196MPD1    N1 2990   1.306   3.693   0.673 -0.1420 -0.0155  0.0156
  196MPD1    H6 2991   1.232   3.694   0.603 -0.6633 -0.6938  0.5594
  196MPD1    H7 2992   1.372   3.762   0.637 -1.1033  1.2002  0.5960
  197MPD1     C 2993   1.273   1.182   0.299  0.7668  0.6293 -0.5837
  197MPD1    C1 2994   1.292   1.080   0.206 -0.2706 -0.1155 -0.4226
  197MPD1    C2 2995   1.376   1.112   0.099 -0.3680  0.5205 -0.7470
  197MPD1    C3 2996   1.432   1.239   0.083 -0.5681  0.3649  0.5334
  197MPD1    C4 2997   1.398   1.337   0.168  0.3226  0.9315  0.1385
  197MPD1    C5 2998   1.325   1.306   0.278 -0.1390  0.1618  0.1621
  197MPD1     H 2999   1.389   1.038   0.020  0.5851 -0.6265  0.4664
  197MPD1    H1 3000   1.429   1.440   0.162 -2.2093  1.6658 -0.1699
  197MPD1    H2 3001   1.222   1.164   0.393  1.0199 -2.0493 -0.9487
  197MPD1    H3 3002   1.305   1.376   0.357 -2.6443 -0.9949  0.5583
  197MPD1     N 3003   1.498   1.281  17.673  1.3701  0.3128  0.0541
  197MPD1    H5 3004   1.526   1.378  17.666 -0.6155  0.8268 -0.8998
  197MPD1    N1 3005   1.258   0.949   0.244  0.0349 -0.7064  1.4703
  197MPD1    H6 3006   1.231   0.902   0.158 -0.5755  2.2541  0.0432
  197MPD1    H7 3007   1.176   0.944   0.305 -1.5271  0.5352 -0.5457
  198MPD1     C 3008   2.479   4.437  15.917 -0.1336  0.3093 -0.6726
  198MPD1    C1 3009   2.549   4.521  15.997 -0.2712 -0.4036 -1.0173
  198MPD1    C2 3010   2.685   4.511  16.008  0.0574  0.1172 -0.3690
  198MPD1    C3 3011   2.758   4.435  15.915  1.2300  0.1740 -0.1455
  198MPD1    C4 3012   2.692   4.361  15.819  0.1088  0.5777  0.2151
  198MPD1    C5 3013   2.552   4.360  15.828  0.2418  0.0327  0.3999
  198MPD1     H 3014   2.734   4.578  16.078 -0.3634  0.8595 -0.7775
  198MPD1    H1 3015   2.732   4.282  15.757 -0.2773  0.4489  0.1278
  198MPD1    H2 3016   2.371   4.426  15.914  0.0313 -1.9876  1.7357
  198MPD1    H3 3017   2.505   4.290  15.760 -0.8581 -0.4387  1.6311
  198MPD1     N 3018   2.900   4.439  15.930 -0.0120  0.1778 -0.4642
  198MPD1    H5 3019   2.939   4.509  15.992  0.5949 -0.2452 -0.3655
  198MPD1    N1 3020   2.481   4.602  16.090  0.1392  0.5887  0.7063
  198MPD1    H6 3021   2.397   4.644  16.052  0.7101  1.4094  0.3466
  198MPD1    H7 3022   2.546   4.667  16.133  1.9011 -1.1328  0.6745
  199MPD1     C 3023   4.698   0.240   9.893 -0.0036  0.3405 -0.2493
  199MPD1    C1 3024   0.097   0.270   9.835 -0.2651  0.1350 -0.0480
  199MPD1    C2 3025   0.165   0.376   9.870 -0.2093 -0.5916  0.2855
  199MPD1    C3 3026   0.121   0.458   9.967  0.4068  0.7365  0.0353
  199MPD1    C4 3027   4.712   0.438  10.010 -0.1662 -0.1395 -0.1199
  199MPD1    C5 3028   4.642   0.325   9.982 -0.8321  0.2064 -0.1554
  199MPD1     H 3029   0.261   0.396   9.824 -0.3172 -1.0420 -0.1434
  199MPD1    H1 3030   4.659   0.521  10.054  2.2064  1.3822 -0.1435
  199MPD1    H2 3031   4.645   0.152   9.856  0.3768 -0.5449  1.3241
  199MPD1    H3 3032   4.542   0.298  10.015  0.1785 -2.0529  1.0688
  199MPD1     N 3033   0.183   0.581  10.007  0.0718  0.5131 -0.5036
  199MPD1    H5 3034   0.130   0.638  10.072 -0.1288  1.7005 -1.7029
  199MPD1    N1 3035   0.147   0.186   9.732 -0.1667 -0.4668  0.0706
  199MPD1    H6 3036   0.079   0.122   9.690 -0.4742 -0.3102  0.3285
  199MPD1    H7 3037   0.219   0.224   9.671  1.2543 -0.1950  1.9320
  200MPD1     C 3038   3.980   0.815  15.180 -0.7895 -0.7804 -0.1219
  200MPD1    C1 3039   3.963   0.759  15.056 -0.2232  0.0359  0.1780
  200MPD1    C2 3040   4.066   0.771  14.970  0.4826  0.0789 -0.7543
  200MPD1    C3 3041   4.192   0.811  15.009  0.4051 -0.1017 -0.0271
  200MPD1    C4 3042   4.210   0.860  15.134  0.3541  0.2640  0.3218
  200MPD1    C5 3043   4.102   0.861  15.216  0.1043  0.9301 -0.2296
  200MPD1     H 3044   4.052   0.742  14.866 -1.3196  0.3994 -0.5935
  200MPD1    H1 3045   4.308   0.883  15.174  1.5025 -2.2649 -1.0490
  200MPD1    H2 3046   3.906   0.825  15.259  0.6598  1.5827  0.9379
  200MPD1    H3 3047   4.108   0.912  15.312  3.2146  1.3983 -0.6802
  200MPD1     N 3048   4.305   0.794  14.921  0.0469 -0.1586 -0.0648
  200MPD1    H5 3049   4.277   0.761  14.828  0.2010  1.2092 -0.5865
  200MPD1    N1 3050   3.836   0.730  15.014 -0.5136  0.3873 -0.1346
  200MPD1    H6 3051   3.780   0.696  15.092 -2.3628  2.6102 -0.4969
  200MPD1    H7 3052   3.846   0.657  14.943 -0.9422  1.4556 -1.3044
  201MPD1     C 3053   2.138   4.406  13.449  0.1203  0.1426  0.3199
  201MPD1    C1 3054   2.146   4.277  13.402 -0.2041 -0.0048 -0.3692
  201MPD1    C2 3055   2.219   4.188  13.479  0.3133 -0.0284  1.0464
  201MPD1    C3 3056   2.250   4.217  13.611 -0.2671 -0.1567  0.1143
  201MPD1    C4 3057   2.246   4.347  13.652 -0.5389 -0.3620  0.2420
  201MPD1    C5 3058   2.175   4.435  13.569 -0.8937 -0.4822  0.2025
  201MPD1     H 3059   2.234   4.089  13.436  0.3938  0.9433 -1.1811
  201MPD1    H1 3060   2.277   4.383  13.750  1.3170  0.4154 -0.6344
  201MPD1    H2 3061   2.096   4.484  13.386 -1.0487 -0.3530  0.4841
  201MPD1    H3 3062   2.164   4.536  13.605  3.9749  0.0885  0.0529
  201MPD1     N 3063   2.295   4.111  13.695 -0.3456  0.2429  0.0064
  201MPD1    H5 3064   2.278   4.025  13.643 -2.9258  2.0177 -2.1177
  201MPD1    N1 3065   2.107   4.253  13.268  0.0213  0.1204 -0.3610
  201MPD1    H6 3066   2.026   4.313  13.252 -1.2773 -1.5710 -0.1181
  201MPD1    H7 3067   2.081   4.156  13.253  2.1953 -0.8362  2.0202
  202MPD1     C 3068   2.385   0.152   9.722 -0.3452 -0.7313  0.0272
  202MPD1    C1 3069   2.419   0.023   9.696 -0.8823  0.7919 -0.3633
  202MPD1    C2 3070   2.349   4.661   9.785 -0.0270 -0.1125  0.0165
  202MPD1    C3 3071   2.299   4.699   9.910 -0.1162  0.2128  0.2059
  202MPD1    C4 3072   2.282   0.107   9.936 -0.5483  0.0089 -0.4306
  202MPD1    C5 3073   2.318   0.191   9.837 -0.1333  0.7271  0.0286
  202MPD1     H 3074   2.359   4.556   9.759 -0.6615 -0.0879 -0.3341
  202MPD1    H1 3075   2.243   0.143  10.030 -0.6806 -0.2407 -0.3907
  202MPD1    H2 3076   2.398   0.225   9.643  0.0683 -0.8220  0.0141
  202MPD1    H3 3077   2.287   0.293   9.855 -1.7981  0.1032  0.7469
  202MPD1     N 3078   2.241   4.610  10.008  0.1022 -0.0308  0.5451
  202MPD1    H5 3079   2.195   4.660  10.084  0.1770  1.4034 -0.3532
  202MPD1    N1 3080   2.429   4.709   9.562  0.0674 -0.1538  0.4351
  202MPD1    H6 3081   2.471   0.052   9.500  0.5153  0.6081  1.6013
  202MPD1    H7 3082   2.475   4.619   9.550  1.2628  0.4555  0.4760
  203MPD1     C 3083   0.934   0.399  12.382 -0.7366  0.4224 -0.2703
  203MPD1    C1 3084   1.039   0.319  12.334  0.8151 -0.3251  0.5817
  203MPD1    C2 3085   1.052   0.194  12.390  0.3692 -0.6603  0.4971
  203MPD1    C3 3086   0.969   0.157  12.497 -0.5481 -0.1414  0.2070
  203MPD1    C4 3087   0.874   0.243  12.545 -0.0585  0.0217  0.2489
  203MPD1    C5 3088   0.864   0.364  12.493  0.0547 -0.1336 -0.1763
  203MPD1     H 3089   1.135   0.126  12.371 -0.4247 -1.2258 -0.9510
  203MPD1    H1 3090   0.813   0.223  12.632  1.0572  1.1778  1.3043
  203MPD1    H2 3091   0.906   0.493  12.338  0.2186  1.1945  0.7808
  203MPD1    H3 3092   0.792   0.430  12.540  0.5839  0.3605 -0.0602
  203MPD1     N 3093   0.985   0.027  12.553 -0.4961 -0.4055  0.3935
  203MPD1    H5 3094   1.062   4.700  12.516  0.4035  1.6078 -0.5871
  203MPD1    N1 3095   1.112   0.364  12.219  0.5625  0.0391  0.7154
  203MPD1    H6 3096   1.133   0.463  12.210  0.1344 -0.1069 -1.9793
  203MPD1    H7 3097   1.196   0.310  12.196 -0.3902 -1.2677  0.2649
  204MPD1     C 3098   4.598   0.873  17.330 -0.5931  0.4538 -0.2071
  204MPD1    C1 3099   4.688   0.963  17.373  0.4994  0.9425  0.1076
  204MPD1    C2 3100   0.036   1.036  17.285 -1.0826  0.5544  0.1346
  204MPD1    C3 3101   0.011   1.022  17.149 -0.6637 -0.0841 -0.2808
  204MPD1    C4 3102   4.635   0.938  17.109 -0.6429 -0.5322 -1.1704
  204MPD1    C5 3103   4.572   0.856  17.196 -0.0502 -0.5112 -0.4652
  204MPD1     H 3104   0.106   1.110  17.323  2.9632 -2.5610 -1.2661
  204MPD1    H1 3105   4.613   0.917  17.005 -1.3263 -1.2281 -0.8842
  204MPD1    H2 3106   4.544   0.802  17.392  2.2942  0.0028  1.7692
  204MPD1    H3 3107   4.498   0.785  17.163 -1.8999  1.6808 -1.0154
  204MPD1     N 3108   0.080   1.100  17.051  0.0828  0.6419 -0.1280
  204MPD1    H5 3109   0.147   1.164  17.092  1.7503 -0.4709 -1.0787
  204MPD1    N1 3110   4.690   1.001  17.515 -0.3712  0.5549  0.2097
  204MPD1    H6 3111   4.694   0.921  17.577  0.7445  1.5708  1.4527
  204MPD1    H7 3112   0.041   1.061  17.543  0.3436 -0.1521 -0.2542
  205MPD1     C 3113   1.251   4.606  16.593  0.0082  0.4473  0.1054
  205MPD1    C1 3114   1.151   4.658  16.518  0.7246  0.5628 -0.0731
  205MPD1    C2 3115   1.035   4.712  16.571 -0.2116  0.4399 -0.0080
  205MPD1    C3 3116   1.026   0.007  16.708  0.1112  0.1789 -0.8100
  205MPD1    C4 3117   1.136   4.686  16.784 -0.3549 -0.1407 -0.2354
  205MPD1    C5 3118   1.248   4.624  16.729 -0.0278  0.2913 -0.7527
  205MPD1     H 3119   0.952   0.016  16.507 -1.3851  0.3653  1.4861
  205MPD1    H1 3120   1.132   4.691  16.893  0.0145 -0.5153 -0.2062
  205MPD1    H2 3121   1.330   4.546  16.550  0.0772  1.5595 -1.3427
  205MPD1    H3 3122   1.319   4.580  16.799 -1.2009 -1.4682 -0.6634
  205MPD1     N 3123   0.911   0.066  16.776 -0.7303 -0.2492 -0.1727
  205MPD1    H5 3124   0.919   0.066  16.877 -1.2851 -1.1348 -0.1230
  205MPD1    N1 3125   1.154   4.618  16.381 -0.4309  0.7654 -0.0118
  205MPD1    H6 3126   1.249   4.598  16.347 -0.4916  0.3587  0.0569
  205MPD1    H7 3127   1.099   4.681  16.322  0.1638 -0.6549 -2.0972
  206MPD1     C 3128   0.681   2.972  16.858 -0.3480 -0.1365 -0.0882
  206MPD1    C1 3129   0.724   2.863  16.780 -0.3654  0.6944  0.3600
  206MPD1    C2 3130   0.647   2.825  16.667  0.4847  0.1015 -0.1328
  206MPD1    C3 3131   0.535   2.893  16.619  0.7088 -0.8157 -0.0014
  206MPD1    C4 3132   0.505   3.004  16.693 -0.0984 -0.1593 -0.2729
  206MPD1    C5 3133   0.577   3.038  16.807  0.3653  0.1237  0.1406
  206MPD1     H 3134   0.683   2.744  16.606  2.3349  0.9158 -0.1060
  206MPD1    H1 3135   0.422   3.072  16.677  0.7291  0.6343 -1.2252
  206MPD1    H2 3136   0.734   3.012  16.943  0.9320 -0.7459 -0.5983
  206MPD1    H3 3137   0.558   3.138  16.845  2.5653  1.0320 -1.1617
  206MPD1     N 3138   0.451   2.847  16.515 -0.4379 -0.2617 -0.6129
  206MPD1    H5 3139   0.375   2.914  16.505 -1.2720 -1.3680 -1.6966
  206MPD1    N1 3140   0.828   2.780  16.834  0.6074 -0.2977  0.5893
  206MPD1    H6 3141   0.903   2.824  16.888  1.2058 -2.2948  1.3950
  206MPD1    H7 3142   0.861   2.708  16.770  1.7101  1.2716 -0.6076
  207MPD1     C 3143   2.757   1.234  10.743  0.3000 -0.0727  0.7545
  207MPD1    C1 3144   2.886   1.295  10.761  0.1895 -0.4104  0.2192
  207MPD1    C2 3145   2.980   1.272  10.666  0.2315 -0.4351  0.1075
  207MPD1    C3 3146   2.956   1.183  10.563 -0.4050 -0.2528  0.4933
  207MPD1    C4 3147   2.840   1.110  10.558  0.0039 -0.5872  0.2874
  207MPD1    C5 3148   2.741   1.138  10.651  0.5393 -0.9154 -0.0187
  207MPD1     H 3149   3.073   1.325  10.680 -0.0932 -0.0198  0.7132
  207MPD1    H1 3150   2.816   1.035  10.484  0.4018  0.1780 -0.6134
  207MPD1    H2 3151   2.675   1.256  10.810  0.9057  1.6054  0.9449
  207MPD1    H3 3152   2.653   1.075  10.637 -0.5446  0.8450 -1.1822
  207MPD1     N 3153   3.054   1.141  10.468 -0.0479  0.1494 -0.3098
  207MPD1    H5 3154   3.032   1.071  10.398  4.4908 -2.3319  0.7964
  207MPD1    N1 3155   2.902   1.400  10.852  0.0727 -0.4022 -0.1089
  207MPD1    H6 3156   2.996   1.408  10.890  0.6159 -1.5784 -1.2172
  207MPD1    H7 3157   2.839   1.390  10.931  0.0424 -1.6048 -0.2837
  208MPD1     C 3158   1.529   4.353  17.232 -0.3923 -0.3159  0.5544
  208MPD1    C1 3159   1.414   4.330  17.162 -0.2567  0.5904 -0.3780
  208MPD1    C2 3160   1.307   4.283  17.234  0.9278 -0.6148 -0.5888
  208MPD1    C3 3161   1.309   4.258  17.377  0.3455  0.1679 -0.5952
  208MPD1    C4 3162   1.427   4.287  17.440  0.0738 -0.6087 -0.1655
  208MPD1    C5 3163   1.536   4.330  17.362  0.2880 -0.1831 -0.3958
  208MPD1     H 3164   1.215   4.266  17.180  0.9485 -0.5242 -0.6526
  208MPD1    H1 3165   1.444   4.264  17.544 -1.2615  0.3470  0.2730
  208MPD1    H2 3166   1.617   4.398  17.189 -1.6577  0.9571 -0.6994
  208MPD1    H3 3167   1.625   4.343  17.423 -0.9347  0.1096  1.3533
  208MPD1     N 3168   1.187   4.213  17.434  0.2844  0.4048 -0.4962
  208MPD1    H5 3169   1.110   4.208  17.369  0.7887 -3.8935 -0.7556
  208MPD1    N1 3170   1.391   4.357  17.025  0.5264 -0.2308 -0.2991
  208MPD1    H6 3171   1.479   4.374  16.976 -0.0951  1.4303 -0.8531
  208MPD1    H7 3172   1.335   4.288  16.975  1.9529 -2.8092  1.6670
  209MPD1     C 3173   3.123   4.290  10.698  0.2667  0.3327  0.2958
  209MPD1    C1 3174   3.047   4.401  10.671 -0.0122 -0.3733 -0.3814
  209MPD1    C2 3175   3.118   4.520  10.643  0.1603  0.2131  0.0869
  209MPD1    C3 3176   3.253   4.514  10.640  0.2107  0.1991 -0.6107
  209MPD1    C4 3177   3.322   4.403  10.659 -0.5358 -0.0148 -0.0972
  209MPD1    C5 3178   3.259   4.288  10.681  0.0060 -0.2401  0.2228
  209MPD1     H 3179   3.067   4.616  10.643  1.2248  0.7805  1.8815
  209MPD1    H1 3180   3.430   4.397  10.651 -0.7003  0.6259 -2.8756
  209MPD1    H2 3181   3.072   4.203  10.739  0.2542 -0.8476 -2.2272
  209MPD1    H3 3182   3.319   4.198  10.682  2.7392  1.5790 -0.4426
  209MPD1     N 3183   3.323   4.638  10.603  0.6892  0.1170  0.1035
  209MPD1    H5 3184   3.272   4.718  10.567 -2.7998 -1.8428  0.7165
  209MPD1    N1 3185   2.912   4.403  10.695 -0.5384  0.0966  0.1649
  209MPD1    H6 3186   2.870   4.479  10.641  0.4296  0.1411 -0.5202
  209MPD1    H7 3187   2.863   4.315  10.681 -1.0834 -0.0541  2.9927
  210MPD1     C 3188   4.012   0.422  11.111 -0.1736  0.2435 -0.2130
  210MPD1    C1 3189   3.955   0.512  11.011  0.7552  0.1127 -0.2811
  210MPD1    C2 3190   3.884   0.458  10.910  0.0543  0.0646 -0.2937
  210MPD1    C3 3191   3.866   0.317  10.899  0.0015  0.0183  0.2257
  210MPD1    C4 3192   3.919   0.235  10.994  0.3868 -0.0524  0.3994
  210MPD1    C5 3193   3.994   0.291  11.096 -0.1523 -0.3110 -0.1584
  210MPD1     H 3194   3.845   0.523  10.833  1.4955  0.4607 -0.6691
  210MPD1    H1 3195   3.914   0.127  10.985  1.4675  0.0443 -1.2437
  210MPD1    H2 3196   4.074   0.457  11.193 -4.3232 -0.7777  3.3363
  210MPD1    H3 3197   4.028   0.219  11.171 -2.7526  0.6517  1.9607
  210MPD1     N 3198   3.799   0.249  10.798  0.1168 -0.8141 -0.3596
  210MPD1    H5 3199   3.786   0.149  10.801  0.9016 -0.8160  2.4557
  210MPD1    N1 3200   3.960   0.648  11.023  0.0288 -0.0839 -0.1255
  210MPD1    H6 3201   4.046   0.692  11.057  0.3384 -1.5584  0.9893
  210MPD1    H7 3202   3.942   0.704  10.940 -1.6484 -0.2842  0.1059
  211MPD1     C 3203   1.229   4.080  16.954 -0.1572 -0.4158 -0.2593
  211MPD1    C1 3204   1.119   4.025  17.021  0.4220  0.8667  0.3354
  211MPD1    C2 3205   0.995   4.061  16.969  0.7333  0.1818  0.1646
  211MPD1    C3 3206   0.977   4.159  16.877 -0.0233  0.0797 -0.4044
  211MPD1    C4 3207   1.086   4.218  16.825  0.6431 -0.6314  0.4455
  211MPD1    C5 3208   1.209   4.173  16.854  0.0406 -0.0372 -1.3076
  211MPD1     H 3209   0.910   4.003  17.002  0.0363 -0.3504 -2.5912
  211MPD1    H1 3210   1.079   4.289  16.743 -1.9599 -0.0716  1.1642
  211MPD1    H2 3211   1.333   4.065  16.979 -0.1785 -0.1642 -0.0249
  211MPD1    H3 3212   1.288   4.202  16.786  0.4182  0.0747 -0.8223
  211MPD1     N 3213   0.844   4.199  16.846  0.2167  0.3971  0.5334
  211MPD1    H5 3214   0.775   4.150  16.901  0.6493  1.4339  1.9818
  211MPD1    N1 3215   1.124   3.924  17.116  0.2319  0.3745  0.3231
  211MPD1    H6 3216   1.048   3.922  17.184 -0.5961  1.0783 -0.5940
  211MPD1    H7 3217   1.216   3.917  17.159  0.3506 -1.2481 -0.1888
  212MPD1     C 3218   0.186   2.827  16.903  1.0661 -0.0628 -0.0291
  212MPD1    C1 3219   0.288   2.751  16.961 -0.6119 -0.4177  0.7032
  212MPD1    C2 3220   0.255   2.650  17.049 -0.1676 -0.2451 -0.3980
  212MPD1    C3 3221   0.122   2.615  17.073 -0.3006 -0.4039  0.0701
  212MPD1    C4 3222   0.022   2.679  17.006  1.0934  0.2137  0.2800
  212MPD1    C5 3223   0.054   2.797  16.936 -0.5596  0.2221 -0.3121
  212MPD1     H 3224   0.342   2.600  17.088 -1.2343  0.4958  2.9194
  212MPD1    H1 3225   4.645   2.652  17.017  1.0744  0.7335  1.3903
  212MPD1    H2 3226   0.202   2.904  16.828 -0.2228  0.3257  0.0962
  212MPD1    H3 3227   4.704   2.855  16.886 -0.9714  0.9358  1.1452
  212MPD1     N 3228   0.069   2.503  17.147 -0.3186  0.6982 -0.1527
  212MPD1    H5 3229   4.694   2.503  17.152 -0.2265 -0.4836  1.7223
  212MPD1    N1 3230   0.421   2.799  16.949  0.0198 -0.0298  0.5879
  212MPD1    H6 3231   0.492   2.729  16.973  2.8633  2.4304 -0.6307
  212MPD1    H7 3232   0.427   2.839  16.855  2.1989  2.3382  1.7496
  213MPD1     C 3233   2.189   4.176  16.201  0.7036  0.6641  0.6942
  213MPD1    C1 3234   2.161   4.054  16.148  0.2850  0.0532  0.1287
  213MPD1    C2 3235   2.257   3.984  16.087 -0.2678 -0.0968 -1.1671
  213MPD1    C3 3236   2.378   4.042  16.043 -0.0314 -0.2738  0.0623
  213MPD1    C4 3237   2.407   4.168  16.091 -1.0331 -0.5833  0.0670
  213MPD1    C5 3238   2.311   4.234  16.165  0.4321  0.0492 -0.0981
  213MPD1     H 3239   2.251   3.882  16.050  3.2721 -0.4428 -0.7732
  213MPD1    H1 3240   2.503   4.215  16.070 -0.0817 -1.4026  2.5742
  213MPD1    H2 3241   2.117   4.236  16.255 -2.4138 -1.7807 -0.7892
  213MPD1    H3 3242   2.319   4.336  16.203 -0.7545 -0.0316  0.3597
  213MPD1     N 3243   2.469   3.968  15.964  0.8639 -0.0664  0.4406
  213MPD1    H5 3244   2.443   3.889  15.906 -0.8029 -0.1572  1.3191
  213MPD1    N1 3245   2.059   3.980  16.201  0.2260 -0.5807  0.3411
  213MPD1    H6 3246   2.018   3.923  16.127  0.9962 -1.8008  0.8573
  213MPD1    H7 3247   1.978   4.033  16.233 -0.7383 -2.1958  0.5604
  214MPD1     C 3248   2.653   3.306  15.310  0.2608  0.2819  0.4543
  214MPD1    C1 3249   2.597   3.286  15.432 -0.4094  0.3710  0.6733
  214MPD1    C2 3250   2.611   3.383  15.532 -0.0681 -0.1344 -0.1273
  214MPD1    C3 3251   2.706   3.489  15.512  0.3495  0.0189 -0.0658
  214MPD1    C4 3252   2.771   3.506  15.387 -0.0788  0.1697  0.0448
  214MPD1    C5 3253   2.735   3.413  15.290  0.1786 -0.3104 -0.7683
  214MPD1     H 3254   2.575   3.367  15.633  0.7648 -1.8496 -0.1059
  214MPD1    H1 3255   2.849   3.577  15.365  0.4253 -1.0965 -2.2588
  214MPD1    H2 3256   2.620   3.243  15.228  1.5862  0.1716  0.0037
  214MPD1    H3 3257   2.785   3.423  15.195  1.1161  1.9616 -0.0518
  214MPD1     N 3258   2.747   3.584  15.604 -0.4899  0.4589 -0.3187
  214MPD1    H5 3259   2.813   3.656  15.576  1.8975 -1.8647 -0.7136
  214MPD1    N1 3260   2.517   3.175  15.462  0.2050  0.2429 -0.1640
  214MPD1    H6 3261   2.564   3.091  15.430  2.4894  1.8539 -1.0156
  214MPD1    H7 3262   2.518   3.170  15.563  0.7192 -0.0376 -0.1843
  215MPD1     C 3263   3.925   4.292  10.465  0.5192  0.3572  0.0945
  215MPD1    C1 3264   3.875   4.420  10.485  0.1425  0.0550 -0.0889
  215MPD1    C2 3265   3.783   4.428  10.586 -0.0052 -0.3938  0.7024
  215MPD1    C3 3266   3.747   4.317  10.666 -0.0476 -0.1964  0.1692
  215MPD1    C4 3267   3.806   4.194  10.646  0.7674 -0.1718 -0.3675
  215MPD1    C5 3268   3.893   4.184  10.544  0.8728 -0.5688  0.2321
  215MPD1     H 3269   3.725   4.517  10.606  2.0362  1.5409 -1.9640
  215MPD1    H1 3270   3.793   4.107  10.709 -0.2312 -0.9693 -1.6766
  215MPD1    H2 3271   3.995   4.273  10.384 -2.6172 -2.2307 -2.0218
  215MPD1    H3 3272   3.936   4.086  10.526 -1.3830 -1.1621 -2.0611
  215MPD1     N 3273   3.660   4.345  10.773 -0.4656  0.1889 -0.4510
  215MPD1    H5 3274   3.622   4.439  10.773 -0.1972  0.2984 -2.5060
  215MPD1    N1 3275   3.902   4.529  10.400  0.6341  0.1228 -0.2562
  215MPD1    H6 3276   3.915   4.613  10.456 -0.2379 -0.1898  0.4036
  215MPD1    H7 3277   3.987   4.517  10.345  0.1130 -1.3211 -0.7318
  216MPD1     C 3278   0.234   2.038  16.490 -0.3252 -0.8593 -0.3173
  216MPD1    C1 3279   0.165   1.921  16.482 -0.1328  0.4134  0.8236
  216MPD1    C2 3280   0.166   1.838  16.593 -0.5075 -0.2206 -0.1338
  216MPD1    C3 3281   0.214   1.884  16.718 -0.0180 -0.0545  0.3910
  216MPD1    C4 3282   0.269   2.013  16.719 -0.3517 -0.0861 -0.3609
  216MPD1    C5 3283   0.288   2.084  16.605 -1.0456  0.1308  0.3978
  216MPD1     H 3284   0.133   1.735  16.597 -1.9498  0.2590  0.3058
  216MPD1    H1 3285   0.316   2.052  16.809  0.3792 -2.5947  0.3511
  216MPD1    H2 3286   0.234   2.104  16.404 -0.7434  0.4517  0.7002
  216MPD1    H3 3287   0.350   2.173  16.611 -0.0672 -0.4313 -1.6259
  216MPD1     N 3288   0.198   1.800  16.823  0.2479  0.3357 -0.3480
  216MPD1    H5 3289   0.152   1.713  16.803  0.2561  0.0717  0.7725
  216MPD1    N1 3290   0.127   1.873  16.359  0.3057 -0.1585 -0.1968
  216MPD1    H6 3291   0.058   1.799  16.364  2.1864 -1.9589 -0.7525
  216MPD1    H7 3292   0.112   1.951  16.295  0.7047  1.4224  1.6478
  217MPD1     C 3293   1.214   2.724   9.238 -0.1969  0.2683  0.9741
  217MPD1    C1 3294   1.108   2.789   9.301 -0.0964 -0.5466  0.6355
  217MPD1    C2 3295   1.145   2.908   9.364  0.7618  0.0538 -0.8814
  217MPD1    C3 3296   1.273   2.968   9.344  0.8705 -0.6539  0.1310
  217MPD1    C4 3297   1.363   2.899   9.269 -0.6825 -0.1723 -0.7769
  217MPD1    C5 3298   1.333   2.778   9.218  0.8908 -0.2663  0.4083
  217MPD1     H 3299   1.074   2.967   9.420 -0.7773 -2.0750 -0.6097
  217MPD1    H1 3300   1.459   2.940   9.239 -0.2777 -1.5744 -1.4469
  217MPD1    H2 3301   1.192   2.633   9.183 -1.1572  0.8708  0.3643
  217MPD1    H3 3302   1.401   2.726   9.151  0.0412 -2.3364  1.1774
  217MPD1     N 3303   1.318   3.076   9.423 -0.5026  0.6991  0.4166
  217MPD1    H5 3304   1.419   3.087   9.435 -0.2108  0.7739 -2.0660
  217MPD1    N1 3305   0.990   2.721   9.329 -0.3785  0.3255 -0.1052
  217MPD1    H6 3306   0.962   2.654   9.258  0.3190  1.5661 -1.5309
  217MPD1    H7 3307   0.912   2.783   9.351  0.2462  1.3024 -0.6502
  218MPD1     C 3308   2.252   1.052  12.534 -0.7161  0.0036 -0.0066
  218MPD1    C1 3309   2.386   1.052  12.501  0.3681 -0.3449 -0.7604
  218MPD1    C2 3310   2.454   0.935  12.535 -0.6371  0.0286  0.0197
  218MPD1    C3 3311   2.402   0.839  12.613 -0.1772 -0.1082 -0.2519
  218MPD1    C4 3312   2.270   0.850  12.647  0.1526 -0.0371  0.6110
  218MPD1    C5 3313   2.195   0.955  12.612 -0.0808 -0.2457  0.0892
  218MPD1     H 3314   2.560   0.928  12.511 -0.1245 -2.6244  3.1275
  218MPD1    H1 3315   2.207   0.771  12.686  2.2546 -0.5779  2.9220
  218MPD1    H2 3316   2.188   1.133  12.500 -0.2980  0.0156 -0.7546
  218MPD1    H3 3317   2.088   0.966  12.622  0.0394  1.3109 -0.3739
  218MPD1     N 3318   2.480   0.725  12.639  0.3631  0.1181  0.5922
  218MPD1    H5 3319   2.558   0.719  12.575  1.3491 -0.8546  1.9037
  218MPD1    N1 3320   2.445   1.159  12.424 -0.3722  0.3784  0.0830
  218MPD1    H6 3321   2.388   1.239  12.398 -1.0702  0.1787  0.9901
  218MPD1    H7 3322   2.546   1.171  12.430 -0.4685  0.6649  1.1594
  219MPD1     C 3323   2.770   4.652  12.129 -0.2152  0.1969 -0.0872
  219MPD1    C1 3324   2.782   0.063  12.120 -0.4718  0.3160 -0.2117
  219MPD1    C2 3325   2.743   0.142  12.231  0.4722 -0.1147  0.1582
  219MPD1    C3 3326   2.715   0.087  12.353 -0.5723  0.3659  0.1478
  219MPD1    C4 3327   2.717   4.676  12.365 -0.0860 -0.6923  0.4758
  219MPD1    C5 3328   2.738   4.600  12.255 -0.1924  0.1748  0.5417
  219MPD1     H 3329   2.739   0.250  12.227 -2.3399 -0.1639  1.6629
  219MPD1    H1 3330   2.692   4.625  12.458  0.9856 -0.9382  0.6247
  219MPD1    H2 3331   2.782   4.584  12.046  4.4915  0.5003  0.3137
  219MPD1    H3 3332   2.753   4.493  12.259  1.3138  0.3832  0.6248
  219MPD1     N 3333   2.681   0.164  12.472 -0.8375  0.3321 -0.1623
  219MPD1    H5 3334   2.652   0.115  12.556  2.4850 -0.0783  0.7223
  219MPD1    N1 3335   2.768   0.114  11.987  0.4202 -0.0416  0.1747
  219MPD1    H6 3336   2.817   0.044  11.933  1.3873  0.3496  0.5341
  219MPD1    H7 3337   2.810   0.206  11.974 -0.6407  0.3436 -0.5559
  220MPD1     C 3338   2.680   1.063   9.960  0.3589  0.2002 -0.1709
  220MPD1    C1 3339   2.622   0.943   9.961  0.0880  0.2306  0.2272
  220MPD1    C2 3340   2.670   0.848  10.048 -0.0438  0.2293  0.4112
  220MPD1    C3 3341   2.765   0.876  10.140 -0.2847 -0.3442  0.0742
  220MPD1    C4 3342   2.818   1.009  10.145  0.2744 -0.7322  0.1852
  220MPD1    C5 3343   2.775   1.103  10.056 -0.8168 -0.4011 -0.3916
  220MPD1     H 3344   2.617   0.754  10.048 -1.6765  1.1372  0.2276
  220MPD1    H1 3345   2.897   1.035  10.215  1.1710 -1.5672 -0.5160
  220MPD1    H2 3346   2.655   1.139   9.887  1.5098  1.6227  0.9392
  220MPD1    H3 3347   2.816   1.203  10.058  1.3121 -1.2196 -3.1122
  220MPD1     N 3348   2.799   0.768  10.221  0.0724  0.3818 -0.4963
  220MPD1    H5 3349   2.765   0.675  10.198 -1.6650  0.2895  2.3693
  220MPD1    N1 3350   2.529   0.923   9.858 -0.2103 -0.1779  0.2504
  220MPD1    H6 3351   2.457   0.858   9.889  0.0079 -0.5152  0.0528
  220MPD1    H7 3352   2.482   1.012   9.843  1.1769  0.7639  1.4813
  221MPD1     C 3353   0.091   3.869  17.323  0.1610 -0.5639  1.0025
  221MPD1    C1 3354   0.065   3.745  17.275 -1.1219  0.7406  0.1951
  221MPD1    C2 3355   0.134   3.703  17.168  0.4279 -0.7870  0.3866
  221MPD1    C3 3356   0.222   3.788  17.106  0.1548  0.3638  0.5361
  221MPD1    C4 3357   0.252   3.908  17.156  0.3659 -0.6224 -0.2820
  221MPD1    C5 3358   0.190   3.944  17.271  0.5530 -0.2397  0.1137
  221MPD1     H 3359   0.109   3.612  17.115 -0.3377  0.8370 -2.0725
  221MPD1    H1 3360   0.317   3.975  17.102 -1.2598 -1.3113 -3.0897
  221MPD1    H2 3361   0.035   3.901  17.410  0.2637  0.3728  0.7254
  221MPD1    H3 3362   0.215   4.041  17.313 -0.7853 -0.7359  2.0712
  221MPD1     N 3363   0.284   3.756  16.984 -0.8679  0.4733  0.5229
  221MPD1    H5 3364   0.343   3.826  16.941 -1.6824  0.9558  0.1943
  221MPD1    N1 3365   4.705   3.663  17.349  0.7458  0.0628  0.4292
  221MPD1    H6 3366   4.663   3.596  17.285  0.6476  1.2104 -0.7058
  221MPD1    H7 3367   4.633   3.718  17.395  1.3163  1.2449 -0.1211
  222MPD1     C 3368   0.199   2.630  17.458 -0.3155 -0.6870 -0.2536
  222MPD1    C1 3369   0.095   2.720  17.429 -0.5053 -0.2810 -0.0606
  222MPD1    C2 3370   0.005   2.745  17.530 -0.1196 -0.1366 -0.0009
  222MPD1    C3 3371   0.010   2.668  17.646 -0.6446  0.6540 -0.9925
  222MPD1    C4 3372   0.093   2.558  17.658 -0.0399 -0.3639  0.0721
  222MPD1    C5 3373   0.193   2.542  17.562 -0.1167 -0.3161  0.4200
  222MPD1     H 3374   4.665   2.829  17.511 -0.0649 -0.1711 -0.3451
  222MPD1    H1 3375   0.095   2.504   0.045 -1.3850 -0.6905 -0.0859
  222MPD1    H2 3376   0.279   2.634  17.385 -1.7761 -0.1691 -1.8484
  222MPD1    H3 3377   0.268   2.464  17.569 -1.0165 -1.2167 -0.0856
  222MPD1     N 3378   4.651   2.688   0.049 -0.1417 -0.1679 -0.8144
  222MPD1    H5 3379   4.650   2.609   0.113  0.7640 -0.3262 -0.9857
  222MPD1    N1 3380   0.095   2.799  17.319  0.5041  0.1096 -0.2382
  222MPD1    H6 3381   0.003   2.832  17.292 -0.7209 -1.9060  1.4756
  222MPD1    H7 3382   0.126   2.741  17.241  0.9058 -0.0377  0.0278
  223MPD1     C 3383   4.295   2.180   0.773 -0.0635  0.3039  0.0578
  223MPD1    C1 3384   4.333   2.295   0.831  0.1102  0.1143 -0.6999
  223MPD1    C2 3385   4.360   2.403   0.752  0.2061  0.9706 -1.5022
  223MPD1    C3 3386   4.346   2.393   0.615  0.2460  0.5613 -0.7814
  223MPD1    C4 3387   4.309   2.277   0.552 -0.2431 -0.0716  0.6726
  223MPD1    C5 3388   4.288   2.165   0.635  0.3050 -0.3081 -0.6543
  223MPD1     H 3389   4.386   2.499   0.796 -2.3182  1.5229 -1.2434
  223MPD1    H1 3390   4.294   2.263   0.446 -0.6108  1.2938  0.5516
  223MPD1    H2 3391   4.282   2.092   0.834 -1.4063  0.8369  0.5439
  223MPD1    H3 3392   4.252   2.068   0.604 -1.7034  0.9949 -2.4074
  223MPD1     N 3393   4.385   2.510   0.538 -0.1542 -0.3820  0.0587
  223MPD1    H5 3394   4.429   2.589   0.584 -0.8011  0.4684 -0.7825
  223MPD1    N1 3395   4.368   2.298   0.969 -0.0884 -0.1756  0.3245
  223MPD1    H6 3396   4.364   2.393   1.006  0.6714 -1.6949  4.2298
  223MPD1    H7 3397   4.309   2.243   1.031 -0.3148 -0.4387 -0.1233
  224MPD1     C 3398   1.674   0.673   9.993 -0.4457  0.1773  0.5856
  224MPD1    C1 3399   1.769   0.610  10.076 -0.0663  0.1259 -0.1771
  224MPD1    C2 3400   1.753   0.469  10.089 -0.9744  1.2016 -0.4351
  224MPD1    C3 3401   1.648   0.402  10.033 -0.0937  0.4231  0.8905
  224MPD1    C4 3402   1.545   0.473   9.976  0.3829  0.0513  0.6990
  224MPD1    C5 3403   1.561   0.601   9.951  0.1810 -0.4852 -0.3844
  224MPD1     H 3404   1.836   0.418  10.137 -0.1315 -0.5980 -3.8247
  224MPD1    H1 3405   1.450   0.425   9.959  0.0915  0.6001  0.7746
  224MPD1    H2 3406   1.686   0.777   9.965  0.5108 -0.2705 -0.6414
  224MPD1    H3 3407   1.479   0.652   9.903  1.1014  1.4663  0.0981
  224MPD1     N 3408   1.632   0.264  10.038 -0.1844  0.3260  0.4442
  224MPD1    H5 3409   1.542   0.231  10.004 -0.2798  0.0169  0.9809
  224MPD1    N1 3410   1.888   0.675  10.116  0.1312  0.4351  0.1962
  224MPD1    H6 3411   1.871   0.775  10.126  1.7911  0.7564 -0.2645
  224MPD1    H7 3412   1.924   0.631  10.201  3.4382  1.3291 -0.7600
  225MPD1     C 3413   1.435   4.656  13.180  0.3675  1.2931  0.5707
  225MPD1    C1 3414   1.407   0.066  13.186 -0.0226 -0.2301  0.0644
  225MPD1    C2 3415   1.444   0.146  13.077  0.1082  0.5265  0.0065
  225MPD1    C3 3416   1.500   0.091  12.963  0.3157  0.4230 -0.0887
  225MPD1    C4 3417   1.515   4.677  12.962  0.1166 -0.8620  0.4255
  225MPD1    C5 3418   1.478   4.590  13.067  0.3334  0.3883 -0.3138
  225MPD1     H 3419   1.446   0.254  13.087 -0.8630  0.6091 -0.6807
  225MPD1    H1 3420   1.564   4.626  12.880  0.6486  1.1613 -0.5038
  225MPD1    H2 3421   1.420   4.595  13.268 -0.3239  0.2924 -0.2424
  225MPD1    H3 3422   1.493   4.483  13.067 -1.5552  0.1340  0.1817
  225MPD1     N 3423   1.562   0.158  12.861 -0.0844 -0.1970  0.2986
  225MPD1    H5 3424   1.603   0.095  12.792  0.4500  1.6379 -1.0626
  225MPD1    N1 3425   1.381   0.121  13.313 -0.3887 -0.6097 -0.2548
  225MPD1    H6 3426   1.355   0.219  13.303 -0.8910 -0.8816 -1.6264
  225MPD1    H7 3427   1.295   0.079  13.348  0.2162 -1.8246 -0.2065
  226MPD1     C 3428   1.310   1.414   8.879  0.7167 -0.2686  0.1710
  226MPD1    C1 3429   1.268   1.506   8.972  0.3708  0.8059 -0.5916
  226MPD1    C2 3430   1.214   1.459   9.087  0.1171 -0.1560 -0.4315
  226MPD1    C3 3431   1.199   1.327   9.109  0.2999  0.2661 -0.8697
  226MPD1    C4 3432   1.227   1.237   9.010 -0.1863 -0.1673 -0.3124
  226MPD1    C5 3433   1.276   1.285   8.895  0.7993  0.0409 -0.4467
  226MPD1     H 3434   1.184   1.526   9.167  0.6545  1.5541 -1.6990
  226MPD1    H1 3435   1.220   1.129   9.016 -0.0482 -0.1498  0.1657
  226MPD1    H2 3436   1.366   1.443   8.791 -0.2002  0.2509 -0.2426
  226MPD1    H3 3437   1.327   1.215   8.830  0.5021 -0.3276 -0.2882
  226MPD1     N 3438   1.151   1.279   9.235 -0.3589 -0.0966  1.0167
  226MPD1    H5 3439   1.133   1.355   9.300 -0.2722  1.9338 -1.3767
  226MPD1    N1 3440   1.308   1.638   8.959 -0.6029  0.2747  0.4059
  226MPD1    H6 3441   1.316   1.654   8.859 -0.1131  0.6105  0.4987
  226MPD1    H7 3442   1.234   1.700   8.991 -0.7101  0.2851  0.1345
  227MPD1     C 3443   1.254   1.748   9.939 -0.0736  0.0171  0.8923
  227MPD1    C1 3444   1.326   1.721   9.826 -0.1431 -0.2846  0.0148
  227MPD1    C2 3445   1.290   1.619   9.739  0.3176 -0.2843 -0.0224
  227MPD1    C3 3446   1.172   1.544   9.774 -0.3649  0.1257 -0.5243
  227MPD1    C4 3447   1.093   1.574   9.890 -0.4695 -0.0212 -0.2609
  227MPD1    C5 3448   1.131   1.683   9.970 -0.4043  0.7186 -0.0212
  227MPD1     H 3449   1.342   1.595   9.647  0.1051 -0.3703 -0.1194
  227MPD1    H1 3450   1.007   1.519   9.927  0.2998 -0.2994  1.1493
  227MPD1    H2 3451   1.286   1.820  10.013 -0.3232  1.6823 -0.6313
  227MPD1    H3 3452   1.080   1.701  10.064 -0.0535  1.2016  0.0721
  227MPD1     N 3453   1.161   1.428   9.697  0.8147  0.0634  0.5298
  227MPD1    H5 3454   1.236   1.423   9.630  1.6578 -2.3499  1.6261
  227MPD1    N1 3455   1.450   1.763   9.814 -0.4592 -0.0259 -0.0449
  227MPD1    H6 3456   1.468   1.777   9.715  0.1176  1.0314  0.2070
  227MPD1    H7 3457   1.472   1.852   9.857 -0.6238 -0.2361  0.4733
  228MPD1     C 3458   4.266   3.773  12.564 -0.7981  0.5355  0.4460
  228MPD1    C1 3459   4.173   3.747  12.467  0.2274 -0.2479  0.4480
  228MPD1    C2 3460   4.074   3.654  12.492  0.0897 -0.0788 -0.2064
  228MPD1    C3 3461   4.068   3.589  12.609  0.7487 -0.1915 -0.2424
  228MPD1    C4 3462   4.157   3.627  12.713  0.2288 -1.1330 -0.2950
  228MPD1    C5 3463   4.255   3.723  12.695 -0.3332 -0.3708 -0.2980
  228MPD1     H 3464   3.997   3.638  12.417 -0.6625  1.7171  0.1666
  228MPD1    H1 3465   4.158   3.584  12.812  0.1484  1.6052  0.8912
  228MPD1    H2 3466   4.355   3.831  12.543 -0.1397 -0.9212 -0.7329
  228MPD1    H3 3467   4.322   3.766  12.768 -2.2579  1.7729  0.1904
  228MPD1     N 3468   3.956   3.509  12.633 -0.0453  0.2601 -0.4815
  228MPD1    H5 3469   3.888   3.495  12.560 -2.0073  0.7775  1.2499
  228MPD1    N1 3470   4.184   3.808  12.342 -1.1280  0.1049 -0.7341
  228MPD1    H6 3471   4.250   3.885  12.348  0.0921 -0.8490 -1.7388
  228MPD1    H7 3472   4.098   3.835  12.297 -0.5927  1.9810 -0.6181
  229MPD1     C 3473   3.429   2.380  14.482  0.3266  0.1983 -0.1585
  229MPD1    C1 3474   3.455   2.249  14.443 -0.1602  0.1924  0.0120
  229MPD1    C2 3475   3.554   2.174  14.511 -0.2330 -0.6275 -0.0560
  229MPD1    C3 3476   3.613   2.209  14.631 -0.5172  0.9501 -0.4346
  229MPD1    C4 3477   3.576   2.335  14.677  0.1306 -0.4542  0.2957
  229MPD1    C5 3478   3.499   2.418  14.597 -0.1276 -0.9982 -0.2528
  229MPD1     H 3479   3.583   2.081  14.464  2.5014  0.4341 -0.4733
  229MPD1    H1 3480   3.620   2.375  14.768  0.2084  1.3111 -0.4993
  229MPD1    H2 3481   3.371   2.465  14.446  0.2896 -0.0975 -0.7937
  229MPD1    H3 3482   3.468   2.514  14.638  1.1426  0.0377 -1.6702
  229MPD1     N 3483   3.698   2.123  14.710  0.3433 -0.0970 -0.3897
  229MPD1    H5 3484   3.741   2.165  14.791  2.5277 -4.6231  0.7839
  229MPD1    N1 3485   3.417   2.202  14.313  0.1182 -0.1692 -0.1675
  229MPD1    H6 3486   3.404   2.101  14.321  1.9455 -0.2979  1.0841
  229MPD1    H7 3487   3.335   2.249  14.273  0.2508 -2.1353 -2.7698
  230MPD1     C 3488   3.857   1.872  15.626  0.1066 -0.0591  0.1513
  230MPD1    C1 3489   3.958   1.795  15.564 -0.0382 -0.2478  0.6867
  230MPD1    C2 3490   3.945   1.767  15.426  0.0419 -0.1305 -0.3860
  230MPD1    C3 3491   3.852   1.830  15.353  0.1499  0.0564  1.2036
  230MPD1    C4 3492   3.759   1.904  15.420 -0.2787 -0.1096  0.5961
  230MPD1    C5 3493   3.756   1.927  15.553  0.2355  0.4377  0.1819
  230MPD1     H 3494   4.022   1.714  15.371  0.6551  1.0146 -0.6372
  230MPD1    H1 3495   3.672   1.954  15.378 -0.5677  0.1639  1.5165
  230MPD1    H2 3496   3.858   1.887  15.734  1.2771 -0.0615  0.1351
  230MPD1    H3 3497   3.670   1.979  15.594 -2.3025 -3.7195  0.0738
  230MPD1     N 3498   3.858   1.809  15.219  0.1561  0.3249  0.0057
  230MPD1    H5 3499   3.931   1.745  15.188 -0.3900  0.5579 -1.7662
  230MPD1    N1 3500   4.046   1.729  15.648 -0.2756 -0.3083  0.1236
  230MPD1    H6 3501   4.065   1.780  15.734 -0.8250 -1.3034  0.8455
  230MPD1    H7 3502   4.131   1.699  15.602 -0.3932 -0.5840  0.0824
  231MPD1     C 3503   2.117   3.510  15.843 -0.0452  0.1519  0.9670
  231MPD1    C1 3504   2.190   3.445  15.744  0.3840 -0.0452 -0.5061
  231MPD1    C2 3505   2.269   3.515  15.658 -0.3030 -0.6910  0.5685
  231MPD1    C3 3506   2.273   3.660  15.671  0.2017  0.0958 -0.1208
  231MPD1    C4 3507   2.207   3.722  15.783  0.2272  0.3496  0.1184
  231MPD1    C5 3508   2.135   3.644  15.868  0.6174  0.2220  0.2543
  231MPD1     H 3509   2.315   3.456  15.580  0.2258  0.0768  0.2900
  231MPD1    H1 3510   2.209   3.829  15.799 -2.2289  0.0287  2.6579
  231MPD1    H2 3511   2.061   3.449  15.914 -1.9224 -2.2833 -2.5593
  231MPD1    H3 3512   2.092   3.689  15.956 -0.2394 -0.5753  0.2467
  231MPD1     N 3513   2.353   3.732  15.583  0.0550 -0.0989 -0.3528
  231MPD1    H5 3514   2.393   3.678  15.507 -1.1492 -1.2070 -0.1927
  231MPD1    N1 3515   2.154   3.311  15.718  0.2410  0.1796 -0.1416
  231MPD1    H6 3516   2.120   3.266  15.803  0.3708  2.4838  1.1225
  231MPD1    H7 3517   2.228   3.266  15.665 -0.7957 -2.8324  0.9886
  232MPD1     C 3518   3.954   0.937   0.790  0.3360  1.0998  0.6928
  232MPD1    C1 3519   3.948   0.917   0.655 -0.5248 -0.5033  0.5986
  232MPD1    C2 3520   3.826   0.868   0.605  0.0863  0.6829  0.3827
  232MPD1    C3 3521   3.719   0.852   0.692  0.1775 -0.1940 -1.0132
  232MPD1    C4 3522   3.726   0.873   0.829  0.1333  0.4349  0.8072
  232MPD1    C5 3523   3.845   0.919   0.875 -0.3112 -0.3397 -0.4254
  232MPD1     H 3524   3.826   0.828   0.505 -0.6425  0.7177  0.3705
  232MPD1    H1 3525   3.642   0.859   0.896  0.8354 -3.4382  0.8610
  232MPD1    H2 3526   4.047   0.973   0.833  1.5343  0.0090 -0.9240
  232MPD1    H3 3527   3.849   0.952   0.978  0.5087  1.6554 -1.0906
  232MPD1     N 3528   3.594   0.820   0.629 -0.2657  0.2474 -0.3285
  232MPD1    H5 3529   3.597   0.804   0.529 -3.8822 -0.3531 -0.3626
  232MPD1    N1 3530   4.057   0.920   0.566 -0.2360  0.5432 -0.0150
  232MPD1    H6 3531   4.040   0.944   0.468 -0.5541 -2.5388 -0.7071
  232MPD1    H7 3532   4.133   0.971   0.610  0.3051 -0.3179  0.0276
  233MPD1     C 3533   3.928   0.249   0.942 -0.2196  0.3445  0.2510
  233MPD1    C1 3534   4.042   0.214   0.865  0.2165 -0.2420 -0.4618
  233MPD1    C2 3535   4.163   0.221   0.922 -0.0794  0.6948  0.2459
  233MPD1    C3 3536   4.182   0.278   1.048 -0.3155 -0.0921 -0.1503
  233MPD1    C4 3537   4.072   0.312   1.117 -0.5090 -0.0691  0.1736
  233MPD1    C5 3538   3.943   0.309   1.064 -0.4100 -0.4150  0.7924
  233MPD1     H 3539   4.250   0.179   0.874 -0.5710  0.9964 -0.9029
  233MPD1    H1 3540   4.069   0.345   1.221 -1.5709  0.8659 -0.1596
  233MPD1    H2 3541   3.829   0.214   0.916  0.2528 -0.1411 -0.9366
  233MPD1    H3 3542   3.859   0.336   1.126  1.2961 -1.3827  3.5139
  233MPD1     N 3543   4.308   0.282   1.110  0.0282  0.3692  0.6349
  233MPD1    H5 3544   4.308   0.288   1.211  0.2468  2.1711  0.5380
  233MPD1    N1 3545   4.024   0.148   0.741 -0.0111 -0.5860 -0.6469
  233MPD1    H6 3546   4.102   0.148   0.675  0.7033 -0.4879  0.1994
  233MPD1    H7 3547   3.947   0.187   0.687 -0.4555  0.2891  0.6320
  234MPD1     C 3548   2.618   3.373  10.686 -0.0624 -0.5498  0.1573
  234MPD1    C1 3549   2.599   3.508  10.700  0.0734 -0.5483 -0.2264
  234MPD1    C2 3550   2.547   3.579  10.589  1.0927 -0.0828  0.4314
  234MPD1    C3 3551   2.512   3.516  10.479  0.2532 -0.0562  0.2287
  234MPD1    C4 3552   2.527   3.382  10.460 -0.2541  0.0110  0.2864
  234MPD1    C5 3553   2.573   3.310  10.570  0.0284  0.4738  0.2798
  234MPD1     H 3554   2.541   3.687  10.582 -0.9415 -0.2996 -1.1783
  234MPD1    H1 3555   2.498   3.322  10.374  0.9005 -1.9768  1.3091
  234MPD1    H2 3556   2.660   3.316  10.768 -1.6519 -0.9238  0.7190
  234MPD1    H3 3557   2.595   3.206  10.549  1.6794  0.7483  0.6899
  234MPD1     N 3558   2.453   3.591  10.368 -0.5132 -0.1247  0.1800
  234MPD1    H5 3559   2.445   3.692  10.380 -1.9009 -0.1700 -0.2989
  234MPD1    N1 3560   2.671   3.572  10.805 -0.5685 -0.5634  0.9869
  234MPD1    H6 3561   2.644   3.668  10.821 -0.3164 -0.4873  0.9494
  234MPD1    H7 3562   2.685   3.520  10.891  0.0632  0.1435  1.3006
  235MPD1     C 3563   3.532   0.019  10.157  0.3205  0.1277  0.4325
  235MPD1    C1 3564   3.647   0.093  10.150 -0.2129 -0.0609 -0.3646
  235MPD1    C2 3565   3.639   0.204  10.065 -0.4128 -0.1402 -0.5352
  235MPD1    C3 3566   3.527   0.255  10.017  0.1005 -0.3210  0.3182
  235MPD1    C4 3567   3.411   0.177  10.021 -0.7156  0.5293 -0.1487
  235MPD1    C5 3568   3.420   0.057  10.083  0.4382 -0.7926  0.1623
  235MPD1     H 3569   3.735   0.251  10.043 -0.6428  1.4645  1.9046
  235MPD1    H1 3570   3.313   0.211   9.990 -0.8130 -0.1786 -0.6331
  235MPD1    H2 3571   3.526   4.651  10.209 -1.3697 -0.7567 -1.3700
  235MPD1    H3 3572   3.334   4.717  10.074 -0.7168  0.8485 -0.7778
  235MPD1     N 3573   3.526   0.388   9.964  0.0367 -0.0863  0.5296
  235MPD1    H5 3574   3.608   0.443   9.988  0.7214 -1.6504  1.7808
  235MPD1    N1 3575   3.768   0.030  10.180 -0.3849 -0.1526 -0.0036
  235MPD1    H6 3576   3.774   4.718  10.274  1.3266  0.8882  0.2931
  235MPD1    H7 3577   3.842   0.098  10.168 -0.4365 -0.2511 -0.8760
  236MPD1     C 3578   2.836   2.650  10.488 -0.3866  0.2127 -0.2267
  236MPD1    C1 3579   2.948   2.723  10.515 -0.9692  1.0728  0.5087
  236MPD1    C2 3580   3.054   2.670  10.583 -0.2976 -0.0609  0.5161
  236MPD1    C3 3581   3.050   2.532  10.617 -0.0773 -0.1374  0.5170
  236MPD1    C4 3582   2.945   2.457  10.577 -0.4826  0.1739  0.3469
  236MPD1    C5 3583   2.835   2.513  10.516 -0.3216  0.6082  0.0945
  236MPD1     H 3584   3.123   2.742  10.627  2.4632 -3.1321  1.2355
  236MPD1    H1 3585   2.939   2.349  10.590 -3.2537  0.2470 -0.3928
  236MPD1    H2 3586   2.746   2.690  10.441 -0.6557  0.4858  0.5173
  236MPD1    H3 3587   2.751   2.452  10.488  1.1598 -0.4326 -2.0542
  236MPD1     N 3588   3.157   2.455  10.678 -0.1503 -0.1037  0.2347
  236MPD1    H5 3589   3.144   2.354  10.677 -2.0512  0.1278  2.0969
  236MPD1    N1 3590   2.945   2.862  10.501 -0.2211  0.5661 -0.0154
  236MPD1    H6 3591   2.902   2.892  10.414 -1.9247 -1.8609 -0.0069
  236MPD1    H7 3592   3.037   2.904  10.505  0.5069 -0.9887 -0.4140
  237MPD1     C 3593   1.913   4.276  16.397  0.0855 -0.0584 -0.8388
  237MPD1    C1 3594   1.820   4.212  16.318 -0.1681  0.0359 -0.0697
  237MPD1    C2 3595   1.781   4.276  16.197 -0.5921  0.2685 -0.5348
  237MPD1    C3 3596   1.827   4.407  16.171 -0.0223 -0.4991 -0.2012
  237MPD1    C4 3597   1.918   4.461  16.261 -0.3302 -0.1855  0.2311
  237MPD1    C5 3598   1.961   4.402  16.370 -0.4415  0.4066  0.3600
  237MPD1     H 3599   1.738   4.223  16.112 -3.6255  0.0751  1.0980
  237MPD1    H1 3600   1.964   4.559  16.249  0.3249 -0.6466 -1.0212
  237MPD1    H2 3601   1.972   4.228  16.474  0.1444 -1.5516 -1.8164
  237MPD1    H3 3602   2.048   4.428  16.429  1.2552 -2.7636 -0.7722
  237MPD1     N 3603   1.789   4.486  16.062  0.2956  0.7317  0.1859
  237MPD1    H5 3604   1.830   4.579  16.067 -0.0739  0.9147 -0.1221
  237MPD1    N1 3605   1.793   4.078  16.329 -0.2437  0.1788 -0.2059
  237MPD1    H6 3606   1.813   4.038  16.420  0.5567 -1.0896 -0.9434
  237MPD1    H7 3607   1.694   4.064  16.310 -0.4748 -1.3055  2.1510
  238MPD1     C 3608   4.270   4.035  15.164 -0.3545 -0.5097  0.6724
  238MPD1    C1 3609   4.187   4.009  15.269  0.5637  0.6163  0.6529
  238MPD1    C2 3610   4.055   3.989  15.235 -0.1232 -0.7199  0.6249
  238MPD1    C3 3611   4.006   4.007  15.109  0.2003 -0.5504  0.4075
  238MPD1    C4 3612   4.092   4.041  15.005  0.0377  0.8537  0.2410
  238MPD1    C5 3613   4.224   4.051  15.035  0.3046  0.6545  0.2904
  238MPD1     H 3614   3.992   3.973  15.322  0.9470 -1.4355  1.2691
  238MPD1    H1 3615   4.060   4.069  14.905  2.5512 -2.0584 -1.3951
  238MPD1    H2 3616   4.375   4.020  15.186 -0.4241  1.1323  2.1120
  238MPD1    H3 3617   4.286   4.087  14.953  0.6147  0.3331  0.3845
  238MPD1     N 3618   3.864   3.995  15.074 -0.3562 -0.3719  0.0951
  238MPD1    H5 3619   3.843   4.019  14.977  2.6401 -1.4831 -0.8531
  238MPD1    N1 3620   4.239   3.998  15.402  0.0722 -0.1425 -0.2454
  238MPD1    H6 3621   4.180   4.005  15.484  0.7533 -0.6460  0.2855
  238MPD1    H7 3622   4.315   4.064  15.416 -1.0325  0.9496  0.6516
  239MPD1     C 3623   3.750   0.257  15.120 -0.6290  0.3694  0.2653
  239MPD1    C1 3624   3.832   0.196  15.026 -0.2279 -1.0581 -0.2295
  239MPD1    C2 3625   3.819   0.230  14.892  0.2886 -0.4974  0.2286
  239MPD1    C3 3626   3.729   0.334  14.853  0.1174 -0.2629  0.2505
  239MPD1    C4 3627   3.655   0.391  14.955  0.0734  0.4880 -0.3050
  239MPD1    C5 3628   3.664   0.353  15.085  0.2230  0.8264  0.2777
  239MPD1     H 3629   3.888   0.191  14.818  0.5784  0.0156  0.2294
  239MPD1    H1 3630   3.573   0.455  14.923 -1.3506 -0.9573  0.4178
  239MPD1    H2 3631   3.761   0.230  15.224  0.4460 -0.3043 -0.0173
  239MPD1    H3 3632   3.610   0.408  15.162  2.5998  3.0246  0.4055
  239MPD1     N 3633   3.704   0.381  14.722  0.7083  0.8432 -0.0290
  239MPD1    H5 3634   3.636   0.455  14.714  0.5771  0.6444 -0.8484
  239MPD1    N1 3635   3.926   0.108  15.065 -0.1643  0.9774 -0.3883
  239MPD1    H6 3636   3.991   0.163  15.122  0.2318 -2.1058  2.1092
  239MPD1    H7 3637   3.986   0.075  14.990  1.6130  1.9078  0.6135
  240MPD1     C 3638   3.345   3.853  13.867 -0.6556  0.1474  0.4659
  240MPD1    C1 3639   3.468   3.876  13.928 -0.8848 -0.4362  0.4097
  240MPD1    C2 3640   3.470   3.963  14.035  0.7093  0.0165 -0.0460
  240MPD1    C3 3641   3.360   4.039  14.070 -0.4467  0.3271  0.2862
  240MPD1    C4 3642   3.264   4.052  13.977  0.6146 -0.2156 -0.3710
  240MPD1    C5 3643   3.254   3.957  13.880  0.2274 -0.1883 -0.1533
  240MPD1     H 3644   3.556   3.963  14.100  1.7821  1.0254 -1.4835
  240MPD1    H1 3645   3.191   4.132  13.976 -0.3666 -1.1185 -0.7789
  240MPD1    H2 3646   3.326   3.773  13.797  1.3947  1.3545 -1.4862
  240MPD1    H3 3647   3.172   3.944  13.809  0.0477  2.4577 -0.4414
  240MPD1     N 3648   3.369   4.119  14.182  0.0792  0.4908  0.2786
  240MPD1    H5 3649   3.447   4.104  14.245  1.2685  1.4051 -0.9750
  240MPD1    N1 3650   3.564   3.776  13.911 -0.2352 -0.0852 -0.1470
  240MPD1    H6 3651   3.575   3.745  13.815 -1.5737  3.9471 -1.6229
  240MPD1    H7 3652   3.656   3.812  13.937  1.2826 -4.7178  0.9921
  241MPD1     C 3653   4.065   4.201  14.671 -0.0067 -0.6576  0.1500
  241MPD1    C1 3654   3.964   4.263  14.743 -0.8360  0.1600 -0.0823
  241MPD1    C2 3655   3.828   4.250  14.711  0.0326  0.2376 -0.2718
  241MPD1    C3 3656   3.795   4.179  14.600  0.1066 -0.3687 -0.0064
  241MPD1    C4 3657   3.890   4.117  14.520  0.0436 -0.7376  0.5268
  241MPD1    C5 3658   4.027   4.123  14.564  0.7989 -0.1094 -0.4729
  241MPD1     H 3659   3.756   4.320  14.750 -2.3927 -3.0255  1.1377
  241MPD1    H1 3660   3.864   4.069  14.426 -0.4383  2.0404 -0.7582
  241MPD1    H2 3661   4.170   4.197  14.695  0.5399  0.3154 -2.1186
  241MPD1    H3 3662   4.100   4.074  14.502  1.0613  3.0594 -2.6524
  241MPD1     N 3663   3.665   4.175  14.549 -0.3075 -0.2958  0.3448
  241MPD1    H5 3664   3.656   4.149  14.451  1.3360 -2.5425  0.7883
  241MPD1    N1 3665   3.991   4.376  14.818  0.0234 -0.2944  0.3353
  241MPD1    H6 3666   4.064   4.360  14.886  0.4927  0.2506 -0.0408
  241MPD1    H7 3667   3.914   4.397  14.881 -1.2254 -3.5526 -0.1013
  242MPD1     C 3668   3.221   3.204  15.889 -0.2061  0.0085 -0.5562
  242MPD1    C1 3669   3.131   3.103  15.891  0.3339  0.0145 -0.5513
  242MPD1    C2 3670   3.138   3.007  15.791 -0.7019  0.7315 -0.0974
  242MPD1    C3 3671   3.230   3.016  15.693  0.1805 -0.2519  0.6747
  242MPD1    C4 3672   3.311   3.121  15.688  0.1158 -0.7715 -0.5826
  242MPD1    C5 3673   3.316   3.205  15.792  0.2805 -0.2717  0.1227
  242MPD1     H 3674   3.073   2.921  15.793  1.8924 -1.2679 -1.1930
  242MPD1    H1 3675   3.376   3.139  15.604  1.7716 -0.8443  0.6695
  242MPD1    H2 3676   3.223   3.287  15.957 -2.7717 -1.7301  1.6327
  242MPD1    H3 3677   3.387   3.287  15.785 -1.2157  1.0102 -0.1307
  242MPD1     N 3678   3.245   2.921  15.588  0.2252 -0.3106  0.4470
  242MPD1    H5 3679   3.330   2.927  15.533 -2.2915  1.8058 -3.2700
  242MPD1    N1 3680   3.053   3.076  16.013 -0.3642  0.2072 -0.2492
  242MPD1    H6 3681   3.039   3.164  16.062  0.9914 -0.1964  0.8484
  242MPD1    H7 3682   2.961   3.034  15.997  1.3161 -2.2738 -3.4874
  243MPD1     C 3683   3.838   1.173   0.405  0.2185 -0.5390  0.2158
  243MPD1    C1 3684   3.973   1.202   0.388 -0.0466  0.2590 -0.4929
  243MPD1    C2 3685   4.042   1.124   0.302 -0.5812 -0.1785 -0.0773
  243MPD1    C3 3686   3.980   1.019   0.225 -1.0441  0.0175  0.6196
  243MPD1    C4 3687   3.841   0.997   0.239 -0.4545  0.0172  0.3285
  243MPD1    C5 3688   3.777   1.067   0.340  0.5442 -0.6632  0.2667
  243MPD1     H 3689   4.143   1.142   0.268 -0.8512  2.8765  0.7947
  243MPD1    H1 3690   3.781   0.922   0.190  0.2312  1.2516 -2.3699
  243MPD1    H2 3691   3.769   1.228   0.468  0.6833 -2.4021  2.3506
  243MPD1    H3 3692   3.678   1.031   0.365 -0.5088  0.8702 -1.6655
  243MPD1     N 3693   4.062   0.948   0.135 -0.2136 -0.2393 -0.5179
  243MPD1    H5 3694   4.160   0.975   0.136 -0.1724 -0.4613  0.7385
  243MPD1    N1 3695   4.026   1.326   0.436 -0.0530  0.2685 -0.5555
  243MPD1    H6 3696   4.127   1.332   0.447 -0.2688  1.8793  0.3802
  243MPD1    H7 3697   3.977   1.351   0.521 -1.7467  0.7955 -1.6976
  244MPD1     C 3698   0.188   0.825   0.218 -0.1542  0.3732 -0.1689
  244MPD1    C1 3699   0.094   0.925   0.226  0.1687 -0.6097  0.5910
  244MPD1    C2 3700   4.697   0.901   0.163 -0.1443 -0.1253  1.1836
  244MPD1    C3 3701   4.661   0.774   0.131 -0.3340 -0.3592  0.7068
  244MPD1    C4 3702   0.023   0.665   0.151 -0.8649  0.0888 -0.9171
  244MPD1    C5 3703   0.153   0.699   0.185 -0.2827 -0.8483  0.1882
  244MPD1     H 3704   4.627   0.983   0.154  0.1279  0.2547  2.5117
  244MPD1    H1 3705   4.718   0.563   0.133 -0.0111 -0.3110 -0.1672
  244MPD1    H2 3706   0.294   0.846   0.233 -0.6089  2.3135  0.2904
  244MPD1    H3 3707   0.228   0.621   0.194  0.5639 -0.2980 -1.9604
  244MPD1     N 3708   4.535   0.761   0.080  0.7269 -0.1554 -0.0644
  244MPD1    H5 3709   4.478   0.845   0.074  0.1832 -0.5864 -0.9808
  244MPD1    N1 3710   0.131   1.056   0.243  0.1350  0.1782 -0.0394
  244MPD1    H6 3711   0.056   1.121   0.264  0.3971  1.3056 -2.5351
  244MPD1    H7 3712   0.201   1.064   0.317  1.9961  1.8847 -1.9992
  245MPD1     C 3713   2.548   2.329  13.124  0.6601  0.0722 -0.0901
  245MPD1    C1 3714   2.515   2.237  13.218  0.3885 -0.2961  0.0925
  245MPD1    C2 3715   2.410   2.260  13.301  0.2482  0.6428 -0.1429
  245MPD1    C3 3716   2.341   2.378  13.299  0.2776  0.0111 -0.2941
  245MPD1    C4 3717   2.375   2.465  13.192 -0.1575  0.7149  0.2303
  245MPD1    C5 3718   2.477   2.442  13.106  0.5682  0.3339 -0.2851
  245MPD1     H 3719   2.379   2.184  13.372  2.2358 -0.3837 -0.3718
  245MPD1    H1 3720   2.326   2.561  13.179 -0.0925  0.7320  0.1037
  245MPD1    H2 3721   2.629   2.317  13.052  0.3559  0.9783 -0.5814
  245MPD1    H3 3722   2.501   2.503  13.020 -1.4403  1.2476 -0.1900
  245MPD1     N 3723   2.261   2.413  13.409 -0.3522 -0.2842 -0.2044
  245MPD1    H5 3724   2.245   2.340  13.479 -0.5583  1.0829  1.1733
  245MPD1    N1 3725   2.592   2.117  13.221  0.0417 -0.1930 -0.1421
  245MPD1    H6 3726   2.599   2.083  13.316  2.9576 -4.2558 -1.8231
  245MPD1    H7 3727   2.692   2.139  13.215 -0.2295  1.0516 -0.1560
  246MPD1     C 3728   1.012   2.365   8.856  0.1915 -0.3174  0.3544
  246MPD1    C1 3729   0.905   2.440   8.819  0.2781  0.1342  0.1932
  246MPD1    C2 3730   0.916   2.575   8.818 -0.0061  0.2251  0.7883
  246MPD1    C3 3731   1.043   2.632   8.854 -0.1885  0.0366  0.6075
  246MPD1    C4 3732   1.151   2.552   8.876 -0.1079  0.0045 -0.5050
  246MPD1    C5 3733   1.138   2.412   8.875 -0.3411 -0.5745  0.0640
  246MPD1     H 3734   0.827   2.638   8.822 -0.0545  0.2465 -0.6133
  246MPD1    H1 3735   1.245   2.599   8.902  0.9997 -2.4978  0.0072
  246MPD1    H2 3736   1.002   2.257   8.864 -1.7496  0.0791  3.5852
  246MPD1    H3 3737   1.220   2.346   8.901 -0.1778  0.0544  1.1247
  246MPD1     N 3738   1.048   2.774   8.884 -0.3700 -0.2084  0.1758
  246MPD1    H5 3739   0.960   2.819   8.902 -0.5293 -0.1162 -0.8056
  246MPD1    N1 3740   0.778   2.379   8.806 -0.8114 -0.8803 -0.0758
  246MPD1    H6 3741   0.785   2.280   8.782 -1.0771 -1.0044  0.3533
  246MPD1    H7 3742   0.719   2.423   8.736  0.6971  1.0226 -0.1509
  247MPD1     C 3743   1.231   1.335  17.290  0.4765  0.3491  0.2887
  247MPD1    C1 3744   1.251   1.453  17.211 -0.4258 -0.4272 -0.0254
  247MPD1    C2 3745   1.289   1.438  17.080  0.0226  0.2252  0.3027
  247MPD1    C3 3746   1.327   1.308  17.034  0.1010  0.9622  0.9815
  247MPD1    C4 3747   1.326   1.203  17.119 -0.6568 -0.0334  0.1039
  247MPD1    C5 3748   1.278   1.216  17.242  0.3455 -0.9043 -0.5700
  247MPD1     H 3749   1.287   1.521  17.011  2.8755 -0.5749 -0.7490
  247MPD1    H1 3750   1.345   1.100  17.094  0.2159  0.5307 -1.5506
  247MPD1    H2 3751   1.196   1.339  17.393  1.9905 -2.5332  0.9113
  247MPD1    H3 3752   1.258   1.124  17.296 -0.0703 -1.0013 -0.8823
  247MPD1     N 3753   1.362   1.279  16.902  0.0543  0.4834 -0.0068
  247MPD1    H5 3754   1.379   1.180  16.887 -0.8767  0.2572  0.3891
  247MPD1    N1 3755   1.204   1.570  17.263 -0.8948 -0.6010 -0.2277
  247MPD1    H6 3756   1.230   1.663  17.230  2.3286 -1.3718  0.2119
  247MPD1    H7 3757   1.185   1.579  17.363 -1.8357 -1.6804 -0.3016
  248MPD1     C 3758   2.400   1.480   1.000 -0.3100 -0.8328 -0.0067
  248MPD1    C1 3759   2.290   1.502   0.922  0.6924  0.6875 -0.3164
  248MPD1    C2 3760   2.216   1.619   0.940 -0.2848  0.2616 -0.0867
  248MPD1    C3 3761   2.257   1.712   1.031  0.6633  0.3876  0.4840
  248MPD1    C4 3762   2.371   1.699   1.097 -0.4109 -0.6326  0.1254
  248MPD1    C5 3763   2.442   1.580   1.088 -0.5610 -0.0391  0.5036
  248MPD1     H 3764   2.117   1.633   0.898  0.2910  2.4159 -0.7169
  248MPD1    H1 3765   2.409   1.776   1.163  1.2739 -1.1267 -0.2868
  248MPD1    H2 3766   2.459   1.391   0.983 -0.0666 -0.6169 -0.2778
  248MPD1    H3 3767   2.532   1.578   1.148 -0.1054 -2.2325 -0.2498
  248MPD1     N 3768   2.182   1.833   1.040  0.3847  0.5184 -0.1917
  248MPD1    H5 3769   2.114   1.838   0.965  2.4699 -0.0172 -2.1083
  248MPD1    N1 3770   2.238   1.401   0.850 -0.1760 -0.1794  0.9795
  248MPD1    H6 3771   2.198   1.429   0.760  0.8544  1.3962  1.0084
  248MPD1    H7 3772   2.297   1.319   0.840 -0.9819 -0.7589  0.9293
  249MPD1     C 3773   4.059   4.488  11.021  0.1340 -0.0138  0.4343
  249MPD1    C1 3774   4.099   4.610  11.063  0.9878 -0.8959  0.1770
  249MPD1    C2 3775   4.119   4.710  10.969 -0.7793 -0.1200  0.1311
  249MPD1    C3 3776   4.078   4.690  10.835  0.1046 -0.1839 -0.5015
  249MPD1    C4 3777   4.013   4.571  10.810 -0.4035 -0.0099 -0.1479
  249MPD1    C5 3778   4.009   4.472  10.898 -0.0793 -0.6856  0.4254
  249MPD1     H 3779   4.164   0.075  11.007 -0.9836  0.2184 -0.4461
  249MPD1    H1 3780   3.982   4.548  10.708  0.2127  1.0712 -0.5798
  249MPD1    H2 3781   4.060   4.403  11.088 -0.2864 -1.0102 -0.8372
  249MPD1    H3 3782   3.970   4.378  10.859 -2.2565 -0.7435  2.7120
  249MPD1     N 3783   4.085   0.079  10.746  0.0252  0.3009  0.2814
  249MPD1    H5 3784   4.145   0.156  10.774 -1.2617  0.0969  3.5286
  249MPD1    N1 3785   4.172   4.623  11.188  0.2587  0.3925  0.1082
  249MPD1    H6 3786   4.168   4.722  11.213 -2.3250  0.7383 -1.7825
  249MPD1    H7 3787   4.130   4.563  11.259  2.5135  0.1566  1.2427
  250MPD2     C 3788   4.427   0.425  13.521 -0.3682  0.4025 -0.4329
  250MPD2    C1 3789   4.450   0.463  13.389 -0.2306 -0.3335 -0.2762
  250MPD2    C2 3790   4.369   0.417  13.290  0.0475  0.6249  0.0924
  250MPD2    C3 3791   4.272   0.318  13.329  0.4576 -0.1614  0.0832
  250MPD2    C4 3792   4.246   0.278  13.460 -0.7497  0.3645  0.1836
  250MPD2    C5 3793   4.326   0.335  13.556 -0.0368 -0.4265  0.4641
  250MPD2     H 3794   4.356   0.465  13.194  1.3108 -0.1192 -0.4501
  250MPD2    H1 3795   4.166   0.215  13.499  0.8072 -2.2039 -0.7500
  250MPD2    H2 3796   4.489   0.447  13.607  0.8816  1.6851 -1.6759
  250MPD2    H3 3797   4.315   0.309  13.661  0.3296 -2.8575 -0.0857
  250MPD2     N 3798   4.196   0.250  13.228 -0.6894  0.1793 -1.3573
  250MPD2    H5 3799   4.112   0.207  13.267 -1.5039  0.4919 -2.7614
  250MPD2    N1 3800   4.547   0.568  13.368 -0.4641 -0.3686  0.5602
  250MPD2    H7 3801   4.593   0.613  13.447  0.5161  0.0516 -0.2515
  251TMC3    C1 3802   4.699   0.687  13.237 -0.0455 -0.1726  0.2842
  251TMC3    C2 3803   0.011   0.772  13.336 -0.4681  0.0945  0.2994
  251TMC3    C3 3804   0.134   0.818  13.350 -0.2447 -0.1444  0.6704
  251TMC3    C4 3805   0.066   0.649  13.147  0.1569 -0.1722  0.3002
  251TMC3    C5 3806   0.195   0.695  13.166 -0.7082 -0.3490  0.2217
  251TMC3    C6 3807   0.238   0.777  13.267  0.0370 -0.0848  0.1029
  251TMC3     C 3808   4.572   0.620  13.241  0.2617  0.1928 -0.6983
  251TMC3     O 3809   4.534   0.583  13.131 -0.0920  0.1586 -0.7820
  251TMC3     H 3810   4.660   0.806  13.404 -0.1758 -0.2379  0.7972
  251TMC3    H1 3811   0.047   0.584  13.063  1.5006  1.7335 -1.4939
  251TMC3    H2 3812   0.341   0.809  13.270  0.1790 -0.5231 -0.0506
  251TMC3    C7 3813   0.310   0.622  13.121  0.2631 -0.1650  0.1013
  251TMC3    C8 3814   0.174   0.879  13.476 -0.6620  0.9498 -0.4851
  251TMC3    O1 3815   0.400   0.698  13.099  0.4546 -0.4747 -0.1480
  251TMC3    O2 3816   0.085   0.898  13.556 -0.4695  0.7301 -0.4212
  252TMC3    C1 3817   0.864   1.775   9.701 -0.3492 -0.3902  0.2179
  252TMC3    C2 3818   0.969   1.843   9.649 -0.7340  0.1544 -0.2858
  252TMC3    C3 3819   1.038   1.784   9.541  0.0775 -0.1774 -0.3054
  252TMC3    C4 3820   0.827   1.655   9.646  0.5663 -0.0284  0.0978
  252TMC3    C5 3821   0.883   1.603   9.532 -0.2769  0.1571  0.8665
  252TMC3    C6 3822   0.997   1.670   9.489 -0.5269 -0.4742 -0.1644
  252TMC3     C 3823   0.806   1.824   9.823  0.1296  0.0406 -0.1090
  252TMC3     O 3824   0.849   1.930   9.862 -0.0495  0.6535 -0.4506
  252TMC3     H 3825   1.006   1.935   9.694  1.3856 -1.6713  1.6813
  252TMC3    H1 3826   0.731   1.616   9.678  0.5771 -0.9889 -1.0487
  252TMC3    H2 3827   1.046   1.635   9.398 -1.2544 -1.6592 -0.0868
  252TMC3    C7 3828   0.858   1.473   9.481  0.2742 -0.1908  0.0194
  252TMC3    C8 3829   1.153   1.868   9.485 -0.7163 -0.7965 -0.0841
  252TMC3    O1 3830   0.904   1.446   9.372 -0.3344 -0.0121 -0.1632
  252TMC3    O2 3831   1.201   1.837   9.379 -0.0694  0.4051  0.0679
  253MPD2     C 3832   1.537   0.240  15.861  0.1344 -0.1092  0.4388
  253MPD2    C1 3833   1.408   0.240  15.898 -0.1278  0.4704 -0.1305
  253MPD2    C2 3834   1.389   0.225  16.030  0.2220 -0.2839  0.8497
  253MPD2    C3 3835   1.483   0.229  16.122  0.3092 -0.3680 -0.4041
  253MPD2    C4 3836   1.609   0.249  16.084 -0.5722 -0.4267  0.1673
  253MPD2    C5 3837   1.640   0.247  15.953 -0.2217 -0.5363 -0.9682
  253MPD2     H 3838   1.284   0.212  16.058  0.3490  0.2154  1.5668
  253MPD2    H1 3839   1.689   0.262  16.156 -0.6838  2.8736 -0.3181
  253MPD2    H2 3840   1.566   0.236  15.756 -2.3998 -1.0542 -0.2361
  253MPD2    H3 3841   1.744   0.232  15.927  0.3087  1.1679  0.1539
  253MPD2     N 3842   1.457   0.244  16.259 -0.2504 -0.5194 -0.2338
  253MPD2    H5 3843   1.542   0.260  16.313 -0.4921 -0.4961  0.1352
  253MPD2    N1 3844   1.298   0.256  15.809  0.3585 -0.1459 -0.3152
  253MPD2    H7 3845   1.206   0.244  15.849  0.3096 -1.5661 -0.8324
  254TMC3    C1 3846   1.347   0.251  16.464 -0.4129  0.3696 -0.3414
  254TMC3    C2 3847   1.234   0.294  16.524  0.8658  0.2738  0.2088
  254TMC3    C3 3848   1.231   0.315  16.658 -0.4472 -0.1286 -0.3444
  254TMC3    C4 3849   1.451   0.197  16.534 -0.0770  0.3378 -0.4441
  254TMC3    C5 3850   1.436   0.222  16.670 -0.0176  0.6762 -0.0719
  254TMC3    C6 3851   1.336   0.281  16.730  0.2635  0.0042 -1.1371
  254TMC3     C 3852   1.337   0.241  16.317 -0.2479  0.0696  0.1331
  254TMC3     O 3853   1.227   0.248  16.266  0.0735 -0.1480  0.6126
  254TMC3     H 3854   1.149   0.336  16.473  1.3488  0.9059 -0.0698
  254TMC3    H1 3855   1.548   0.160  16.504 -0.1599  0.2479 -0.5970
  254TMC3    H2 3856   1.341   0.294  16.837  2.5687 -0.8080 -1.1389
  254TMC3    C7 3857   1.532   0.155  16.757  0.1906  0.6005  0.3465
  254TMC3    C8 3858   1.114   0.350  16.739 -0.2507 -0.2639  0.4049
  254TMC3    O1 3859   1.581   0.215  16.849  0.2183  0.2744  0.4394
  254TMC3    O2 3860   1.119   0.335  16.858 -0.1077 -0.8266 -0.1197
  255MPD2     C 3861   4.664   2.980  10.461  0.1106 -0.0051 -0.6118
  255MPD2    C1 3862   4.702   3.060  10.562 -0.2412 -0.1927 -0.4033
  255MPD2    C2 3863   0.094   3.030  10.623 -0.1853 -0.3159 -0.2833
  255MPD2    C3 3864   0.177   2.933  10.571 -0.1357  0.3928 -0.2039
  255MPD2    C4 3865   0.133   2.853  10.465  0.4846  0.0026 -0.5752
  255MPD2    C5 3866   0.008   2.874  10.414  0.2535 -0.3881  0.1465
  255MPD2     H 3867   0.131   3.093  10.703 -3.4241  0.8547  0.3150
  255MPD2    H1 3868   0.202   2.782  10.421  0.5024 -0.5615  0.3761
  255MPD2    H2 3869   4.561   2.993  10.427 -0.7202 -2.1415  1.1081
  255MPD2    H3 3870   4.703   2.813  10.330 -1.2832  0.8742 -0.2023
  255MPD2     N 3871   0.307   2.904  10.621 -0.5464 -0.3586 -0.7848
  255MPD2    H5 3872   0.362   2.849  10.556  0.2923  0.1426 -0.5085
  255MPD2    N1 3873   4.615   3.159  10.601  0.0252  0.2701  0.1931
  255MPD2    H7 3874   4.530   3.178  10.549  2.4365 -1.1062 -4.2290
  256TMC3    C1 3875   4.528   3.352  10.691  0.3867  0.0919  0.8018
  256TMC3    C2 3876   4.553   3.483  10.665  0.1473  0.0950 -0.1599
  256TMC3    C3 3877   4.445   3.561  10.660  0.0912  0.4504  0.5018
  256TMC3    C4 3878   4.402   3.300  10.712 -0.2337 -0.5044 -0.7077
  256TMC3    C5 3879   4.304   3.392  10.731 -0.1086 -0.1870 -0.1060
  256TMC3    C6 3880   4.320   3.520  10.692 -0.0935  0.1461  0.4774
  256TMC3     C 3881   4.637   3.258  10.692 -0.5547  0.1745 -0.2371
  256TMC3     O 3882   0.018   3.297  10.735  0.9352 -0.1267  0.1400
  256TMC3     H 3883   4.653   3.510  10.632  1.1017 -2.3808  0.6450
  256TMC3    H1 3884   4.384   3.194  10.726  0.8199 -0.2516  2.5485
  256TMC3    H2 3885   4.239   3.587  10.665  0.4518  0.6845  0.2014
  256TMC3    C7 3886   4.172   3.335  10.702 -0.3359 -0.2206 -0.0073
  256TMC3    C8 3887   4.456   3.693  10.599 -1.0325 -0.0102 -0.5329
  256TMC3    O1 3888   4.083   3.374  10.777 -0.5694  0.5212 -0.3534
  256TMC3    O2 3889   4.405   3.789  10.658  0.5240 -0.4964  0.2464
  257MPD2     C 3890   3.476   0.812  13.535 -0.3536  0.3703 -0.2688
  257MPD2    C1 3891   3.556   0.759  13.434  0.0049 -0.7188 -0.0366
  257MPD2    C2 3892   3.569   0.623  13.421  0.3177 -0.5291 -0.1273
  257MPD2    C3 3893   3.500   0.539  13.511 -0.5846 -0.4883  0.4192
  257MPD2    C4 3894   3.423   0.595  13.613 -0.3643  0.0331  0.2955
  257MPD2    C5 3895   3.421   0.730  13.633  0.4676 -0.4729  0.1671
  257MPD2     H 3896   3.613   0.582  13.331  0.6923 -1.1979  0.3539
  257MPD2    H1 3897   3.365   0.542  13.687 -0.6548  0.0721  0.0950
  257MPD2    H2 3898   3.461   0.919  13.543 -0.8181  0.3741 -1.2086
  257MPD2    H3 3899   3.367   0.771  13.717 -1.4413 -1.7486 -0.4313
  257MPD2     N 3900   3.500   0.400  13.486 -0.2031  0.1962  0.1113
  257MPD2    H5 3901   3.551   0.359  13.409 -1.1392  0.6442 -0.7344
  257MPD2    N1 3902   3.613   0.855  13.344  0.3642  0.3596 -0.9110
  257MPD2    H7 3903   3.600   0.954  13.366  3.1776 -0.0436  2.6036
  258TMC3    C1 3904   3.463   0.172  13.537 -0.3740 -0.7201 -0.1455
  258TMC3    C2 3905   3.442   0.134  13.406  0.0638 -0.2807 -0.0488
  258TMC3    C3 3906   3.460   4.724  13.378  0.0387  0.7205  1.3179
  258TMC3    C4 3907   3.506   0.079  13.627  0.3434 -0.2378 -0.5717
  258TMC3    C5 3908   3.498   4.673  13.593  0.0314 -0.0106 -0.2013
  258TMC3    C6 3909   3.476   4.630  13.465  0.1292  0.2613  0.1135
  258TMC3     C 3910   3.461   0.308  13.584 -0.5484 -0.4922  0.2695
  258TMC3     O 3911   3.438   0.322  13.703  0.3705  0.2210 -0.2480
  258TMC3     H 3912   3.404   0.208  13.337  0.7875  0.0827 -0.0593
  258TMC3    H1 3913   3.546   0.114  13.721 -0.0261 -0.4905 -0.3207
  258TMC3    H2 3914   3.460   4.525  13.445  1.1588  0.1868 -0.3434
  258TMC3    C7 3915   3.510   4.564  13.680  0.3415 -0.3668 -0.8851
  258TMC3    C8 3916   3.438   4.682  13.238  0.4205  0.9615  0.0996
  258TMC3    O1 3917   3.436   4.468  13.663  0.6436  0.1615 -0.0536
  258TMC3    O2 3918   3.366   0.015  13.162 -0.3810 -0.2442 -0.1795
  259MPD2     C 3919   2.664   1.911   1.051 -0.1476  0.1397  0.0219
  259MPD2    C1 3920   2.774   1.967   1.112  0.3106 -0.6964 -0.2069
  259MPD2    C2 3921   2.896   1.913   1.066  0.3687 -0.3358  0.0248
  259MPD2    C3 3922   2.913   1.826   0.963  0.7129  0.1104 -0.6726
  259MPD2    C4 3923   2.795   1.781   0.908 -0.1217 -0.3675  0.4303
  259MPD2    C5 3924   2.674   1.822   0.951 -0.2782 -0.4704 -0.2843
  259MPD2     H 3925   2.988   1.965   1.089 -0.3447  1.0538 -0.3165
  259MPD2    H1 3926   2.799   1.710   0.826  1.4108  0.7717 -0.4920
  259MPD2    H2 3927   2.569   1.943   1.091 -0.2413 -0.6981  0.4744
  259MPD2    H3 3928   2.577   1.784   0.920 -0.3772  0.2010 -0.7966
  259MPD2     N 3929   3.043   1.793   0.913  0.0088 -0.8641 -0.2244
  259MPD2    H5 3930   3.121   1.834   0.963  0.0252 -2.2032  0.8523
  259MPD2    N1 3931   2.757   2.065   1.213  0.5632  0.2159 -0.5582
  259MPD2    H7 3932   2.660   2.081   1.239 -0.2836 -0.3973 -3.3689
  260TMC3    C1 3933   3.199   1.668   0.789  0.1506  0.3102  0.0097
  260TMC3    C2 3934   3.243   1.629   0.665  0.1003 -0.2236  0.4321
  260TMC3    C3 3935   3.350   1.538   0.667 -0.0223  0.1500  0.3664
  260TMC3    C4 3936   3.248   1.625   0.907 -0.1176 -0.3817 -0.0956
  260TMC3    C5 3937   3.324   1.518   0.908  0.0195  0.1089 -0.7571
  260TMC3    C6 3938   3.379   1.472   0.787 -1.2432  0.3724 -1.2370
  260TMC3     C 3939   3.064   1.729   0.793 -0.9491 -0.5052  0.0731
  260TMC3     O 3940   2.990   1.704   0.699 -0.4423 -0.3444 -0.6055
  260TMC3     H 3941   3.195   1.657   0.572 -0.2986  1.8198  1.2651
  260TMC3    H1 3942   3.198   1.659   0.997  1.2748 -0.9318  0.8906
  260TMC3    H2 3943   3.450   1.391   0.794  0.1457  1.5165 -2.1072
  260TMC3    C7 3944   3.321   1.427   1.027  0.5569 -0.8384  0.4488
  260TMC3    C8 3945   3.409   1.494   0.533  0.2393 -0.4526  0.6800
  260TMC3    O1 3946   3.429   1.382   1.061  0.5933 -0.2645 -0.3420
  260TMC3    O2 3947   3.440   1.579   0.449  0.7829  0.1327 -0.0939
  261MPD2     C 3948   3.680   0.437  12.515 -0.1582  0.8175  0.2573
  261MPD2    C1 3949   3.811   0.411  12.533  0.0039 -0.5153 -0.7414
  261MPD2    C2 3950   3.898   0.499  12.473  0.0756  1.0607 -0.5682
  261MPD2    C3 3951   3.859   0.600  12.387 -0.2057  0.6934  0.0634
  261MPD2    C4 3952   3.721   0.622  12.362 -0.0764 -0.0350  0.5074
  261MPD2    C5 3953   3.631   0.526  12.424 -0.3801  0.4067  0.2371
  261MPD2     H 3954   4.005   0.485  12.486  0.1421 -0.6128 -2.9007
  261MPD2    H1 3955   3.673   0.699  12.303  0.5981  0.3203  0.4212
  261MPD2    H2 3956   3.615   0.380  12.580 -0.2088 -1.3094 -1.6504
  261MPD2    H3 3957   3.524   0.534  12.403 -0.0433  2.7597 -0.5452
  261MPD2     N 3958   3.959   0.686  12.335 -0.3140  0.0262 -0.5342
  261MPD2    H5 3959   4.054   0.660  12.361 -0.8721  0.2455  1.7854
  261MPD2    N1 3960   3.848   0.318  12.632  0.0463 -0.2171 -0.4781
  261MPD2    H7 3961   3.789   0.270  12.700 -0.1145  1.1128  0.3094
  262TMC3    C1 3962   4.065   0.861  12.230 -0.5700  0.3829  0.2296
  262TMC3    C2 3963   4.062   0.931  12.116  0.2665 -0.0240  0.8998
  262TMC3    C3 3964   4.179   0.947  12.055 -0.1211 -0.1775 -0.3782
  262TMC3    C4 3965   4.181   0.823  12.296 -0.0124 -0.3203  0.2236
  262TMC3    C5 3966   4.294   0.856  12.231 -0.3797 -0.1886 -0.0268
  262TMC3    C6 3967   4.292   0.899  12.101  0.7639 -0.0392 -0.0243
  262TMC3     C 3968   3.945   0.804  12.268  0.1225 -0.3483  0.2962
  262TMC3     O 3969   3.847   0.875  12.254  0.3697  0.0895 -0.1595
  262TMC3     H 3970   3.978   0.990  12.082  0.7100  0.3825  0.5110
  262TMC3    H1 3971   4.176   0.767  12.389  0.5335  0.0821  0.4956
  262TMC3    H2 3972   4.379   0.920  12.040  0.4169  1.9203  0.1779
  262TMC3    C7 3973   4.420   0.797  12.276  0.2698 -0.4337 -0.0235
  262TMC3    C8 3974   4.191   1.060  11.969 -0.2778  0.0553  0.0392
  262TMC3    O1 3975   4.423   0.684  12.324 -0.2388  0.3255  0.3123
  262TMC3    O2 3976   4.149   1.164  12.011 -0.7013 -0.3395  0.2204
  263MPD2     C 3977   0.885   0.016  11.651 -0.1388 -0.5955 -0.0965
  263MPD2    C1 3978   0.895   4.648  11.557  0.6730  0.3025 -0.5406
  263MPD2    C2 3979   0.904   4.685  11.424 -0.0744 -1.3021  0.2781
  263MPD2    C3 3980   0.903   0.090  11.386 -0.4539 -0.4030 -0.2675
  263MPD2    C4 3981   0.888   0.182  11.485 -0.2694 -0.2786 -0.4731
  263MPD2    C5 3982   0.875   0.147  11.617  0.8828  0.3665  0.6152
  263MPD2     H 3983   0.927   4.616  11.344 -2.8222 -0.8274 -0.9215
  263MPD2    H1 3984   0.876   0.287  11.463  0.7925 -0.5205 -2.1645
  263MPD2    H2 3985   0.866   4.715  11.754 -0.4251 -0.9919 -0.2561
  263MPD2    H3 3986   0.844   0.221  11.690 -1.5175 -0.0478  0.0142
  263MPD2     N 3987   0.906   0.133  11.252 -0.5536  0.3950 -0.0549
  263MPD2    H5 3988   0.936   0.067  11.181 -2.5589 -0.6776  0.0970
  263MPD2    N1 3989   0.885   4.513  11.601  0.2378  0.6565  0.3195
  263MPD2    H7 3990   0.887   4.501  11.701  1.0466  0.7071  0.3123
  264TMC3    C1 3991   0.926   0.294  11.072  0.1374 -0.3585 -0.4239
  264TMC3    C2 3992   0.882   0.404  11.007 -0.2499 -0.0147  0.8673
  264TMC3    C3 3993   0.938   0.452  10.893 -0.4998  0.6349  0.4627
  264TMC3    C4 3994   1.025   0.222  11.014 -0.7245  0.2608  0.1843
  264TMC3    C5 3995   1.085   0.267  10.894 -0.3038  0.2801  0.1490
  264TMC3    C6 3996   1.037   0.378  10.829 -0.0897 -0.3176  0.0203
  264TMC3     C 3997   0.865   0.257  11.201 -0.1149 -0.1379 -0.2784
  264TMC3     O 3998   0.783   0.334  11.247  0.2118 -0.2843 -0.6624
  264TMC3     H 3999   0.809   0.464  11.060 -1.5309 -1.1446  0.3650
  264TMC3    H1 4000   1.059   0.127  11.054  1.0335  0.5278 -0.7011
  264TMC3    H2 4001   1.072   0.405  10.730 -0.7913 -3.6457 -1.1237
  264TMC3    C7 4002   1.231   0.256  10.880  0.5849 -0.1134 -0.2479
  264TMC3    C8 4003   0.985   0.592  10.898  0.4057  0.2100 -0.1170
  264TMC3    O1 4004   1.288   0.159  10.931 -0.5094 -0.5853  0.6405
  264TMC3    O2 4005   1.088   0.607  10.834 -0.2601  0.3730  0.6376
  265MPD2     C 4006   2.504   0.156  15.792 -0.3649 -0.0272  0.4192
  265MPD2    C1 4007   2.592   0.249  15.744 -0.5407  0.4631  0.1343
  265MPD2    C2 4008   2.657   0.218  15.631  0.4209 -0.2660  0.0965
  265MPD2    C3 4009   2.635   0.101  15.560  1.1176 -0.0607 -0.1833
  265MPD2    C4 4010   2.565   0.001  15.617  0.0344  0.1382  0.1559
  265MPD2    C5 4011   2.493   0.033  15.732  0.1465  0.2810 -0.4605
  265MPD2     H 4012   2.709   0.307  15.599 -0.8115  0.2860 -0.3976
  265MPD2    H1 4013   2.550   4.627  15.580  0.8744 -0.4372  1.4017
  265MPD2    H2 4014   2.452   0.172  15.886 -1.7881  1.5296 -0.6401
  265MPD2    H3 4015   2.423   4.685  15.768 -0.0137  0.0210 -1.2973
  265MPD2     N 4016   2.697   0.081  15.433 -0.5636  0.2534  0.3437
  265MPD2    H5 4017   2.670   4.721  15.386  1.9663 -1.1245  1.4173
  265MPD2    N1 4018   2.615   0.372  15.805  0.0113  0.3134  0.1255
  265MPD2    H7 4019   2.665   0.445  15.756  0.0777  1.0234  1.2439
  266TMC3    C1 4020   2.580   0.558  15.961  0.2893  0.2147  0.1874
  266TMC3    C2 4021   2.527   0.593  16.086  0.2493 -0.0729  0.3368
  266TMC3    C3 4022   2.569   0.715  16.128  0.2198 -1.0364  0.9352
  266TMC3    C4 4023   2.660   0.636  15.877 -0.2067  0.4581  0.9922
  266TMC3    C5 4024   2.679   0.760  15.924 -0.5044 -0.0685 -0.4962
  266TMC3    C6 4025   2.638   0.806  16.052 -0.0386  0.0618 -0.7764
  266TMC3     C 4026   2.569   0.414  15.924 -0.1050 -0.5232  0.3434
  266TMC3     O 4027   2.530   0.347  16.020  0.3909 -0.8023  0.2597
  266TMC3     H 4028   2.469   0.524  16.147  1.0556 -0.4626  0.6621
  266TMC3    H1 4029   2.688   0.610  15.775  0.8516  0.0230  1.3990
  266TMC3    H2 4030   2.643   0.913  16.063 -2.7570 -0.0329  1.4291
  266TMC3    C7 4031   2.718   0.856  15.820 -0.0137  0.5548 -0.4140
  266TMC3    C8 4032   2.532   0.748  16.261 -0.4296  0.7003  0.4038
  266TMC3    O1 4033   2.704   0.813  15.705 -0.6065 -0.3393 -0.5885
  266TMC3    O2 4034   2.463   0.668  16.321 -0.5870  0.1629  0.0610
  267MPD2     C 4035   0.135   1.720   0.225  0.3402  0.6070  0.1155
  267MPD2    C1 4036   0.251   1.734   0.155  0.5428  0.5562  0.3145
  267MPD2    C2 4037   0.249   1.741   0.015  0.6330  0.1426  0.3496
  267MPD2    C3 4038   0.124   1.742  17.657  0.2212 -0.0228  0.0105
  267MPD2    C4 4039   0.010   1.723   0.023 -0.2795 -0.1406 -0.1816
  267MPD2    C5 4040   0.011   1.714   0.159  0.1399 -0.1407 -0.7441
  267MPD2     H 4041   0.344   1.748  17.671  0.7777 -1.4318  0.3943
  267MPD2    H1 4042   4.637   1.715  17.688 -1.2654 -1.8656  2.4679
  267MPD2    H2 4043   0.139   1.699   0.331  2.5425 -1.3417 -0.3532
  267MPD2    H3 4044   4.649   1.696   0.218  1.2529 -2.4592  0.1983
  267MPD2     N 4045   0.116   1.743  17.514 -0.4777  0.1353 -0.1398
  267MPD2    H5 4046   0.024   1.727  17.474  0.0619 -3.0655 -0.0935
  267MPD2    N1 4047   0.368   1.765   0.240  0.2327 -0.2699  0.2285
  267MPD2    H7 4048   0.355   1.752   0.340 -0.8699  1.5143  0.3014
  268TMC3    C1 4049   0.597   1.820   0.286  0.9303  0.4153  0.4929
  268TMC3    C2 4050   0.702   1.893   0.248 -0.9467 -0.0258  0.1969
  268TMC3    C3 4051   0.813   1.893   0.333  0.2821 -0.1410  0.3196
  268TMC3    C4 4052   0.602   1.735   0.394 -0.1031 -0.3090  0.6139
  268TMC3    C5 4053   0.719   1.724   0.467  0.0683 -0.8149 -0.3780
  268TMC3    C6 4054   0.831   1.806   0.437 -0.1860 -0.2333 -0.5145
  268TMC3     C 4055   0.488   1.818   0.187 -0.3870  0.2306  0.3949
  268TMC3     O 4056   0.505   1.876   0.079 -0.4041 -0.1196 -0.4028
  268TMC3     H 4057   0.691   1.958   0.163  0.4753  1.7934  1.4043
  268TMC3    H1 4058   0.510   1.687   0.426  0.6078 -0.7585  1.9711
  268TMC3    H2 4059   0.917   1.811   0.502 -1.0195 -0.3210  0.5854
  268TMC3    C7 4060   0.739   1.635   0.579  0.7571  0.3391 -0.2950
  268TMC3    C8 4061   0.929   1.977   0.303 -0.0682 -0.1873  0.2219
  268TMC3    O1 4062   0.849   1.627   0.627 -0.2619 -0.1964 -0.0406
  268TMC3    O2 4063   1.014   1.981   0.389  0.2442 -0.1649 -0.9426
  269MPD2     C 4064   0.023   0.543  16.367 -0.2973 -0.4058 -0.4709
  269MPD2    C1 4065   4.659   0.558  16.265 -0.0308  0.7556 -0.3804
  269MPD2    C2 4066   4.676   0.659  16.171 -0.4724  0.2877  0.4956
  269MPD2    C3 4067   0.041   0.751  16.183  0.9094 -0.0898 -0.2949
  269MPD2    C4 4068   0.129   0.746  16.292 -0.1155  0.1293  0.1247
  269MPD2    C5 4069   0.112   0.646  16.389 -0.6016 -0.1657  0.0333
  269MPD2     H 4070   4.610   0.674  16.086  2.0267 -1.8066 -1.8068
  269MPD2    H1 4071   0.203   0.822  16.312 -0.6947  0.2589  1.8487
  269MPD2    H2 4072   0.025   0.447  16.418 -0.2727 -0.7318 -1.0886
  269MPD2    H3 4073   0.190   0.630  16.462  0.8716 -0.2438 -1.5424
  269MPD2     N 4074   0.040   0.852  16.085  0.6533 -0.1848  0.6436
  269MPD2    H5 4075   4.680   0.861  16.032  1.1040 -2.2210 -0.3972
  269MPD2    N1 4076   4.551   0.461  16.245 -0.5015  0.0957 -0.7817
  269MPD2    H7 4077   4.550   0.386  16.313 -1.9888  0.3515 -0.5194
  270TMC3    C1 4078   4.407   0.331  16.108  0.1011  0.6845  0.4271
  270TMC3    C2 4079   4.297   0.330  16.027  0.3020  0.7333 -0.4103
  270TMC3    C3 4080   4.290   0.229  15.934 -0.7978  0.3257 -0.2785
  270TMC3    C4 4081   4.496   0.226  16.114 -0.5194  0.4525 -0.6316
  270TMC3    C5 4082   4.481   0.122  16.024  0.2007 -0.4297 -0.8503
  270TMC3    C6 4083   4.382   0.126  15.934 -0.0310 -0.4786  0.4786
  270TMC3     C 4084   4.450   0.464  16.146 -0.2781 -0.9317  0.2597
  270TMC3     O 4085   4.424   0.554  16.066  0.8022 -0.3099 -0.3639
  270TMC3     H 4086   4.231   0.414  16.011 -1.6195 -0.5844  0.6412
  270TMC3    H1 4087   4.588   0.224  16.171 -1.5106 -0.5304  0.9455
  270TMC3    H2 4088   4.365   0.050  15.859  0.9398 -1.4495  1.2489
  270TMC3    C7 4089   4.597   0.031  16.001  1.0554  0.0694 -0.2061
  270TMC3    C8 4090   4.219   0.264  15.811  0.1408  0.2497  0.0394
  270TMC3    O1 4091   4.701   0.053  16.064 -0.5925 -0.0018  0.0310
  270TMC3    O2 4092   4.102   0.294  15.810 -0.4655 -0.2551  0.0909
  271MPD2     C 4093   4.154   0.346  13.982 -0.1937  0.8739  0.0294
  271MPD2    C1 4094   4.128   0.364  14.116  0.2491  0.2060 -0.5610
  271MPD2    C2 4095   4.036   0.467  14.150  0.4727  0.6584  0.1983
  271MPD2    C3 4096   3.971   0.539  14.052  0.1886  0.1444 -0.1750
  271MPD2    C4 4097   4.009   0.526  13.921 -0.0033  0.4190 -0.0732
  271MPD2    C5 4098   4.090   0.424  13.882  0.3158 -0.0591  0.1289
  271MPD2     H 4099   4.010   0.478  14.255 -0.4774  1.5106 -0.1277
  271MPD2    H1 4100   3.962   0.588  13.845 -1.3458 -0.7905 -0.2232
  271MPD2    H2 4101   4.233   0.281  13.947 -1.3489 -1.0473  0.9842
  271MPD2    H3 4102   4.126   0.417  13.780  1.3245  0.2062  0.4639
  271MPD2     N 4103   3.868   0.635  14.073 -0.6681  0.4071 -0.2888
  271MPD2    H5 4104   3.834   0.695  13.999 -2.6959 -0.2130  0.1603
  271MPD2    N1 4105   4.206   0.306  14.218 -0.2643  0.4762  0.6655
  271MPD2    H7 4106   4.192   0.351  14.308 -1.6947  1.4030 -0.0196
  272TMC3    C1 4107   4.359   0.169  14.338  0.4122 -0.4366 -0.4884
  272TMC3    C2 4108   4.475   0.101  14.333 -0.1101 -0.9235  0.1733
  272TMC3    C3 4109   4.535   0.067  14.449  0.0030 -0.5816 -0.1764
  272TMC3    C4 4110   4.290   0.188  14.456  0.0680 -0.3978 -0.0918
  272TMC3    C5 4111   4.347   0.137  14.568 -0.3410 -0.1106  0.3615
  272TMC3    C6 4112   4.474   0.079  14.574  0.4547  0.7730  0.0178
  272TMC3     C 4113   4.292   0.203  14.209 -0.0001 -0.1958  0.0244
  272TMC3     O 4114   4.326   0.139  14.109 -0.2402 -0.2872 -0.6277
  272TMC3     H 4115   4.532   0.103  14.241  1.2323  3.9174  1.0866
  272TMC3    H1 4116   4.193   0.236  14.460  0.0653 -0.4913  1.1586
  272TMC3    H2 4117   4.503   0.012  14.654  0.3429  1.0486  0.2890
  272TMC3    C7 4118   4.287   0.191  14.693 -0.0596 -0.9205 -0.0619
  272TMC3    C8 4119   4.645   4.691  14.443  0.1908 -0.1013 -0.1950
  272TMC3    O1 4120   4.166   0.187  14.689 -0.7273 -0.1183  0.0428
  272TMC3    O2 4121   4.657   4.636  14.335  0.4019  0.5171  0.5554
  273MPD2     C 4122   1.115   3.242  11.572 -0.3533 -0.4306  0.0381
  273MPD2    C1 4123   1.142   3.376  11.570 -0.2167  0.2378  0.2993
  273MPD2    C2 4124   1.162   3.439  11.448 -0.0967 -0.8404 -0.1388
  273MPD2    C3 4125   1.169   3.358  11.335 -0.0293 -0.1995  1.0078
  273MPD2    C4 4126   1.134   3.225  11.333  0.2462  0.3746  0.4164
  273MPD2    C5 4127   1.114   3.166  11.456 -0.4495  0.8806 -0.6643
  273MPD2     H 4128   1.193   3.543  11.448 -1.0072 -0.5708 -0.4382
  273MPD2    H1 4129   1.127   3.164  11.244 -0.7170 -1.3348  1.6538
  273MPD2    H2 4130   1.084   3.205  11.669  1.0427  0.8292  0.9748
  273MPD2    H3 4131   1.107   3.058  11.458  0.2532  0.8443 -0.0105
  273MPD2     N 4132   1.198   3.414  11.211 -0.3234  0.1265 -0.0050
  273MPD2    H5 4133   1.239   3.354  11.140  0.3746 -0.7754  1.1681
  273MPD2    N1 4134   1.157   3.446  11.691  0.7440  0.0912  0.1227
  273MPD2    H7 4135   1.162   3.390  11.775 -1.5706  1.1431  0.9455
  274TMC3    C1 4136   1.294   3.577  11.072 -0.2314  0.9765  0.0740
  274TMC3    C2 4137   1.257   3.669  10.983  0.1116 -1.1655  0.1492
  274TMC3    C3 4138   1.355   3.745  10.943 -0.1219  0.5387 -0.5507
  274TMC3    C4 4139   1.421   3.565  11.119  0.0417  0.1527  0.4307
  274TMC3    C5 4140   1.520   3.651  11.083  0.0873  0.2708 -0.4660
  274TMC3    C6 4141   1.483   3.737  10.986  0.2557  0.1408  0.1458
  274TMC3     C 4142   1.196   3.550  11.179  0.3862  0.2092 -0.1054
  274TMC3     O 4143   1.152   3.645  11.242  0.0413 -0.5038 -0.8797
  274TMC3     H 4144   1.154   3.692  10.957 -0.0209 -1.1448  0.7071
  274TMC3    H1 4145   1.446   3.501  11.204  1.2872  0.4648  0.2977
  274TMC3    H2 4146   1.542   3.828  10.982  2.1323 -1.1103 -0.5089
  274TMC3    C7 4147   1.570   3.731  11.188  0.3604  0.0226 -0.2914
  274TMC3    C8 4148   1.330   3.850  10.842 -0.3706 -0.0333  0.3504
  274TMC3    O1 4149   1.681   3.767  11.191 -0.3569  0.3348  0.4450
  274TMC3    O2 4150   1.212   3.872  10.831 -0.6577 -0.9391  0.4761
  275MPD2     C 4151   1.147   1.251  14.493  0.2465  0.3686 -0.6766
  275MPD2    C1 4152   1.087   1.179  14.591  0.1166 -0.4675  0.2641
  275MPD2    C2 4153   0.987   1.086  14.566 -0.0773  0.8442 -0.1088
  275MPD2    C3 4154   0.937   1.079  14.436 -0.1961  0.4474  0.3677
  275MPD2    C4 4155   0.999   1.151  14.334  0.0757  0.2787  0.2917
  275MPD2    C5 4156   1.101   1.236  14.364  0.5631 -0.8618  0.0017
  275MPD2     H 4157   0.959   1.021  14.649 -0.4210  0.1570 -0.7666
  275MPD2    H1 4158   0.968   1.131  14.232  0.1322 -0.6060  0.4439
  275MPD2    H2 4159   1.234   1.315  14.507 -1.9793  3.2900 -0.0215
  275MPD2    H3 4160   1.148   1.292  14.283 -2.3625 -2.5053 -2.8282
  275MPD2     N 4161   0.828   1.000  14.408 -0.4880 -0.3792 -0.9397
  275MPD2    H5 4162   0.774   1.035  14.330 -1.4267  1.0003  0.3398
  275MPD2    N1 4163   1.129   1.187  14.724 -0.2691  0.2649 -0.2287
  275MPD2    H7 4164   1.080   1.128  14.790  0.1843 -1.3738 -1.3748
  276TMC3    C1 4165   1.237   1.272  14.924  0.8006  0.6691 -0.1354
  276TMC3    C2 4166   1.121   1.248  14.988  0.1362  0.2488 -0.5275
  276TMC3    C3 4167   1.140   1.243  15.123 -0.3039 -0.3010  0.1303
  276TMC3    C4 4168   1.358   1.302  14.986 -0.3430  0.0376  0.6021
  276TMC3    C5 4169   1.358   1.303  15.121 -0.1210 -0.4186 -0.4714
  276TMC3    C6 4170   1.250   1.265  15.196  0.2100  0.2833  0.1047
  276TMC3     C 4171   1.228   1.265  14.777  0.5953 -1.3629 -0.1231
  276TMC3     O 4172   1.320   1.321  14.725  0.0533 -0.5880  0.1919
  276TMC3     H 4173   1.030   1.221  14.935  0.1301 -0.3343 -0.2120
  276TMC3    H1 4174   1.446   1.324  14.926 -0.6562 -0.6262 -0.1023
  276TMC3    H2 4175   1.242   1.265  15.304 -0.1613  0.6636  0.0756
  276TMC3    C7 4176   1.474   1.329  15.201  0.1735  0.3423  0.4010
  276TMC3    C8 4177   1.019   1.230  15.203 -0.4024 -0.3635 -0.3526
  276TMC3    O1 4178   1.452   1.337  15.322  0.0430 -0.0404  0.2245
  276TMC3    O2 4179   0.920   1.300  15.192 -0.3965 -0.8638  0.1690
  277MPD2     C 4180   2.959   0.722  13.503  0.0433 -0.0175  1.0800
  277MPD2    C1 4181   2.824   0.695  13.495  0.4316  0.0515  0.3602
  277MPD2    C2 4182   2.781   0.579  13.555  0.0890  0.1962  0.9817
  277MPD2    C3 4183   2.865   0.496  13.623 -0.0638 -0.3367 -0.4394
  277MPD2    C4 4184   3.000   0.523  13.624  0.2487 -0.3180  0.4441
  277MPD2    C5 4185   3.046   0.640  13.565  0.5740 -0.2542 -0.1537
  277MPD2     H 4186   2.681   0.547  13.530 -0.7305  2.1070  1.8635
  277MPD2    H1 4187   3.078   0.465  13.672 -0.5058 -2.8355 -1.3779
  277MPD2    H2 4188   2.997   0.812  13.456  1.1096 -0.8323  0.3934
  277MPD2    H3 4189   3.154   0.646  13.565  0.6304 -1.2423  1.2173
  277MPD2     N 4190   2.805   0.385  13.682 -0.5981  0.9766  0.4115
  277MPD2    H5 4191   2.704   0.382  13.692 -0.7496  1.3615 -1.0507
  277MPD2    N1 4192   2.742   0.789  13.435  0.4730 -0.5787 -0.2056
  277MPD2    H7 4193   2.776   0.878  13.399 -2.4832 -0.0857 -1.7606
  278TMC3    C1 4194   2.777   0.197  13.825 -0.4298  0.8112  0.1255
  278TMC3    C2 4195   2.809   0.132  13.942  0.2225  0.1089  0.5860
  278TMC3    C3 4196   2.718   0.059  14.009  0.6557  0.0318 -0.0580
  278TMC3    C4 4197   2.659   0.169  13.761 -0.6527  0.3766  0.0188
  278TMC3    C5 4198   2.560   0.108  13.832 -0.1331  0.2408  0.4665
  278TMC3    C6 4199   2.585   0.048  13.953  0.5804  0.1733 -0.3388
  278TMC3     C 4200   2.871   0.296  13.767 -0.7169  0.3374  0.2821
  278TMC3     O 4201   2.985   0.298  13.805 -0.0720 -0.1080  0.1077
  278TMC3     H 4202   2.914   0.132  13.970  0.2392  1.1330  0.5260
  278TMC3    H1 4203   2.636   0.207  13.662  2.2815  1.0158 -0.4185
  278TMC3    H2 4204   2.511   4.702  13.985  0.6381  0.1572 -0.2397
  278TMC3    C7 4205   2.426   0.098  13.765 -0.2550  0.8130  0.6285
  278TMC3    C8 4206   2.763   4.676  14.099 -0.3067  0.2229  0.0966
  278TMC3    O1 4207   2.429   0.092  13.643 -0.2340 -0.0687  0.0836
  278TMC3    O2 4208   2.872   4.682  14.142  0.2308  0.0003 -0.1713
  279MPD2     C 4209   2.362   0.565   0.683 -1.1435  0.5165 -1.1739
  279MPD2    C1 4210   2.291   0.685   0.679  0.5669 -0.0354 -0.0698
  279MPD2    C2 4211   2.314   0.773   0.568 -0.0086 -0.6887 -0.1404
  279MPD2    C3 4212   2.386   0.727   0.461  0.9588  0.7722  0.4720
  279MPD2    C4 4213   2.451   0.604   0.466  0.0823 -0.1466 -0.2080
  279MPD2    C5 4214   2.440   0.532   0.577  0.6389 -0.1781  0.4005
  279MPD2     H 4215   2.257   0.864   0.558  0.2978 -0.4764  0.0501
  279MPD2    H1 4216   2.507   0.557   0.386 -1.2241 -3.3236  0.7704
  279MPD2    H2 4217   2.341   0.498   0.765  1.9089  2.7785  1.4633
  279MPD2    H3 4218   2.498   0.441   0.573 -1.9633 -1.8390  0.7836
  279MPD2     N 4219   2.395   0.797   0.338 -0.1475  0.1377  0.1984
  279MPD2    H5 4220   2.445   0.757   0.259 -1.0428 -1.3275  0.3850
  279MPD2    N1 4221   2.192   0.716   0.778  0.2905 -0.2023  1.1009
  279MPD2    H7 4222   2.156   0.638   0.831 -1.9339  0.5606  0.6873
  280TMC3    C1 4223   1.997   0.841   0.819  0.4813  0.7091  0.3577
  280TMC3    C2 4224   1.927   0.734   0.778  0.8003  0.2702 -0.4732
  280TMC3    C3 4225   1.803   0.762   0.742 -0.5361  0.0815 -0.0285
  280TMC3    C4 4226   1.935   0.973   0.826  0.7092 -0.1671 -1.0666
  280TMC3    C5 4227   1.808   0.992   0.774  0.1170 -0.1097  0.3261
  280TMC3    C6 4228   1.737   0.883   0.742  0.9675 -1.1744  0.4651
  280TMC3     C 4229   2.132   0.842   0.780 -0.2245 -0.1186  0.0355
  280TMC3     O 4230   2.179   0.955   0.755  0.2345  0.7376  0.1757
  280TMC3     H 4231   1.966   0.634   0.762 -1.5577 -0.4065 -2.0493
  280TMC3    H1 4232   1.992   1.063   0.848 -1.8136  0.9388  0.9579
  280TMC3    H2 4233   1.635   0.876   0.706  1.7590 -3.0072 -1.4226
  280TMC3    C7 4234   1.746   1.117   0.779 -0.1458  0.2416 -0.4089
  280TMC3    C8 4235   1.754   0.652   0.661 -0.2736 -0.4527  0.4036
  280TMC3    O1 4236   1.818   1.210   0.812 -0.0650  0.2177 -0.5592
  280TMC3    O2 4237   1.767   0.534   0.704 -0.2266 -0.6183 -0.0484
  281TMC3    C1 4238   1.124   0.698  13.252  0.4564 -0.1532 -0.1221
  281TMC3    C2 4239   1.012   0.657  13.184  0.0608 -0.3026 -0.6117
  281TMC3    C3 4240   0.963   0.533  13.199 -0.0365 -0.0961  0.0082
  281TMC3    C4 4241   1.194   0.612  13.334  0.7315  0.0647  0.0041
  281TMC3    C5 4242   1.144   0.485  13.343 -0.1307  0.5070 -0.4299
  281TMC3    C6 4243   1.040   0.441  13.269 -1.2422 -0.5010 -0.3203
  281TMC3     C 4244   1.120   0.834  13.285  0.5134 -0.9354 -0.3377
  281TMC3     O 4245   1.218   0.887  13.332  0.0412 -0.0836  0.1161
  281TMC3     H 4246   0.971   0.722  13.107  1.7409  2.3348  0.7197
  281TMC3    H1 4247   1.288   0.650  13.371 -0.3248  0.3189  2.4090
  281TMC3    H2 4248   0.986   0.349  13.288 -2.1107  0.0247 -0.2134
  281TMC3    C7 4249   1.201   0.399  13.442  0.2949 -0.5371 -0.4152
  281TMC3    C8 4250   0.817   0.526  13.196  0.5070  0.5626 -0.4018
  281TMC3    O1 4251   1.324   0.389  13.441 -0.2388 -0.0779 -0.0592
  281TMC3    O2 4252   0.752   0.630  13.219 -0.1176  0.2043  0.0310
  282MPD2     C 4253   3.007   1.999  15.330  0.7688  0.2448 -0.5452
  282MPD2    C1 4254   2.869   2.033  15.336 -0.5087 -0.5250 -0.1283
  282MPD2    C2 4255   2.790   2.046  15.220  0.0643 -0.0102 -0.8728
  282MPD2    C3 4256   2.853   2.042  15.096 -0.0633 -0.2471  0.6389
  282MPD2    C4 4257   2.987   2.018  15.088 -0.0864  0.2821  0.9242
  282MPD2    C5 4258   3.056   1.984  15.203 -0.4781 -0.3177  0.1830
  282MPD2     H 4259   2.686   2.076  15.219 -0.1060 -0.5642  0.0376
  282MPD2    H1 4260   3.046   2.004  14.998 -0.4010  1.3677  0.5581
  282MPD2    H2 4261   3.071   1.976  15.415 -1.9234  0.0053  1.4292
  282MPD2    H3 4262   3.162   1.963  15.205 -0.3120  0.8181  2.9742
  282MPD2     N 4263   2.776   2.054  14.979  0.1542 -0.1463  0.0228
  282MPD2    H5 4264   2.679   2.081  14.980  0.3391  0.4500  1.2035
  282MPD2    N1 4265   2.807   2.055  15.459  0.1034 -0.1230 -0.2539
  282MPD2    H7 4266   2.708   2.076  15.450  0.2839  1.6093  1.8765
  283TMC3    C1 4267   2.787   2.082  15.699  0.5632  0.6483 -0.1248
  283TMC3    C2 4268   2.812   2.189  15.785  0.2591 -0.0929 -0.2377
  283TMC3    C3 4269   2.775   2.188  15.916 -0.1199  0.1731 -0.1349
  283TMC3    C4 4270   2.707   1.976  15.739 -0.2477 -0.5714  0.0112
  283TMC3    C5 4271   2.654   1.985  15.869 -0.3950 -0.2961  0.5303
  283TMC3    C6 4272   2.699   2.079  15.963 -0.1900  0.1128 -0.0421
  283TMC3     C 4273   2.868   2.080  15.575  0.1723  0.6315  0.1470
  283TMC3     O 4274   2.988   2.095  15.594  0.1296 -0.3016 -0.4611
  283TMC3     H 4275   2.875   2.268  15.745  1.0148 -1.0885 -0.9804
  283TMC3    H1 4276   2.676   1.907  15.662 -1.8035 -0.1911  0.2782
  283TMC3    H2 4277   2.671   2.076  16.067  2.8172 -2.0158  0.7055
  283TMC3    C7 4278   2.586   1.875  15.928  0.3580  0.0500  0.1818
  283TMC3    C8 4279   2.760   2.319  15.988  1.0069  0.2262 -0.9026
  283TMC3    O1 4280   2.536   1.896  16.036 -0.2923  0.1411  0.3766
  283TMC3    O2 4281   2.716   2.309  16.101 -0.2278  0.2264  0.1088
  284MPD2     C 4282   0.990   1.590  11.986  0.0526 -0.1917 -0.5383
  284MPD2    C1 4283   1.131   1.594  11.979 -0.2618  0.6529 -0.1761
  284MPD2    C2 4284   1.202   1.513  12.062 -0.7157  1.0393 -0.0405
  284MPD2    C3 4285   1.145   1.445  12.164 -0.2166  0.1430 -0.7283
  284MPD2    C4 4286   1.010   1.439  12.171  0.1199  0.2341  0.1894
  284MPD2    C5 4287   0.934   1.503  12.079 -0.0695 -1.2093 -0.3026
  284MPD2     H 4288   1.310   1.521  12.060 -0.6244 -0.4565 -1.1827
  284MPD2    H1 4289   0.967   1.365  12.238 -1.0180  0.9482  0.2550
  284MPD2    H2 4290   0.926   1.634  11.911  0.3333  0.5626 -0.3319
  284MPD2    H3 4291   0.829   1.478  12.083  0.0299 -1.5600  0.1160
  284MPD2     N 4292   1.213   1.380  12.270  0.0715  0.3976  0.1430
  284MPD2    H5 4293   1.165   1.332  12.345  1.1017 -0.4790  0.2390
  284MPD2    N1 4294   1.201   1.663  11.880  0.5250 -0.0714 -0.3189
  284MPD2    H7 4295   1.298   1.640  11.862  0.2280  0.2066 -2.2716
  285TMC3    C1 4296   1.234   1.800  11.683 -0.1626  0.0753  0.1689
  285TMC3    C2 4297   1.330   1.708  11.649  0.2578  0.8120  0.4892
  285TMC3    C3 4298   1.448   1.763  11.601 -1.1019  0.6141 -0.2183
  285TMC3    C4 4299   1.248   1.931  11.659 -0.0823 -0.7715 -0.2544
  285TMC3    C5 4300   1.372   1.981  11.630 -0.0748  0.1258  0.2005
  285TMC3    C6 4301   1.468   1.898  11.593 -0.0340 -0.1282 -0.6147
  285TMC3     C 4302   1.142   1.751  11.791 -0.3110  0.7400 -0.0597
  285TMC3     O 4303   1.029   1.793  11.793  0.2106 -0.0716 -0.3613
  285TMC3     H 4304   1.320   1.601  11.654  0.6786  0.9008  3.1304
  285TMC3    H1 4305   1.176   2.004  11.696 -0.7917 -1.2145 -0.7810
  285TMC3    H2 4306   1.556   1.937  11.543 -0.0230 -0.0250 -0.5148
  285TMC3    C7 4307   1.388   2.111  11.589  0.5970  0.2937 -1.0622
  285TMC3    C8 4308   1.521   1.680  11.504 -0.5260  0.3853  0.1792
  285TMC3    O1 4309   1.484   2.171  11.628 -0.0410 -0.5200  0.2051
  285TMC3    O2 4310   1.455   1.619  11.419  0.5156  0.8069  0.1179
  286MPD2     C 4311   1.112   0.364   1.930  0.5119  0.4999 -1.0942
  286MPD2    C1 4312   1.120   0.380   1.793 -0.2121  0.0271 -0.3767
  286MPD2    C2 4313   1.234   0.320   1.733  0.5617 -0.5116  0.3894
  286MPD2    C3 4314   1.334   0.255   1.801  0.1608  0.5491  0.3549
  286MPD2    C4 4315   1.320   0.254   1.938  0.1979  0.0666  0.2441
  286MPD2    C5 4316   1.214   0.302   1.999 -0.1990  0.0479  0.0184
  286MPD2     H 4317   1.250   0.329   1.626  0.2009 -0.5528  0.3314
  286MPD2    H1 4318   1.387   0.199   2.004 -2.5835 -1.1490  2.0847
  286MPD2    H2 4319   1.036   0.415   1.987 -1.1028 -0.2144 -2.6069
  286MPD2    H3 4320   1.206   0.293   2.107 -0.4002  0.4186  0.0315
  286MPD2     N 4321   1.438   0.180   1.746 -0.0786 -0.4925  0.2436
  286MPD2    H5 4322   1.502   0.135   1.811  1.2991 -0.2777 -0.9444
  286MPD2    N1 4323   1.036   0.463   1.715 -0.1570  0.2504  0.3568
  286MPD2    H7 4324   1.070   0.475   1.620  0.3037  1.4344  0.6726
  287TMC3    C1 4325   1.551   0.047   1.586  0.6100 -0.0360 -0.2230
  287TMC3    C2 4326   1.537   4.702   1.470 -0.5238 -0.6626 -0.3291
  287TMC3    C3 4327   1.618   4.599   1.444 -0.0680 -0.0541  0.5552
  287TMC3    C4 4328   1.657   0.021   1.670 -0.9192 -0.1759 -0.8010
  287TMC3    C5 4329   1.734   4.643   1.642 -0.3817 -0.3078  0.0436
  287TMC3    C6 4330   1.719   4.562   1.532 -0.0656 -0.4916 -0.2318
  287TMC3     C 4331   1.456   0.156   1.612  0.0353 -0.6878  0.4423
  287TMC3     O 4332   1.414   0.235   1.520  0.0704 -0.2098 -0.0883
  287TMC3     H 4333   1.459   4.722   1.397  1.6307 -1.0518 -2.7325
  287TMC3    H1 4334   1.679   0.094   1.747  0.6717  1.0587 -2.4119
  287TMC3    H2 4335   1.770   4.466   1.538 -1.3635 -1.2497 -1.4685
  287TMC3    C7 4336   1.837   4.614   1.736 -0.0856 -0.7408 -0.0869
  287TMC3    C8 4337   1.558   4.502   1.354  0.2243  0.6855  0.1240
  287TMC3    O1 4338   1.828   4.663   1.850  0.2803 -0.5897 -0.1288
  287TMC3    O2 4339   1.435   4.498   1.354  0.0016  0.0767 -0.3056
  288TMC3    C1 4340   3.017   4.657  14.595 -0.4335  0.1571  0.3425
  288TMC3    C2 4341   2.925   4.624  14.693  0.3999  0.2413 -0.3440
  288TMC3    C3 4342   2.799   4.682  14.684  0.4790 -0.1890  1.0262
  288TMC3    C4 4343   2.993   0.014  14.494  0.2581  1.2390 -0.3801
  288TMC3    C5 4344   2.873   0.069  14.489 -0.7662  0.5472 -0.4158
  288TMC3    C6 4345   2.778   0.052  14.589  0.0129  0.0017  0.5025
  288TMC3     C 4346   3.151   4.615  14.617  0.2041  0.0994  0.5875
  288TMC3     O 4347   3.178   4.569  14.727 -0.0465 -0.2697  0.3558
  288TMC3     H 4348   2.946   4.550  14.770 -0.1242  1.7773  1.2775
  288TMC3    H1 4349   3.069   0.046  14.424  1.7233  1.9117  1.5194
  288TMC3    H2 4350   2.680   0.096  14.597 -0.9823 -1.8464 -1.3731
  288TMC3    C7 4351   2.858   0.179  14.390  0.1714  0.3008 -1.0155
  288TMC3    C8 4352   2.710   4.687  14.802  0.7902 -0.1430  0.9115
  288TMC3    O1 4353   2.953   0.219  14.328  0.7509  0.5862 -0.6062
  288TMC3    O2 4354   2.638   0.059  14.816 -0.2616 -0.0296  0.4395
  289MPD2     C 4355   3.020   3.838  14.774  0.2257 -0.5296 -0.0119
  289MPD2    C1 4356   2.982   3.960  14.728  0.7111  0.2126  0.2401
  289MPD2    C2 4357   2.850   3.978  14.702 -0.3208 -0.3347 -0.4650
  289MPD2    C3 4358   2.759   3.879  14.732 -0.5741  0.4672 -0.5006
  289MPD2    C4 4359   2.798   3.755  14.778  0.2770  0.2889  0.3213
  289MPD2    C5 4360   2.933   3.740  14.796  0.9837  0.0721 -0.1014
  289MPD2     H 4361   2.823   4.068  14.647 -2.9636 -1.9721 -1.8672
  289MPD2    H1 4362   2.730   3.670  14.785 -0.5223  0.7990 -1.2365
  289MPD2    H2 4363   3.127   3.823  14.786  0.7543  1.4004 -2.0994
  289MPD2    H3 4364   2.977   3.650  14.837 -0.1595 -1.0176 -1.2440
  289MPD2     N 4365   2.626   3.889  14.698  0.3738  0.2351  0.2577
  289MPD2    H5 4366   2.569   3.807  14.679 -1.0111  1.3863 -0.5788
  289MPD2    N1 4367   3.094   4.046  14.695  0.1441  0.3534  0.3551
  289MPD2    H7 4368   3.184   4.002  14.714  0.2898 -0.5277 -2.3983
  290TMC3    C1 4369   2.433   4.001  14.620  0.2430  0.1301  0.2557
  290TMC3    C2 4370   2.390   4.116  14.554  0.2384  0.2729  0.1398
  290TMC3    C3 4371   2.313   4.104  14.444  0.0896 -0.0848  0.1003
  290TMC3    C4 4372   2.379   3.877  14.595 -0.5008  0.4319 -0.6729
  290TMC3    C5 4373   2.294   3.873  14.487  0.1473 -0.0542  0.7088
  290TMC3    C6 4374   2.263   3.982  14.409 -0.0899  0.3592 -0.4508
  290TMC3     C 4375   2.567   4.009  14.673  0.4247  0.4256 -0.8142
  290TMC3     O 4376   2.604   4.122  14.710  0.2315  0.0322  0.0489
  290TMC3     H 4377   2.424   4.212  14.591 -1.3645  0.2737  1.6349
  290TMC3    H1 4378   2.394   3.798  14.667 -0.8043  0.4886 -0.5485
  290TMC3    H2 4379   2.201   3.977  14.320  1.2619  1.3762 -1.4343
  290TMC3    C7 4380   2.206   3.754  14.467 -0.7769  0.5414  0.1694
  290TMC3    C8 4381   2.274   4.226  14.369 -0.7900 -0.2582  0.9907
  290TMC3    O1 4382   2.097   3.768  14.409 -0.5765  0.0511  0.5950
  290TMC3    O2 4383   2.215   4.211  14.264  0.3749  0.0014 -0.2498
  291MPD2     C 4384   2.256   3.743   0.566  0.4304 -0.0898  0.2552
  291MPD2    C1 4385   2.138   3.780   0.626  0.6320 -0.2224 -0.6231
  291MPD2    C2 4386   2.142   3.896   0.706  0.1175 -0.5860  0.5459
  291MPD2    C3 4387   2.256   3.963   0.737 -0.3003  0.0485 -0.0731
  291MPD2    C4 4388   2.377   3.912   0.690  0.1490  0.0795  0.6800
  291MPD2    C5 4389   2.376   3.804   0.604 -0.0023  0.0374 -0.0603
  291MPD2     H 4390   2.047   3.933   0.742 -1.8558 -4.3295 -0.8247
  291MPD2    H1 4391   2.469   3.968   0.702 -0.4362  0.9900  0.9946
  291MPD2    H2 4392   2.262   3.657   0.500 -1.2092  0.6303 -0.8302
  291MPD2    H3 4393   2.472   3.772   0.564  0.5912  0.8935  0.6671
  291MPD2     N 4394   2.268   4.082   0.824 -0.4492  0.4708 -1.0121
  291MPD2    H5 4395   2.359   4.124   0.842 -0.7507  1.8659 -2.7213
  291MPD2    N1 4396   2.011   3.717   0.600  0.4378 -0.6013 -0.3831
  291MPD2    H7 4397   1.925   3.757   0.637 -0.3966 -0.3531 -2.5517
  292TMC3    C1 4398   1.865   3.535   0.590 -0.2975 -0.5107 -0.7558
  292TMC3    C2 4399   1.808   3.579   0.705  0.3321 -0.2455 -0.3530
  292TMC3    C3 4400   1.701   3.511   0.751 -0.7864 -0.7035 -0.1880
  292TMC3    C4 4401   1.829   3.419   0.530  0.1215 -0.4491 -0.8215
  292TMC3    C5 4402   1.723   3.349   0.581 -0.2095 -0.2042  0.4429
  292TMC3    C6 4403   1.650   3.402   0.686  0.1983 -0.3384  0.1644
  292TMC3     C 4404   1.991   3.592   0.555 -0.5869 -0.7192 -0.7066
  292TMC3     O 4405   2.074   3.518   0.499 -0.3563 -0.4356  0.4122
  292TMC3     H 4406   1.861   3.651   0.767  0.0088  1.0293 -1.5590
  292TMC3    H1 4407   1.869   3.391   0.433  1.6275  3.5037 -1.3328
  292TMC3    H2 4408   1.596   3.324   0.739 -1.1999  1.4839  1.3941
  292TMC3    C7 4409   1.702   3.221   0.532 -0.7443 -0.5205  0.6696
  292TMC3    C8 4410   1.683   3.522   0.898 -0.1543  0.2240 -0.4326
  292TMC3    O1 4411   1.795   3.159   0.483 -0.4584  0.1054  0.2258
  292TMC3    O2 4412   1.780   3.581   0.953  0.0082 -0.6153  0.2266
  293MPD2     C 4413   3.849   0.780  12.639  0.8952 -0.4559  0.2136
  293MPD2    C1 4414   3.754   0.754  12.736  1.1290 -0.7287  0.6973
  293MPD2    C2 4415   3.788   0.687  12.853 -0.3403 -0.1516 -0.5180
  293MPD2    C3 4416   3.917   0.658  12.876 -0.0708  0.1507 -0.1461
  293MPD2    C4 4417   4.010   0.680  12.777  0.3692 -0.0444  0.4491
  293MPD2    C5 4418   3.982   0.745  12.667 -0.4259 -0.1857 -0.3161
  293MPD2     H 4419   3.719   0.665  12.934  0.9704  0.9577  0.9073
  293MPD2    H1 4420   4.109   0.636  12.789  0.3018  0.0206  1.2414
  293MPD2    H2 4421   3.825   0.840  12.552 -1.5750 -1.5636  0.1313
  293MPD2    H3 4422   4.058   0.768  12.592  0.7796 -1.5384  0.4943
  293MPD2     N 4423   3.939   0.612  13.008 -0.1356 -0.3622  0.3100
  293MPD2    H5 4424   3.856   0.619  13.066 -0.8410 -0.8271 -0.6402
  293MPD2    N1 4425   3.615   0.781  12.704 -0.2675 -1.1146 -0.7691
  293MPD2    H7 4426   3.587   0.819  12.614 -0.9492  0.5267  0.1408
  294TMC3    C1 4427   3.380   0.764  12.717  0.7385  0.1842 -0.2671
  294TMC3    C2 4428   3.268   0.738  12.789  0.2748  0.5402 -0.0532
  294TMC3    C3 4429   3.150   0.728  12.728  0.1762  0.4848 -0.3060
  294TMC3    C4 4430   3.379   0.765  12.577  0.2042 -0.0839  0.2034
  294TMC3    C5 4431   3.256   0.747  12.520 -0.0634  1.0646 -0.5947
  294TMC3    C6 4432   3.139   0.732  12.595 -0.4347 -0.0063  0.4108
  294TMC3     C 4433   3.506   0.745  12.786  0.8656 -0.6107  0.0168
  294TMC3     O 4434   3.503   0.693  12.897 -0.1394 -0.3657 -0.2222
  294TMC3     H 4435   3.278   0.720  12.896 -2.0489 -1.3319 -0.1406
  294TMC3    H1 4436   3.468   0.779  12.516 -0.1218 -2.4418 -0.8125
  294TMC3    H2 4437   3.043   0.735  12.547  0.3084 -0.4053 -1.0942
  294TMC3    C7 4438   3.219   0.796  12.392  0.5662  0.0620  0.1852
  294TMC3    C8 4439   3.063   0.639  12.795 -0.6465 -0.6861 -0.1942
  294TMC3    O1 4440   3.121   0.867  12.381 -0.2167  0.4718 -0.4393
  294TMC3    O2 4441   3.035   0.662  12.908 -0.0858  0.5214  0.6857
  295MPD2     C 4442   0.047   3.850   1.448  0.0472 -0.4696  0.0356
  295MPD2    C1 4443   0.047   3.720   1.381  0.4919 -0.0819  1.0904
  295MPD2    C2 4444   0.113   3.613   1.431  0.1391  0.4397 -0.2195
  295MPD2    C3 4445   0.186   3.626   1.551 -0.1365 -0.0932  0.1560
  295MPD2    C4 4446   0.171   3.742   1.623  0.1399 -0.4327  0.0666
  295MPD2    C5 4447   0.111   3.850   1.571  0.2842 -0.3185 -0.2732
  295MPD2     H 4448   0.114   3.518   1.378 -2.3685  1.0145 -1.3039
  295MPD2    H1 4449   0.206   3.748   1.725 -0.6576  1.0740  0.2393
  295MPD2    H2 4450   4.719   3.938   1.418 -0.9629 -1.3315 -0.6626
  295MPD2    H3 4451   0.104   3.944   1.626  0.2901 -0.8972  0.7126
  295MPD2     N 4452   0.270   3.526   1.603  0.3353 -0.1197  0.8708
  295MPD2    H5 4453   0.318   3.552   1.688 -0.7015  2.3583  0.7202
  295MPD2    N1 4454   4.707   3.705   1.258 -0.7581  0.0399  0.1003
  295MPD2    H7 4455   4.694   3.610   1.226 -2.8586 -0.2073  1.6560
  296TMC3    C1 4456   0.422   3.345   1.613 -0.5194 -0.2300 -0.2806
  296TMC3    C2 4457   0.503   3.418   1.697  0.3757  0.0275  0.0252
  296TMC3    C3 4458   0.605   3.351   1.755 -0.1532 -0.2117  0.0417
  296TMC3    C4 4459   0.441   3.213   1.590  0.4129  0.3824 -0.2553
  296TMC3    C5 4460   0.534   3.148   1.659  0.8131 -0.5173 -0.0846
  296TMC3    C6 4461   0.623   3.211   1.738  0.4305 -0.6904 -0.8378
  296TMC3     C 4462   0.312   3.415   1.538 -0.1164  0.2642  0.5423
  296TMC3     O 4463   0.270   3.359   1.440 -0.3245  0.2398 -0.2598
  296TMC3     H 4464   0.509   3.526   1.692 -0.9478  0.0811 -0.3406
  296TMC3    H1 4465   0.381   3.170   1.511 -1.8702  1.3542  0.9744
  296TMC3    H2 4466   0.692   3.156   1.801  0.8416  1.3293  0.4727
  296TMC3    C7 4467   0.565   3.010   1.635  0.4846  0.6387 -0.5318
  296TMC3    C8 4468   0.711   3.421   1.823 -0.2901 -0.4412 -0.3688
  296TMC3    O1 4469   0.660   2.964   1.692  0.7645  0.5545  0.3724
  296TMC3    O2 4470   0.805   3.359   1.871 -0.0840 -0.5533  0.7800
  297MPD2     C 4471   1.951   0.740  16.811 -0.6830  0.9852 -0.0098
  297MPD2    C1 4472   1.911   0.780  16.687 -0.1482 -0.3887 -0.1623
  297MPD2    C2 4473   1.992   0.869  16.615  0.2666 -0.0899  0.7289
  297MPD2    C3 4474   2.105   0.920  16.674  0.5864  0.3448 -0.2234
  297MPD2    C4 4475   2.140   0.883  16.805  0.1980 -0.2788  0.6111
  297MPD2    C5 4476   2.063   0.787  16.863 -0.2980 -0.2872  0.2210
  297MPD2     H 4477   1.960   0.905  16.518  0.9920 -2.1936 -0.2968
  297MPD2    H1 4478   2.217   0.931  16.864 -1.6374  0.7154  2.1673
  297MPD2    H2 4479   1.895   0.659  16.857  1.2842 -0.4224 -0.1161
  297MPD2    H3 4480   2.089   0.767  16.966  2.0780  3.6330  0.3711
  297MPD2     N 4481   2.166   1.022  16.601  0.3480  0.2576  0.0027
  297MPD2    H5 4482   2.125   1.043  16.510 -3.2417 -1.6855  1.1979
  297MPD2    N1 4483   1.794   0.732  16.622 -0.7021 -0.7168  0.1877
  297MPD2    H7 4484   1.789   0.745  16.522  1.2652 -1.4187 -0.0012
  298TMC3    C1 4485   1.573   0.648  16.604 -0.3588 -0.6115 -0.1442
  298TMC3    C2 4486   1.573   0.653  16.469  0.5692 -0.1274  0.3636
  298TMC3    C3 4487   1.455   0.647  16.397 -0.5986 -0.1479 -0.0790
  298TMC3    C4 4488   1.454   0.642  16.671  0.3273 -0.2163 -0.2518
  298TMC3    C5 4489   1.334   0.645  16.598  0.4927 -0.8754  0.2940
  298TMC3    C6 4490   1.337   0.645  16.461  0.2261 -0.3899 -0.2636
  298TMC3     C 4491   1.689   0.675  16.691  0.7976 -0.3461 -0.2024
  298TMC3     O 4492   1.677   0.661  16.809  0.2354  0.4323 -0.2332
  298TMC3     H 4493   1.673   0.643  16.427  0.8262 -0.2505  0.9990
  298TMC3    H1 4494   1.456   0.649  16.779 -1.2822 -1.4851 -0.1267
  298TMC3    H2 4495   1.251   0.628  16.397 -0.3496  2.2482 -0.1868
  298TMC3    C7 4496   1.226   0.715  16.670 -0.0946 -0.4873 -0.6574
  298TMC3    C8 4497   1.452   0.641  16.250 -0.3241 -0.2597  0.4365
  298TMC3    O1 4498   1.238   0.751  16.789  0.1102 -0.8139  0.4561
  298TMC3    O2 4499   1.343   0.647  16.194  0.3689 -0.2478 -1.0354
  299MPD2     C 4500   3.028   0.429  11.050 -0.1467  0.0296 -0.4963
  299MPD2    C1 4501   3.000   0.561  11.028 -0.1885  0.1569 -0.4203
  299MPD2    C2 4502   2.912   0.606  10.933 -0.1562 -0.3837 -0.6186
  299MPD2    C3 4503   2.849   0.506  10.861 -0.0360 -0.2703 -0.8311
  299MPD2    C4 4504   2.876   0.369  10.882  0.4915 -0.6365  0.2179
  299MPD2    C5 4505   2.968   0.332  10.977 -0.8486 -0.1386  0.3411
  299MPD2     H 4506   2.888   0.708  10.906 -5.6729 -1.3236  0.8236
  299MPD2    H1 4507   2.825   0.291  10.826  1.2754 -0.4645 -0.7435
  299MPD2    H2 4508   3.112   0.413  11.117 -0.0095 -0.5685 -0.8110
  299MPD2    H3 4509   3.007   0.231  10.970  1.2337  0.6583  0.3648
  299MPD2     N 4510   2.739   0.527  10.779 -0.1357  0.4941  0.1982
  299MPD2    H5 4511   2.699   0.440  10.746  0.4769  0.8156 -1.3562
  299MPD2    N1 4512   3.062   0.648  11.111 -0.7118 -0.2129  0.0601
  299MPD2    H7 4513   3.105   0.608  11.194  0.3407  1.6845  0.4327
  300TMC3    C1 4514   2.571   0.631  10.646  0.0045 -0.2260  0.1950
  300TMC3    C2 4515   2.549   0.720  10.550  0.0050  0.6898 -0.5235
  300TMC3    C3 4516   2.430   0.707  10.484 -0.2931 -0.0691  0.4557
  300TMC3    C4 4517   2.494   0.519  10.671  0.3007  0.0123 -0.1562
  300TMC3    C5 4518   2.379   0.513  10.594  0.1174  0.0213  0.2819
  300TMC3    C6 4519   2.343   0.610  10.505  0.0901  0.2081  0.1227
  300TMC3     C 4520   2.699   0.642  10.726 -0.7738 -0.1795 -0.2441
  300TMC3     O 4521   2.762   0.750  10.730  0.0073  0.5915 -0.4308
  300TMC3     H 4522   2.628   0.787  10.518  0.5076 -0.0319 -0.7781
  300TMC3    H1 4523   2.505   0.449  10.752  0.6103  1.8432  1.3809
  300TMC3    H2 4524   2.248   0.597  10.455 -0.2818  0.4516  0.7635
  300TMC3    C7 4525   2.276   0.453  10.681 -0.9669 -0.0072  0.3584
  300TMC3    C8 4526   2.400   0.801  10.376 -0.0613 -0.4412 -0.3650
  300TMC3    O1 4527   2.291   0.336  10.718 -0.6439  0.0109 -0.6569
  300TMC3    O2 4528   2.364   0.757  10.268  0.1207  0.1409 -0.3577
  301MPD2     C 4529   0.740   1.813   1.404  0.8553  0.1700  0.4030
  301MPD2    C1 4530   0.612   1.871   1.437 -0.1462 -0.1405  0.4204
  301MPD2    C2 4531   0.509   1.786   1.472  0.1027 -0.0797  0.4117
  301MPD2    C3 4532   0.522   1.652   1.473 -0.3211  0.6114  0.5153
  301MPD2    C4 4533   0.646   1.598   1.444 -0.4357 -0.0182  0.1866
  301MPD2    C5 4534   0.752   1.683   1.418 -0.0934  0.1662  0.4335
  301MPD2     H 4535   0.411   1.827   1.496 -0.1666 -1.5980  1.8987
  301MPD2    H1 4536   0.664   1.491   1.453  1.4170  0.3760  1.2237
  301MPD2    H2 4537   0.827   1.868   1.372  0.0772  1.9388  1.3284
  301MPD2    H3 4538   0.848   1.636   1.400 -1.3062 -2.1633  0.0193
  301MPD2     N 4539   0.423   1.556   1.509  0.2078 -0.7062  0.3802
  301MPD2    H5 4540   0.441   1.456   1.508  0.5035 -0.6513  0.0000
  301MPD2    N1 4541   0.578   2.003   1.428 -0.2061  0.4353  0.0372
  301MPD2    H7 4542   0.480   2.024   1.439 -0.3345  0.1706 -0.5871
  302TMC3    C1 4543   0.208   1.471   1.556 -0.0310  0.5690 -0.1894
  302TMC3    C2 4544   0.270   1.358   1.608 -0.6176  0.8845 -0.8061
  302TMC3    C3 4545   0.192   1.259   1.663  0.1041  0.8777  0.0426
  302TMC3    C4 4546   0.069   1.498   1.568  0.1737  0.9755  0.7533
  302TMC3    C5 4547   0.002   1.392   1.621  0.0775 -0.5116  0.3078
  302TMC3    C6 4548   0.056   1.274   1.671  0.1051  0.0175  0.3184
  302TMC3     C 4549   0.289   1.588   1.524 -0.5037  0.8248 -0.1894
  302TMC3     O 4550   0.234   1.697   1.540  0.2806 -0.1010  0.0389
  302TMC3     H 4551   0.377   1.342   1.610 -0.6594  0.6568 -0.4615
  302TMC3    H1 4552   0.032   1.594   1.532  1.9519  1.2084 -0.4701
  302TMC3    H2 4553   0.004   1.207   1.739 -0.3468 -0.3465 -0.3854
  302TMC3    C7 4554   4.580   1.404   1.623  0.0972  0.1047 -0.5024
  302TMC3    C8 4555   0.252   1.156   1.743  0.2606  0.2517  0.0559
  302TMC3    O1 4556   4.525   1.296   1.601 -0.4008  0.9507  0.3828
  302TMC3    O2 4557   0.356   1.189   1.803  0.1324 -0.5375  0.1121
  303MPD2     C 4558   0.165   0.375  11.544 -0.2762 -0.4143 -0.2869
  303MPD2    C1 4559   0.147   0.275  11.455  0.5585 -0.2997  0.5301
  303MPD2    C2 4560   0.114   0.306  11.327  0.5236 -0.2165  0.4653
  303MPD2    C3 4561   0.110   0.433  11.287  0.0705  0.2362 -0.3471
  303MPD2    C4 4562   0.149   0.532  11.370  0.5735  0.1891  0.4939
  303MPD2    C5 4563   0.179   0.502  11.505  0.7270  0.1307  0.0374
  303MPD2     H 4564   0.091   0.224  11.259  0.8727  0.8118 -0.9026
  303MPD2    H1 4565   0.157   0.638  11.351  2.5172 -0.1225 -0.4167
  303MPD2    H2 4566   0.199   0.354  11.645 -1.0589  0.5435  0.1778
  303MPD2    H3 4567   0.215   0.578  11.573  0.8615  0.9385 -0.9493
  303MPD2     N 4568   0.076   0.466  11.148 -0.1833 -0.0729 -0.5683
  303MPD2    H5 4569   0.080   0.563  11.116  0.6681  0.2792  0.6457
  303MPD2    N1 4570   0.151   0.144  11.501  0.2021  0.4074 -0.7021
  303MPD2    H7 4571   0.171   0.139  11.601 -1.0134  0.7370 -0.4461
  304TMC3    C1 4572   0.180   4.632  11.483 -0.8127  0.7583 -0.3731
  304TMC3    C2 4573   0.088   4.587  11.571 -0.8829 -0.4744  0.7502
  304TMC3    C3 4574   0.046   4.456  11.569  0.0312  0.3876  0.3461
  304TMC3    C4 4575   0.222   4.550  11.383 -0.1772  0.0319  0.1819
  304TMC3    C5 4576   0.181   4.417  11.386 -1.2690  0.0302  0.5001
  304TMC3    C6 4577   0.111   4.364  11.492  0.6955  0.8119  0.3488
  304TMC3     C 4578   0.146   0.028  11.423  0.3081 -0.0275 -0.8089
  304TMC3     O 4579   0.114   0.014  11.306  0.0901  0.2368 -0.0675
  304TMC3     H 4580   0.037   4.643  11.649 -0.5537  1.3678 -0.3804
  304TMC3    H1 4581   0.267   4.592  11.293 -1.6989 -0.8430 -0.9840
  304TMC3    H2 4582   0.110   4.256  11.505  3.7352  0.9092  1.2929
  304TMC3    C7 4583   0.150   4.345  11.269 -0.1349 -0.0267  0.4926
  304TMC3    C8 4584   4.631   4.437  11.581  0.6422  0.4014 -0.2718
  304TMC3    O1 4585   0.051   4.272  11.270 -0.0748 -0.1060 -0.3798
  304TMC3    O2 4586   4.566   4.522  11.645  0.1888  0.1143  0.2076
  305MPD2     C 4587   2.570   2.237  13.939  0.4857 -0.1306 -0.5133
  305MPD2    C1 4588   2.654   2.147  14.003 -0.0008 -0.0058  0.0384
  305MPD2    C2 4589   2.639   2.008  13.972  0.5763 -0.1334  0.1688
  305MPD2    C3 4590   2.554   1.966  13.874  0.0507 -0.7496 -0.2726
  305MPD2    C4 4591   2.480   2.060  13.803 -0.0448  0.3783  0.7081
  305MPD2    C5 4592   2.487   2.192  13.838  0.5078  0.5640 -0.1047
  305MPD2     H 4593   2.688   1.933  14.034 -1.5516 -1.1144  0.6482
  305MPD2    H1 4594   2.418   2.031  13.719  0.3497  0.4223  0.4036
  305MPD2    H2 4595   2.575   2.342  13.966 -2.5095 -0.4323  1.2238
  305MPD2    H3 4596   2.419   2.260  13.789 -0.2537 -0.8156 -0.9712
  305MPD2     N 4597   2.540   1.834  13.834 -0.7944 -0.4873 -0.2002
  305MPD2    H5 4598   2.468   1.817  13.764  1.6964  0.2415 -2.9688
  305MPD2    N1 4599   2.732   2.195  14.109  0.2721 -0.4992 -0.1180
  305MPD2    H7 4600   2.711   2.290  14.135 -1.6974  0.3098 -4.6485
  306TMC3    C1 4601   2.876   2.183  14.303 -0.1936  0.3057 -0.9136
  306TMC3    C2 4602   2.968   2.114  14.367  0.4226 -0.4362  0.2831
  306TMC3    C3 4603   3.010   2.153  14.492 -0.0458 -0.6297 -0.0979
  306TMC3    C4 4604   2.807   2.283  14.365  0.0878 -0.4123 -0.6151
  306TMC3    C5 4605   2.855   2.326  14.493 -0.2178 -0.8443  0.0268
  306TMC3    C6 4606   2.953   2.256  14.562 -0.4872 -0.0156 -0.2734
  306TMC3     C 4607   2.831   2.125  14.172  0.1155  0.2428  0.9792
  306TMC3     O 4608   2.894   2.024  14.134  0.7088  0.4357  0.0843
  306TMC3     H 4609   3.024   2.033  14.321 -0.7362 -0.6399 -0.7894
  306TMC3    H1 4610   2.721   2.326  14.314  0.4913  0.5073 -0.5206
  306TMC3    H2 4611   2.976   2.272  14.667  1.8680 -1.6425 -0.5380
  306TMC3    C7 4612   2.778   2.416  14.582 -0.1480 -0.4510 -0.2679
  306TMC3    C8 4613   3.120   2.079  14.543  0.3587 -0.2805 -0.8157
  306TMC3    O1 4614   2.666   2.443  14.545 -0.1976  0.3821  0.0171
  306TMC3    O2 4615   3.141   1.967  14.502 -0.5069 -0.1245  0.3438
  307MPD2     C 4616   1.155   0.029   0.282 -0.4440  0.4319  0.3584
  307MPD2    C1 4617   1.035   0.102   0.277  0.4596  0.1227  0.5580
  307MPD2    C2 4618   0.922   0.049   0.341  0.2157 -0.5604 -0.1973
  307MPD2    C3 4619   0.930   4.653   0.402  0.1055 -0.4019  0.4576
  307MPD2    C4 4620   1.060   4.597   0.426  0.0013  0.5072  0.2973
  307MPD2    C5 4621   1.174   4.645   0.366 -0.1207 -0.3178 -0.0023
  307MPD2     H 4622   0.833   0.110   0.340  0.0795 -0.8006 -2.2902
  307MPD2    H1 4623   1.066   4.515   0.496  0.1776  0.7511  0.5698
  307MPD2    H2 4624   1.245   0.076   0.246  0.5658 -0.5633  1.6055
  307MPD2    H3 4625   1.269   4.593   0.373  0.5085  0.7544 -0.6235
  307MPD2     N 4626   0.823   4.604   0.477 -1.0613  0.0520  0.0345
  307MPD2    H5 4627   0.835   4.528   0.544  3.1869  0.2889 -0.4652
  307MPD2    N1 4628   1.023   0.233   0.221 -0.4149 -0.2122  0.8593
  307MPD2    H7 4629   0.929   0.269   0.229 -0.6728 -0.5454 -0.5465
  308TMC3    C1 4630   0.378   4.655   0.591  0.2089  0.3852 -0.0227
  308TMC3    C2 4631   0.412   0.006   0.694  0.3679  0.9305 -0.0522
  308TMC3    C3 4632   0.543   0.009   0.734 -0.3545  0.4459 -0.0778
  308TMC3    C4 4633   0.476   4.586   0.522  0.5137 -0.5617  0.3860
  308TMC3    C5 4634   0.610   4.590   0.557  0.3786 -0.9580  0.1580
  308TMC3    C6 4635   0.637   4.668   0.667 -0.2805 -0.3547  0.3401
  308TMC3     C 4636   0.233   4.619   0.565  0.2992  0.9907  0.0413
  308TMC3     O 4637   0.212   4.514   0.509  0.3098  0.2206  0.6141
  308TMC3     H 4638   0.330   0.046   0.752 -0.4084  0.0034 -0.5186
  308TMC3    H1 4639   0.441   4.522   0.442 -0.5673  1.1573 -0.5257
  308TMC3    H2 4640   0.742   4.678   0.692 -0.4611  0.1383  0.8779
  308TMC3    C7 4641   0.688   4.632   0.449  0.0473 -1.5659 -0.3278
  308TMC3    C8 4642   0.591   0.122   0.812  0.2841 -0.0036 -0.2023
  308TMC3    O1 4643   0.637   4.675   0.352 -0.9799 -0.5847  0.0682
  308TMC3    O2 4644   0.710   0.117   0.844 -0.0602 -0.2581 -0.1431
  309MPD2     C 4645   4.047   0.181  17.270  0.0056  0.1705 -0.0393
  309MPD2    C1 4646   4.057   0.301  17.201  0.8010 -0.1010 -0.1889
  309MPD2    C2 4647   4.001   0.410  17.262  0.2650  0.1681  0.4915
  309MPD2    C3 4648   3.907   0.398  17.364 -0.0305 -0.5584  0.4527
  309MPD2    C4 4649   3.896   0.283  17.427 -0.4872 -0.2570 -0.1928
  309MPD2    C5 4650   3.963   0.172  17.379  1.0191 -0.4706 -1.2084
  309MPD2     H 4651   4.029   0.500  17.208 -0.2957  1.1665  1.8768
  309MPD2    H1 4652   3.831   0.277  17.514  0.1571 -0.7792  0.2557
  309MPD2    H2 4653   4.112   0.103  17.235 -0.5164  0.3517 -1.4509
  309MPD2    H3 4654   3.951   0.078  17.432  0.6934 -1.1547 -2.5259
  309MPD2     N 4655   3.839   0.511  17.413  0.4813 -0.5099  0.1554
  309MPD2    H5 4656   3.784   0.500  17.498 -0.3449 -1.7239 -0.5286
  309MPD2    N1 4657   4.131   0.321  17.082  0.6978 -0.6791  0.4224
  309MPD2    H7 4658   4.138   0.412  17.038  0.4243 -0.5943  0.5576
  310TMC3    C1 4659   4.306   0.284  16.929  0.2337 -0.3945 -0.3007
  310TMC3    C2 4660   4.278   0.401  16.858 -0.2678 -0.3605  0.5440
  310TMC3    C3 4661   4.383   0.442  16.775  0.4208  0.7139 -0.2593
  310TMC3    C4 4662   4.412   0.203  16.901  0.7486  0.0071  0.5127
  310TMC3    C5 4663   4.506   0.247  16.813 -0.5819  0.6406  0.1633
  310TMC3    C6 4664   4.495   0.368  16.750  0.2296  0.1581  0.5355
  310TMC3     C 4665   4.209   0.226  17.021 -0.6152 -0.3108 -0.1644
  310TMC3     O 4666   4.205   0.104  17.030 -0.5204 -0.2490 -0.9583
  310TMC3     H 4667   4.183   0.453  16.857  0.0232  0.1788  0.9650
  310TMC3    H1 4668   4.428   0.108  16.951  1.1825 -0.7465 -1.0430
  310TMC3    H2 4669   4.571   0.411  16.685 -0.3521  0.0423 -0.2218
  310TMC3    C7 4670   4.616   0.161  16.784  0.1883 -0.4051  0.3123
  310TMC3    C8 4671   4.338   0.525  16.670  0.7284 -0.4794 -0.4037
  310TMC3    O1 4672   4.663   0.092  16.877  0.2398 -0.0180 -0.6926
  310TMC3    O2 4673   4.220   0.515  16.637  0.8024  0.4402 -0.4985
  311MPD2     C 4674   1.977   2.030  13.287 -0.0959  0.2527  0.7660
  311MPD2    C1 4675   1.892   2.069  13.185 -0.6316 -0.1368 -0.0399
  311MPD2    C2 4676   1.764   2.013  13.187 -0.4429  0.2480  0.5302
  311MPD2    C3 4677   1.717   1.935  13.291 -0.0119 -0.1819 -0.5948
  311MPD2    C4 4678   1.805   1.908  13.389 -0.0570 -0.2560  0.5326
  311MPD2    C5 4679   1.933   1.947  13.390  0.4193 -0.2533 -0.7203
  311MPD2     H 4680   1.706   2.034  13.098 -1.8216 -1.6502  0.9979
  311MPD2    H1 4681   1.767   1.850  13.472  1.0295 -2.4538 -0.4913
  311MPD2    H2 4682   2.084   2.044  13.287 -0.1937  1.0559  0.3392
  311MPD2    H3 4683   1.994   1.927  13.477 -0.8506 -2.2206 -0.2879
  311MPD2     N 4684   1.589   1.879  13.298  0.2429  0.3053 -0.2381
  311MPD2    H5 4685   1.567   1.834  13.386 -0.5429 -1.3527 -1.2699
  311MPD2    N1 4686   1.942   2.138  13.074  0.0824 -0.5997  0.3753
  311MPD2    H7 4687   1.870   2.162  13.006 -0.2607 -0.3949  0.8083
  312TMC3    C1 4688   1.381   1.792  13.224  0.4732  0.2056  0.1427
  312TMC3    C2 4689   1.290   1.791  13.120 -0.4832  0.5326  0.5282
  312TMC3    C3 4690   1.188   1.701  13.132  0.1009  0.5830 -0.0626
  312TMC3    C4 4691   1.374   1.720  13.334  0.3509 -0.3259  0.2684
  312TMC3    C5 4692   1.270   1.636  13.342 -0.7806 -0.4687  0.6141
  312TMC3    C6 4693   1.172   1.625  13.247  0.3752  0.8716 -0.4157
  312TMC3     C 4694   1.498   1.877  13.199  0.2518 -0.0859  0.5804
  312TMC3     O 4695   1.512   1.921  13.088  0.0360 -0.2836  0.3449
  312TMC3     H 4696   1.280   1.872  13.050 -1.6535 -0.2800 -0.2456
  312TMC3    H1 4697   1.446   1.727  13.415 -0.6422 -3.1262  1.3916
  312TMC3    H2 4698   1.096   1.547  13.248  1.5759 -0.2470  2.1565
  312TMC3    C7 4699   1.237   1.565  13.466  0.5779  0.0826 -0.7597
  312TMC3    C8 4700   1.076   1.719  13.037  0.5917 -0.1939 -0.2441
  312TMC3    O1 4701   1.127   1.510  13.458 -0.3025  0.5087  0.5064
  312TMC3    O2 4702   0.981   1.657  13.078  0.4985  0.3903 -0.1464
  313MPD2     C 4703   1.751   1.144  10.726 -0.1525  0.3295 -0.6444
  313MPD2    C1 4704   1.642   1.228  10.753  0.4087  0.4505 -0.3599
  313MPD2    C2 4705   1.516   1.177  10.738 -0.2187 -0.1796 -0.2867
  313MPD2    C3 4706   1.502   1.050  10.695  0.0555  0.0259  0.8719
  313MPD2    C4 4707   1.607   0.966  10.668  0.7812  0.1246 -0.6473
  313MPD2    C5 4708   1.739   1.016  10.677  0.6478  0.0072  0.1488
  313MPD2     H 4709   1.435   1.235  10.781 -0.1766 -1.5047  1.5721
  313MPD2    H1 4710   1.595   0.869  10.620  0.0108 -0.6989  1.2271
  313MPD2    H2 4711   1.851   1.184  10.742  0.0943 -0.9955  1.1866
  313MPD2    H3 4712   1.823   0.958  10.643 -0.3043  0.6918 -3.3758
  313MPD2     N 4713   1.369   1.004  10.683 -0.3891 -0.3809  0.4660
  313MPD2    H5 4714   1.294   1.069  10.701  0.1699  0.0327  1.3062
  313MPD2    N1 4715   1.660   1.357  10.809 -0.0812  0.4405  0.7025
  313MPD2    H7 4716   1.581   1.418  10.827  0.7980  1.9041 -0.3918
  314TMC3    C1 4717   1.745   1.569  10.875 -0.0399  0.1638 -0.4289
  314TMC3    C2 4718   1.833   1.646  10.948  0.3721 -0.6665  0.7969
  314TMC3    C3 4719   1.799   1.779  10.965  0.0514  0.9103  0.3728
  314TMC3    C4 4720   1.632   1.620  10.810 -0.6091  0.4220 -0.4736
  314TMC3    C5 4721   1.614   1.750  10.829  0.8639  0.8999 -0.3926
  314TMC3    C6 4722   1.690   1.833  10.906 -0.2701  0.1861 -0.2855
  314TMC3     C 4723   1.775   1.427  10.849  0.2526 -0.0305 -0.0452
  314TMC3     O 4724   1.893   1.393  10.847 -0.0168  0.3337 -0.1732
  314TMC3     H 4725   1.925   1.600  10.982  0.8307 -0.0252  0.4390
  314TMC3    H1 4726   1.583   1.562  10.733 -1.4358  0.1405  0.2674
  314TMC3    H2 4727   1.662   1.936  10.925 -1.4472  0.1606 -1.8625
  314TMC3    C7 4728   1.495   1.803  10.765  0.2322 -0.5430 -0.2129
  314TMC3    C8 4729   1.870   1.871  11.050 -0.2613  0.1561  1.2706
  314TMC3    O1 4730   1.412   1.716  10.737 -0.0390  0.2326 -0.4601
  314TMC3    O2 4731   1.807   1.962  11.096 -0.1537 -0.2625 -0.3306
  315MPD2     C 4732   0.931   0.518   0.811 -0.0217  0.5396 -0.5574
  315MPD2    C1 4733   1.038   0.604   0.829 -0.1518  0.0390  0.1579
  315MPD2    C2 4734   1.022   0.738   0.797 -0.4045 -0.0074  0.4591
  315MPD2    C3 4735   0.895   0.791   0.758  0.2213  0.0194 -0.3496
  315MPD2    C4 4736   0.793   0.700   0.735  0.2106  0.1302  0.8502
  315MPD2    C5 4737   0.813   0.569   0.760 -0.0814 -0.1922 -0.2819
  315MPD2     H 4738   1.110   0.801   0.804  0.5833 -1.3039 -0.2082
  315MPD2    H1 4739   0.701   0.735   0.689  1.1123 -0.4212 -1.3249
  315MPD2    H2 4740   0.927   0.414   0.840  0.3089  1.0586  1.3114
  315MPD2    H3 4741   0.736   0.497   0.734 -0.2234  0.6270 -2.1548
  315MPD2     N 4742   0.885   0.927   0.727  0.5758 -0.0979 -0.2415
  315MPD2    H5 4743   0.976   0.971   0.723  0.0371  0.8049 -2.6328
  315MPD2    N1 4744   1.167   0.554   0.879  0.5860  0.5539  0.2799
  315MPD2    H7 4745   1.243   0.619   0.898 -1.9635  3.0533  2.0123
  316TMC3    C1 4746   0.805   1.122   0.610  0.0929  0.0234  0.2625
  316TMC3    C2 4747   0.926   1.177   0.628  0.9841  0.1458  0.0553
  316TMC3    C3 4748   0.957   1.281   0.545  0.2908  0.2261 -0.0367
  316TMC3    C4 4749   0.713   1.174   0.518  0.0786  0.3293 -1.4111
  316TMC3    C5 4750   0.756   1.272   0.434 -0.5199 -0.0527  0.5687
  316TMC3    C6 4751   0.880   1.321   0.444  0.6548  0.2307  0.2772
  316TMC3     C 4752   0.773   0.992   0.672 -0.2365  0.0280  0.4961
  316TMC3     O 4753   0.657   0.955   0.668 -0.4869 -0.0591 -0.2292
  316TMC3     H 4754   0.988   1.143   0.711  0.7787  0.2979  0.2700
  316TMC3    H1 4755   0.612   1.141   0.498 -0.2344  1.4499 -1.6853
  316TMC3    H2 4756   0.911   1.411   0.391 -0.0454  0.5732  0.4586
  316TMC3    C7 4757   0.673   1.334   0.335  0.3991 -0.3661  0.6522
  316TMC3    C8 4758   1.086   1.344   0.553  0.4170  0.2639  0.4074
  316TMC3    O1 4759   0.565   1.391   0.362  0.4362  0.1593 -0.4292
  316TMC3    O2 4760   1.101   1.454   0.510  0.4609  0.7609  0.0960
  317MPD2     C 4761   3.252   3.886  12.521 -0.1335 -0.1953 -0.7515
  317MPD2    C1 4762   3.210   3.757  12.482 -0.7504  0.6339  0.3992
  317MPD2    C2 4763   3.232   3.653  12.570  0.6271  0.5658 -0.5664
  317MPD2    C3 4764   3.302   3.677  12.688  0.4844 -0.2921  0.2850
  317MPD2    C4 4765   3.364   3.798  12.713 -0.7067  0.1681  0.4195
  317MPD2    C5 4766   3.340   3.903  12.626  0.1256  0.0769 -0.2256
  317MPD2     H 4767   3.194   3.554  12.549 -0.0887  1.0152 -1.3519
  317MPD2    H1 4768   3.437   3.817  12.792  0.1636 -1.2216 -0.0522
  317MPD2    H2 4769   3.228   3.971  12.458 -0.6693  2.7700  3.4206
  317MPD2    H3 4770   3.383   4.001  12.642  3.0405 -1.1884 -0.3746
  317MPD2     N 4771   3.315   3.561  12.761  0.1125 -0.2002 -0.1524
  317MPD2    H5 4772   3.269   3.477  12.727  0.3736 -0.4180  0.0303
  317MPD2    N1 4773   3.164   3.729  12.357  0.4095  0.5383  0.2541
  317MPD2    H7 4774   3.156   3.634  12.323  0.2589 -0.1749  2.2994
  318TMC3    C1 4775   3.366   3.421  12.930  0.7175 -0.3232  0.0235
  318TMC3    C2 4776   3.291   3.327  12.857  0.1998  0.0901 -0.3148
  318TMC3    C3 4777   3.196   3.253  12.921  0.9760  0.9824 -0.7307
  318TMC3    C4 4778   3.351   3.433  13.068  0.8032  0.2246  0.5533
  318TMC3    C5 4779   3.255   3.354  13.128  1.0321  0.4986  0.0019
  318TMC3    C6 4780   3.184   3.262  13.059 -0.7172  0.1192  0.7937
  318TMC3     C 4781   3.397   3.543  12.868  0.0721  0.1042 -0.3329
  318TMC3     O 4782   3.474   3.620  12.922  0.1439 -0.0205 -0.7687
  318TMC3     H 4783   3.302   3.316  12.749  1.9544  3.0539 -0.4202
  318TMC3    H1 4784   3.397   3.516  13.120 -0.4973  2.3249 -1.6444
  318TMC3    H2 4785   3.113   3.198  13.110 -1.0652  0.6263  0.9563
  318TMC3    C7 4786   3.294   3.292  13.249 -0.1126  0.4586 -1.0300
  318TMC3    C8 4787   3.100   3.176  12.842 -0.0483  0.5077 -0.5294
  318TMC3    O1 4788   3.210   3.237  13.324  0.2833  0.8780  0.7430
  318TMC3    O2 4789   3.137   3.129  12.735 -0.7250 -0.0131 -0.1158
  319MPD2     C 4790   3.470   0.465  17.495  0.1631 -0.0459 -0.4464
  319MPD2    C1 4791   3.487   0.329  17.511  0.9442 -0.2886  0.6567
  319MPD2    C2 4792   3.438   0.241  17.409 -0.0655  1.0483  0.4069
  319MPD2    C3 4793   3.388   0.294  17.291  0.6680 -0.1428 -0.5200
  319MPD2    C4 4794   3.364   0.426  17.287 -0.0350 -0.2548  0.4528
  319MPD2    C5 4795   3.400   0.510  17.384 -0.3785 -0.6565  0.3891
  319MPD2     H 4796   3.454   0.134  17.415 -1.7022  0.8421  1.1305
  319MPD2    H1 4797   3.324   0.460  17.193  0.0011 -0.3613  0.3997
  319MPD2    H2 4798   3.502   0.536  17.570 -2.0106  0.5938 -0.1108
  319MPD2    H3 4799   3.370   0.614  17.387  0.0159 -0.4359 -3.8765
  319MPD2     N 4800   3.355   0.221  17.179 -0.5053  0.5676  0.3546
  319MPD2    H5 4801   3.316   0.273  17.100  0.9610  1.2813  0.1095
  319MPD2    N1 4802   3.550   0.285  17.629 -0.1653 -0.2542  0.5996
  319MPD2    H7 4803   3.532   0.189  17.657  0.1912 -0.4209  0.2542
  320TMC3    C1 4804   3.330   0.037  17.019  0.3714  0.1039  0.7826
  320TMC3    C2 4805   3.306   0.122  16.918  0.6888  0.5784 -0.0646
  320TMC3    C3 4806   3.290   0.069  16.791 -0.0909  0.3193  0.0363
  320TMC3    C4 4807   3.344   4.629  17.002 -0.4467  0.0086  0.7935
  320TMC3    C5 4808   3.333   4.578  16.876  0.2751  0.2715  0.2410
  320TMC3    C6 4809   3.313   4.661  16.766 -0.3761 -0.3760  0.7396
  320TMC3     C 4810   3.354   0.084  17.158  0.1237 -0.0884 -0.3609
  320TMC3     O 4811   3.404   0.006  17.232 -0.3240  0.2545  0.1275
  320TMC3     H 4812   3.312   0.230  16.923 -0.0726  0.7011 -1.7361
  320TMC3    H1 4813   3.350   4.557  17.082  0.4782  1.5371  2.0961
  320TMC3    H2 4814   3.317   4.628  16.663 -3.1310  0.0622  0.4945
  320TMC3    C7 4815   3.351   4.431  16.864 -0.7374 -0.1941 -0.3006
  320TMC3    C8 4816   3.274   0.159  16.681  0.1845 -0.7424  0.2260
  320TMC3    O1 4817   3.298   4.384  16.764 -0.4996 -0.3125  0.6247
  320TMC3    O2 4818   3.259   0.276  16.713 -0.1673  0.0229 -0.7290
  321TMC3    C1 4819   3.690   0.300   0.115 -0.1183 -0.4772  0.0083
  321TMC3    C2 4820   3.637   0.179   0.168 -0.2736  0.4236  0.2739
  321TMC3    C3 4821   3.703   0.107   0.268 -0.1905  0.4491 -0.9093
  321TMC3    C4 4822   3.811   0.333   0.153  0.2631 -0.7766  0.1983
  321TMC3    C5 4823   3.884   0.243   0.228  0.7122 -0.3010 -0.2827
  321TMC3    C6 4824   3.833   0.135   0.293 -0.4540 -0.1550  0.5592
  321TMC3     C 4825   3.643   0.359  17.699  0.3418  0.0168 -0.4270
  321TMC3     O 4826   3.702   0.464  17.664  0.1335 -0.1126 -0.3686
  321TMC3     H 4827   3.543   0.136   0.137  0.6139  0.0927 -1.9659
  321TMC3    H1 4828   3.857   0.425   0.118 -4.6497  2.3507  1.9527
  321TMC3    H2 4829   3.885   0.082   0.372 -0.2043  0.8841  1.0939
  321TMC3    C7 4830   4.002   0.174   0.171 -0.4844 -0.7266 -0.4640
  321TMC3    C8 4831   3.674   4.686   0.255 -0.6472  0.4608 -0.4440
  321TMC3    O1 4832   4.014   0.053   0.188  0.5930 -0.4544 -0.5741
  321TMC3    O2 4833   3.557   4.646   0.256 -0.3441  0.5688 -0.3752
  322MPD2     C 4834   2.268   1.538  14.181 -0.4166  0.4079 -0.3665
  322MPD2    C1 4835   2.402   1.509  14.169  0.3538 -1.0228  0.0744
  322MPD2    C2 4836   2.439   1.407  14.093  0.0700 -0.3169  0.2705
  322MPD2    C3 4837   2.350   1.322  14.028 -0.3439 -0.1985  0.4030
  322MPD2    C4 4838   2.214   1.352  14.037 -0.1520 -0.2159 -0.3169
  322MPD2    C5 4839   2.175   1.459  14.114 -0.4596 -0.2043  0.2257
  322MPD2     H 4840   2.542   1.375  14.095 -0.1888 -1.1908 -0.1834
  322MPD2    H1 4841   2.137   1.293  13.989  1.2862 -2.6172  0.2871
  322MPD2    H2 4842   2.238   1.624  14.239 -1.2142 -1.0507  1.3770
  322MPD2    H3 4843   2.071   1.489  14.117  0.1998  1.9626  1.5107
  322MPD2     N 4844   2.404   1.223  13.948  0.1611  0.2117  0.9590
  322MPD2    H5 4845   2.503   1.197  13.951 -0.2367 -1.4946 -0.1987
  322MPD2    N1 4846   2.496   1.591  14.238  0.2427  0.1365  0.0847
  322MPD2    H7 4847   2.459   1.662  14.301 -2.5103 -1.5477  0.3923
  323TMC3    C1 4848   2.703   1.696  14.290 -1.3190  0.7021 -0.0461
  323TMC3    C2 4849   2.827   1.729  14.234 -0.3193 -0.2196 -0.5085
  323TMC3    C3 4850   2.939   1.742  14.318  0.8265  0.2122  0.2502
  323TMC3    C4 4851   2.696   1.675  14.424 -0.1588 -0.6735  0.1402
  323TMC3    C5 4852   2.805   1.713  14.511 -1.3263  0.5711 -0.4809
  323TMC3    C6 4853   2.930   1.740  14.454 -0.2191  0.6714 -0.4543
  323TMC3     C 4854   2.628   1.598  14.206  0.3068 -0.3430 -0.0174
  323TMC3     O 4855   2.689   1.538  14.119  0.2081 -0.0294 -0.1813
  323TMC3     H 4856   2.822   1.744  14.127 -1.1059  0.2406 -0.4067
  323TMC3    H1 4857   2.605   1.639  14.471 -0.8242  2.2195  1.0933
  323TMC3    H2 4858   3.023   1.753  14.510  0.9467  1.9398 -2.6864
  323TMC3    C7 4859   2.815   1.645  14.640 -0.1227  0.0726 -0.1145
  323TMC3    C8 4860   3.068   1.746  14.252 -0.1194  0.4025 -0.5625
  323TMC3    O1 4861   2.762   1.537  14.666  0.7621 -0.5654  0.1535
  323TMC3    O2 4862   3.162   1.696  14.308 -0.1236 -0.9595 -0.3689
  324MPD2     C 4863   0.156   3.118  14.721  1.3590  0.3343 -0.5276
  324MPD2    C1 4864   0.186   3.027  14.616 -0.0396 -0.0901 -0.0517
  324MPD2    C2 4865   0.108   3.012  14.497  0.4191  0.0356 -0.6471
  324MPD2    C3 4866   0.005   3.096  14.482 -0.0931  0.3444  0.1336
  324MPD2    C4 4867   4.707   3.195  14.584  0.2588 -0.3317 -0.5486
  324MPD2    C5 4868   0.045   3.198  14.708  0.1934  0.6598  0.0894
  324MPD2     H 4869   0.127   2.934  14.424  0.0420 -1.3311  0.7172
  324MPD2    H1 4870   4.626   3.266  14.573 -0.7843 -1.7498 -2.0531
  324MPD2    H2 4871   0.209   3.127  14.816 -0.1736  2.3539  0.1501
  324MPD2    H3 4872   0.012   3.266  14.786 -1.4030 -0.2265  0.1915
  324MPD2     N 4873   4.652   3.087  14.360 -0.1422  0.0801 -0.0308
  324MPD2    H5 4874   4.665   3.012  14.293  1.7271  0.4921 -0.1223
  324MPD2    N1 4875   0.296   2.938  14.623 -0.1056 -0.6883 -0.0778
  324MPD2    H7 4876   0.308   2.870  14.548  1.4070 -0.4465 -0.0495
  325TMC3    C1 4877   4.452   3.106  14.236 -0.0646  0.1019 -0.1284
  325TMC3    C2 4878   4.432   2.968  14.237 -0.1547 -0.2590 -0.5601
  325TMC3    C3 4879   4.343   2.934  14.145  0.3446 -0.7166  0.1631
  325TMC3    C4 4880   4.398   3.189  14.133 -0.1562  0.3914  0.2509
  325TMC3    C5 4881   4.317   3.139  14.034  0.1840  0.9724 -1.2186
  325TMC3    C6 4882   4.287   3.009  14.045 -0.5294 -0.2877 -0.6349
  325TMC3     C 4883   4.535   3.163  14.341 -0.0197  0.1030  0.2015
  325TMC3     O 4884   4.512   3.276  14.383  0.3558  0.0878  0.1890
  325TMC3     H 4885   4.467   2.912  14.323 -2.3191  0.9673  1.1077
  325TMC3    H1 4886   4.424   3.294  14.131  0.3239  0.2918  1.1073
  325TMC3    H2 4887   4.212   2.978  13.974 -0.4672 -1.1381 -0.3310
  325TMC3    C7 4888   4.220   3.228  13.967 -0.4727  0.2404 -0.8219
  325TMC3    C8 4889   4.259   2.825  14.192 -0.4675  0.6983  0.6476
  325TMC3    O1 4890   4.150   3.180  13.874 -0.6805  0.3620  0.5758
  325TMC3    O2 4891   4.299   2.730  14.264  0.1788 -0.1292 -0.4655
  326MPD2     C 4892   0.645   4.271  10.890  0.2879 -0.5303  0.7255
  326MPD2    C1 4893   0.769   4.280  10.834 -0.5259 -0.4029 -0.2585
  326MPD2    C2 4894   0.879   4.292  10.916 -0.3176 -0.8183 -0.2371
  326MPD2    C3 4895   0.861   4.302  11.050 -0.1363  0.2988 -0.2910
  326MPD2    C4 4896   0.735   4.293  11.110  1.0898 -1.2602  0.8792
  326MPD2    C5 4897   0.631   4.268  11.020 -0.2180 -0.4736  0.6172
  326MPD2     H 4898   0.975   4.296  10.866 -0.8752  0.9932 -1.1657
  326MPD2    H1 4899   0.709   4.292  11.215  2.3306  0.8129  1.1928
  326MPD2    H2 4900   0.563   4.246  10.822 -0.0219  0.3298  0.7833
  326MPD2    H3 4901   0.535   4.256  11.068 -1.4182  0.5768 -1.5130
  326MPD2     N 4902   0.972   4.311  11.140 -0.4845 -0.8234  0.0981
  326MPD2    H5 4903   0.951   4.337  11.236 -0.2362 -2.6514  0.6504
  326MPD2    N1 4904   0.795   4.254  10.697  0.3289  0.5661  0.9032
  326MPD2    H7 4905   0.889   4.247  10.658  0.5437  0.0679  1.5148
  327TMC3    C1 4906   0.780   4.269  10.470  0.1922 -0.0262  0.0704
  327TMC3    C2 4907   0.748   4.360  10.373  0.0965  0.4333  0.2900
  327TMC3    C3 4908   0.844   4.419  10.291  0.1397  0.4023 -0.3049
  327TMC3    C4 4909   0.907   4.222  10.472 -0.7248 -0.8517  0.0265
  327TMC3    C5 4910   0.999   4.266  10.377  0.1148 -0.4608 -0.8875
  327TMC3    C6 4911   0.977   4.374  10.299 -0.1862  0.8837 -0.6407
  327TMC3     C 4912   0.707   4.267  10.593  0.5839 -0.4077  0.0798
  327TMC3     O 4913   0.591   4.316  10.595  0.6124 -0.4153  0.5850
  327TMC3     H 4914   0.646   4.397  10.375 -0.5402 -1.3094 -0.0242
  327TMC3    H1 4915   0.933   4.128  10.519 -3.1859 -0.8964  1.3059
  327TMC3    H2 4916   1.062   4.414  10.244  0.0263 -0.3261 -1.1965
  327TMC3    C7 4917   1.113   4.186  10.339 -0.0325  0.1988  0.1210
  327TMC3    C8 4918   0.800   4.539  10.220  0.1703 -0.6804  0.0044
  327TMC3    O1 4919   1.157   4.199  10.228  0.2864  0.1838 -0.0939
  327TMC3    O2 4920   0.682   4.542  10.199 -0.0775 -0.2792 -0.2414
  328MPD2     C 4921   2.885   3.567   0.208  0.1649 -0.3813  0.1021
  328MPD2    C1 4922   2.955   3.680   0.165 -0.3721 -0.4207  0.5268
  328MPD2    C2 4923   2.966   3.714   0.031 -0.5391  0.4410  0.4157
  328MPD2    C3 4924   2.897   3.644  17.637  0.1694  0.0964 -0.6372
  328MPD2    C4 4925   2.823   3.534  17.682  0.0172 -0.3297  0.9167
  328MPD2    C5 4926   2.826   3.490   0.108 -0.0762 -0.0131  0.2830
  328MPD2     H 4927   3.026   3.798   0.001 -2.3145  0.9907 -1.6746
  328MPD2    H1 4928   2.786   3.471  17.603  2.1828 -1.0299  0.4692
  328MPD2    H2 4929   2.867   3.540   0.312 -0.2773  0.2763  0.1943
  328MPD2    H3 4930   2.787   3.395   0.141  0.6299 -0.7669 -1.0918
  328MPD2     N 4931   2.889   3.671  17.499 -0.3665  0.2307 -0.0448
  328MPD2    H5 4932   2.813   3.625  17.449  1.7065  0.8618 -3.7958
  328MPD2    N1 4933   3.022   3.753   0.268 -0.2832  0.1140 -0.5503
  328MPD2    H7 4934   2.992   3.734   0.364 -1.0659 -2.1676 -1.2335
  329TMC3    C1 4935   3.146   3.925   0.368 -0.6805  0.3952  0.5218
  329TMC3    C2 4936   3.124   4.064   0.374  0.1720  0.2064  0.4137
  329TMC3    C3 4937   3.092   4.110   0.501 -0.2559  0.0987 -0.4065
  329TMC3    C4 4938   3.126   3.849   0.478  0.0446  0.1855  0.0339
  329TMC3    C5 4939   3.118   3.910   0.605  0.5427  0.2228 -0.7796
  329TMC3    C6 4940   3.093   4.042   0.620  0.0886 -0.1194 -0.2835
  329TMC3     C 4941   3.125   3.849   0.247 -0.6042  0.2042 -0.8720
  329TMC3     O 4942   3.154   3.908   0.144 -0.2202  0.0146  0.3117
  329TMC3     H 4943   3.113   4.124   0.284  1.0511  0.2261  0.3198
  329TMC3    H1 4944   3.146   3.742   0.475 -0.4915  0.0901 -0.1279
  329TMC3    H2 4945   3.091   4.086   0.719 -0.8302  0.3585 -0.5168
  329TMC3    C7 4946   3.055   3.833   0.718 -0.3273 -0.5585  0.0898
  329TMC3    C8 4947   3.045   4.247   0.486 -0.4953  0.1137 -0.1883
  329TMC3    O1 4948   2.972   3.892   0.788  0.1967 -0.3628 -0.1126
  329TMC3    O2 4949   3.095   4.327   0.407  0.5859  0.6985  0.5633
  330TMC3    C1 4950   1.425   2.820   9.657 -0.6061 -0.3048 -0.8629
  330TMC3    C2 4951   1.350   2.710   9.616  0.2710  0.6208 -0.1916
  330TMC3    C3 4952   1.426   2.606   9.570 -0.0621 -0.3444 -0.5006
  330TMC3    C4 4953   1.562   2.817   9.667 -0.6355 -1.0358  0.4514
  330TMC3    C5 4954   1.631   2.709   9.619  0.2886  0.1797  0.5041
  330TMC3    C6 4955   1.563   2.601   9.575 -0.1936 -0.2205  0.3752
  330TMC3     C 4956   1.356   2.907   9.748 -0.4246  0.1234  0.0077
  330TMC3     O 4957   1.439   2.962   9.821  0.0076 -0.1135  0.1090
  330TMC3     H 4958   1.242   2.713   9.623  0.2002 -1.7220 -0.2455
  330TMC3    H1 4959   1.613   2.897   9.719  0.0669 -1.3360  0.2235
  330TMC3    H2 4960   1.608   2.516   9.526 -1.4494 -1.0523  0.6818
  330TMC3    C7 4961   1.778   2.711   9.618 -0.5674  0.5006  0.2415
  330TMC3    C8 4962   1.364   2.508   9.480  0.6133  0.0879 -0.2244
  330TMC3    O1 4963   1.830   2.825   9.620 -0.8889  0.1896 -0.3786
  330TMC3    O2 4964   1.408   2.502   9.367 -0.6248 -0.7969  0.2327
  331MPD2     C 4965   0.197   2.310  12.724 -0.4235  0.0735  0.3470
  331MPD2    C1 4966   0.180   2.392  12.617  0.2546  0.2833  0.0417
  331MPD2    C2 4967   0.084   2.365  12.522 -0.4098  0.1362  0.2806
  331MPD2    C3 4968   0.004   2.253  12.528  0.8703  0.3103 -0.0407
  331MPD2    C4 4969   0.017   2.176  12.642  0.3220  0.0890 -0.2330
  331MPD2    C5 4970   0.112   2.205  12.735  0.0346 -0.5163  0.3927
  331MPD2     H 4971   0.069   2.435  12.441  2.5362 -0.5964 -0.9095
  331MPD2    H1 4972   4.675   2.096  12.668  0.8712 -0.2296  0.2230
  331MPD2    H2 4973   0.265   2.329  12.807 -0.4865  0.4541  0.3100
  331MPD2    H3 4974   0.133   2.147  12.824  0.2027 -1.3718 -0.1962
  331MPD2     N 4975   4.629   2.236  12.434  0.7917  0.2805 -0.3191
  331MPD2    H5 4976   4.622   2.311  12.366 -1.8003  0.1221 -0.2579
  331MPD2    N1 4977   0.255   2.513  12.628  0.1930  0.0056  0.0691
  331MPD2    H7 4978   0.343   2.508  12.679 -0.9998 -0.8838  2.0671
  332TMC3    C1 4979   4.414   2.166  12.360 -0.2959 -0.3279 -0.3285
  332TMC3    C2 4980   4.424   2.181  12.225 -0.1000  0.1801 -0.7139
  332TMC3    C3 4981   4.340   2.110  12.151  0.5967 -0.0640 -0.7504
  332TMC3    C4 4982   4.319   2.083  12.412  0.0858 -0.4264  0.1800
  332TMC3    C5 4983   4.241   2.005  12.332  0.2554 -0.3657 -0.5193
  332TMC3    C6 4984   4.245   2.032  12.198 -0.1722 -0.0449 -0.3405
  332TMC3     C 4985   4.537   2.137  12.432  1.0294 -0.0774  0.0386
  332TMC3     O 4986   4.530   2.040  12.503 -0.3639  0.0016 -0.3056
  332TMC3     H 4987   4.497   2.249  12.182 -0.1499  0.3386 -0.5450
  332TMC3    H1 4988   4.304   2.086  12.519  0.5934 -1.9005  0.2979
  332TMC3    H2 4989   4.206   1.960  12.127  1.6279  0.9159 -2.2675
  332TMC3    C7 4990   4.248   1.867  12.363  0.9872  0.0493 -0.3321
  332TMC3    C8 4991   4.312   2.159  12.017  0.2349 -0.9535  0.0341
  332TMC3    O1 4992   4.180   1.788  12.298 -0.6448 -0.0879 -0.3391
  332TMC3    O2 4993   4.408   2.209  11.954  0.5165  0.0794 -0.2480
  333MPD2     C 4994   4.338   2.024  11.500  0.3817  0.2576  0.0726
  333MPD2    C1 4995   4.430   1.930  11.458 -0.0957 -0.0895 -0.1225
  333MPD2    C2 4996   4.391   1.801  11.445 -0.0422 -0.3118 -0.4790
  333MPD2    C3 4997   4.259   1.763  11.470 -0.0896  0.1944  0.6272
  333MPD2    C4 4998   4.177   1.860  11.528 -0.6417 -0.4892 -0.6640
  333MPD2    C5 4999   4.215   1.990  11.539  0.0796 -0.0771  0.2824
  333MPD2     H 5000   4.458   1.735  11.392  0.4133 -0.8585  0.7651
  333MPD2    H1 5001   4.073   1.841  11.552 -0.4781 -0.2207  0.2389
  333MPD2    H2 5002   4.372   2.127  11.506 -0.8080  0.5813  1.3338
  333MPD2    H3 5003   4.152   2.066  11.584 -0.3191 -0.7175  0.8006
  333MPD2     N 5004   4.221   1.626  11.462 -0.4263 -0.0414  0.0173
  333MPD2    H5 5005   4.132   1.614  11.509 -0.7674  1.5456 -0.2148
  333MPD2    N1 5006   4.550   1.986  11.408 -0.1549 -0.2101  0.3983
  333MPD2    H7 5007   4.550   2.086  11.392 -1.1157 -0.1099  1.0855
  334TMC3    C1 5008   0.048   2.003  11.325  0.0756  0.6702  0.1004
  334TMC3    C2 5009   0.167   1.943  11.304 -0.3291 -0.2152  0.0544
  334TMC3    C3 5010   0.255   2.007  11.224  0.8456  0.7336 -0.0136
  334TMC3    C4 5011   0.021   2.135  11.291  0.0246 -0.3603  0.0058
  334TMC3    C5 5012   0.118   2.201  11.223 -0.0339  0.2349  0.4194
  334TMC3    C6 5013   0.234   2.137  11.187 -0.0515 -0.4737 -0.2272
  334TMC3     C 5014   4.664   1.912  11.371  0.7133  0.3571 -0.2217
  334TMC3     O 5015   4.674   1.791  11.360 -0.1489  0.0472 -0.0318
  334TMC3     H 5016   0.186   1.842  11.340 -0.5024 -1.4132 -3.2728
  334TMC3    H1 5017   4.660   2.185  11.332  0.1268  0.1646 -0.4109
  334TMC3    H2 5018   0.307   2.196  11.132  2.7273 -2.1309  1.6589
  334TMC3    C7 5019   0.101   2.340  11.226  0.3594  0.1899 -0.3663
  334TMC3    C8 5020   0.383   1.938  11.204  0.4793  0.1621  0.4825
  334TMC3    O1 5021   0.212   2.397  11.239  0.1946  0.0158 -0.2974
  334TMC3    O2 5022   0.411   1.840  11.271 -0.0646 -0.0943  1.4683
  335TMC3    C1 5023   4.092   3.721   0.071 -0.6384  0.0244 -0.6185
  335TMC3    C2 5024   4.043   3.633  17.688 -0.1766 -0.6466 -0.6342
  335TMC3    C3 5025   4.125   3.611  17.577  0.3635 -0.2037 -0.0327
  335TMC3    C4 5026   4.209   3.796   0.056  0.0545  0.6478  0.6388
  335TMC3    C5 5027   4.282   3.766  17.649  0.0933 -0.4061  0.2610
  335TMC3    C6 5028   4.236   3.686  17.549  0.2299  0.4874 -0.0256
  335TMC3     C 5029   4.013   3.738   0.193  0.0757  0.4044  0.3878
  335TMC3     O 5030   3.928   3.652   0.217 -0.0487 -0.0703  0.3689
  335TMC3     H 5031   3.953   3.576   0.003 -1.4167  1.0783 -1.2334
  335TMC3    H1 5032   4.257   3.850   0.137  1.0938  2.4057 -1.1443
  335TMC3    H2 5033   4.291   3.669  17.458 -3.3826 -1.3242 -1.8659
  335TMC3    C7 5034   4.418   3.797  17.629 -1.0703 -0.0128  0.1048
  335TMC3    C8 5035   4.093   3.507  17.480  0.3805  0.0979 -0.2715
  335TMC3    O1 5036   4.473   3.770  17.522 -0.2802  0.2493  0.2266
  335TMC3    O2 5037   4.154   3.509  17.374 -0.3063  0.2069  0.0859
  336MPD2     C 5038   3.942   1.169  16.269 -0.1348  0.8268  0.2763
  336MPD2    C1 5039   3.843   1.126  16.190  0.5180 -0.1546  0.1680
  336MPD2    C2 5040   3.774   1.007  16.209  0.6962 -0.3803 -0.0232
  336MPD2    C3 5041   3.801   0.930  16.324  0.2894  0.0676 -0.5190
  336MPD2    C4 5042   3.908   0.974  16.402 -0.5272  0.0355 -0.1064
  336MPD2    C5 5043   3.980   1.085  16.372 -0.4415  0.2699 -0.7274
  336MPD2     H 5044   3.697   0.975  16.140 -0.1300 -1.4415  1.3972
  336MPD2    H1 5045   3.924   0.920  16.495  0.8336  2.9145  1.3407
  336MPD2    H2 5046   3.996   1.261  16.249  0.7280 -0.0622 -1.5696
  336MPD2    H3 5047   4.060   1.116  16.439 -2.5722 -0.7632  2.2750
  336MPD2     N 5048   3.730   0.816  16.369 -0.2118 -0.3766 -0.3148
  336MPD2    H5 5049   3.735   0.789  16.467 -2.1509 -1.7666 -0.6095
  336MPD2    N1 5050   3.794   1.201  16.077  0.0238  0.0898  0.3521
  336MPD2    H7 5051   3.706   1.174  16.034 -2.2188  1.1372  4.2850
  337TMC3    C1 5052   3.755   1.377  15.935  1.1691 -0.3411 -0.3828
  337TMC3    C2 5053   3.614   1.375  15.946 -0.4939  0.1228  0.0049
  337TMC3    C3 5054   3.545   1.434  15.847  0.4458 -0.1923  0.3411
  337TMC3    C4 5055   3.811   1.418  15.819  0.3725 -0.7145 -0.6340
  337TMC3    C5 5056   3.727   1.455  15.715  0.6831 -0.0100 -0.7026
  337TMC3    C6 5057   3.594   1.472  15.725 -0.6713 -1.0785  0.2936
  337TMC3     C 5058   3.845   1.316  16.033  1.0038  0.3546  0.6546
  337TMC3     O 5059   3.959   1.352  16.048 -0.0671  0.0111  0.0719
  337TMC3     H 5060   3.568   1.334  16.036 -0.9599 -2.5123 -1.4109
  337TMC3    H1 5061   3.919   1.412  15.815  0.5203  0.5798  1.2946
  337TMC3    H2 5062   3.532   1.493  15.639 -0.3988 -1.5378 -0.0184
  337TMC3    C7 5063   3.770   1.431  15.579 -0.5722  0.1522  0.2337
  337TMC3    C8 5064   3.413   1.483  15.876  0.1480  0.4216  0.0477
  337TMC3    O1 5065   3.691   1.404  15.492 -0.3273  0.2661  0.0853
  337TMC3    O2 5066   3.373   1.451  15.988  0.0286 -0.0855  0.5330
  338MPD2     C 5067   4.192   0.694   1.150 -0.0362 -0.1093  0.6899
  338MPD2    C1 5068   4.079   0.679   1.074  0.7806 -0.0662 -0.5154
  338MPD2    C2 5069   3.963   0.717   1.127  0.1372 -0.1235 -0.9035
  338MPD2    C3 5070   3.952   0.765   1.260 -0.6421 -0.1296 -0.0485
  338MPD2    C4 5071   4.059   0.762   1.345  0.4039 -1.2759 -0.2869
  338MPD2    C5 5072   4.177   0.722   1.290 -0.1820  0.2416 -0.2906
  338MPD2     H 5073   3.872   0.697   1.072  0.1501  0.2770 -1.0694
  338MPD2    H1 5074   4.055   0.780   1.452  0.5378  0.3480 -0.5608
  338MPD2    H2 5075   4.291   0.674   1.110 -0.1168 -2.3295  1.6062
  338MPD2    H3 5076   4.267   0.710   1.349  0.9610 -0.9427 -2.2465
  338MPD2     N 5077   3.821   0.808   1.306 -0.1023  0.3744  1.1194
  338MPD2    H5 5078   3.755   0.814   1.230  1.5789 -0.1217 -0.3662
  338MPD2    N1 5079   4.084   0.632   0.940 -0.0927 -0.6365 -0.7213
  338MPD2    H7 5080   3.999   0.599   0.896  0.0772 -2.4827  0.3396
  339TMC3    C1 5081   3.662   0.882   1.460 -0.2844 -0.1529 -0.5227
  339TMC3    C2 5082   3.596   0.840   1.571 -0.1083 -0.2903  0.0114
  339TMC3    C3 5083   3.461   0.874   1.577 -0.7138  0.4020 -0.3050
  339TMC3    C4 5084   3.587   0.915   1.351 -0.3017 -0.3181 -0.2566
  339TMC3    C5 5085   3.455   0.954   1.361  0.0251 -0.7842 -0.7535
  339TMC3    C6 5086   3.391   0.931   1.478 -0.3717 -0.1671 -0.7823
  339TMC3     C 5087   3.797   0.834   1.437 -0.2251 -0.4746 -0.6858
  339TMC3     O 5088   3.857   0.823   1.541  0.3434 -0.3172  0.6602
  339TMC3     H 5089   3.645   0.775   1.643  1.0522  0.1257 -0.4221
  339TMC3    H1 5090   3.639   0.939   1.259 -0.2190 -1.8533 -0.6050
  339TMC3    H2 5091   3.287   0.962   1.482 -0.2495 -0.2422  2.5244
  339TMC3    C7 5092   3.378   0.975   1.244 -0.2294  0.5907  0.5016
  339TMC3    C8 5093   3.386   0.837   1.694  0.6604 -0.0024 -0.3388
  339TMC3    O1 5094   3.446   0.955   1.144 -0.1245 -0.0646 -0.4009
  339TMC3    O2 5095   3.302   0.919   1.728 -0.2935 -0.3639 -0.4663
  340MPD2     C 5096   3.856   3.054  10.403 -0.6517 -0.6121  0.2817
  340MPD2    C1 5097   3.989   3.034  10.376 -0.6082  0.0831 -0.4142
  340MPD2    C2 5098   4.090   3.093  10.450  1.0857 -0.3184  0.6870
  340MPD2    C3 5099   4.062   3.183  10.546  0.3715 -0.2171 -0.0953
  340MPD2    C4 5100   3.928   3.199  10.577  0.2285  0.4837 -0.6253
  340MPD2    C5 5101   3.823   3.140  10.501  0.0405  0.2446 -0.3913
  340MPD2     H 5102   4.193   3.077  10.420  1.4958  0.2624  1.7572
  340MPD2    H1 5103   3.895   3.268  10.654  0.1520 -1.4311  1.0744
  340MPD2    H2 5104   3.777   3.010  10.344  0.3828 -0.9008 -0.8893
  340MPD2    H3 5105   3.718   3.143  10.530 -0.5270 -0.6139 -2.3908
  340MPD2     N 5106   4.173   3.234  10.606  0.2407 -0.2061 -0.1266
  340MPD2    H5 5107   4.262   3.212  10.561 -0.0891  0.4085 -1.0881
  340MPD2    N1 5108   4.044   2.939  10.291  0.0513  0.6853  0.0772
  340MPD2    H7 5109   4.143   2.933  10.270 -0.1924 -1.2302 -0.5311
  341TMC3    C1 5110   4.056   2.773  10.115 -0.3418  0.4799  0.4884
  341TMC3    C2 5111   4.020   2.643  10.083 -0.1858  0.8912  0.1139
  341TMC3    C3 5112   4.083   2.582   9.978 -0.4329 -0.4641  0.3933
  341TMC3    C4 5113   4.154   2.842  10.042 -0.5463 -0.0425 -0.4730
  341TMC3    C5 5114   4.213   2.778   9.936 -0.1273  0.5084  1.1540
  341TMC3    C6 5115   4.181   2.648   9.907  0.3056  0.4999 -0.6518
  341TMC3     C 5116   3.973   2.847  10.217  0.4134 -0.2172  0.2487
  341TMC3     O 5117   3.863   2.799  10.239 -0.0631 -0.1441 -0.5053
  341TMC3     H 5118   3.961   2.581  10.150 -0.2032  0.1743 -0.5590
  341TMC3    H1 5119   4.170   2.947  10.063  1.9692 -0.6236  0.4051
  341TMC3    H2 5120   4.209   2.607   9.811  3.4258  0.0738  0.4257
  341TMC3    C7 5121   4.296   2.849   9.843  0.7289  0.3911  0.1995
  341TMC3    C8 5122   4.061   2.440   9.975  0.3906  0.4801  0.0723
  341TMC3    O1 5123   4.386   2.775   9.799 -0.0096  0.2852 -0.0284
  341TMC3    O2 5124   3.949   2.402  10.011  0.2786  0.3920  0.4898
  342MPD2     C 5125   1.504   1.754   0.015 -0.1446  0.4213  0.2526
  342MPD2    C1 5126   1.642   1.789   0.003 -0.4844  0.6063 -0.4133
  342MPD2    C2 5127   1.683   1.917   0.030  0.7959  0.6306 -0.5938
  342MPD2    C3 5128   1.599   2.013   0.077 -0.2293  0.6846 -0.9709
  342MPD2    C4 5129   1.466   1.980   0.095 -0.0839 -0.1649 -0.0106
  342MPD2    C5 5130   1.421   1.853   0.054 -0.3246 -0.5707  0.5946
  342MPD2     H 5131   1.789   1.933   0.016  1.6545 -4.3375  0.1364
  342MPD2    H1 5132   1.392   2.053   0.125 -1.9284 -1.7088 -0.7656
  342MPD2    H2 5133   1.460   1.663  17.682 -0.1031  0.2408  0.6128
  342MPD2    H3 5134   1.314   1.836   0.044 -0.7063  1.5474  1.1679
  342MPD2     N 5135   1.636   2.147   0.112  0.0700  0.1600 -0.1324
  342MPD2    H5 5136   1.561   2.207   0.143  1.6978  0.5981  2.9206
  342MPD2    N1 5137   1.742   1.701  17.670  0.6883 -0.6336 -0.2348
  342MPD2    H7 5138   1.833   1.743  17.655  0.3247 -0.4787 -2.0257
  343TMC3    C1 5139   1.863   1.506  17.621 -0.2750  0.5539  0.1602
  343TMC3    C2 5140   1.911   1.534  17.493  0.0423  0.0006  0.2736
  343TMC3    C3 5141   1.966   1.429  17.424 -0.1675  0.0389  0.7451
  343TMC3    C4 5142   1.874   1.377  17.674  0.0428 -0.0764  0.1951
  343TMC3    C5 5143   1.916   1.276  17.591  0.5726 -0.6167  0.4151
  343TMC3    C6 5144   1.971   1.294  17.466  0.0601  0.1511  0.1708
  343TMC3     C 5145   1.737   1.565  17.656 -0.1275  0.5135 -0.0074
  343TMC3     O 5146   1.654   1.498   0.008  0.4416 -0.4407  0.4878
  343TMC3     H 5147   1.895   1.631  17.447 -0.4935 -0.3782 -0.3336
  343TMC3    H1 5148   1.821   1.357   0.059  0.7182 -3.8519 -0.2362
  343TMC3    H2 5149   2.012   1.212  17.407 -0.7622  1.6234 -2.4586
  343TMC3    C7 5150   1.932   1.145  17.647  0.1860  0.0797  0.0385
  343TMC3    C8 5151   2.058   1.460  17.311  0.4731 -0.5428  0.0443
  343TMC3    O1 5152   1.940   1.043  17.576 -0.1986 -0.1468  0.0199
  343TMC3    O2 5153   2.058   1.574  17.264  0.0723  0.2406 -0.0113
  344MPD2     C 5154   3.491   1.361  11.176 -0.7865  0.4581  0.3872
  344MPD2    C1 5155   3.428   1.279  11.094 -0.2142  0.1194  0.1295
  344MPD2    C2 5156   3.442   1.300  10.957  0.1193  0.1159  0.0079
  344MPD2    C3 5157   3.526   1.400  10.910 -0.0641  0.2763 -0.4795
  344MPD2    C4 5158   3.592   1.482  11.001 -0.2551  0.3490  0.4853
  344MPD2    C5 5159   3.575   1.452  11.129  0.1210  0.4507  0.3460
  344MPD2     H 5160   3.382   1.241  10.889 -0.5361  0.5743  0.1885
  344MPD2    H1 5161   3.654   1.567  10.977 -0.6813  1.5156  3.6080
  344MPD2    H2 5162   3.473   1.360  11.283  0.6443  1.1791  0.6372
  344MPD2    H3 5163   3.617   1.528  11.194  1.3995 -0.2311  0.3158
  344MPD2     N 5164   3.523   1.420  10.769 -0.7584 -0.5952  0.4198
  344MPD2    H5 5165   3.472   1.348  10.719 -0.4553 -1.2167  1.0269
  344MPD2    N1 5166   3.345   1.174  11.137  0.1947  0.1442  0.2697
  344MPD2    H7 5167   3.298   1.119  11.066 -2.4979 -0.0833  2.2078
  345TMC3    C1 5168   3.585   1.525  10.556 -0.5504 -0.2298  0.4124
  345TMC3    C2 5169   3.692   1.559  10.484 -0.1435 -0.6226 -0.5102
  345TMC3    C3 5170   3.683   1.569  10.346  0.5033  0.2752  0.5894
  345TMC3    C4 5171   3.465   1.508  10.497  0.1189 -0.8716  0.0466
  345TMC3    C5 5172   3.455   1.537  10.362  0.0852  1.3579  0.0864
  345TMC3    C6 5173   3.566   1.556  10.283  0.3391 -0.8158  0.1108
  345TMC3     C 5174   3.596   1.517  10.703 -0.6213 -0.2710 -0.5860
  345TMC3     O 5175   3.687   1.589  10.747  0.1084  0.1793  0.1480
  345TMC3     H 5176   3.783   1.575  10.541 -1.3915 -0.8591  1.5419
  345TMC3    H1 5177   3.381   1.506  10.566  0.4500  1.4974  0.5108
  345TMC3    H2 5178   3.556   1.590  10.180  0.2957 -0.6993  0.1537
  345TMC3    C7 5179   3.338   1.597  10.299  0.1222  0.0539  0.0186
  345TMC3    C8 5180   3.799   1.629  10.283  1.1174 -0.5769 -0.0406
  345TMC3    O1 5181   3.351   1.677  10.205 -0.2131  0.0884 -0.5152
  345TMC3    O2 5182   3.868   1.707  10.348 -0.0938  0.2973 -0.7838
  346MPD2     C 5183   3.391   2.773  14.258 -0.1229  0.6970 -0.4484
  346MPD2    C1 5184   3.362   2.888  14.188  0.1084 -0.8291 -0.2236
  346MPD2    C2 5185   3.375   3.008  14.260  0.0278 -0.0131 -0.2852
  346MPD2    C3 5186   3.402   3.018  14.395  0.0833 -0.2292 -0.1588
  346MPD2    C4 5187   3.420   2.901  14.466  0.2677 -0.3547  0.4882
  346MPD2    C5 5188   3.402   2.782  14.394  0.5082 -1.3839 -0.1362
  346MPD2     H 5189   3.354   3.095  14.199  1.2025  0.0177 -0.6396
  346MPD2    H1 5190   3.458   2.889  14.567 -2.0462 -1.8761  1.1853
  346MPD2    H2 5191   3.401   2.675  14.214  1.5554  1.5325 -1.9000
  346MPD2    H3 5192   3.427   2.702  14.464 -1.1501 -0.7366  1.2026
  346MPD2     N 5193   3.420   3.148  14.443 -0.1803 -0.2594 -0.1797
  346MPD2    H5 5194   3.424   3.227  14.379  0.7919 -0.9140 -0.9287
  346MPD2    N1 5195   3.329   2.889  14.054 -0.4896  0.7195 -0.2679
  346MPD2    H7 5196   3.308   2.977  14.008 -1.1185  1.1925  0.9329
  347TMC3    C1 5197   3.530   3.302  14.579 -0.5454  0.1574 -0.0287
  347TMC3    C2 5198   3.625   3.328  14.481  0.3706 -0.2481 -0.0851
  347TMC3    C3 5199   3.708   3.438  14.493  0.2402  0.1106 -0.1326
  347TMC3    C4 5200   3.529   3.365  14.700  0.4857  0.1536  0.2586
  347TMC3    C5 5201   3.626   3.472  14.713 -0.1623  0.9863 -0.7956
  347TMC3    C6 5202   3.714   3.511  14.608  0.0997  0.0480 -0.1637
  347TMC3     C 5203   3.442   3.182  14.569 -0.4151 -0.1823 -0.3747
  347TMC3     O 5204   3.394   3.123  14.670  0.0681 -0.3584  0.2692
  347TMC3     H 5205   3.631   3.267  14.391  1.4885 -1.0127  0.5142
  347TMC3    H1 5206   3.460   3.338  14.780  0.1373  0.7869  0.1782
  347TMC3    H2 5207   3.778   3.598  14.613 -1.0083  1.0754 -3.9212
  347TMC3    C7 5208   3.651   3.536  14.840  0.3911 -0.3113 -0.3573
  347TMC3    C8 5209   3.812   3.464  14.395 -0.7772 -0.4849  0.3026
  347TMC3    O1 5210   3.718   3.639  14.842 -1.0046 -0.5956  0.3069
  347TMC3    O2 5211   3.922   3.507  14.436  0.0728  0.0719  0.2496
  348MPD2     C 5212   1.479   3.027  12.427 -0.1577  0.5942 -0.1824
  348MPD2    C1 5213   1.515   2.943  12.313  0.7677  0.3561  0.6356
  348MPD2    C2 5214   1.516   2.989  12.185 -0.1339  0.3496 -0.3834
  348MPD2    C3 5215   1.485   3.118  12.164  0.8338  0.2533  0.4363
  348MPD2    C4 5216   1.456   3.202  12.268 -0.0548 -0.2644 -0.3446
  348MPD2    C5 5217   1.461   3.158  12.399  0.1319  0.8821 -0.5192
  348MPD2     H 5218   1.551   2.917  12.113 -0.2599  0.0103 -0.1051
  348MPD2    H1 5219   1.431   3.307  12.263  0.6247 -0.0761  0.1084
  348MPD2    H2 5220   1.475   2.991  12.529  0.0697  1.8372  0.2624
  348MPD2    H3 5221   1.433   3.217  12.485  0.3365  0.3796 -0.1069
  348MPD2     N 5222   1.481   3.173  12.037  0.4534  0.7963  0.0099
  348MPD2    H5 5223   1.471   3.274  12.028  1.2603  0.9788  1.2354
  348MPD2    N1 5224   1.543   2.807  12.325  0.2299  0.2039 -0.7047
  348MPD2    H7 5225   1.565   2.756  12.240  1.0045  0.7540 -0.8298
  349TMC3    C1 5226   1.582   2.598  12.415  0.2951 -0.0378 -0.3351
  349TMC3    C2 5227   1.640   2.519  12.510  0.8409 -0.1185 -0.4417
  349TMC3    C3 5228   1.722   2.411  12.468 -0.0780  0.3641 -0.2922
  349TMC3    C4 5229   1.573   2.556  12.287  0.3526 -0.0127 -0.2805
  349TMC3    C5 5230   1.635   2.439  12.252  0.7369  0.2657 -0.1468
  349TMC3    C6 5231   1.712   2.371  12.337 -0.1510  0.1137  0.7707
  349TMC3     C 5232   1.553   2.734  12.442 -0.3123  0.9684  0.5009
  349TMC3     O 5233   1.549   2.771  12.560  0.1457 -1.0141 -0.2135
  349TMC3     H 5234   1.633   2.536  12.617 -0.2461 -0.5499 -0.4429
  349TMC3    H1 5235   1.522   2.613  12.210  1.0959 -0.5755 -1.1810
  349TMC3    H2 5236   1.749   2.272  12.313  0.4471  0.2117  1.3172
  349TMC3    C7 5237   1.658   2.424  12.107 -0.6659 -0.8718  0.8303
  349TMC3    C8 5238   1.771   2.319  12.571  0.1199 -0.1015  1.0275
  349TMC3    O1 5239   1.565   2.449  12.028 -0.1512  0.8487  0.5633
  349TMC3    O2 5240   1.716   2.323  12.682 -0.1065 -0.2717 -0.4288
  350MPD2     C 5241   0.786   0.822   9.875  0.1576  0.0272 -0.4077
  350MPD2    C1 5242   0.799   0.702   9.955 -0.3674  0.2056  0.0606
  350MPD2    C2 5243   0.861   0.719  10.080 -0.0600 -0.3171 -0.7131
  350MPD2    C3 5244   0.907   0.839  10.127  0.2244 -1.2473  0.4926
  350MPD2    C4 5245   0.891   0.951  10.051  0.5026  0.3033 -0.5911
  350MPD2    C5 5246   0.842   0.943   9.924  0.7326  0.0973 -0.3733
  350MPD2     H 5247   0.878   0.632  10.143  1.8559  0.3884 -0.2627
  350MPD2    H1 5248   0.920   1.045  10.096  0.4329  0.8087 -1.5968
  350MPD2    H2 5249   0.735   0.825   9.779 -0.9211 -0.1059  0.1645
  350MPD2    H3 5250   0.833   1.026   9.856  0.4850 -1.3248 -2.0833
  350MPD2     N 5251   0.963   0.861  10.256 -0.0723  0.4058 -0.3484
  350MPD2    H5 5252   0.969   0.958  10.285  2.9026  0.3870 -0.9215
  350MPD2    N1 5253   0.742   0.581   9.912 -0.7663 -0.8333  0.2999
  350MPD2    H7 5254   0.758   0.506   9.978  0.9657  0.6669  1.5999
  351TMC3    C1 5255   0.663   0.411   9.779 -0.7705  0.3152 -0.0117
  351TMC3    C2 5256   0.763   0.325   9.828 -0.0396 -0.2007 -0.2630
  351TMC3    C3 5257   0.762   0.195   9.799 -0.6253 -1.0947  0.7432
  351TMC3    C4 5258   0.552   0.357   9.727  0.5299  0.0626  1.4999
  351TMC3    C5 5259   0.553   0.220   9.699  0.3283  0.0506 -0.5138
  351TMC3    C6 5260   0.660   0.138   9.729 -1.0659  0.1575 -0.3260
  351TMC3     C 5261   0.670   0.554   9.798  0.4520  0.4925 -0.0290
  351TMC3     O 5262   0.626   0.626   9.712 -0.8851 -0.1874  0.6337
  351TMC3     H 5263   0.851   0.359   9.882  0.2333  0.8554 -1.3768
  351TMC3    H1 5264   0.480   0.426   9.686  1.0205  0.7019  1.7107
  351TMC3    H2 5265   0.668   0.040   9.683 -0.0576  0.0633  0.0464
  351TMC3    C7 5266   0.444   0.169   9.619 -0.6053  0.4763 -0.0067
  351TMC3    C8 5267   0.878   0.115   9.824  0.1473  0.6282  0.3870
  351TMC3    O1 5268   0.373   0.243   9.553  0.4255  0.1726  0.0954
  351TMC3    O2 5269   0.984   0.177   9.850 -0.0983  0.3219 -0.1647
  352MPD2     C 5270   0.456   3.076   1.230 -0.3180  1.0622  0.3036
  352MPD2    C1 5271   0.361   3.007   1.161  0.4347 -0.1135 -0.3025
  352MPD2    C2 5272   0.381   2.870   1.155 -0.1714 -0.7503  0.4197
  352MPD2    C3 5273   0.488   2.804   1.217  0.1934  0.8632 -0.0609
  352MPD2    C4 5274   0.576   2.876   1.292 -0.1261 -0.5547  0.3045
  352MPD2    C5 5275   0.566   3.013   1.291 -0.1810  0.1035  0.2821
  352MPD2     H 5276   0.312   2.802   1.106 -0.1820 -1.8423  1.9575
  352MPD2    H1 5277   0.659   2.826   1.342  0.1556  1.4094  1.7897
  352MPD2    H2 5278   0.437   3.182   1.244 -1.8552  0.8209  0.1080
  352MPD2    H3 5279   0.636   3.068   1.353 -0.2108  2.3507 -1.6828
  352MPD2     N 5280   0.494   2.663   1.222 -0.7980 -0.7183  0.4885
  352MPD2    H5 5281   0.419   2.608   1.181 -0.6251 -1.0972  0.6820
  352MPD2    N1 5282   0.245   3.075   1.107  0.5189 -0.0156 -0.0743
  352MPD2    H7 5283   0.224   3.174   1.111  1.5100  0.1535  0.6941
  353TMC3    C1 5284   0.529   2.447   1.307  0.5277  0.3276 -0.3011
  353TMC3    C2 5285   0.609   2.350   1.350 -0.4304 -0.7016  0.2316
  353TMC3    C3 5286   0.551   2.228   1.352 -0.2020  0.2836  0.9359
  353TMC3    C4 5287   0.400   2.426   1.276 -0.5219  0.3729  0.1578
  353TMC3    C5 5288   0.350   2.303   1.268 -0.4814 -0.0396 -0.3470
  353TMC3    C6 5289   0.423   2.197   1.320  0.1137 -0.4474  0.3767
  353TMC3     C 5290   0.575   2.583   1.302  0.2700  0.2124  0.0683
  353TMC3     O 5291   0.677   2.599   1.366 -0.3802  0.2488  0.1721
  353TMC3     H 5292   0.714   2.364   1.370 -0.7430  1.2939  0.3947
  353TMC3    H1 5293   0.334   2.509   1.296  1.0608  2.1368 -1.9031
  353TMC3    H2 5294   0.387   2.095   1.308 -2.6584  0.7594 -1.4717
  353TMC3    C7 5295   0.208   2.288   1.250  0.3946 -0.3483 -0.9575
  353TMC3    C8 5296   0.644   2.114   1.379 -0.4195  0.7374  0.1268
  353TMC3    O1 5297   0.159   2.176   1.283  0.3198  0.0197 -0.2274
  353TMC3    O2 5298   0.763   2.123   1.363 -0.5573  0.7760  0.1591
  354TMC3    C1 5299   0.814   3.796  13.611  0.2853  0.4668 -0.8150
  354TMC3    C2 5300   0.731   3.864  13.534 -0.2281  0.2175  0.7553
  354TMC3    C3 5301   0.741   3.852  13.397 -0.4533  0.1023 -0.7866
  354TMC3    C4 5302   0.926   3.737  13.563  0.6505  0.5990 -0.2271
  354TMC3    C5 5303   0.937   3.735  13.430 -0.0902  1.0257  0.0536
  354TMC3    C6 5304   0.837   3.784  13.341 -0.6847 -0.2027  0.1217
  354TMC3     C 5305   0.791   3.785  13.756 -0.2567  0.3811 -0.3705
  354TMC3     O 5306   0.671   3.782  13.786  0.0165  0.2535 -0.6674
  354TMC3     H 5307   0.639   3.893  13.583 -0.6208 -0.5016  0.4465
  354TMC3    H1 5308   0.992   3.677  13.624  2.5460 -0.1179 -2.9746
  354TMC3    H2 5309   0.846   3.774  13.233 -1.5719  0.0928  0.0215
  354TMC3    C7 5310   1.055   3.673  13.378 -0.3676 -0.7913  0.1740
  354TMC3    C8 5311   0.679   3.954  13.313 -0.1322 -0.3101  0.3943
  354TMC3    O1 5312   1.134   3.629  13.457 -0.2292 -0.0872 -0.5727
  354TMC3    O2 5313   0.681   3.917  13.195 -0.5854  0.2314 -0.3752
  355MPD2     C 5314   1.030   0.459  11.674  0.9626 -0.7996  0.1902
  355MPD2    C1 5315   1.114   0.438  11.566  0.2083 -0.7424 -0.4338
  355MPD2    C2 5316   1.232   0.367  11.582  0.4482 -0.4727  0.4437
  355MPD2    C3 5317   1.282   0.330  11.711  0.1056  0.4432 -0.0043
  355MPD2    C4 5318   1.187   0.339  11.814  0.2362  0.1138  0.3084
  355MPD2    C5 5319   1.067   0.411  11.800  0.0707 -0.0538  0.0566
  355MPD2     H 5320   1.298   0.354  11.497  0.1864 -1.1186  0.3430
  355MPD2    H1 5321   1.220   0.308  11.913 -0.5701  1.8167  1.1162
  355MPD2    H2 5322   0.934   0.510  11.665  1.8456  0.6051 -1.0956
  355MPD2    H3 5323   1.012   0.439  11.890 -1.0309 -0.0366 -0.6179
  355MPD2     N 5324   1.405   0.264  11.736 -0.1273 -0.0373  0.0773
  355MPD2    H5 5325   1.419   0.200  11.814 -0.4391 -1.0369 -0.6789
  355MPD2    N1 5326   1.083   0.489  11.440 -0.1956 -0.0079 -0.2054
  355MPD2    H7 5327   1.028   0.574  11.438  1.5816  1.2038  2.6905
  356TMC3    C1 5328   1.622   0.186  11.659  0.1578 -0.9965 -0.6347
  356TMC3    C2 5329   1.720   0.198  11.559  0.2446 -0.2077  0.8199
  356TMC3    C3 5330   1.826   0.120  11.575  0.3570  0.3495  0.7043
  356TMC3    C4 5331   1.627   0.091  11.762  0.8180 -0.0474  0.5165
  356TMC3    C5 5332   1.736   0.008  11.753  0.1793  0.5493  0.1211
  356TMC3    C6 5333   1.839   0.025  11.668 -0.0264  0.1938  0.1498
  356TMC3     C 5334   1.510   0.283  11.650  0.0915 -0.2226 -0.1390
  356TMC3     O 5335   1.521   0.375  11.569  0.3246  0.4571 -0.2664
  356TMC3     H 5336   1.720   0.265  11.474 -0.2746 -1.6196 -0.2847
  356TMC3    H1 5337   1.552   0.070  11.837  0.9220  0.0223  0.6386
  356TMC3    H2 5338   1.927   4.689  11.677  1.3626  1.9223 -1.4163
  356TMC3    C7 5339   1.777   4.661  11.875 -0.1607  0.3665  0.5473
  356TMC3    C8 5340   1.945   0.151  11.497 -0.0407  0.8311  0.5164
  356TMC3    O1 5341   1.856   4.568  11.854 -0.3044  0.2402 -0.8776
  356TMC3    O2 5342   2.020   0.060  11.464  0.5219  0.8310 -0.4611
  357MPD2     C 5343   0.666   0.203   1.258  0.2666  0.4153  0.2618
  357MPD2    C1 5344   0.587   0.099   1.208 -0.8231 -0.2379 -0.1555
  357MPD2    C2 5345   0.447   0.118   1.205  0.9617  0.4198 -0.1718
  357MPD2    C3 5346   0.391   0.233   1.254 -0.3757 -0.1553 -0.1815
  357MPD2    C4 5347   0.472   0.326   1.321 -0.1678  0.0041  0.3245
  357MPD2    C5 5348   0.609   0.310   1.321  0.4360 -0.6597 -0.7287
  357MPD2     H 5349   0.389   0.046   1.149 -1.2681  0.5567  1.9728
  357MPD2    H1 5350   0.435   0.409   1.380 -0.0999 -0.4425  0.9971
  357MPD2    H2 5351   0.773   0.196   1.266  0.2076 -0.6331  0.1103
  357MPD2    H3 5352   0.670   0.381   1.376 -0.3997  1.4164 -2.4945
  357MPD2     N 5353   0.259   0.261   1.239 -0.3526  0.2335 -0.6877
  357MPD2    H5 5354   0.234   0.351   1.277  0.5475  0.3676 -0.4045
  357MPD2    N1 5355   0.652   4.713   1.150 -0.1044 -0.9438  0.2798
  357MPD2    H7 5356   0.754   4.713   1.157  0.1690  2.2214 -3.8731
  358TMC3    C1 5357   0.704   4.506   1.036  0.3481 -0.2668 -0.3129
  358TMC3    C2 5358   0.691   4.439   0.916 -0.3653 -0.2486  0.7329
  358TMC3    C3 5359   0.793   4.369   0.864 -0.3968 -0.1104 -0.2843
  358TMC3    C4 5360   0.822   4.503   1.100  0.5730 -0.0823  0.3593
  358TMC3    C5 5361   0.917   4.429   1.048 -0.3612  0.4422  0.0822
  358TMC3    C6 5362   0.912   4.367   0.926  0.3575  0.0670  0.2140
  358TMC3     C 5363   0.604   4.601   1.078  0.0418  0.1285  0.3002
  358TMC3     O 5364   0.491   4.568   1.055 -0.5164 -0.2782  0.1682
  358TMC3     H 5365   0.599   4.459   0.864  0.4952 -0.1412 -0.7407
  358TMC3    H1 5366   0.828   4.548   1.198 -1.7278 -0.1774  0.5407
  358TMC3    H2 5367   0.995   4.302   0.898  1.4614  1.1599  0.9528
  358TMC3    C7 5368   1.026   4.378   1.132 -0.3165  0.6051 -0.3806
  358TMC3    C8 5369   0.794   4.322   0.733 -0.1348  1.0480  0.1108
  358TMC3    O1 5370   1.127   4.335   1.077  0.5674 -0.1843  0.0733
  358TMC3    O2 5371   0.891   4.357   0.662 -0.0003 -0.4225 -0.1387
  359MPD2     C 5372   1.384   3.477  12.499  0.3814  0.1666  0.0113
  359MPD2    C1 5373   1.266   3.486  12.425 -0.1889 -0.2685  0.6751
  359MPD2    C2 5374   1.149   3.442  12.483  0.0306 -0.1801  0.9823
  359MPD2    C3 5375   1.157   3.383  12.613  0.0968 -0.1800  0.8563
  359MPD2    C4 5376   1.273   3.384  12.682 -0.1476  0.3562 -0.6075
  359MPD2    C5 5377   1.393   3.426  12.627  0.5090 -0.8054 -0.9205
  359MPD2     H 5378   1.060   3.439  12.423  0.2265  0.7485  0.6491
  359MPD2    H1 5379   1.279   3.359  12.787  1.7752  3.3115  0.0013
  359MPD2    H2 5380   1.473   3.512  12.448  0.1489 -0.2441 -0.6830
  359MPD2    H3 5381   1.486   3.411  12.680 -0.1124 -0.2206  0.3317
  359MPD2     N 5382   1.037   3.334  12.684  0.2603  0.0179 -0.2912
  359MPD2    H5 5383   1.060   3.292  12.773 -1.5635 -1.5450 -0.5549
  359MPD2    N1 5384   1.267   3.550  12.300  0.5179  0.7654  0.1661
  359MPD2    H7 5385   1.350   3.606  12.281 -0.2738  1.8413 -0.1548
  360TMC3    C1 5386   1.215   3.621  12.075 -0.0409 -0.8716  0.0353
  360TMC3    C2 5387   1.285   3.739  12.078 -0.1294  0.2648  0.1077
  360TMC3    C3 5388   1.302   3.807  11.961  0.2101 -0.3322 -0.4381
  360TMC3    C4 5389   1.177   3.563  11.953 -0.7179  0.0565  0.6997
  360TMC3    C5 5390   1.197   3.635  11.836 -0.0577 -0.2240  0.3601
  360TMC3    C6 5391   1.257   3.755  11.838 -0.4039 -0.5061 -0.1502
  360TMC3     C 5392   1.181   3.548  12.196 -0.6058  0.1311  0.2744
  360TMC3     O 5393   1.081   3.476  12.191 -0.2307 -0.2565 -0.4366
  360TMC3     H 5394   1.290   3.797  12.169 -2.3407 -0.7072  0.8576
  360TMC3    H1 5395   1.127   3.467  11.948 -1.4446  0.5433 -1.0524
  360TMC3    H2 5396   1.292   3.805  11.749  1.1865 -0.9844  0.2126
  360TMC3    C7 5397   1.162   3.582  11.704  0.7760  0.4422  0.5280
  360TMC3    C8 5398   1.411   3.904  11.957  0.4263 -0.5174 -0.1216
  360TMC3    O1 5399   1.146   3.671  11.622  0.4420  0.0008 -0.3181
  360TMC3    O2 5400   1.395   4.018  11.911  0.0986 -0.3426 -0.2181
  361MPD2     C 5401   2.802   2.485  17.578  0.0579 -0.3399  0.2655
  361MPD2    C1 5402   2.767   2.392  17.482 -0.2514 -0.4060 -0.3551
  361MPD2    C2 5403   2.867   2.299  17.441  0.4300 -0.2510  0.9790
  361MPD2    C3 5404   3.001   2.311  17.487  0.4626  0.2117 -0.0393
  361MPD2    C4 5405   3.032   2.409  17.576 -0.1499  0.3257 -0.0576
  361MPD2    C5 5406   2.940   2.500  17.613  0.1157 -0.8367 -0.1573
  361MPD2     H 5407   2.845   2.213  17.378 -1.6309  1.0312 -0.0156
  361MPD2    H1 5408   3.134   2.415  17.609 -0.5036  0.9446  0.9156
  361MPD2    H2 5409   2.725   2.552  17.616  0.7772 -0.1241  1.3688
  361MPD2    H3 5410   2.966   2.574  17.688 -0.8342  1.9578 -2.5474
  361MPD2     N 5411   3.108   2.219  17.469  0.3614  0.2264  0.5133
  361MPD2    H5 5412   3.189   2.229  17.530 -0.6523 -1.7898  2.1754
  361MPD2    N1 5413   2.635   2.394  17.435  0.1258  0.3823 -0.0167
  361MPD2    H7 5414   2.573   2.465  17.474  2.7026  2.0032  1.1330
  362TMC3    C1 5415   2.456   2.370  17.303  0.4169  0.0310  0.5608
  362TMC3    C2 5416   2.370   2.376  17.409  0.1431  0.0900  0.0338
  362TMC3    C3 5417   2.249   2.434  17.385  0.0879  0.0091 -0.0119
  362TMC3    C4 5418   2.427   2.412  17.173  0.5594 -0.4210 -0.2069
  362TMC3    C5 5419   2.311   2.475  17.157  0.0715 -0.0070 -0.2735
  362TMC3    C6 5420   2.224   2.494  17.260 -0.6044  0.0085  0.5727
  362TMC3     C 5421   2.589   2.333  17.326 -0.1938 -0.0196  0.4336
  362TMC3     O 5422   2.657   2.272  17.247 -0.5438  0.3519 -1.1192
  362TMC3     H 5423   2.393   2.344  17.510 -3.7275 -0.1589  0.8385
  362TMC3    H1 5424   2.515   2.433  17.114  0.6047 -0.0553 -0.0114
  362TMC3    H2 5425   2.126   2.534  17.235 -1.0940 -2.1656 -1.0625
  362TMC3    C7 5426   2.287   2.550  17.035 -0.2564  0.3837  0.1677
  362TMC3    C8 5427   2.135   2.387  17.456 -0.1428  0.8849  0.1104
  362TMC3    O1 5428   2.229   2.659  17.047  0.1660  0.0262  0.4035
  362TMC3    O2 5429   2.122   2.266  17.465  0.0580  0.3464 -0.7625
  363TMC3    C1 5430   1.610   0.632  10.395  0.2188 -0.1260 -0.1108
  363TMC3    C2 5431   1.611   0.500  10.430  0.1698  0.0017 -0.3109
  363TMC3    C3 5432   1.493   0.432  10.415  0.7629  0.4570 -0.2555
  363TMC3    C4 5433   1.501   0.696  10.342  0.2193 -0.2913  0.1162
  363TMC3    C5 5434   1.388   0.615  10.316 -0.5562 -0.1741  0.4528
  363TMC3    C6 5435   1.379   0.486  10.362  0.1270 -0.3246  0.0969
  363TMC3     C 5436   1.727   0.709  10.425 -0.4128  0.3529 -0.1079
  363TMC3     O 5437   1.822   0.646  10.461 -0.2279  0.5581 -0.6687
  363TMC3     H 5438   1.708   0.458  10.455 -0.1525  0.7668  2.2686
  363TMC3    H1 5439   1.515   0.784  10.280 -1.5928 -0.0482  0.0630
  363TMC3    H2 5440   1.283   0.435  10.358 -1.0145  1.7890  0.1969
  363TMC3    C7 5441   1.314   0.662  10.202 -0.0955 -0.0754 -0.1380
  363TMC3    C8 5442   1.481   0.285  10.444 -0.1399  0.3251 -0.1920
  363TMC3    O1 5443   1.313   0.783  10.173 -0.3460 -0.1480  0.5914
  363TMC3    O2 5444   1.381   0.216  10.431  0.1976 -0.1950  0.5659
  364MPD2     C 5445   0.830   0.318  10.194  0.0070  0.2086  0.0156
  364MPD2    C1 5446   0.720   0.237  10.189  0.1456 -0.0508 -0.1566
  364MPD2    C2 5447   0.745   0.099  10.177 -0.8853  0.2620 -0.0407
  364MPD2    C3 5448   0.870   0.050  10.194 -0.1831 -0.0124 -0.2886
  364MPD2    C4 5449   0.980   0.138  10.207  0.1509  0.6999 -0.0237
  364MPD2    C5 5450   0.959   0.273  10.199  0.4376 -0.6757  0.0639
  364MPD2     H 5451   0.657   0.036  10.181  1.9947 -3.8632 -2.1443
  364MPD2    H1 5452   1.083   0.107  10.221 -0.3420 -0.1377  1.6976
  364MPD2    H2 5453   0.813   0.425  10.192  0.6909  0.2747 -2.0628
  364MPD2    H3 5454   1.045   0.337  10.183 -0.2700  0.1005 -0.6332
  364MPD2     N 5455   0.894   4.636  10.209  0.5149  0.2230 -0.1320
  364MPD2    H5 5456   0.994   4.630  10.229  0.4389  1.2659  0.5812
  364MPD2    N1 5457   0.589   0.289  10.180 -0.4924  0.0752 -0.6374
  364MPD2    H7 5458   0.575   0.384  10.211 -0.6842  0.3341 -1.5403
  365TMC3    C1 5459   0.348   0.287  10.186 -0.2522 -0.2991  0.7755
  365TMC3    C2 5460   0.239   0.197  10.180  0.1400 -0.2695 -0.0560
  365TMC3    C3 5461   0.133   0.229  10.262  0.1408 -1.0348 -0.3903
  365TMC3    C4 5462   0.341   0.397  10.272  0.1208 -0.4856 -0.9142
  365TMC3    C5 5463   0.230   0.424  10.346  0.1503 -0.1025 -0.2051
  365TMC3    C6 5464   0.124   0.333  10.347  0.1626  0.2150 -0.2391
  365TMC3     C 5465   0.477   0.221  10.137  0.1244 -0.9498 -0.0397
  365TMC3     O 5466   0.459   0.125  10.062  0.3932  0.0742 -0.4077
  365TMC3     H 5467   0.243   0.105  10.123  1.8106  0.0007 -0.3605
  365TMC3    H1 5468   0.428   0.460  10.282  0.1672 -0.3964 -1.8105
  365TMC3    H2 5469   0.041   0.351  10.413  1.1221  2.2951  0.4004
  365TMC3    C7 5470   0.258   0.494  10.470 -0.2420 -0.1792  0.0320
  365TMC3    C8 5471   0.037   0.126  10.289  0.1787 -0.0240  0.4203
  365TMC3    O1 5472   0.332   0.595  10.458 -0.2668  0.1734 -0.4859
  365TMC3    O2 5473   4.650   0.161  10.315  0.7380 -0.4112  0.2054
  366MPD2     C 5474   2.935   0.147  15.758  0.1464 -0.3732  0.6016
  366MPD2    C1 5475   2.998   0.229  15.668  0.1921 -0.9904 -0.8284
  366MPD2    C2 5476   3.077   0.167  15.570 -0.0469 -0.1813  0.3901
  366MPD2    C3 5477   3.079   0.033  15.548  0.0228  0.0653 -0.4624
  366MPD2    C4 5478   3.005   4.679  15.635  0.7939 -0.3369  1.2598
  366MPD2    C5 5479   2.936   0.010  15.736 -0.4714  0.2376 -0.1948
  366MPD2     H 5480   3.144   0.229  15.512 -1.7545  2.7623  1.6003
  366MPD2    H1 5481   3.004   4.571  15.631 -0.6743 -0.3519  2.1562
  366MPD2    H2 5482   2.867   0.182  15.835  0.3824 -2.2780  1.6765
  366MPD2    H3 5483   2.890   4.664  15.802  1.3258 -0.8486 -0.1227
  366MPD2     N 5484   3.173   4.713  15.451 -0.0945 -0.2644  0.1942
  366MPD2    H5 5485   3.215   0.056  15.390  2.0452 -1.9613 -0.2806
  366MPD2    N1 5486   2.996   0.369  15.692  0.7397  0.6584  0.9450
  366MPD2    H7 5487   2.946   0.393  15.777 -0.3260 -0.5226  0.6496
  367TMC3    C1 5488   3.002   0.599  15.648  0.3174  0.5073 -0.8450
  367TMC3    C2 5489   3.069   0.635  15.764  0.1597 -0.2201 -0.2127
  367TMC3    C3 5490   3.092   0.761  15.793 -0.0457  0.4044  0.2504
  367TMC3    C4 5491   2.963   0.696  15.561  0.0112  0.0283 -0.4368
  367TMC3    C5 5492   2.990   0.832  15.593  0.0690 -0.3973  0.8682
  367TMC3    C6 5493   3.048   0.862  15.717 -0.1447  0.1664  0.6014
  367TMC3     C 5494   3.022   0.466  15.599  0.5722  0.3413 -0.1078
  367TMC3     O 5495   3.046   0.443  15.483  0.3264  0.9630  0.1881
  367TMC3     H 5496   3.112   0.558  15.826 -2.5244 -0.8402  0.8782
  367TMC3    H1 5497   2.909   0.657  15.475  0.7344 -2.3248  0.1761
  367TMC3    H2 5498   3.061   0.964  15.752  0.0581  0.3888 -0.1093
  367TMC3    C7 5499   2.981   0.934  15.498  0.8071 -0.5369  0.5047
  367TMC3    C8 5500   3.230   0.778  15.843 -0.7161  0.0525  0.2599
  367TMC3    O1 5501   3.026   1.045  15.520  0.4117 -0.5670 -0.0080
  367TMC3    O2 5502   3.298   0.685  15.887  0.0193 -0.0193  0.4821
  368MPD2     C 5503   0.237   1.991  13.057 -0.2636  0.5683 -0.7627
  368MPD2    C1 5504   0.271   2.121  13.064  0.8841 -0.1885  0.2230
  368MPD2    C2 5505   0.404   2.147  13.057  0.0829  0.0027 -0.0201
  368MPD2    C3 5506   0.493   2.047  13.036  0.1931 -0.4054  0.0978
  368MPD2    C4 5507   0.458   1.912  13.024  0.0368  0.8122 -0.5661
  368MPD2    C5 5508   0.321   1.883  13.026 -0.3162  0.1961 -0.0368
  368MPD2     H 5509   0.440   2.247  13.077 -0.7273  0.2635  0.1191
  368MPD2    H1 5510   0.531   1.834  13.009  0.4733  1.3729 -1.4072
  368MPD2    H2 5511   0.129   1.976  13.051  0.0111 -2.5872  1.8275
  368MPD2    H3 5512   0.288   1.785  12.994  0.3230  0.4195 -1.3684
  368MPD2     N 5513   0.633   2.072  13.040  0.4160  0.6804  0.1112
  368MPD2    H5 5514   0.693   1.997  13.008  1.9288  1.9552 -0.0543
  368MPD2    N1 5515   0.168   2.216  13.081  0.9618 -0.4222  0.4202
  368MPD2    H7 5516   0.071   2.189  13.070  0.6816  1.3810 -1.5869
  369TMC3    C1 5517   0.077   2.433  13.104  0.0469  0.2768 -0.4590
  369TMC3    C2 5518   0.092   2.563  13.066 -0.5676 -0.1864 -0.2451
  369TMC3    C3 5519   4.697   2.630  13.044  0.6590  0.3287 -1.5541
  369TMC3    C4 5520   4.683   2.371  13.138 -0.0756  0.0257 -0.1254
  369TMC3    C5 5521   4.569   2.444  13.115  0.2854  0.5367 -0.1754
  369TMC3    C6 5522   4.570   2.574  13.080  0.0860 -0.4534  0.6798
  369TMC3     C 5523   0.195   2.351  13.097 -0.6931 -0.1326 -0.0421
  369TMC3     O 5524   0.300   2.413  13.093  0.0946  0.3511  0.1626
  369TMC3     H 5525   0.188   2.614  13.058 -0.6362 -0.0411 -0.1380
  369TMC3    H1 5526   4.687   2.267  13.168  2.1756  0.2555  0.3989
  369TMC3    H2 5527   4.480   2.634  13.082  1.4863  1.6739  0.2426
  369TMC3    C7 5528   4.460   2.393  13.197 -0.0855 -0.9106 -0.6912
  369TMC3    C8 5529   4.685   2.762  12.980 -0.0196 -1.0104  0.3268
  369TMC3    O1 5530   4.478   2.282  13.254  0.2564  0.0758 -0.1423
  369TMC3    O2 5531   4.572   2.795  12.957 -0.1368  0.1300 -0.2612
  370TMC3    C1 5532   4.388   3.007  16.653 -0.1168 -0.2660 -0.6014
  370TMC3    C2 5533   4.309   2.978  16.754  0.9490  0.0690  0.0614
  370TMC3    C3 5534   4.191   2.903  16.737 -0.1753  0.1506 -0.4669
  370TMC3    C4 5535   4.368   2.961  16.528  0.2860  0.8047 -0.2229
  370TMC3    C5 5536   4.249   2.895  16.504  0.1341  0.5056 -0.4725
  370TMC3    C6 5537   4.168   2.863  16.611 -0.0096  0.1325  0.3929
  370TMC3     C 5538   4.517   3.074  16.684  0.6255 -0.3834  0.5326
  370TMC3     O 5539   4.549   3.075  16.805  0.2075  0.0057 -0.0149
  370TMC3     H 5540   4.332   3.026  16.849  1.7322 -1.7004  0.7579
  370TMC3    H1 5541   4.437   2.980  16.447 -1.5054  0.0743 -1.9258
  370TMC3    H2 5542   4.080   2.801  16.600  0.0715  0.6219 -3.1075
  370TMC3    C7 5543   4.252   2.804  16.396 -0.0987 -0.8856  0.7183
  370TMC3    C8 5544   4.120   2.835  16.847  0.3040  0.1704  0.7715
  370TMC3    O1 5545   4.357   2.787  16.338 -0.4024  0.0876 -0.2404
  370TMC3    O2 5546   4.053   2.731  16.831 -0.3751 -0.0760 -0.4972
  371TMC3    C1 5547   0.122   1.034  15.955  0.6112 -0.3354 -0.1875
  371TMC3    C2 5548   0.003   1.046  15.895 -0.6962 -0.5195 -0.4018
  371TMC3    C3 5549   4.700   1.158  15.818 -0.1773 -0.5871 -0.0460
  371TMC3    C4 5550   0.221   1.122  15.921  0.6895  0.1094 -0.1234
  371TMC3    C5 5551   0.189   1.230  15.843 -0.9592 -0.6235  0.0891
  371TMC3    C6 5552   0.060   1.261  15.802  0.1329  0.4613 -0.1178
  371TMC3     C 5553   0.146   0.940  16.066 -0.6622  0.8338 -0.1248
  371TMC3     O 5554   0.263   0.929  16.099  0.4046 -0.3502 -0.3437
  371TMC3     H 5555   4.642   0.990  15.928  0.4795 -1.1184  1.6727
  371TMC3    H1 5556   0.322   1.107  15.955  1.7374  0.8669 -2.8733
  371TMC3    H2 5557   0.038   1.353  15.749 -1.0822 -0.5902 -1.4010
  371TMC3    C7 5558   0.294   1.323  15.803 -0.2507 -0.3385  0.6882
  371TMC3    C8 5559   4.561   1.199  15.809 -0.4215 -0.0090  0.0454
  371TMC3    O1 5560   0.253   1.433  15.773  0.2304 -0.1864 -0.3503
  371TMC3    O2 5561   4.480   1.107  15.798 -0.3420  0.4792  0.4663
  372MPD2     C 5562   0.008   2.706  13.417  0.3452 -0.2006 -0.0010
  372MPD2    C1 5563   0.108   2.633  13.482  0.8128 -0.1686  0.0764
  372MPD2    C2 5564   0.068   2.527  13.558 -0.3161 -0.3810 -0.8010
  372MPD2    C3 5565   4.661   2.487  13.573 -0.3051 -0.8602 -0.2224
  372MPD2    C4 5566   4.566   2.562  13.498  0.1233  0.5720  0.0228
  372MPD2    C5 5567   4.606   2.672  13.423 -0.0597  0.0951 -0.2222
  372MPD2     H 5568   0.142   2.460  13.601 -0.5625 -0.5494 -0.6421
  372MPD2    H1 5569   4.462   2.549  13.525  0.2440 -1.9345 -0.7399
  372MPD2    H2 5570   0.023   2.799  13.363  1.5302  1.0821  2.4837
  372MPD2    H3 5571   4.530   2.733  13.376 -1.1418 -2.5197 -1.8480
  372MPD2     N 5572   4.632   2.380  13.652 -0.1056 -0.3949 -0.5270
  372MPD2    H5 5573   4.713   2.340  13.697  0.2724  0.2236 -0.6516
  372MPD2    N1 5574   0.245   2.652  13.452 -0.2041  0.5587  0.5393
  372MPD2    H7 5575   0.309   2.589  13.499  0.3863  1.4254  0.8932
  373TMC3    C1 5576   4.545   2.197  13.758  1.3276  0.5000  0.0866
  373TMC3    C2 5577   4.554   2.227  13.891 -0.3457 -0.0283  0.7300
  373TMC3    C3 5578   4.616   2.142  13.983  0.9272 -1.0090 -0.3200
  373TMC3    C4 5579   4.614   2.092  13.706  0.3125 -0.0907 -0.0503
  373TMC3    C5 5580   4.688   2.015  13.792 -0.2355  0.3485 -0.1837
  373TMC3    C6 5581   4.685   2.042  13.924  0.9889 -0.6320  0.0758
  373TMC3     C 5582   4.517   2.310  13.668  0.2510 -0.3356  0.3353
  373TMC3     O 5583   4.425   2.292  13.591 -0.1684  0.1376 -0.2231
  373TMC3     H 5584   4.509   2.322  13.917  0.1623 -0.0575  1.7365
  373TMC3    H1 5585   4.617   2.092  13.598  2.0101  0.0212 -0.0038
  373TMC3    H2 5586   0.020   1.982  13.989  1.0117 -0.1990  0.4548
  373TMC3    C7 5587   0.047   1.911  13.733  0.2950 -0.6358 -0.7734
  373TMC3    C8 5588   4.665   2.197  14.112  0.4576  0.3155  0.3609
  373TMC3    O1 5589   0.025   1.879  13.616 -0.1343  0.1050 -0.4438
  373TMC3    O2 5590   0.052   2.161  14.144 -0.0682  0.3705 -0.1972
  374TMC3    C1 5591   0.896   2.510  10.127 -0.3949 -0.2078  0.6409
  374TMC3    C2 5592   1.027   2.483  10.096  0.2265 -0.2988  1.2337
  374TMC3    C3 5593   1.059   2.472   9.968 -0.4745  0.3314 -1.0195
  374TMC3    C4 5594   0.802   2.556  10.032 -0.0179  0.1577  0.8540
  374TMC3    C5 5595   0.844   2.540   9.901  0.2257 -0.0474  0.0197
  374TMC3    C6 5596   0.970   2.496   9.868  0.1053  0.8513  0.6444
  374TMC3     C 5597   0.882   2.558  10.258 -0.1391  0.2745  0.3167
  374TMC3     O 5598   0.978   2.611  10.310  0.1493  0.5438 -0.3707
  374TMC3     H 5599   1.098   2.443  10.167  0.4027 -0.7647  0.7996
  374TMC3    H1 5600   0.712   2.602  10.070 -1.3274 -0.8699 -0.9618
  374TMC3    H2 5601   1.016   2.500   9.770  0.9347 -1.1765  0.9592
  374TMC3    C7 5602   0.744   2.558   9.798 -0.5660 -0.6747 -0.0724
  374TMC3    C8 5603   1.196   2.523   9.940 -0.0672 -0.4633  0.3927
  374TMC3    O1 5604   0.634   2.596   9.844  0.0564  0.1656  0.1646
  374TMC3    O2 5605   1.247   2.503   9.826  0.3640  0.2640  0.4688
  375MPD2     C 5606   0.722   3.784  16.930 -0.8063 -0.3710  0.2306
  375MPD2    C1 5607   0.697   3.664  16.984 -0.1054 -0.9484 -0.1739
  375MPD2    C2 5608   0.726   3.544  16.915 -0.0711 -0.2678 -0.0981
  375MPD2    C3 5609   0.775   3.551  16.787  0.3562 -0.3041  0.7759
  375MPD2    C4 5610   0.796   3.680  16.735  0.2256  0.0829  0.0729
  375MPD2    C5 5611   0.771   3.794  16.803  0.1735 -0.4167 -0.5937
  375MPD2     H 5612   0.708   3.448  16.962 -2.4486 -0.8196 -2.1632
  375MPD2    H1 5613   0.847   3.686  16.639  0.2586 -1.4763 -0.0073
  375MPD2    H2 5614   0.709   3.875  16.987  2.1919 -0.6000  1.2597
  375MPD2    H3 5615   0.799   3.890  16.762  2.9545  0.6370  3.7703
  375MPD2     N 5616   0.819   3.442  16.712 -0.6250  0.3942  0.3828
  375MPD2    H5 5617   0.834   3.459  16.613 -1.2846  0.4038  0.2836
  375MPD2    N1 5618   0.646   3.647  17.117 -0.1902 -0.6372 -0.1748
  375MPD2    H7 5619   0.630   3.552  17.149 -1.0516  0.3026  2.2067
  376TMC3    C1 5620   0.874   3.216  16.664  0.1850 -0.1525 -0.4969
  376TMC3    C2 5621   0.955   3.112  16.702 -0.0069  0.4812  0.0124
  376TMC3    C3 5622   0.998   3.019  16.610 -0.3386  1.0701  0.0423
  376TMC3    C4 5623   0.820   3.216  16.538  0.2534 -0.2801 -0.7091
  376TMC3    C5 5624   0.863   3.116  16.452  0.0322  1.0242  0.2632
  376TMC3    C6 5625   0.958   3.023  16.480 -0.7371 -0.0902 -0.7706
  376TMC3     C 5626   0.821   3.314  16.758  0.7048 -0.1144  0.4172
  376TMC3     O 5627   0.819   3.275  16.873 -0.2592 -0.6328  0.4643
  376TMC3     H 5628   0.985   3.112  16.806 -1.9581 -0.6238  0.5796
  376TMC3    H1 5629   0.753   3.296  16.507 -0.4882  0.3307  2.4605
  376TMC3    H2 5630   0.993   2.966  16.394 -0.3661 -1.7445  0.4744
  376TMC3    C7 5631   0.805   3.127  16.320 -0.6927  0.3636  0.7201
  376TMC3    C8 5632   1.125   2.957  16.631 -0.4268 -0.4340  0.5805
  376TMC3    O1 5633   0.770   3.239  16.294 -0.0915 -0.3415 -0.2539
  376TMC3    O2 5634   1.194   2.926  16.537  0.4914  0.1391 -0.0016
  377MPD2     C 5635   3.609   2.170  12.559  0.1665  0.8502  0.0485
  377MPD2    C1 5636   3.653   2.266  12.647  0.1712 -0.1495  0.3156
  377MPD2    C2 5637   3.635   2.238  12.784  0.3519 -0.2966 -0.5754
  377MPD2    C3 5638   3.571   2.125  12.830  0.0761 -0.3986 -1.1631
  377MPD2    C4 5639   3.531   2.036  12.737 -0.5852  0.2985  0.4818
  377MPD2    C5 5640   3.555   2.053  12.605  0.0000 -0.2968 -0.4021
  377MPD2     H 5641   3.659   2.313  12.858  0.8763 -0.7672 -0.2755
  377MPD2    H1 5642   3.478   1.945  12.761  0.1491 -0.1422  0.4273
  377MPD2    H2 5643   3.636   2.189  12.456 -1.7288 -0.7463 -0.7446
  377MPD2    H3 5644   3.511   1.975  12.544 -0.4344 -1.6389  1.5950
  377MPD2     N 5645   3.544   2.090  12.960  0.3667 -0.3138 -0.0994
  377MPD2    H5 5646   3.517   1.993  12.975 -1.1562 -0.0518 -1.1105
  377MPD2    N1 5647   3.715   2.378  12.590  0.8189  0.0214  0.3186
  377MPD2    H7 5648   3.714   2.386  12.488 -0.6803 -2.2671  0.1467
  378TMC3    C1 5649   3.819   2.702  12.375  0.5037 -0.5708 -0.8120
  378TMC3    C2 5650   3.759   2.605  12.452  0.3007  0.0914 -0.1198
  378TMC3    C3 5651   3.819   2.581  12.579 -0.7134 -0.7316 -0.4737
  378TMC3    C4 5652   3.937   2.754  12.410 -0.2382 -1.0575 -0.0809
  378TMC3    C5 5653   3.987   2.729  12.535 -0.1780 -0.4457 -1.0138
  378TMC3    C6 5654   3.929   2.643  12.622 -0.3806  0.2099  0.1225
  378TMC3     C 5655   3.740   2.761  12.269 -0.0796  0.3569  0.1995
  378TMC3     O 5656   3.635   2.708  12.242 -0.0364 -0.3677  0.4358
  378TMC3     H 5657   3.660   2.567  12.430  0.7631 -0.8320 -0.5881
  378TMC3    H1 5658   3.979   2.826  12.341 -0.5590 -1.4329 -0.6669
  378TMC3    H2 5659   3.981   2.613  12.712 -1.4006 -2.9818 -0.3455
  378TMC3    C7 5660   4.122   2.778  12.573  0.2131 -0.2441 -0.2635
  378TMC3    C8 5661   3.779   2.475  12.663 -0.2450  0.0529  1.0296
  378TMC3    O1 5662   4.167   2.735  12.678 -0.0162 -0.6568 -0.3472
  378TMC3    O2 5663   3.811   2.473  12.782  0.2535 -0.4463  0.8108
  379MPD2     C 5664   4.461   0.895  16.331 -1.3890  0.0439  0.0248
  379MPD2    C1 5665   4.352   0.806  16.336  0.1462 -0.0277  0.6835
  379MPD2    C2 5666   4.337   0.711  16.438 -0.4266  0.0848  0.1110
  379MPD2    C3 5667   4.433   0.711  16.540  0.2668 -0.2265  0.3226
  379MPD2    C4 5668   4.537   0.801  16.527  0.1960  0.8140  0.2607
  379MPD2    C5 5669   4.550   0.895  16.433  0.2849  0.1500 -0.3248
  379MPD2     H 5670   4.255   0.640  16.441  1.3189 -1.9018  0.6053
  379MPD2    H1 5671   4.616   0.801  16.601 -0.8555 -0.8906  1.4026
  379MPD2    H2 5672   4.484   0.969  16.255  0.5123  2.4164  2.9080
  379MPD2    H3 5673   4.641   0.954  16.429 -0.0733  0.7787  0.5921
  379MPD2     N 5674   4.437   0.611  16.635 -0.1368 -1.1778  0.2477
  379MPD2    H5 5675   4.529   0.602  16.677  0.4813 -0.9629 -1.0721
  379MPD2    N1 5676   4.277   0.802  16.219 -0.1800  0.1511 -0.0905
  379MPD2    H7 5677   4.316   0.863  16.148  1.0668 -0.1620  0.3362
  380TMC3    C1 5678   4.118   0.759  16.062  0.4974  0.2718 -0.3758
  380TMC3    C2 5679   4.213   0.740  15.970  0.1712  0.8113  0.5021
  380TMC3    C3 5680   4.176   0.698  15.848 -0.2770 -0.0611 -0.5915
  380TMC3    C4 5681   3.987   0.752  16.036  0.5412  0.6711  0.4685
  380TMC3    C5 5682   3.951   0.749  15.905  0.2199 -0.5570  0.2361
  380TMC3    C6 5683   4.044   0.718  15.811 -0.2438  0.0411  0.2443
  380TMC3     C 5684   4.160   0.735  16.197  0.0278  0.4420  0.2860
  380TMC3     O 5685   4.082   0.667  16.265  0.1869  0.7428 -0.2031
  380TMC3     H 5686   4.318   0.738  15.995  0.3263 -2.6741 -0.4150
  380TMC3    H1 5687   3.909   0.779  16.107 -0.3148  0.0132 -0.2244
  380TMC3    H2 5688   4.012   0.725  15.708 -0.0117 -0.1116  0.1604
  380TMC3    C7 5689   3.867   0.859  15.859 -0.2366  0.0629  0.2420
  380TMC3    C8 5690   4.276   0.726  15.744 -0.0833  0.1619 -0.0025
  380TMC3    O1 5691   3.907   0.925  15.761  0.2006  0.2028 -0.4433
  380TMC3    O2 5692   4.233   0.771  15.637  0.2589  0.5128  1.2527
  381TMC3    C1 5693   3.846   2.108  16.613 -0.4424 -0.0920  0.6197
  381TMC3    C2 5694   3.932   2.210  16.581 -0.2965  0.2978  0.1395
  381TMC3    C3 5695   3.971   2.296  16.675 -0.2291  0.1382 -0.0976
  381TMC3    C4 5696   3.799   2.082  16.739  0.5649 -0.4346  0.1415
  381TMC3    C5 5697   3.845   2.169  16.830  0.1180  0.1618 -0.8736
  381TMC3    C6 5698   3.929   2.276  16.808  0.0094  0.1627 -0.1597
  381TMC3     C 5699   3.782   2.034  16.509  0.1343  0.9440  0.4310
  381TMC3     O 5700   3.773   1.913  16.525  0.4469 -0.6304  0.0682
  381TMC3     H 5701   3.974   2.223  16.482  1.2851  1.0530  0.9060
  381TMC3    H1 5702   3.740   1.992  16.752  0.8817 -0.9829 -2.1916
  381TMC3    H2 5703   3.985   2.325  16.886 -0.4582  0.7036 -0.1676
  381TMC3    C7 5704   3.825   2.127  16.968 -0.5896 -0.1446 -0.1342
  381TMC3    C8 5705   4.105   2.349  16.646  0.8203  0.3292 -0.5947
  381TMC3    O1 5706   3.764   2.018  16.982  0.7380  0.5190  0.8405
  381TMC3    O2 5707   4.164   2.295  16.552 -0.3606  0.1622 -0.3222
  382MPD2     C 5708   3.044   0.003  17.253 -0.7531 -0.4259 -0.0072
  382MPD2    C1 5709   3.024   0.026  17.390  0.0191  0.0203 -0.0237
  382MPD2    C2 5710   2.998   4.644  17.468 -0.1211 -0.2513  0.0290
  382MPD2    C3 5711   2.998   4.517  17.417 -0.1834  0.2940 -0.5694
  382MPD2    C4 5712   3.033   4.493  17.287 -0.3563  0.1228 -0.0484
  382MPD2    C5 5713   3.041   4.596  17.204 -0.1573  0.1915 -0.3906
  382MPD2     H 5714   2.994   4.661  17.575 -0.0726 -1.3875  0.2135
  382MPD2    H1 5715   3.039   4.394  17.245  1.2921  0.0967  0.2357
  382MPD2    H2 5716   3.049   0.082  17.178  1.0998 -0.9658 -0.4474
  382MPD2    H3 5717   3.053   4.576  17.099 -0.1545  0.8124 -0.5092
  382MPD2     N 5718   2.958   4.411  17.505 -0.1059 -0.1335  0.3227
  382MPD2    H5 5719   2.969   4.318  17.467  1.7974 -0.3305  1.3481
  382MPD2    N1 5720   3.038   0.150  17.455  0.4265  0.4298  0.0579
  382MPD2    H7 5721   3.043   0.132  17.554  1.1022 -1.7476 -0.3822
  383TMC3    C1 5722   2.852   4.296  17.696 -0.2308  0.0343  1.4074
  383TMC3    C2 5723   2.829   4.188  17.612 -0.4064 -0.1817  0.0374
  383TMC3    C3 5724   2.769   4.074  17.668  0.7994 -0.6739  0.2978
  383TMC3    C4 5725   2.813   4.302   0.121  0.3644 -0.1798 -0.5705
  383TMC3    C5 5726   2.746   4.190   0.161  0.0539 -0.5095  0.1060
  383TMC3    C6 5727   2.728   4.070   0.094  0.6071 -0.7077 -0.1799
  383TMC3     C 5728   2.905   4.417  17.632  0.9883  0.5772 -0.8416
  383TMC3     O 5729   2.899   4.518  17.695 -0.4775 -0.5799 -0.5339
  383TMC3     H 5730   2.845   4.199  17.505 -1.3837  1.7776  0.0926
  383TMC3    H1 5731   2.842   4.384   0.186  1.1033 -2.5895  2.1728
  383TMC3    H2 5732   2.651   4.000   0.124 -1.0061  1.5150  0.8571
  383TMC3    C7 5733   2.643   4.205   0.267  1.0555  0.1712  0.0902
  383TMC3    C8 5734   2.689   3.992  17.579  0.4044  0.2486  0.4208
  383TMC3    O1 5735   2.605   4.097   0.316  0.1575  0.0863  0.0696
  383TMC3    O2 5736   2.646   4.045  17.480 -0.4533  0.9904 -0.1041
  384MPD2     C 5737   0.334   1.228  12.561 -0.8398 -0.9347  0.9545
  384MPD2    C1 5738   0.285   1.105  12.603  0.2948 -0.3628  0.3112
  384MPD2    C2 5739   0.356   0.983  12.579  0.1424  0.0706 -0.5788
  384MPD2    C3 5740   0.480   0.983  12.518 -0.6498  0.7088 -0.1370
  384MPD2    C4 5741   0.530   1.105  12.479 -0.6085  0.7097 -0.6541
  384MPD2    C5 5742   0.460   1.223  12.508 -0.3825 -0.0075 -0.6392
  384MPD2     H 5743   0.311   0.890  12.611  2.3900 -0.4434  1.0193
  384MPD2    H1 5744   0.627   1.115  12.432  0.3327  0.5362  1.2786
  384MPD2    H2 5745   0.288   1.324  12.584 -1.9214 -1.5791  1.5059
  384MPD2    H3 5746   0.511   1.314  12.478  1.4390 -0.6620  0.4419
  384MPD2     N 5747   0.559   0.864  12.491 -0.1224 -0.9444 -0.2791
  384MPD2    H5 5748   0.635   0.881  12.426  1.4520 -0.8658  1.5901
  384MPD2    N1 5749   0.154   1.084  12.660 -0.4322 -0.2449  0.2722
  384MPD2    H7 5750   0.132   0.992  12.697  2.7366 -1.7815 -1.7177
  385TMC3    C1 5751   0.588   0.638  12.423  0.0688  0.0987  0.2966
  385TMC3    C2 5752   0.633   0.688  12.301  0.1253 -0.2232 -0.3014
  385TMC3    C3 5753   0.608   0.601  12.202  0.2336  0.0493  0.2585
  385TMC3    C4 5754   0.537   0.519  12.451 -0.2783 -1.0370 -0.0691
  385TMC3    C5 5755   0.488   0.452  12.341  0.7383 -0.3318  0.6338
  385TMC3    C6 5756   0.528   0.490  12.218 -0.1175 -0.2824 -1.0499
  385TMC3     C 5757   0.525   0.736  12.522 -0.3172 -0.4206  0.3583
  385TMC3     O 5758   0.442   0.698  12.603 -0.6574  0.2406  0.1623
  385TMC3     H 5759   0.660   0.792  12.282 -2.3364  0.6968  1.2201
  385TMC3    H1 5760   0.520   0.489  12.554 -0.5300  0.4429  0.3239
  385TMC3    H2 5761   0.503   0.423  12.137 -0.8899 -1.1569 -0.0924
  385TMC3    C7 5762   0.347   0.416  12.353 -0.1556 -0.2117  0.3417
  385TMC3    C8 5763   0.638   0.648  12.074  0.4752  0.6332 -0.4042
  385TMC3    O1 5764   0.282   0.355  12.268 -0.3956 -0.4074 -0.0068
  385TMC3    O2 5765   0.696   0.756  12.067  0.0416 -0.3464  0.0545
  386TMC3    C1 5766   0.661   3.077  12.204  0.5041  0.6657 -0.6099
  386TMC3    C2 5767   0.695   3.083  12.077 -0.3152  0.0364 -0.1091
  386TMC3    C3 5768   0.636   3.166  11.990 -1.0995 -0.4302  0.9501
  386TMC3    C4 5769   0.561   3.163  12.251  0.0884  0.4701 -0.0089
  386TMC3    C5 5770   0.494   3.241  12.163  0.2196  0.6325  0.2408
  386TMC3    C6 5771   0.529   3.252  12.027  0.0825  0.1634  0.1880
  386TMC3     C 5772   0.779   3.082  12.282 -0.2448  0.1009  0.4059
  386TMC3     O 5773   0.803   3.206  12.291 -0.3590 -0.2988  0.0842
  386TMC3     H 5774   0.791   3.043  12.047 -0.5117  1.0845 -2.0753
  386TMC3    H1 5775   0.521   3.167  12.352 -0.2505  1.2950 -0.1741
  386TMC3    H2 5776   0.472   3.318  11.963  1.3539  3.2708  2.2519
  386TMC3    C7 5777   0.372   3.304  12.219 -0.6413 -0.2592  0.2312
  386TMC3    C8 5778   0.641   3.148  11.847  0.2003 -0.7995 -0.0082
  386TMC3    O1 5779   0.341   3.296  12.337 -0.5666 -0.0410  0.1474
  386TMC3    O2 5780   0.563   3.219  11.782 -0.2863 -0.3199 -0.0221
  387MPD2     C 5781   2.584   2.848   9.829 -0.2151  0.1379 -0.0097
  387MPD2    C1 5782   2.715   2.813   9.822 -0.0606 -0.1544 -0.4253
  387MPD2    C2 5783   2.758   2.683   9.816  0.7517 -0.1298 -1.1282
  387MPD2    C3 5784   2.665   2.583   9.830 -0.0919  0.0507 -0.6852
  387MPD2    C4 5785   2.526   2.609   9.841  0.0702 -0.6685  0.3423
  387MPD2    C5 5786   2.490   2.745   9.829 -0.6714  0.2317  0.0277
  387MPD2     H 5787   2.864   2.663   9.819  0.6333 -0.3029  1.7998
  387MPD2    H1 5788   2.453   2.534   9.869 -1.1398  1.0612  1.8175
  387MPD2    H2 5789   2.543   2.948   9.837  2.6900  1.3709 -0.5817
  387MPD2    H3 5790   2.390   2.780   9.850 -0.4823 -0.4885  2.1779
  387MPD2     N 5791   2.721   2.459   9.873 -0.5266  0.2956 -0.5709
  387MPD2    H5 5792   2.821   2.445   9.871 -0.7158 -0.9506 -1.8044
  387MPD2    N1 5793   2.826   2.905   9.818  0.6157  0.1537 -1.0141
  387MPD2    H7 5794   2.917   2.861   9.813 -0.6802 -2.6244 -0.1328
  388TMC3    C1 5795   2.954   3.093   9.868 -0.3027  0.2824 -0.2031
  388TMC3    C2 5796   2.981   3.228   9.856 -0.0160 -0.1963  0.1002
  388TMC3    C3 5797   3.095   3.277   9.920  0.7872 -0.0058 -0.2331
  388TMC3    C4 5798   3.035   3.015   9.954 -1.0455 -0.4769  0.5831
  388TMC3    C5 5799   3.153   3.070   9.985  0.3845  0.2176 -0.2268
  388TMC3    C6 5800   3.192   3.199   9.978 -0.7364  0.5919  0.6914
  388TMC3     C 5801   2.820   3.043   9.823  0.4444 -0.5581  0.0088
  388TMC3     O 5802   2.730   3.125   9.798 -0.6109  0.4020  0.3054
  388TMC3     H 5803   2.909   3.295   9.811 -0.3405 -1.3080 -1.0535
  388TMC3    H1 5804   2.999   2.924  10.000 -0.6014 -0.2317  1.4150
  388TMC3    H2 5805   3.280   3.237  10.028 -1.9607 -0.7150  3.8064
  388TMC3    C7 5806   3.250   2.982  10.049  0.4893 -0.7941  0.1372
  388TMC3    C8 5807   3.099   3.421   9.942 -0.1317  0.1484 -0.9616
  388TMC3    O1 5808   3.320   3.034  10.134 -0.4584 -0.1706  0.5200
  388TMC3    O2 5809   3.025   3.495   9.879  0.9729  0.3380  0.1805
  389MPD2     C 5810   2.668   1.714  11.277 -0.8230 -0.1581 -0.6513
  389MPD2    C1 5811   2.588   1.637  11.201  0.0188  0.0119  0.7368
  389MPD2    C2 5812   2.496   1.555  11.266 -0.0449  0.5250 -0.3577
  389MPD2    C3 5813   2.499   1.541  11.404 -0.4302  0.1489  0.1620
  389MPD2    C4 5814   2.589   1.616  11.480 -0.7056  0.1173 -0.0441
  389MPD2    C5 5815   2.671   1.699  11.409 -0.7277 -0.0811 -0.5380
  389MPD2     H 5816   2.430   1.499  11.201  0.2749 -0.8403  0.4778
  389MPD2    H1 5817   2.589   1.614  11.588 -1.8533 -1.1643 -0.0612
  389MPD2    H2 5818   2.737   1.782  11.228  0.5629  0.3498  2.0320
  389MPD2    H3 5819   2.733   1.764  11.469 -0.0210  0.1846 -1.5543
  389MPD2     N 5820   2.410   1.468  11.489  0.9638 -0.0324 -0.0638
  389MPD2    H5 5821   2.419   1.467  11.590  1.3727  0.9987 -0.0924
  389MPD2    N1 5822   2.609   1.646  11.061  0.0982  0.5580 -0.1554
  389MPD2    H7 5823   2.662   1.727  11.033 -1.0811  1.1544 -0.6498
  390TMC3    C1 5824   2.210   1.365  11.552  0.6726  0.2842 -0.3140
  390TMC3    C2 5825   2.113   1.282  11.514 -0.2980  0.3714  0.6780
  390TMC3    C3 5826   1.995   1.269  11.593 -0.3285  0.1510 -0.3022
  390TMC3    C4 5827   2.198   1.451  11.658 -0.4684 -0.1875  0.3963
  390TMC3    C5 5828   2.088   1.434  11.740 -0.3086  0.4975  0.1138
  390TMC3    C6 5829   1.986   1.351  11.707  0.3446 -0.1331  0.4625
  390TMC3     C 5830   2.302   1.401  11.440 -0.2533  0.0416 -0.4542
  390TMC3     O 5831   2.262   1.374  11.325 -0.3422  0.6685  0.0161
  390TMC3     H 5832   2.120   1.224  11.423  0.8753  0.0162  0.9952
  390TMC3    H1 5833   2.271   1.527  11.680  1.7558 -2.0033 -0.6795
  390TMC3    H2 5834   1.898   1.352  11.771  1.9873 -0.6195  2.7397
  390TMC3    C7 5835   2.091   1.510  11.861 -0.3504 -0.5841 -0.0852
  390TMC3    C8 5836   1.887   1.200  11.534  0.1146 -0.3238  0.3157
  390TMC3    O1 5837   2.175   1.594  11.876 -0.1787 -0.0469 -0.0668
  390TMC3    O2 5838   1.915   1.123  11.442 -0.3728 -0.1274  0.4597
  391MPD2     C 5839   1.297   2.843  11.356 -0.2656 -0.2964 -0.1774
  391MPD2    C1 5840   1.373   2.956  11.336 -0.1870  0.7075 -0.3872
  391MPD2    C2 5841   1.424   2.984  11.213  0.5616 -0.2585 -0.1386
  391MPD2    C3 5842   1.382   2.905  11.101  0.2414  0.0547  0.6350
  391MPD2    C4 5843   1.291   2.801  11.119 -0.0215 -0.1932 -0.1348
  391MPD2    C5 5844   1.252   2.769  11.250 -0.2878 -0.5920 -0.2578
  391MPD2     H 5845   1.507   3.052  11.201  0.9320 -0.6428  0.2854
  391MPD2    H1 5846   1.256   2.731  11.044 -1.1983 -1.1420  1.3090
  391MPD2    H2 5847   1.246   2.836  11.452 -0.0057  1.3031  0.0777
  391MPD2    H3 5848   1.171   2.699  11.267  1.5655 -3.0977 -1.7677
  391MPD2     N 5849   1.435   2.939  10.973  0.0807  0.5443  0.3107
  391MPD2    H5 5850   1.497   3.019  10.966  1.5108 -0.5725  0.3512
  391MPD2    N1 5851   1.410   3.031  11.448 -1.0457 -0.0404  0.9255
  391MPD2    H7 5852   1.367   3.001  11.535  2.3190 -2.7092  1.6446
  392TMC3    C1 5853   1.451   2.966  10.733  0.1167 -0.0427 -0.6776
  392TMC3    C2 5854   1.391   2.942  10.614  0.3143 -0.5654  0.9037
  392TMC3    C3 5855   1.439   3.001  10.501 -0.1441 -0.3484 -0.5974
  392TMC3    C4 5856   1.563   3.047  10.744  0.6982 -0.0321 -0.1757
  392TMC3    C5 5857   1.613   3.104  10.628  0.3808  0.2707  0.0368
  392TMC3    C6 5858   1.555   3.081  10.504  0.0083  0.2498 -0.2087
  392TMC3     C 5859   1.397   2.884  10.848 -0.9755  0.9944  0.2529
  392TMC3     O 5860   1.310   2.811  10.818 -0.3152  0.2273 -0.4468
  392TMC3     H 5861   1.307   2.874  10.608 -0.6705  0.8901 -2.0670
  392TMC3    H1 5862   1.601   3.063  10.844  2.6170 -0.4199 -0.8514
  392TMC3    H2 5863   1.579   3.141  10.417 -0.6989 -1.1529 -1.3759
  392TMC3    C7 5864   1.741   3.175  10.640  0.3536  0.3339 -0.4399
  392TMC3    C8 5865   1.386   2.961  10.376  1.1929  0.2313 -0.3519
  392TMC3    O1 5866   1.785   3.173  10.754  0.0018 -0.1167  0.2319
  392TMC3    O2 5867   1.274   2.919  10.385  0.0734  0.3870  0.2112
  393TMC3    C1 5868   0.168   1.234  11.053 -0.4696  0.0193 -0.9644
  393TMC3    C2 5869   0.115   1.153  11.153  0.6642  0.0513  0.6428
  393TMC3    C3 5870   0.180   1.147  11.274  0.1457  0.2743  0.1872
  393TMC3    C4 5871   0.288   1.295  11.080 -0.3061 -0.1742  0.1814
  393TMC3    C5 5872   0.353   1.267  11.199 -0.6649 -0.6221  0.8167
  393TMC3    C6 5873   0.298   1.202  11.307 -0.6181 -0.6962  0.3342
  393TMC3     C 5874   0.102   1.282  10.933  0.3909 -0.7142  0.3284
  393TMC3     O 5875   0.159   1.358  10.857  0.0395 -0.6343 -0.2489
  393TMC3     H 5876   0.023   1.094  11.148  1.5210 -1.2702  0.4735
  393TMC3    H1 5877   0.329   1.362  11.005  0.5541  0.5236  1.2861
  393TMC3    H2 5878   0.351   1.179  11.399 -0.2257  1.3239  0.6267
  393TMC3    C7 5879   0.490   1.309  11.206  0.2032  0.1537 -0.1106
  393TMC3    C8 5880   0.129   1.053  11.371 -0.5556  0.0910 -0.0814
  393TMC3    O1 5881   0.521   1.360  11.314 -0.5563 -0.1006  0.1600
  393TMC3    O2 5882   0.059   0.961  11.329  0.1389 -0.2852 -0.0520
  394TMC3    C1 5883   2.589   1.598  10.829  0.1004  0.5018  0.0584
  394TMC3    C2 5884   2.511   1.557  10.726 -0.2627  0.1682 -0.8716
  394TMC3    C3 5885   2.546   1.603  10.599  0.2966 -0.3135 -0.0101
  394TMC3    C4 5886   2.701   1.667  10.807 -0.1071  0.3078 -0.3877
  394TMC3    C5 5887   2.729   1.709  10.680  0.0528 -0.4064  0.9408
  394TMC3    C6 5888   2.655   1.686  10.568 -0.8377  0.3397  0.3839
  394TMC3     C 5889   2.548   1.571  10.963 -0.1317 -0.0844  0.4391
  394TMC3     O 5890   2.460   1.488  10.976 -0.0963 -0.3599  0.0739
  394TMC3     H 5891   2.422   1.497  10.741 -0.1728  0.1642 -0.3671
  394TMC3    H1 5892   2.764   1.713  10.882  1.7051 -2.9885  0.1176
  394TMC3    H2 5893   2.682   1.710  10.466  1.5778  2.1393  1.4537
  394TMC3    C7 5894   2.859   1.774  10.667  0.5877 -0.8327  0.1110
  394TMC3    C8 5895   2.507   1.528  10.479  0.7644 -0.0163 -0.1184
  394TMC3    O1 5896   2.875   1.860  10.587  0.4414 -0.1425 -0.1552
  394TMC3    O2 5897   2.523   1.587  10.370 -0.2316  0.0628  0.5348
  395TMC3    C1 5898   1.879   3.380  14.805 -0.5644  0.5114  0.2912
  395TMC3    C2 5899   1.807   3.457  14.715 -0.2074  0.0225 -0.6851
  395TMC3    C3 5900   1.849   3.582  14.690  0.0000  0.0226 -1.3710
  395TMC3    C4 5901   1.982   3.434  14.873 -0.4190  0.0412 -0.4617
  395TMC3    C5 5902   2.026   3.560  14.840 -0.2359 -0.4062 -0.4811
  395TMC3    C6 5903   1.963   3.630  14.744 -0.2013  0.5012  0.0800
  395TMC3     C 5904   1.802   3.270  14.857 -0.1670 -0.1315 -0.4227
  395TMC3     O 5905   1.693   3.253  14.811 -0.2360 -0.1260 -0.6359
  395TMC3     H 5906   1.734   3.409  14.650 -2.3370  1.3893  0.6927
  395TMC3    H1 5907   2.018   3.385  14.962  0.8599 -1.1500 -1.6365
  395TMC3    H2 5908   2.014   3.719  14.707  0.4438 -0.3789 -1.1383
  395TMC3    C7 5909   2.143   3.606  14.899 -0.0744  0.9829 -0.7119
  395TMC3    C8 5910   1.748   3.682  14.666  0.0961  0.1180  0.1650
  395TMC3    O1 5911   2.147   3.729  14.932  0.6197 -0.7649  0.2454
  395TMC3    O2 5912   1.790   3.794  14.680  0.1609 -0.0205  0.1687
  396MPD2     C 5913   1.502   4.312   0.072 -0.0582 -0.0945 -0.3181
  396MPD2    C1 5914   1.609   4.243   0.023  0.2042  0.3569 -0.4529
  396MPD2    C2 5915   1.715   4.309  17.670  0.0447 -0.6222 -0.0563
  396MPD2    C3 5916   1.705   4.448  17.655  0.1742  0.2122  0.0830
  396MPD2    C4 5917   1.605   4.526   0.013  0.5946 -0.5787  0.1909
  396MPD2    C5 5918   1.513   4.447   0.075  0.4702  0.0585  1.6486
  396MPD2     H 5919   1.789   4.255  17.611  1.3220 -0.3951  1.3292
  396MPD2    H1 5920   1.603   4.635   0.011 -2.5346 -0.6804 -1.4591
  396MPD2    H2 5921   1.424   4.258   0.124  0.1849 -1.0144 -0.8997
  396MPD2    H3 5922   1.437   4.505   0.126 -1.7703 -0.6760 -0.8627
  396MPD2     N 5923   1.807   4.512  17.578 -0.2909  0.6492 -0.0672
  396MPD2    H5 5924   1.878   4.454  17.534 -2.7996 -1.3117 -1.5581
  396MPD2    N1 5925   1.584   4.102   0.014 -0.2278  0.1379 -0.3861
  396MPD2    H7 5926   1.504   4.063   0.064  0.3047  0.8138  0.9991
  397TMC3    C1 5927   1.594   3.881  17.636  0.5676  0.4703 -0.2470
  397TMC3    C2 5928   1.591   3.850  17.504 -0.3459  0.1980 -1.2370
  397TMC3    C3 5929   1.474   3.838  17.432  0.3094  0.4763 -0.4855
  397TMC3    C4 5930   1.467   3.889  17.696  0.4509 -0.1403  0.7851
  397TMC3    C5 5931   1.346   3.874  17.627  0.2865  0.4083  0.2069
  397TMC3    C6 5932   1.357   3.845  17.495 -0.5626 -1.2720 -0.2804
  397TMC3     C 5933   1.658   4.010  17.646  0.0936  0.2305  0.2937
  397TMC3     O 5934   1.737   4.036  17.556  0.1658  0.0178  0.3312
  397TMC3     H 5935   1.682   3.814  17.457  0.7805  0.2953  0.8619
  397TMC3    H1 5936   1.463   3.904   0.096  0.2520 -1.1678  0.9258
  397TMC3    H2 5937   1.270   3.828  17.432 -0.8078 -2.4101  0.3614
  397TMC3    C7 5938   1.225   3.850  17.698 -1.0697  0.7038 -0.3924
  397TMC3    C8 5939   1.477   3.872  17.294 -0.3968 -0.2240 -0.1668
  397TMC3    O1 5940   1.128   3.825  17.627 -0.2229  0.3284 -0.1463
  397TMC3    O2 5941   1.381   3.840  17.224 -0.0150  0.8009 -0.9954
  398MPD2     C 5942   4.338   0.654   0.324 -0.6084 -0.1416  0.5131
  398MPD2    C1 5943   4.452   0.587   0.344  0.1334 -0.1613 -0.4028
  398MPD2    C2 5944   4.548   0.644   0.423 -0.0904  0.2830 -0.8421
  398MPD2    C3 5945   4.525   0.764   0.486 -0.1803 -0.0358 -0.8249
  398MPD2    C4 5946   4.413   0.835   0.464 -0.8396  0.3820 -0.0274
  398MPD2    C5 5947   4.319   0.776   0.386 -0.2820  0.4612 -0.2180
  398MPD2     H 5948   4.643   0.596   0.445 -1.6650 -2.2262  0.4833
  398MPD2    H1 5949   4.392   0.923   0.523 -1.9325  0.0364  0.1100
  398MPD2    H2 5950   4.253   0.608   0.274 -0.4601  0.3538 -0.1983
  398MPD2    H3 5951   4.221   0.822   0.383 -0.4526  0.1933  1.7354
  398MPD2     N 5952   4.638   0.810   0.557  0.9629  0.2376  0.0439
  398MPD2    H5 5953   4.722   0.754   0.547  0.3232 -0.7172 -0.0435
  398MPD2    N1 5954   4.482   0.462   0.282 -0.1827  0.2745 -0.1756
  398MPD2    H7 5955   4.578   0.431   0.290 -0.1806  0.6916  1.4526
  399TMC3    C1 5956   4.455   0.251   0.196  0.4265  1.0860 -0.8022
  399TMC3    C2 5957   4.566   0.242   0.128  0.0416  0.5393  0.4460
  399TMC3    C3 5958   4.610   0.115   0.099  0.5775  0.6903  0.6736
  399TMC3    C4 5959   4.387   0.144   0.248  0.1539 -0.3019  0.1257
  399TMC3    C5 5960   4.432   0.019   0.213  0.3097 -0.0030 -0.4185
  399TMC3    C6 5961   4.543   0.003   0.136  0.5463 -0.7362 -0.0679
  399TMC3     C 5962   4.398   0.382   0.215  0.4118  0.0122 -0.5569
  399TMC3     O 5963   4.283   0.388   0.187  0.3083  0.4257 -0.5124
  399TMC3     H 5964   4.620   0.329   0.094 -1.3338  0.5412 -1.7019
  399TMC3    H1 5965   4.306   0.167   0.316  0.0803  1.3662 -0.5188
  399TMC3    H2 5966   4.568   4.634   0.091  0.2301 -0.4977 -0.7436
  399TMC3    C7 5967   4.365   4.626   0.260  0.2354  0.0870 -0.2931
  399TMC3    C8 5968   4.713   0.099  17.704  0.1616  0.0332  0.3058
  399TMC3    O1 5969   4.385   4.520   0.207 -0.5438  0.0503 -0.0429
  399TMC3    O2 5970   4.707   0.176  17.609  0.1487  0.8244 -0.0441
  400TMC3    C1 5971   2.909   3.795  17.293 -0.6265 -0.2508 -0.3525
  400TMC3    C2 5972   2.791   3.738  17.252 -0.4733  0.2227 -0.5617
  400TMC3    C3 5973   2.727   3.801  17.146  0.0382 -0.8635 -0.0598
  400TMC3    C4 5974   2.949   3.913  17.248  0.1916 -1.2749  0.0989
  400TMC3    C5 5975   2.878   3.977  17.144  0.3840 -0.2163  0.1864
  400TMC3    C6 5976   2.766   3.924  17.092  0.4059 -0.1846 -0.1067
  400TMC3     C 5977   2.963   3.761  17.425  0.1615 -0.6917  0.6706
  400TMC3     O 5978   3.065   3.818  17.466  0.0873  0.4214  0.0052
  400TMC3     H 5979   2.763   3.637  17.279  1.5155 -0.0823  0.3765
  400TMC3    H1 5980   3.030   3.966  17.297 -0.6151 -0.4634  0.5433
  400TMC3    H2 5981   2.708   3.978  17.018 -0.0751  1.1135  1.2226
  400TMC3    C7 5982   2.861   4.123  17.172  0.3054 -0.3498 -0.1635
  400TMC3    C8 5983   2.615   3.733  17.090 -0.2750 -0.1131 -0.5849
  400TMC3    O1 5984   2.896   4.173  17.278 -0.6999  0.6237 -0.3203
  400TMC3    O2 5985   2.572   3.778  16.985  0.3194 -0.2071 -0.0487
  401MPD2     C 5986   0.722   2.665   0.968 -0.1197  0.0051 -0.2255
  401MPD2    C1 5987   0.851   2.635   1.017  0.4458  0.0147 -0.9425
  401MPD2    C2 5988   0.895   2.511   0.983 -0.4117  0.4803  0.5580
  401MPD2    C3 5989   0.808   2.409   0.929 -0.0157 -0.3341 -0.1292
  401MPD2    C4 5990   0.679   2.437   0.906  0.3542 -0.1148  0.2721
  401MPD2    C5 5991   0.641   2.571   0.913  0.1674 -0.2948  0.3739
  401MPD2     H 5992   0.995   2.492   1.019 -0.8132 -0.6709  1.0772
  401MPD2    H1 5993   0.604   2.374   0.860  0.6314  2.1986 -3.3382
  401MPD2    H2 5994   0.672   2.760   0.982  0.3738  0.0410  1.2699
  401MPD2    H3 5995   0.541   2.599   0.882  0.6673  0.9623 -0.1105
  401MPD2     N 5996   0.868   2.283   0.935  0.1280 -0.2952 -0.0327
  401MPD2    H5 5997   0.961   2.280   0.975  0.1467 -1.7392 -0.1538
  401MPD2    N1 5998   0.940   2.722   1.080 -0.0666 -0.0485 -0.8321
  401MPD2    H7 5999   1.025   2.684   1.121 -1.7085 -2.0204  0.6928
  402TMC3    C1 6000   0.878   2.049   0.945  0.3090 -0.5675 -0.2572
  402TMC3    C2 6001   0.905   2.053   1.080  0.3620 -0.4627  0.7525
  402TMC3    C3 6002   1.020   1.993   1.125  0.1282 -0.4096  0.9872
  402TMC3    C4 6003   0.956   1.976   0.859  0.0401  0.3228  0.2026
  402TMC3    C5 6004   1.066   1.917   0.909 -0.5341 -0.2658  0.5411
  402TMC3    C6 6005   1.100   1.920   1.041  0.4033 -0.3432  0.3776
  402TMC3     C 6006   0.812   2.166   0.883 -0.0862 -0.3109  0.1315
  402TMC3     O 6007   0.721   2.156   0.803 -0.1115 -0.3010  0.5667
  402TMC3     H 6008   0.836   2.104   1.145 -0.1163  2.6671 -2.2238
  402TMC3    H1 6009   0.945   1.990   0.752  0.2112  1.6527  0.3524
  402TMC3    H2 6010   1.188   1.870   1.078  0.7761  0.7399  0.9518
  402TMC3    C7 6011   1.169   1.864   0.827  0.1350  0.0665  0.0005
  402TMC3    C8 6012   1.098   2.058   1.219  0.8531  0.2019  0.0668
  402TMC3    O1 6013   1.121   1.832   0.718  0.1665  0.2703 -0.5890
  402TMC3    O2 6014   1.219   2.048   1.199  0.0522 -0.1295  0.5600
  403MPD2     C 6015   4.417   1.049  13.356 -0.7688 -0.4006  0.5303
  403MPD2    C1 6016   4.367   0.955  13.445  0.7322 -0.2099  0.4115
  403MPD2    C2 6017   4.434   0.946  13.566  1.3096  0.0499 -0.2242
  403MPD2    C3 6018   4.538   1.028  13.604  0.4074 -0.3360  0.4809
  403MPD2    C4 6019   4.585   1.109  13.508  0.2340 -0.1670  0.1853
  403MPD2    C5 6020   4.526   1.117  13.388  0.8867 -0.3259  0.3429
  403MPD2     H 6021   4.402   0.873  13.639 -1.4008 -0.4142 -1.8605
  403MPD2    H1 6022   4.668   1.177  13.525 -1.9200  2.8219 -1.3249
  403MPD2    H2 6023   4.376   1.060  13.256  0.9799 -2.2762 -0.3970
  403MPD2    H3 6024   4.577   1.180  13.315  1.3646  0.1624  1.1009
  403MPD2     N 6025   4.597   1.009  13.728  0.4284  0.1876 -0.1714
  403MPD2    H5 6026   4.564   0.929  13.781 -0.3375 -0.5815 -1.7934
  403MPD2    N1 6027   4.255   0.875  13.409 -0.7993 -0.3440 -0.7551
  403MPD2    H7 6028   4.214   0.895  13.318 -2.0223 -1.2195 -0.3859
  404TMC3    C1 6029   4.102   0.680  13.414 -0.1565  0.2842  0.3705
  404TMC3    C2 6030   4.007   0.606  13.477 -0.7209  0.2464  0.4602
  404TMC3    C3 6031   3.930   0.529  13.401 -0.8765 -0.0630  0.5128
  404TMC3    C4 6032   4.130   0.666  13.278  0.1349 -0.3700 -0.5240
  404TMC3    C5 6033   4.053   0.577  13.210 -0.0548 -0.2377  0.5127
  404TMC3    C6 6034   3.951   0.507  13.268 -0.1542  0.6685 -0.4762
  404TMC3     C 6035   4.182   0.784  13.489  0.0730  0.1855  0.2902
  404TMC3     O 6036   4.183   0.775  13.611 -0.1502 -0.2137  0.0557
  404TMC3     H 6037   3.989   0.623  13.582 -3.6667 -1.1118  0.1932
  404TMC3    H1 6038   4.212   0.703  13.217  0.7312 -0.7651  0.0268
  404TMC3    H2 6039   3.883   0.444  13.213  3.9249 -2.5842 -1.8026
  404TMC3    C7 6040   4.056   0.578  13.063  0.4505 -0.8607 -0.0374
  404TMC3    C8 6041   3.888   0.411  13.471 -0.3738  0.3279 -0.4052
  404TMC3    O1 6042   4.168   0.588  13.011 -0.1266  0.2849  0.3625
  404TMC3    O2 6043   3.920   0.308  13.415  0.0298 -0.1423  0.0701
  405MPD2     C 6044   4.559   1.379  14.689 -0.5628 -0.3574 -0.5297
  405MPD2    C1 6045   4.585   1.278  14.596  0.1623  0.2800  0.3704
  405MPD2    C2 6046   4.528   1.282  14.469 -0.5696  0.2514 -0.8306
  405MPD2    C3 6047   4.453   1.400  14.440 -0.0054 -0.0912 -1.0878
  405MPD2    C4 6048   4.426   1.503  14.532  0.1685 -0.3299  0.0139
  405MPD2    C5 6049   4.475   1.485  14.659 -0.3011  0.3378 -0.0594
  405MPD2     H 6050   4.534   1.203  14.395  2.5724  2.2627 -2.7201
  405MPD2    H1 6051   4.373   1.596  14.517  0.7817 -0.1113 -0.7825
  405MPD2    H2 6052   4.600   1.376  14.790  0.1411 -1.5368 -0.8485
  405MPD2    H3 6053   4.448   1.556  14.736 -0.7214  0.4677 -0.3204
  405MPD2     N 6054   4.414   1.402  14.309  0.0224  0.6384  0.1616
  405MPD2    H5 6055   4.444   1.321  14.255 -3.1111 -0.8877  0.6972
  405MPD2    N1 6056   4.656   1.163  14.646 -0.4341 -0.5621  0.0956
  405MPD2    H7 6057   4.691   1.168  14.741  3.0777 -0.4875 -1.1888
  406TMC3    C1 6058   4.108   1.314  14.046  0.5486 -0.0440  0.2712
  406TMC3    C2 6059   4.183   1.215  14.004 -1.3741  0.5403 -0.0510
  406TMC3    C3 6060   4.317   1.236  14.010  0.2588  0.7643 -0.1830
  406TMC3    C4 6061   4.147   1.419  14.120 -0.1293 -0.5551 -0.2770
  406TMC3    C5 6062   4.284   1.439  14.115 -0.4350 -0.4341 -0.4562
  406TMC3    C6 6063   4.370   1.350  14.054  0.4682  0.7607 -0.1494
  406TMC3     C 6064   3.968   1.292  14.037  0.9864 -0.0924  0.1146
  406TMC3     O 6065   3.921   1.254  13.928 -0.1800  0.1688 -0.2241
  406TMC3     H 6066   4.133   1.131  13.957  0.8771 -1.1790  0.6303
  406TMC3    H1 6067   4.078   1.483  14.175  0.7642  0.4993 -0.3806
  406TMC3    H2 6068   4.477   1.356  14.067  0.4054  1.2799  0.1118
  406TMC3    C7 6069   4.321   1.483  14.248 -0.2547 -0.4837  0.1928
  406TMC3    C8 6070   4.385   1.124  14.069 -0.5180  0.6311 -0.8260
  406TMC3    O1 6071   4.250   1.573  14.297 -0.0265 -0.3877 -0.5330
  406TMC3    O2 6072   4.459   1.162  14.162  0.2785  0.6110  0.3965
  407MPD2     C 6073   2.357   3.778   9.726  0.0270  0.1588  0.0955
  407MPD2    C1 6074   2.392   3.647   9.735  0.6393 -0.2543  0.3330
  407MPD2    C2 6075   2.488   3.610   9.825  0.1941 -0.1892 -0.2754
  407MPD2    C3 6076   2.542   3.707   9.908  0.7452 -0.1165  0.4112
  407MPD2    C4 6077   2.497   3.839   9.901 -0.0491  0.5257 -0.1444
  407MPD2    C5 6078   2.411   3.871   9.807 -0.2079  0.7137 -0.2428
  407MPD2     H 6079   2.512   3.504   9.827 -1.9306 -0.5929  3.2321
  407MPD2    H1 6080   2.546   3.927   9.941  0.2845  0.2420  0.0668
  407MPD2    H2 6081   2.285   3.817   9.655  0.3174 -0.3829 -0.4995
  407MPD2    H3 6082   2.372   3.972   9.804  2.1751  1.5314 -3.1723
  407MPD2     N 6083   2.648   3.679  10.003  0.6936  0.3083  0.0032
  407MPD2    H5 6084   2.658   3.752  10.073  1.1402  0.8361 -0.5999
  407MPD2    N1 6085   2.330   3.545   9.658  0.2532 -0.2500  0.2704
  407MPD2    H7 6086   2.374   3.453   9.663 -0.8399 -0.7976 -0.1743
  408TMC3    C1 6087   2.171   3.440   9.509 -0.3920 -0.2525  0.5552
  408TMC3    C2 6088   2.259   3.334   9.487 -0.5183 -0.3771  0.4267
  408TMC3    C3 6089   2.195   3.232   9.425  0.0685 -0.3006  0.1426
  408TMC3    C4 6090   2.038   3.450   9.473 -0.9009 -0.0166  0.0328
  408TMC3    C5 6091   1.989   3.342   9.404 -0.6766 -0.2862  0.2989
  408TMC3    C6 6092   2.066   3.234   9.376  0.1557 -0.1503 -0.6119
  408TMC3     C 6093   2.216   3.559   9.582 -0.1822  0.4545  0.2759
  408TMC3     O 6094   2.146   3.655   9.593 -0.0643  0.7045  0.7894
  408TMC3     H 6095   2.363   3.342   9.515 -0.1042 -0.9338 -0.9523
  408TMC3    H1 6096   1.980   3.535   9.506  0.0504  0.3961  0.6310
  408TMC3    H2 6097   2.028   3.153   9.315  0.6421 -2.6831  2.4264
  408TMC3    C7 6098   1.847   3.326   9.373  0.5391 -0.2562  0.1051
  408TMC3    C8 6099   2.259   3.105   9.411  0.2650 -0.0088  0.1136
  408TMC3    O1 6100   1.812   3.224   9.318 -0.2141  0.3259  0.5575
  408TMC3    O2 6101   2.188   3.006   9.399 -0.2272  0.1223 -0.5061
  409MPD2     C 6102   1.452   3.262  17.125  0.8231  0.6729  0.1252
  409MPD2    C1 6103   1.507   3.306  17.249 -0.2300  0.4947  0.1935
  409MPD2    C2 6104   1.587   3.427  17.246  0.4010  0.7498 -0.5028
  409MPD2    C3 6105   1.630   3.482  17.127  0.1423  0.3309  0.4178
  409MPD2    C4 6106   1.570   3.436  17.016 -0.3339  0.1946  0.6334
  409MPD2    C5 6107   1.484   3.326  17.010 -0.5414  0.0533 -0.5004
  409MPD2     H 6108   1.621   3.468  17.340  0.5031  1.2876 -0.7735
  409MPD2    H1 6109   1.583   3.487  16.922  2.2555 -1.3918  0.1407
  409MPD2    H2 6110   1.396   3.170  17.117 -0.6459  1.5381  0.5946
  409MPD2    H3 6111   1.445   3.283  16.919 -2.2210 -0.3751  0.4268
  409MPD2     N 6112   1.731   3.582  17.113  0.4829  0.1233 -0.0828
  409MPD2    H5 6113   1.748   3.617  17.019  0.6609 -0.3401 -0.2237
  409MPD2    N1 6114   1.457   3.253  17.373  0.0909 -0.0169  0.7657
  409MPD2    H7 6115   1.474   3.314  17.452  1.7558 -0.1101  0.4825
  410TMC3    C1 6116   1.907   3.735  17.171  0.2296 -0.8352  0.3007
  410TMC3    C2 6117   2.004   3.767  17.265 -0.1562 -0.0235  0.3516
  410TMC3    C3 6118   2.105   3.849  17.235  0.3552 -0.6493  0.8441
  410TMC3    C4 6119   1.914   3.777  17.041  0.6583 -0.4325  0.6204
  410TMC3    C5 6120   2.021   3.858  17.011 -0.7268 -0.6138 -0.1021
  410TMC3    C6 6121   2.116   3.893  17.109  0.0112 -0.0847  0.0297
  410TMC3     C 6122   1.809   3.640  17.217  0.2707  0.7108  0.0619
  410TMC3     O 6123   1.794   3.633  17.340 -0.5324 -0.2635 -0.2888
  410TMC3     H 6124   1.980   3.741  17.367 -3.5518  0.9750 -0.1956
  410TMC3    H1 6125   1.831   3.774  16.971  0.3953  1.1787  0.8658
  410TMC3    H2 6126   2.214   3.935  17.086  0.7125 -0.5742  2.1787
  410TMC3    C7 6127   2.057   3.893  16.872 -0.5251 -0.1039 -0.2583
  410TMC3    C8 6128   2.222   3.856  17.320 -0.1641 -0.0816 -0.0183
  410TMC3    O1 6129   2.001   3.836  16.779  0.6390 -0.4057  0.2312
  410TMC3    O2 6130   2.286   3.957  17.318  0.0306 -0.2935 -0.5182
  411MPD2     C 6131   2.212   4.213  14.827  0.4218 -0.5384 -0.5843
  411MPD2    C1 6132   2.118   4.289  14.750  0.2137  0.3442 -0.1185
  411MPD2    C2 6133   2.023   4.228  14.665 -0.2568  0.3483  0.3001
  411MPD2    C3 6134   2.015   4.094  14.670  1.0112  0.4906 -0.0017
  411MPD2    C4 6135   2.102   4.015  14.744 -0.4012 -0.0949  0.2216
  411MPD2    C5 6136   2.200   4.078  14.820  0.3818  0.2078 -0.5565
  411MPD2     H 6137   1.957   4.287  14.602 -1.4173  1.1892  2.3141
  411MPD2    H1 6138   2.098   3.907  14.737  0.2475 -0.2207  1.8837
  411MPD2    H2 6139   2.278   4.259  14.900 -0.0119  0.9340 -1.1301
  411MPD2    H3 6140   2.264   4.040  14.899 -1.4497  1.9226  1.7501
  411MPD2     N 6141   1.917   4.032  14.584  0.4153  0.5579 -0.0943
  411MPD2    H5 6142   1.927   3.932  14.568 -0.3281  0.6234 -0.9804
  411MPD2    N1 6143   2.109   4.428  14.774 -0.4512 -1.0637  0.8642
  411MPD2    H7 6144   2.174   4.467  14.842 -0.7536  0.3505  0.3393
  412TMC3    C1 6145   1.727   3.996  14.443  0.2442 -0.4890 -0.3271
  412TMC3    C2 6146   1.595   4.031  14.421 -0.2309  0.5358 -0.4832
  412TMC3    C3 6147   1.519   3.950  14.343 -0.8109 -0.6921 -0.2651
  412TMC3    C4 6148   1.786   3.883  14.384  0.5683  0.6532  0.6102
  412TMC3    C5 6149   1.707   3.817  14.301  0.0945  0.0349 -0.2112
  412TMC3    C6 6150   1.573   3.843  14.282 -0.4027  0.3572 -0.2391
  412TMC3     C 6151   1.802   4.088  14.532 -0.3736  0.0000  0.1377
  412TMC3     O 6152   1.747   4.186  14.574  0.6637  0.2175 -0.1523
  412TMC3     H 6153   1.570   4.129  14.460 -2.0695  0.0726 -0.4992
  412TMC3    H1 6154   1.893   3.873  14.379  0.3610 -1.8335  1.1615
  412TMC3    H2 6155   1.522   3.782  14.209  3.1517 -1.8113 -0.9273
  412TMC3    C7 6156   1.768   3.782  14.172  0.2022 -0.9713  0.6197
  412TMC3    C8 6157   1.435   4.023  14.256 -0.3003  0.5610  0.1248
  412TMC3    O1 6158   1.708   3.805  14.067  0.3506 -0.2038  0.0935
  412TMC3    O2 6159   1.314   4.001  14.260 -0.0041 -0.2336  0.1174
  413MPD2     C 6160   3.812   2.740  15.526  0.3289 -0.5120  0.4374
  413MPD2    C1 6161   3.738   2.688  15.418  0.4157  0.2642 -0.3118
  413MPD2    C2 6162   3.792   2.581  15.354 -0.0089  0.3895  0.2663
  413MPD2    C3 6163   3.929   2.549  15.363 -0.5939 -0.0498 -0.6204
  413MPD2    C4 6164   4.001   2.612  15.458 -0.9591  0.1599  0.0069
  413MPD2    C5 6165   3.939   2.697  15.545  0.7105  0.4200 -0.5053
  413MPD2     H 6166   3.734   2.530  15.278 -0.9031  2.2395 -0.3131
  413MPD2    H1 6167   4.101   2.577  15.483 -1.1695 -0.1871  0.3579
  413MPD2    H2 6168   3.773   2.815  15.594  1.8771  0.8030 -0.1153
  413MPD2    H3 6169   4.006   2.722  15.627 -0.5497  1.1986  0.2753
  413MPD2     N 6170   3.981   2.448  15.285 -0.6679  0.6041 -0.3443
  413MPD2    H5 6171   3.915   2.417  15.214  0.8281  1.1865 -2.0062
  413MPD2    N1 6172   3.607   2.741  15.387  0.2229  0.3712  0.5212
  413MPD2    H7 6173   3.573   2.810  15.453  1.6712  2.1881 -0.6253
  414TMC3    C1 6174   4.117   2.269  15.213  0.1743  0.4474  0.3296
  414TMC3    C2 6175   4.166   2.151  15.270 -0.2757  0.6375  0.8359
  414TMC3    C3 6176   4.161   2.043  15.192 -0.4266 -0.2102  0.1257
  414TMC3    C4 6177   4.083   2.281  15.080 -0.0619 -0.6938 -0.4205
  414TMC3    C5 6178   4.103   2.166  15.006 -0.7112  0.5340 -0.3856
  414TMC3    C6 6179   4.123   2.046  15.061  0.6670 -0.1550  0.0882
  414TMC3     C 6180   4.107   2.388  15.295  0.4992 -0.6389 -0.5328
  414TMC3     O 6181   4.192   2.390  15.382 -0.0456  0.7691  0.0412
  414TMC3     H 6182   4.212   2.160  15.367  4.4907 -1.5781 -1.2068
  414TMC3    H1 6183   4.060   2.369  15.021 -0.2702 -0.0374  0.6542
  414TMC3    H2 6184   4.122   1.957  14.998  1.8797  0.4433 -0.7662
  414TMC3    C7 6185   4.032   2.178  14.879 -0.6755  0.0704 -0.1745
  414TMC3    C8 6186   4.237   1.920  15.225 -0.1849 -0.0776  0.3724
  414TMC3    O1 6187   3.920   2.233  14.879  0.1135 -0.3144  0.1588
  414TMC3    O2 6188   4.252   1.835  15.136 -0.0329  0.0554 -0.6381
  415TMC3    C1 6189   4.680   0.441  10.941 -0.8477  0.7627 -0.6542
  415TMC3    C2 6190   4.637   0.567  10.946 -0.3571  0.2171 -0.0726
  415TMC3    C3 6191   4.596   0.628  10.835  0.0316  0.3324 -0.3020
  415TMC3    C4 6192   4.668   0.366  10.827  0.0594 -0.3261 -0.3007
  415TMC3    C5 6193   4.615   0.430  10.718 -0.1404  0.1115 -0.1646
  415TMC3    C6 6194   4.584   0.559  10.722  0.4439  0.4272  0.3389
  415TMC3     C 6195   0.017   0.378  11.058 -0.0833  0.0857  0.6615
  415TMC3     O 6196   4.720   0.257  11.070  0.4575 -0.4638  0.2998
  415TMC3     H 6197   4.653   0.622  11.038  0.1256  3.4511 -2.0958
  415TMC3    H1 6198   4.705   0.266  10.811  1.8254  0.1159  0.9735
  415TMC3    H2 6199   4.556   0.604  10.627 -0.9187 -1.6022 -0.2069
  415TMC3    C7 6200   4.537   0.351  10.628 -0.1573  0.2666  0.0062
  415TMC3    C8 6201   4.635   0.762  10.827  0.3436 -0.4447 -0.5547
  415TMC3    O1 6202   4.492   0.407  10.531  0.0234  0.1616 -0.3414
  415TMC3    O2 6203   4.678   0.807  10.932  0.8530  0.2751  0.1736
  416MPD2     C 6204   1.426   4.024  11.583 -0.3474  0.2190 -0.2124
  416MPD2    C1 6205   1.314   3.977  11.526  0.6230  0.1198 -0.1789
  416MPD2    C2 6206   1.330   3.891  11.414 -0.0459  0.0186  0.4651
  416MPD2    C3 6207   1.454   3.852  11.381  0.0999  0.2596  0.2672
  416MPD2    C4 6208   1.566   3.904  11.440 -0.1960  0.0213 -0.3883
  416MPD2    C5 6209   1.554   4.005  11.533  0.3624 -0.2271 -0.1148
  416MPD2     H 6210   1.243   3.845  11.369  0.0014  0.6954 -0.3115
  416MPD2    H1 6211   1.667   3.880  11.407  0.9566  3.4994  0.6325
  416MPD2    H2 6212   1.402   4.090  11.666  1.2631  0.1002  0.3571
  416MPD2    H3 6213   1.636   4.046  11.590 -1.1824 -2.4791  3.7848
  416MPD2     N 6214   1.458   3.757  11.268 -0.2972  0.3787 -1.2217
  416MPD2    H5 6215   1.366   3.722  11.245 -0.7288  0.3533  0.5491
  416MPD2    N1 6216   1.189   4.012  11.569  0.5892  0.0588 -0.4771
  416MPD2    H7 6217   1.176   4.063  11.656 -0.5982 -0.8307 -0.1322
  417TMC3    C1 6218   0.971   4.057  11.560  0.8499  0.4315  0.3034
  417TMC3    C2 6219   0.980   4.046  11.696 -0.7859 -0.7486 -0.5452
  417TMC3    C3 6220   0.931   4.147  11.774 -0.4182 -0.0999 -0.8162
  417TMC3    C4 6221   0.916   4.169  11.503 -0.4855  0.4846  0.1117
  417TMC3    C5 6222   0.884   4.277  11.583 -0.3697  0.1553 -0.3094
  417TMC3    C6 6223   0.889   4.267  11.718  0.2754 -0.3845 -0.3509
  417TMC3     C 6224   1.084   4.007  11.485  0.6628  0.1909  0.3506
  417TMC3     O 6225   1.065   3.988  11.364  0.1160  0.7343 -0.7007
  417TMC3     H 6226   1.027   3.959  11.742  1.7298 -0.1979 -2.1070
  417TMC3    H1 6227   0.926   4.174  11.395 -1.2629 -1.1070 -0.0278
  417TMC3    H2 6228   0.858   4.350  11.781 -2.8347 -0.3181 -1.9754
  417TMC3    C7 6229   0.885   4.406  11.516 -0.0223 -0.0994 -1.1431
  417TMC3    C8 6230   0.950   4.148  11.919 -0.1874 -0.0880 -0.4549
  417TMC3    O1 6231   0.892   4.405  11.395 -0.0385 -0.4224 -0.3003
  417TMC3    O2 6232   0.951   4.258  11.978 -0.0151  0.2939  0.4064
  418TMC3    C1 6233   0.275   0.996   0.635 -0.2318 -0.3373  0.4283
  418TMC3    C2 6234   0.138   1.024   0.629 -0.1879  0.4427  0.4365
  418TMC3    C3 6235   0.049   0.943   0.687 -0.2778  0.0738  0.7990
  418TMC3    C4 6236   0.327   0.892   0.712 -0.3275 -0.9763 -0.7166
  418TMC3    C5 6237   0.232   0.821   0.782 -0.6138 -0.4130 -0.4082
  418TMC3    C6 6238   0.091   0.837   0.760  0.1565 -0.9725  0.0729
  418TMC3     C 6239   0.349   1.039   0.515 -0.5595  0.0490 -0.5691
  418TMC3     O 6240   0.300   1.140   0.458  0.1022 -0.4995  0.1568
  418TMC3     H 6241   0.104   1.107   0.568 -1.4739 -1.2569 -1.1353
  418TMC3    H1 6242   0.431   0.865   0.724 -0.0809 -0.3057 -1.3114
  418TMC3    H2 6243   0.022   0.773   0.812 -2.2846  0.4250 -1.4666
  418TMC3    C7 6244   0.267   0.699   0.865  0.3838 -0.0165  0.7498
  418TMC3    C8 6245   4.656   0.932   0.614  0.1423 -0.4436  0.1728
  418TMC3    O1 6246   0.183   0.621   0.906  0.0719 -0.6532 -0.0944
  418TMC3    O2 6247   4.583   1.029   0.599  0.1741 -0.4245 -0.2131
  419MPD2     C 6248   3.144   4.127  12.780 -0.3994 -0.2811  0.0787
  419MPD2    C1 6249   3.044   4.216  12.753 -0.2664  0.3765 -0.4105
  419MPD2    C2 6250   2.934   4.214  12.838  0.0337  0.4554 -0.3416
  419MPD2    C3 6251   2.930   4.127  12.947 -0.1281  0.1549  0.7055
  419MPD2    C4 6252   3.034   4.040  12.976  0.1439  0.0276 -0.2798
  419MPD2    C5 6253   3.133   4.034  12.884  0.2313  0.1864  0.2540
  419MPD2     H 6254   2.856   4.286  12.820 -1.7168 -1.3188  0.1198
  419MPD2    H1 6255   3.040   3.975  13.062  1.7930  0.7709  0.1696
  419MPD2    H2 6256   3.222   4.122  12.705 -0.5734  0.6892 -0.1586
  419MPD2    H3 6257   3.218   3.971  12.905  0.4872  1.8343  4.1148
  419MPD2     N 6258   2.820   4.138  13.027  0.8212 -0.4001  0.2244
  419MPD2    H5 6259   2.761   4.216  13.000 -2.5643 -1.9053  3.3545
  419MPD2    N1 6260   3.032   4.309  12.646  0.1432 -0.4335 -0.5817
  419MPD2    H7 6261   2.952   4.371  12.647  0.7616  0.3602 -0.0081
  420TMC3    C1 6262   2.673   4.123  13.208 -0.1459  0.6273  1.4485
  420TMC3    C2 6263   2.625   4.246  13.160 -0.1438  0.6964 -0.2943
  420TMC3    C3 6264   2.574   4.331  13.255  0.5312  0.3813 -0.4927
  420TMC3    C4 6265   2.658   4.090  13.340  0.0967 -0.5831  0.4509
  420TMC3    C5 6266   2.614   4.183  13.425  0.0857 -0.6073 -0.0167
  420TMC3    C6 6267   2.563   4.302  13.384  0.5255 -0.0404  0.6372
  420TMC3     C 6268   2.780   4.059  13.133  0.3733 -0.1084 -1.2206
  420TMC3     O 6269   2.841   3.967  13.185  0.5011 -0.0541  0.1187
  420TMC3     H 6270   2.619   4.269  13.054 -0.6033 -0.1011 -0.4379
  420TMC3    H1 6271   2.712   4.003  13.375  0.8165 -0.5974 -0.7104
  420TMC3    H2 6272   2.521   4.374  13.453 -0.2770 -1.3990  1.5486
  420TMC3    C7 6273   2.659   4.162  13.565  0.5451 -0.8890  0.2171
  420TMC3    C8 6274   2.541   4.465  13.199 -0.1343  0.4182  0.6279
  420TMC3    O1 6275   2.677   4.049  13.603  0.1935  0.1045  0.2249
  420TMC3    O2 6276   2.581   4.486  13.088  0.1415  0.0939  0.0600
  421TMC3    C1 6277   0.009   1.071  13.909  0.4747  0.5437  0.3973
  421TMC3    C2 6278   0.023   1.178  14.000  0.1719  0.6438 -0.1818
  421TMC3    C3 6279   0.074   1.147  14.120 -0.1662  0.1841 -0.2040
  421TMC3    C4 6280   0.032   0.943  13.949 -0.3300 -0.0758 -0.3882
  421TMC3    C5 6281   0.067   0.920  14.076 -0.2597  0.0186  0.0295
  421TMC3    C6 6282   0.090   1.022  14.169 -0.1442 -0.1107 -0.4186
  421TMC3     C 6283   4.690   1.106  13.779 -0.0523 -0.5952  0.4453
  421TMC3     O 6284   0.003   1.216  13.733 -0.2760  0.1930  0.1656
  421TMC3     H 6285   0.011   1.282  13.972 -2.0501  0.3699 -0.2475
  421TMC3    H1 6286   0.023   0.864  13.875 -0.6723 -0.2620 -0.1480
  421TMC3    H2 6287   0.128   1.007  14.269 -0.4655  0.4658 -0.2116
  421TMC3    C7 6288   0.076   0.787  14.121  0.8296  0.6456 -0.1345
  421TMC3    C8 6289   0.099   1.258  14.210  0.1291  0.2579  0.4127
  421TMC3    O1 6290   0.129   0.769  14.227  0.2624 -0.5324  0.5288
  421TMC3    O2 6291   0.037   1.362  14.211 -0.6168 -0.5432  0.2888
  422TMC3    C1 6292   2.220   2.283  12.720 -0.6673 -0.4062  1.1697
  422TMC3    C2 6293   2.135   2.389  12.687  0.2670  0.5825  0.0645
  422TMC3    C3 6294   2.041   2.419  12.785  0.1815  0.0371 -0.7674
  422TMC3    C4 6295   2.201   2.206  12.830 -0.0777  0.7130  0.1803
  422TMC3    C5 6296   2.094   2.226  12.908  0.5488  0.2703  0.2086
  422TMC3    C6 6297   2.011   2.334  12.893 -0.2549  0.3101 -0.2403
  422TMC3     C 6298   2.339   2.278  12.636 -0.0140 -0.0921  0.1345
  422TMC3     O 6299   2.370   2.383  12.582  0.4117  0.3698 -0.0776
  422TMC3     H 6300   2.143   2.458  12.603  0.2311  0.5562  0.0394
  422TMC3    H1 6301   2.265   2.119  12.843 -1.4681 -0.2547  0.4661
  422TMC3    H2 6302   1.952   2.366  12.978  2.2716 -2.2269  2.4517
  422TMC3    C7 6303   2.070   2.131  13.018 -0.8878 -0.2880  0.4829
  422TMC3    C8 6304   1.998   2.561  12.786 -0.2773 -0.5702 -0.2874
  422TMC3    O1 6305   2.160   2.052  13.050  0.3755  0.0404  0.2012
  422TMC3    O2 6306   2.062   2.647  12.731 -0.6432  0.3526 -1.2492
  423MPD2     C 6307   4.239   2.735   1.090  0.3993 -0.1645  0.2250
  423MPD2    C1 6308   4.289   2.782   0.969 -0.3219  0.5451 -0.5082
  423MPD2    C2 6309   4.243   2.738   0.845  0.7340  0.1947  0.3428
  423MPD2    C3 6310   4.133   2.641   0.849 -0.0907  0.4474 -0.2571
  423MPD2    C4 6311   4.107   2.583   0.974  0.1437 -0.3032 -1.0007
  423MPD2    C5 6312   4.147   2.636   1.092 -0.6126  0.1665 -0.1334
  423MPD2     H 6313   4.290   2.784   0.759 -0.8001  0.6628 -0.2478
  423MPD2    H1 6314   4.039   2.499   0.983 -1.1903  0.8969 -0.0096
  423MPD2    H2 6315   4.285   2.754   1.186 -0.3563 -0.6382  0.6861
  423MPD2    H3 6316   4.117   2.588   1.185 -0.4648 -1.1226 -0.7622
  423MPD2     N 6317   4.064   2.588   0.735 -0.3557  0.6478  0.2696
  423MPD2    H5 6318   4.004   2.507   0.749 -1.0272  0.3028 -4.9002
  423MPD2    N1 6319   4.392   2.877   0.967 -0.1520  0.4553  0.5398
  423MPD2    H7 6320   4.453   2.882   0.886  1.1342  1.5934  1.5928
  424TMC3    C1 6321   4.514   3.059   1.005 -0.1762  0.5491  0.8182
  424TMC3    C2 6322   4.639   3.005   0.992 -0.1597 -0.1237  0.3204
  424TMC3    C3 6323   0.024   3.081   1.031  0.2225  0.5627  0.4540
  424TMC3    C4 6324   4.505   3.182   1.067 -0.4087  0.5255  0.0124
  424TMC3    C5 6325   4.619   3.240   1.119 -0.0893  0.7547 -0.4363
  424TMC3    C6 6326   0.022   3.205   1.089 -0.5131  0.2009  0.3470
  424TMC3     C 6327   4.406   2.981   1.055 -0.0986 -0.3964  0.0954
  424TMC3     O 6328   4.348   3.022   1.152  0.0961 -0.0467 -0.0940
  424TMC3     H 6329   4.654   2.901   0.967  2.6082  0.5305 -0.8251
  424TMC3    H1 6330   4.407   3.222   1.093 -2.1107 -1.7284 -2.9088
  424TMC3    H2 6331   0.106   3.260   1.130  1.2887 -1.1289 -1.5865
  424TMC3    C7 6332   4.601   3.328   1.233  0.3477  0.1937  0.0601
  424TMC3    C8 6333   0.149   3.002   1.041 -0.6070 -0.0121  0.0859
  424TMC3    O1 6334   4.664   3.432   1.232 -0.1657 -0.4243 -0.2730
  424TMC3    O2 6335   0.157   2.893   0.989 -0.0819 -0.0625 -0.1010
  425MPD2     C 6336   2.565   2.541   0.126 -0.2604  0.3037 -0.5739
  425MPD2    C1 6337   2.507   2.426   0.068  0.0551 -0.9483  0.3153
  425MPD2    C2 6338   2.369   2.414   0.052 -0.0524 -0.2001  0.1870
  425MPD2    C3 6339   2.282   2.519   0.097 -0.7413  0.7190 -0.1182
  425MPD2    C4 6340   2.345   2.632   0.145 -0.5891  0.0911  0.9904
  425MPD2    C5 6341   2.482   2.649   0.151 -0.3572  0.4828 -0.0752
  425MPD2     H 6342   2.321   2.321   0.025  1.4581 -0.6016 -1.0548
  425MPD2    H1 6343   2.298   2.724   0.178  0.2370 -0.3065  3.2554
  425MPD2    H2 6344   2.670   2.551   0.149 -0.4849  1.6862 -0.1549
  425MPD2    H3 6345   2.527   2.738   0.194  0.9974  0.0018 -0.5065
  425MPD2     N 6346   2.148   2.494   0.093 -0.0517 -0.5999 -0.0957
  425MPD2    H5 6347   2.118   2.404   0.055  1.6047 -0.4706 -1.7144
  425MPD2    N1 6348   2.597   2.311   0.045  0.0794  0.6525  0.0096
  425MPD2    H7 6349   2.695   2.327   0.067 -0.3930  0.3458  2.3517
  426TMC3    C1 6350   2.663   2.104  17.655 -0.1972  0.5128  0.6312
  426TMC3    C2 6351   2.641   2.023  17.551 -0.5916  0.3028  0.2545
  426TMC3    C3 6352   2.748   1.962  17.503 -0.3142 -0.0975  0.4934
  426TMC3    C4 6353   2.781   2.112   0.014  0.3987 -0.2529  0.1471
  426TMC3    C5 6354   2.876   2.034  17.679  0.3344  0.2904  0.3049
  426TMC3    C6 6355   2.870   1.957  17.570  0.0457  0.2810  0.1377
  426TMC3     C 6356   2.559   2.195  17.687 -0.2394  0.3774  0.0173
  426TMC3     O 6357   2.444   2.156  17.666 -0.0534 -0.2001  0.3079
  426TMC3     H 6358   2.541   2.002  17.514 -1.0580  0.4480  1.4359
  426TMC3    H1 6359   2.777   2.158   0.112 -2.8838  1.4839 -0.7815
  426TMC3    H2 6360   2.956   1.903  17.533 -0.9139 -0.7380 -0.5970
  426TMC3    C7 6361   2.985   2.003   0.063 -0.3729  0.1749 -0.3866
  426TMC3    C8 6362   2.749   1.888  17.382  0.0379  0.4353 -0.3600
  426TMC3    O1 6363   3.057   1.913   0.022  0.1972 -0.1923  0.1441
  426TMC3    O2 6364   2.834   1.801  17.370 -0.1271 -0.1521  0.4838
  427MPD2     C 6365   1.128   4.483  15.014  0.2986 -0.2904  0.1199
  427MPD2    C1 6366   1.071   4.378  15.090 -0.5275  0.0732 -0.3540
  427MPD2    C2 6367   0.942   4.383  15.134 -0.1550 -0.4768 -0.2052
  427MPD2    C3 6368   0.868   4.505  15.115 -0.2377  0.0984  0.1375
  427MPD2    C4 6369   0.930   4.612  15.055  0.4350  0.4210  0.3110
  427MPD2    C5 6370   1.053   4.598  15.005 -0.0032 -1.1534  0.1479
  427MPD2     H 6371   0.896   4.292  15.172  0.7700 -0.8768 -0.0435
  427MPD2    H1 6372   0.889   4.711  15.037  0.8933  0.6463  0.5167
  427MPD2    H2 6373   1.220   4.484  14.957 -1.5778 -1.1157 -2.9016
  427MPD2    H3 6374   1.100   4.683  14.959 -1.9623  0.0909  0.4644
  427MPD2     N 6375   0.736   4.530  15.157 -0.8273 -0.7540  0.6903
  427MPD2    H5 6376   0.688   4.618  15.137  1.6413  0.3011 -0.5664
  427MPD2    N1 6377   1.138   4.250  15.110 -0.0313  0.5857 -0.3682
  427MPD2    H7 6378   1.094   4.177  15.165  3.1695 -0.6780  0.4979
  428TMC3    C1 6379   1.321   4.106  15.114 -0.0864 -0.1436  0.2941
  428TMC3    C2 6380   1.239   3.996  15.121  0.7952  0.6122 -0.2989
  428TMC3    C3 6381   1.298   3.885  15.174 -0.3001  1.2391 -0.2074
  428TMC3    C4 6382   1.456   4.106  15.124 -0.1880  0.1146  0.6107
  428TMC3    C5 6383   1.514   3.983  15.157  0.3140 -0.1528 -0.1700
  428TMC3    C6 6384   1.436   3.869  15.180  0.1934 -0.1711 -0.1064
  428TMC3     C 6385   1.263   4.223  15.056  0.6857 -0.1924  0.4198
  428TMC3     O 6386   1.342   4.288  14.983 -0.2721  0.3209  0.1082
  428TMC3     H 6387   1.148   3.988  15.063  1.5821 -1.0925 -1.2972
  428TMC3    H1 6388   1.509   4.200  15.120  2.0671 -1.2354 -0.9956
  428TMC3    H2 6389   1.486   3.785  15.226  2.5770  1.6252  0.5762
  428TMC3    C7 6390   1.646   3.993  15.226 -0.1299  0.2398  0.3499
  428TMC3    C8 6391   1.233   3.753  15.175 -0.2075  0.5258 -0.0339
  428TMC3    O1 6392   1.666   3.915  15.320  0.1527  0.5487 -0.5357
  428TMC3    O2 6393   1.306   3.653  15.169 -0.6849 -0.3260 -0.0482
  429MPD2     C 6394   1.972   4.473   0.202  0.2753 -0.7684 -0.1023
  429MPD2    C1 6395   2.079   4.395   0.168 -0.2820  0.0667 -0.3226
  429MPD2    C2 6396   2.182   4.452   0.102  0.0601  0.0445  0.1407
  429MPD2    C3 6397   2.187   4.590   0.083 -0.1170 -0.8112 -0.0978
  429MPD2    C4 6398   2.084   4.668   0.129 -0.6839  0.3969 -0.0264
  429MPD2    C5 6399   1.973   4.608   0.184  0.6917 -0.1105  0.4699
  429MPD2     H 6400   2.258   4.381   0.072  0.2524 -0.3603  1.5868
  429MPD2    H1 6401   2.083   0.046   0.100 -0.7509  0.3700 -0.1228
  429MPD2    H2 6402   1.880   4.431   0.242 -0.1052  0.8506  0.7463
  429MPD2    H3 6403   1.884   4.667   0.201  0.0341 -1.0644  0.3595
  429MPD2     N 6404   2.296   4.639   0.006  0.3467  0.1579 -0.0725
  429MPD2    H5 6405   2.342   4.564  17.663 -0.7585 -0.1540 -0.6282
  429MPD2    N1 6406   2.087   4.255   0.192  0.2527 -0.4694 -0.1440
  429MPD2    H7 6407   2.175   4.207   0.173 -0.0723 -1.1567  0.0771
  430TMC3    C1 6408   2.427   0.060  17.586 -0.1320 -0.2563 -0.0002
  430TMC3    C2 6409   2.437   0.184  17.525  0.0030 -0.0878  0.3227
  430TMC3    C3 6410   2.544   0.212  17.447 -0.0197 -0.0066  0.0110
  430TMC3    C4 6411   2.514   4.685  17.557 -0.6336 -0.1980 -0.7600
  430TMC3    C5 6412   2.618   4.712  17.481  0.7518  0.1416 -0.1330
  430TMC3    C6 6413   2.632   0.109  17.422 -0.7278 -0.0954  0.2703
  430TMC3     C 6414   2.324   0.044  17.687  0.4316  0.2666 -0.4889
  430TMC3     O 6415   2.266   0.143   0.028  0.1237  0.2937 -0.3516
  430TMC3     H 6416   2.372   0.262  17.563 -2.5476 -2.2827  0.4581
  430TMC3    H1 6417   2.515   4.592  17.612 -0.0235  0.8324  0.9536
  430TMC3    H2 6418   2.723   0.120  17.364 -1.4128  0.0269 -0.7875
  430TMC3    C7 6419   2.670   4.598  17.407  0.0803 -0.3749 -0.2915
  430TMC3    C8 6420   2.514   0.277  17.326 -0.2277 -0.5053 -0.4346
  430TMC3    O1 6421   2.647   4.486  17.451  0.2733  0.1828  0.2732
  430TMC3    O2 6422   2.552   0.219  17.225 -0.3290 -0.6273  0.3876
  431MPD2     C 6423   2.941   0.382  12.898  0.1533 -0.6882  0.3534
  431MPD2    C1 6424   2.977   0.404  12.766  0.3131 -0.1381 -0.1055
  431MPD2    C2 6425   2.984   0.303  12.681  0.2437 -0.0189  0.2308
  431MPD2    C3 6426   2.973   0.170  12.715  0.0550 -0.1136  0.3135
  431MPD2    C4 6427   2.941   0.144  12.851  0.0682  0.4109  0.2837
  431MPD2    C5 6428   2.921   0.250  12.933  0.3430  0.2631  0.3214
  431MPD2     H 6429   3.010   0.327  12.578  0.8531  3.8771  1.2901
  431MPD2    H1 6430   2.917   0.044  12.885 -0.7145  0.7961  0.8490
  431MPD2    H2 6431   2.923   0.459  12.972 -1.5334 -0.7788  0.0483
  431MPD2    H3 6432   2.869   0.229  13.026  1.4723  0.8414  1.0754
  431MPD2     N 6433   3.002   0.053  12.634  0.0001  0.4276  0.3497
  431MPD2    H5 6434   3.016   4.690  12.679 -0.9124 -0.5666 -1.3680
  431MPD2    N1 6435   3.039   0.526  12.716 -0.0599 -0.1405  0.2491
  431MPD2    H7 6436   3.073   0.531  12.621  0.5049  1.1634  0.5155
  432TMC3    C1 6437   3.071   4.668  12.436 -0.6586 -0.8200 -0.2401
  432TMC3    C2 6438   3.075   4.653  12.301 -0.0088  0.0671  0.6345
  432TMC3    C3 6439   3.108   4.527  12.253  0.0138 -0.3704 -0.4156
  432TMC3    C4 6440   3.064   4.556  12.513  0.6033  0.0717 -0.1656
  432TMC3    C5 6441   3.101   4.435  12.456 -0.1592  0.1222 -0.6567
  432TMC3    C6 6442   3.126   4.414  12.326 -0.4224 -0.1019  0.1094
  432TMC3     C 6443   3.032   0.070  12.499  0.2792 -0.2899 -0.0929
  432TMC3     O 6444   3.030   0.168  12.429 -0.0837  0.0581  0.4172
  432TMC3     H 6445   3.081   0.003  12.224 -0.1999 -1.4064 -0.8398
  432TMC3    H1 6446   3.070   4.556  12.621 -0.0273  1.5928 -0.1377
  432TMC3    H2 6447   3.147   4.322  12.273 -2.8205  0.0591 -1.1116
  432TMC3    C7 6448   3.109   4.308  12.537  0.6710  0.8727 -1.0235
  432TMC3    C8 6449   3.157   4.518  12.115  0.4282  0.3839  0.0228
  432TMC3    O1 6450   3.195   4.233  12.500 -0.0641 -0.9151 -1.1759
  432TMC3    O2 6451   3.097   4.585  12.037  0.3058 -0.1337 -0.2706
  433MPD2     C 6452   2.522   3.712  11.206  0.2150 -0.4281 -0.2669
  433MPD2    C1 6453   2.440   3.599  11.219 -0.3422 -0.3723 -0.4045
  433MPD2    C2 6454   2.377   3.580  11.338 -0.4280 -0.2413  0.0652
  433MPD2    C3 6455   2.383   3.677  11.439 -0.1112  0.5417 -0.1354
  433MPD2    C4 6456   2.448   3.798  11.410  0.4793 -0.5349 -0.1595
  433MPD2    C5 6457   2.530   3.811  11.306 -0.3910 -0.1707  0.1458
  433MPD2     H 6458   2.307   3.500  11.360 -0.2205 -1.1170 -2.4389
  433MPD2    H1 6459   2.451   3.884  11.476 -1.0220  1.3537 -2.5569
  433MPD2    H2 6460   2.586   3.720  11.119  0.7016  0.4304  0.1764
  433MPD2    H3 6461   2.603   3.891  11.290 -0.4405 -0.5840 -2.1195
  433MPD2     N 6462   2.330   3.638  11.563  0.0943 -0.2687 -0.5138
  433MPD2    H5 6463   2.278   3.551  11.557  1.2378 -1.1440  2.4478
  433MPD2    N1 6464   2.433   3.515  11.110 -0.4164 -0.3907  0.1674
  433MPD2    H7 6465   2.503   3.528  11.038 -1.8410  0.4588 -1.0385
  434TMC3    C1 6466   2.386   3.324  11.002  0.3186  0.6388 -0.0505
  434TMC3    C2 6467   2.516   3.286  11.019 -0.2859 -0.2877 -0.0979
  434TMC3    C3 6468   2.572   3.175  10.956 -0.0539  0.1633  0.3451
  434TMC3    C4 6469   2.302   3.247  10.928 -0.2597 -0.6635 -0.7113
  434TMC3    C5 6470   2.355   3.137  10.872  0.3127  1.0288 -0.2061
  434TMC3    C6 6471   2.486   3.104  10.881  0.0864 -0.2005 -0.0178
  434TMC3     C 6472   2.337   3.414  11.099  0.1123  0.0250 -0.2863
  434TMC3     O 6473   2.237   3.388  11.164  0.4500 -0.3247  0.0302
  434TMC3     H 6474   2.577   3.339  11.092 -3.6056 -0.4307  2.7690
  434TMC3    H1 6475   2.195   3.266  10.918  0.0547  0.2717 -2.3580
  434TMC3    H2 6476   2.522   3.012  10.837  3.4241  0.9926  0.2909
  434TMC3    C7 6477   2.267   3.048  10.789  0.4096  0.0797 -1.1855
  434TMC3    C8 6478   2.664   3.101  11.038  0.3686 -0.3795 -0.0113
  434TMC3    O1 6479   2.166   3.099  10.738 -0.3037 -0.6094 -0.4804
  434TMC3    O2 6480   2.659   3.129  11.157 -0.6866 -0.5564  0.1655
  435MPD2     C 6481   4.155   2.945  15.811  0.2708  0.1430  0.5669
  435MPD2    C1 6482   4.139   2.936  15.946  0.1657 -0.4013  0.0033
  435MPD2    C2 6483   4.227   2.859  16.017 -0.4037 -0.3959 -0.0699
  435MPD2    C3 6484   4.337   2.805  15.959 -0.2527  1.0514 -0.2564
  435MPD2    C4 6485   4.355   2.823  15.827 -0.4469 -0.2479  0.3568
  435MPD2    C5 6486   4.254   2.880  15.753 -0.2215  0.8910  0.4796
  435MPD2     H 6487   4.223   2.867  16.125  2.2237  0.6226 -0.0460
  435MPD2    H1 6488   4.438   2.780  15.772  0.0313 -0.5759  1.3220
  435MPD2    H2 6489   4.084   3.001  15.751 -0.4326 -0.0864  1.1739
  435MPD2    H3 6490   4.278   2.893  15.648 -0.2854  2.8276  0.6913
  435MPD2     N 6491   4.426   2.717  16.030  0.0084 -0.1103  0.2380
  435MPD2    H5 6492   4.411   2.697  16.128 -1.3640  1.0427  0.2760
  435MPD2    N1 6493   4.040   3.001  16.018 -0.0208 -0.7106 -0.2130
  435MPD2    H7 6494   4.028   2.961  16.111 -2.0630  1.5192  0.4993
  436TMC3    C1 6495   3.797   3.155  16.298 -0.6425  0.3506 -0.6325
  436TMC3    C2 6496   3.884   3.114  16.200  0.2342 -0.4142 -0.8260
  436TMC3    C3 6497   3.858   3.147  16.072  0.0585  0.0428 -0.2580
  436TMC3    C4 6498   3.690   3.237  16.280  0.0140 -0.6675 -0.0706
  436TMC3    C5 6499   3.674   3.278  16.146  0.3358  0.4818  1.0979
  436TMC3    C6 6500   3.751   3.235  16.038  0.0365 -0.3994 -0.1270
  436TMC3     C 6501   3.839   3.109  16.433  0.2436 -0.1848  0.1307
  436TMC3     O 6502   3.925   3.025  16.450 -0.5636 -0.1845 -0.0498
  436TMC3     H 6503   3.978   3.071  16.233  1.0199  2.0558  0.1537
  436TMC3    H1 6504   3.624   3.266  16.361  1.4894 -0.6022  1.1176
  436TMC3    H2 6505   3.746   3.277  15.938 -0.8519 -0.0703  0.0592
  436TMC3    C7 6506   3.568   3.373  16.101  0.0037 -0.0875  0.3808
  436TMC3    C8 6507   3.951   3.091  15.972 -0.8647 -0.9844 -0.0092
  436TMC3    O1 6508   3.563   3.407  15.981  0.3693  0.0644 -0.7959
  436TMC3    O2 6509   3.944   3.136  15.858 -0.5889 -0.1153 -0.2947
  437TMC3    C1 6510   2.604   0.828  13.007 -0.5652 -0.1942 -0.0766
  437TMC3    C2 6511   2.480   0.882  12.980 -0.4583  1.0102  0.5171
  437TMC3    C3 6512   2.471   0.986  12.887 -1.1070 -0.1123 -0.1804
  437TMC3    C4 6513   2.711   0.858  12.923  0.1663  0.3880  0.2443
  437TMC3    C5 6514   2.692   0.964  12.837  0.6457  0.0246  0.0720
  437TMC3    C6 6515   2.578   1.033  12.820  0.4962 -0.0111 -0.7596
  437TMC3     C 6516   2.605   0.715  13.099  0.0097  0.6688 -0.6761
  437TMC3     O 6517   2.499   0.677  13.157 -0.1826  0.4891  0.4069
  437TMC3     H 6518   2.400   0.859  13.050  0.2250  1.4861  1.4529
  437TMC3    H1 6519   2.799   0.795  12.917  0.0633  0.1481  1.3904
  437TMC3    H2 6520   2.577   1.106  12.741 -1.4235 -0.4675 -1.1630
  437TMC3    C7 6521   2.795   0.977  12.736 -0.2196  0.2870 -0.0742
  437TMC3    C8 6522   2.354   1.074  12.907 -0.1533  0.2459 -0.7345
  437TMC3    O1 6523   2.764   1.036  12.635 -0.0258 -0.4637  0.1699
  437TMC3    O2 6524   2.270   1.056  12.996  0.2963 -0.0018 -0.6227
  438MPD2     C 6525   0.649   0.988  17.482  0.1390 -0.4998 -0.0326
  438MPD2    C1 6526   0.676   0.922  17.365 -0.9440  0.1591 -0.9547
  438MPD2    C2 6527   0.640   0.976  17.247 -0.6653  0.2206  0.7648
  438MPD2    C3 6528   0.557   1.084  17.244  0.6341 -0.4230  0.4348
  438MPD2    C4 6529   0.528   1.151  17.353 -0.7020  0.0789  0.9876
  438MPD2    C5 6530   0.571   1.101  17.472  0.6104 -0.0976 -0.6588
  438MPD2     H 6531   0.668   0.919  17.160  0.1074 -0.2375  1.3239
  438MPD2    H1 6532   0.481   1.248  17.344 -0.4540 -0.0118 -1.2176
  438MPD2    H2 6533   0.678   0.944  17.577  1.2381  1.2974  0.4680
  438MPD2    H3 6534   0.543   1.150  17.564  1.6098  0.3781 -0.5993
  438MPD2     N 6535   0.499   1.124  17.116 -0.3775  0.2442  0.8122
  438MPD2    H5 6536   0.435   1.203  17.118 -0.2030  0.4092 -0.1951
  438MPD2    N1 6537   0.733   0.795  17.356 -0.2702 -0.5704 -0.6135
  438MPD2    H7 6538   0.738   0.745  17.268 -2.9430 -1.4887 -0.2561
  439TMC3    C1 6539   0.809   0.581  17.403 -0.1836 -0.2888 -0.1375
  439TMC3    C2 6540   0.737   0.521  17.303 -0.6642  0.0398 -0.2232
  439TMC3    C3 6541   0.777   0.400  17.252  0.3013 -0.4510  0.4095
  439TMC3    C4 6542   0.911   0.515  17.460  0.7761  0.5263  0.3770
  439TMC3    C5 6543   0.943   0.391  17.409 -0.3471  0.3949  0.0863
  439TMC3    C6 6544   0.877   0.327  17.309 -0.3224 -0.8431  0.3857
  439TMC3     C 6545   0.775   0.711  17.459 -0.0645 -0.4831 -0.5087
  439TMC3     O 6546   0.810   0.750  17.567 -0.3278 -0.3321 -0.2157
  439TMC3     H 6547   0.645   0.563  17.264 -0.5157  0.0622 -0.5533
  439TMC3    H1 6548   0.969   0.567  17.535 -0.6811  3.5149 -0.5848
  439TMC3    H2 6549   0.910   0.231  17.271 -0.7717 -0.0133 -2.1298
  439TMC3    C7 6550   1.087   0.353  17.427  0.0285 -0.5447  0.1806
  439TMC3    C8 6551   0.759   0.368  17.113 -0.3662  0.2962  0.2418
  439TMC3    O1 6552   1.164   0.445  17.458  0.2396 -0.7551  0.0633
  439TMC3    O2 6553   0.811   0.269  17.070 -0.0079  0.1591 -0.1826
  440MPD2     C 6554   4.028   1.316  14.729 -0.4622  0.1278 -0.0680
  440MPD2    C1 6555   4.071   1.407  14.822  0.1434 -0.4071 -0.2669
  440MPD2    C2 6556   4.172   1.371  14.908 -0.8560 -0.3087  0.0730
  440MPD2    C3 6557   4.236   1.255  14.893 -0.0689 -0.5281 -0.3216
  440MPD2    C4 6558   4.207   1.170  14.788  0.0895  0.4319  0.3789
  440MPD2    C5 6559   4.102   1.199  14.711  0.1166  0.5928 -0.0127
  440MPD2     H 6560   4.204   1.444  14.982  0.8466 -0.3162 -0.6681
  440MPD2    H1 6561   4.284   1.096  14.771 -0.1624 -0.1033  1.6015
  440MPD2    H2 6562   3.945   1.341  14.664 -2.2172 -1.6450  1.4941
  440MPD2    H3 6563   4.086   1.133  14.626 -1.3691  1.7025 -0.5914
  440MPD2     N 6564   4.350   1.225  14.975  0.8493 -0.1933 -0.2105
  440MPD2    H5 6565   4.379   1.128  14.973  0.4201 -0.3075 -1.2049
  440MPD2    N1 6566   4.010   1.525  14.846  0.1531 -0.4931  0.0907
  440MPD2    H7 6567   4.045   1.569  14.931  1.1039  0.6999 -0.9246
  441TMC3    C1 6568   4.518   1.252  15.146  0.5184  0.5972  0.2215
  441TMC3    C2 6569   4.596   1.352  15.196  0.2398  0.2242 -0.5572
  441TMC3    C3 6570   4.663   1.338  15.316 -0.9184 -0.2748  0.7810
  441TMC3    C4 6571   4.501   1.139  15.222 -0.0014  0.0094  0.3762
  441TMC3    C5 6572   4.585   1.117  15.331 -0.8068 -0.6402  0.8528
  441TMC3    C6 6573   4.671   1.213  15.377  0.1757 -0.6985 -0.1823
  441TMC3     C 6574   4.410   1.310  15.067  0.4331  0.4541  0.3016
  441TMC3     O 6575   4.392   1.426  15.096 -0.5002  0.4179 -0.2135
  441TMC3     H 6576   4.619   1.442  15.141 -0.2171  0.3387 -0.5667
  441TMC3    H1 6577   4.426   1.065  15.197 -1.2856  1.5592 -0.3686
  441TMC3    H2 6578   4.720   1.200  15.473  1.2538  1.3108 -0.4697
  441TMC3    C7 6579   4.551   1.006  15.421 -0.0303  0.0798 -0.0957
  441TMC3    C8 6580   4.636   1.439  15.416 -0.2359 -0.8654 -0.8151
  441TMC3    O1 6581   4.442   0.951  15.403  0.1012  0.5846 -0.1349
  441TMC3    O2 6582   4.681   1.422  15.530  0.4336  0.5506 -0.0966
  442MPD2     C 6583   2.412   2.063  16.716 -0.1191 -0.2190 -0.3036
  442MPD2    C1 6584   2.300   1.989  16.760  0.2658  0.1549  0.2095
  442MPD2    C2 6585   2.263   1.866  16.694 -0.3457 -0.1197  0.0562
  442MPD2    C3 6586   2.349   1.815  16.601  0.4305  0.3337 -0.9543
  442MPD2    C4 6587   2.463   1.887  16.574 -0.0166 -0.0926 -0.8960
  442MPD2    C5 6588   2.490   2.010  16.623  0.6558 -0.8303 -0.4488
  442MPD2     H 6589   2.168   1.819  16.718 -0.0894 -0.9019 -0.4636
  442MPD2    H1 6590   2.534   1.860  16.497  2.0431 -1.2494  1.4067
  442MPD2    H2 6591   2.442   2.155  16.765 -0.0082  0.0212 -0.8256
  442MPD2    H3 6592   2.582   2.058  16.591  0.6892  0.0654  0.9812
  442MPD2     N 6593   2.337   1.683  16.544 -0.0365 -0.7053  0.2983
  442MPD2    H5 6594   2.404   1.660  16.472  0.1807 -2.1030  0.9407
  442MPD2    N1 6595   2.221   2.026  16.872  0.5544 -0.2945  0.1706
  442MPD2    H7 6596   2.134   1.974  16.883  0.8247 -1.2597 -2.2651
  443TMC3    C1 6597   2.122   2.192  17.020  0.5174 -0.2519 -0.1135
  443TMC3    C2 6598   2.059   2.283  16.934  0.2149  0.3589 -0.4486
  443TMC3    C3 6599   1.924   2.301  16.942  0.4746 -0.3059 -0.2406
  443TMC3    C4 6600   2.051   2.127  17.116  0.1355 -0.5289  1.1347
  443TMC3    C5 6601   1.921   2.150  17.128 -1.2406 -1.4117 -0.1585
  443TMC3    C6 6602   1.860   2.234  17.039  0.3154 -0.6526  0.0851
  443TMC3     C 6603   2.243   2.134  16.957 -0.1147  0.0617  0.0371
  443TMC3     O 6604   2.344   2.200  16.967 -0.1697  0.0213  0.4737
  443TMC3     H 6605   2.117   2.320  16.850  0.3541  1.5019  0.1511
  443TMC3    H1 6606   2.100   2.048  17.172  0.4473 -0.8722  0.3773
  443TMC3    H2 6607   1.752   2.248  17.032  0.5247  0.7257 -0.3549
  443TMC3    C7 6608   1.843   2.058  17.213  0.3411  0.4189 -0.8374
  443TMC3    C8 6609   1.860   2.281  16.816  0.0725 -0.4505 -0.6102
  443TMC3    O1 6610   1.902   1.968  17.266 -0.0443 -0.1324 -0.1202
  443TMC3    O2 6611   1.773   2.195  16.808  0.4097 -0.5206 -0.0844
  444MPD2     C 6612   2.248   1.451  17.081 -1.1736  0.3524  0.9960
  444MPD2    C1 6613   2.257   1.372  17.198  0.3601  0.0754  0.1443
  444MPD2    C2 6614   2.364   1.284  17.205 -0.4124  0.0360  0.5023
  444MPD2    C3 6615   2.461   1.277  17.112  0.6099  0.0552 -0.5366
  444MPD2    C4 6616   2.457   1.361  16.999  0.3290  0.2119 -0.3284
  444MPD2    C5 6617   2.349   1.449  16.984  0.0150 -0.6364  0.5371
  444MPD2     H 6618   2.367   1.213  17.287 -0.2140 -0.6964 -0.1405
  444MPD2    H1 6619   2.535   1.373  16.925  2.3084  0.9039  1.8694
  444MPD2    H2 6620   2.171   1.525  17.062 -0.0635  0.5235 -2.7808
  444MPD2    H3 6621   2.336   1.501  16.890 -0.3341 -0.3422  0.7488
  444MPD2     N 6622   2.577   1.199  17.143  0.2503  0.6095 -0.6771
  444MPD2    H5 6623   2.574   1.144  17.229 -2.1054  0.2691 -0.9505
  444MPD2    N1 6624   2.159   1.368  17.298 -0.3794  0.2355  0.5304
  444MPD2    H7 6625   2.183   1.307  17.376  1.2476  0.5720  0.2693
  445TMC3    C1 6626   2.765   1.069  17.115  1.0977  0.3323 -0.1060
  445TMC3    C2 6627   2.776   1.058  17.254  0.3165  0.1207  0.2862
  445TMC3    C3 6628   2.843   0.950  17.306 -1.1049  0.3424  0.0020
  445TMC3    C4 6629   2.826   0.985  17.028  0.4043  0.7272 -0.9888
  445TMC3    C5 6630   2.901   0.881  17.091  0.8821 -0.1737  0.0163
  445TMC3    C6 6631   2.903   0.860  17.229  0.5659  0.1434  0.1847
  445TMC3     C 6632   2.667   1.157  17.055 -0.0296 -0.3599 -0.0740
  445TMC3     O 6633   2.690   1.199  16.944  0.3018  0.3453 -0.5586
  445TMC3     H 6634   2.738   1.137  17.317  0.0302 -0.0821  0.3689
  445TMC3    H1 6635   2.808   0.984  16.921  0.6012  1.3117 -1.0279
  445TMC3    H2 6636   2.951   0.778  17.282 -1.1721 -0.6781  0.4943
  445TMC3    C7 6637   2.997   0.814  17.002 -0.6894  0.0233  0.4442
  445TMC3    C8 6638   2.794   0.892  17.434 -0.0126  0.3744  0.7896
  445TMC3    O1 6639   3.001   0.842  16.881  0.5689  0.1694 -0.2512
  445TMC3    O2 6640   2.768   0.775  17.438  0.2404 -0.6751  0.1095
  446MPD2     C 6641   2.206   2.986  11.479 -0.4954  0.0201  0.8814
  446MPD2    C1 6642   2.272   2.984  11.361 -1.0250 -0.5582 -0.1206
  446MPD2    C2 6643   2.374   3.075  11.336 -0.9625 -0.3354 -0.6526
  446MPD2    C3 6644   2.417   3.164  11.430 -0.2758 -0.7121 -0.0539
  446MPD2    C4 6645   2.342   3.175  11.543  0.5411  0.0466  0.2617
  446MPD2    C5 6646   2.243   3.084  11.574 -0.1406 -0.4437 -0.4958
  446MPD2     H 6647   2.434   3.065  11.246  0.0272  1.5826 -0.2117
  446MPD2    H1 6648   2.369   3.240  11.626 -3.6472  1.9130  0.1773
  446MPD2    H2 6649   2.128   2.914  11.502 -0.9623  0.0949 -0.4702
  446MPD2    H3 6650   2.183   3.086  11.664 -1.0497  0.8788 -1.1261
  446MPD2     N 6651   2.536   3.237  11.406  0.0185 -0.4063  0.2940
  446MPD2    H5 6652   2.580   3.217  11.316 -0.8168  1.9510 -0.6222
  446MPD2    N1 6653   2.218   2.897  11.260  0.0445  0.6195 -0.4477
  446MPD2    H7 6654   2.243   2.912  11.163 -0.3224 -0.4911 -0.7087
  447TMC3    C1 6655   2.740   3.344  11.441 -0.0802  0.7099  0.2462
  447TMC3    C2 6656   2.744   3.373  11.306 -0.8666 -0.2546 -0.7677
  447TMC3    C3 6657   2.860   3.342  11.238  0.1488  0.3280  1.1815
  447TMC3    C4 6658   2.827   3.262  11.506 -0.2313  0.0568  0.7255
  447TMC3    C5 6659   2.938   3.231  11.429 -0.2981 -0.0604  0.7278
  447TMC3    C6 6660   2.964   3.284  11.304  0.3098  0.3676 -0.0162
  447TMC3     C 6661   2.606   3.318  11.494 -0.0613  0.2777  0.0639
  447TMC3     O 6662   2.589   3.337  11.612 -0.2960  0.2679  0.0750
  447TMC3     H 6663   2.672   3.439  11.259 -0.8532  0.7334  0.5963
  447TMC3    H1 6664   2.804   3.242  11.610 -0.8650  0.1478  0.6013
  447TMC3    H2 6665   3.057   3.265  11.252  0.2291 -0.7793  0.2632
  447TMC3    C7 6666   3.030   3.125  11.468  0.0111  0.6898 -0.4365
  447TMC3    C8 6667   2.881   3.377  11.100 -0.3719 -0.2799 -0.4394
  447TMC3    O1 6668   3.139   3.119  11.412 -0.2238 -0.3673 -0.0892
  447TMC3    O2 6669   2.812   3.469  11.062  0.3166  0.5953  0.6568
  448TMC3    C1 6670   1.306   2.336  17.037  0.0061 -0.0208 -0.9082
  448TMC3    C2 6671   1.239   2.230  16.988 -0.0425  0.7513 -0.6006
  448TMC3    C3 6672   1.155   2.160  17.068 -0.3978 -0.1407  0.3630
  448TMC3    C4 6673   1.283   2.370  17.170  0.0448 -0.4831 -0.1667
  448TMC3    C5 6674   1.205   2.282  17.247  0.2920  0.4553 -1.0524
  448TMC3    C6 6675   1.145   2.176  17.198  0.1444 -0.4964 -0.2904
  448TMC3     C 6676   1.374   2.427  16.949  0.2107 -0.1013 -0.0253
  448TMC3     O 6677   1.376   2.545  16.987  0.0688  0.5814  0.4581
  448TMC3     H 6678   1.230   2.214  16.881  0.9731  0.7893 -0.6877
  448TMC3    H1 6679   1.341   2.457  17.198 -2.3008  0.6745  1.0545
  448TMC3    H2 6680   1.100   2.104  17.266  3.7023 -3.0609 -0.6356
  448TMC3    C7 6681   1.226   2.285  17.399 -0.4929 -0.8551 -0.4348
  448TMC3    C8 6682   1.116   2.027  17.020 -0.3885  0.1917  0.5387
  448TMC3    O1 6683   1.318   2.359  17.435  0.1054 -0.3237  0.1044
  448TMC3    O2 6684   1.047   1.967  17.102  0.3781  0.0474 -0.2745
  449MPD2     C 6685   1.697   1.024  14.070  0.1328 -0.1298  0.0224
  449MPD2    C1 6686   1.595   0.991  13.987 -0.2481 -0.1964  0.2866
  449MPD2    C2 6687   1.539   0.865  13.999 -0.3315 -0.5129 -0.7022
  449MPD2    C3 6688   1.584   0.776  14.097  0.2057 -0.1274 -0.1570
  449MPD2    C4 6689   1.693   0.809  14.179 -0.4226 -0.4518 -0.2313
  449MPD2    C5 6690   1.737   0.937  14.168 -0.3588  0.3314 -0.0838
  449MPD2     H 6691   1.458   0.837  13.931 -0.0135 -0.0775 -1.2569
  449MPD2    H1 6692   1.731   0.737  14.251 -1.6627  0.7236  1.6040
  449MPD2    H2 6693   1.738   1.124  14.084  3.7026 -1.7778  1.2141
  449MPD2    H3 6694   1.814   0.957  14.243 -1.5493  0.5688  1.0667
  449MPD2     N 6695   1.516   0.659  14.103 -0.0560 -0.2802 -0.3908
  449MPD2    H5 6696   1.450   0.649  14.026 -0.0006 -0.7461 -0.3815
  449MPD2    N1 6697   1.536   1.078  13.905 -0.0934  0.2756  0.0885
  449MPD2    H7 6698   1.450   1.052  13.859  1.0378 -0.0787 -1.8659
  450TMC3    C1 6699   1.515   1.240  13.756 -0.4494  0.6075  0.2028
  450TMC3    C2 6700   1.579   1.254  13.639  0.9622  0.0053  0.1063
  450TMC3    C3 6701   1.499   1.223  13.525  0.2406 -0.2712  0.2140
  450TMC3    C4 6702   1.386   1.208  13.771 -0.1201 -0.3073 -0.1212
  450TMC3    C5 6703   1.305   1.181  13.663  0.0213 -0.1574  1.1813
  450TMC3    C6 6704   1.362   1.186  13.537  0.0188 -0.2629 -0.1582
  450TMC3     C 6705   1.596   1.195  13.863 -0.2096  0.1456  0.0361
  450TMC3     O 6706   1.714   1.235  13.879 -0.3614 -0.5975  0.0494
  450TMC3     H 6707   1.681   1.290  13.640  1.0623 -0.3052  0.5910
  450TMC3    H1 6708   1.354   1.213  13.874 -1.0325  1.3731 -0.4933
  450TMC3    H2 6709   1.310   1.132  13.459  1.2038  1.2111 -1.9561
  450TMC3    C7 6710   1.243   1.060  13.702  0.2741  0.2184  0.6568
  450TMC3    C8 6711   1.566   1.195  13.397  0.2519  0.3048  0.3338
  450TMC3    O1 6712   1.284   1.016  13.808  0.4201  0.3495  0.1499
  450TMC3    O2 6713   1.486   1.165  13.308  0.1396  0.1944 -0.6833
  451MPD2     C 6714   3.403   4.647   1.245  0.0903  0.9709 -0.3092
  451MPD2    C1 6715   3.403   4.576   1.364  0.0159  0.4686 -0.5171
  451MPD2    C2 6716   3.399   4.434   1.360 -0.4631 -0.2416  0.2721
  451MPD2    C3 6717   3.398   4.366   1.241 -0.6031 -0.9051  0.0999
  451MPD2    C4 6718   3.399   4.437   1.124  0.2155  0.5483 -0.6798
  451MPD2    C5 6719   3.404   4.578   1.130 -0.3545  0.5426 -0.0276
  451MPD2     H 6720   3.408   4.381   1.454  0.0019 -1.7177 -0.5985
  451MPD2    H1 6721   3.399   4.393   1.025 -1.0285  0.2402 -0.5449
  451MPD2    H2 6722   3.399   0.029   1.247 -0.2361  1.0056 -2.0498
  451MPD2    H3 6723   3.391   4.634   1.038 -0.3292 -0.9006 -0.9194
  451MPD2     N 6724   3.389   4.227   1.238 -0.3106  0.3800  0.1036
  451MPD2    H5 6725   3.403   4.182   1.148  0.0395 -0.6222  0.6620
  451MPD2    N1 6726   3.402   4.650   1.489 -0.3056 -0.5290  0.0882
  451MPD2    H7 6727   3.397   0.024   1.474 -0.8265 -0.4062  1.0803
  452TMC3    C1 6728   3.411   4.003   1.331 -0.0555  0.0633 -0.7594
  452TMC3    C2 6729   3.382   3.918   1.439  0.2278  0.0237  0.3179
  452TMC3    C3 6730   3.458   3.801   1.459 -0.4195 -0.4773  0.2258
  452TMC3    C4 6731   3.524   3.976   1.254 -0.3120  0.3274 -0.3366
  452TMC3    C5 6732   3.590   3.860   1.272  0.0528 -0.1684  0.0622
  452TMC3    C6 6733   3.559   3.771   1.372 -0.1548  0.1386 -0.2681
  452TMC3     C 6734   3.372   4.141   1.348  0.4079  0.1577  0.3706
  452TMC3     O 6735   3.340   4.158   1.462  0.0496  0.6782  0.5223
  452TMC3     H 6736   3.310   3.947   1.514  0.5276  2.1249 -0.2117
  452TMC3    H1 6737   3.538   4.033   1.163 -0.7826 -0.2168 -0.7489
  452TMC3    H2 6738   3.613   3.679   1.393  0.4772  1.0145  2.0257
  452TMC3    C7 6739   3.680   3.824   1.174 -0.1974 -0.1658  0.7244
  452TMC3    C8 6740   3.477   3.767   1.597 -0.0437  0.5707 -0.1977
  452TMC3    O1 6741   3.727   3.923   1.120 -0.5629  0.4470  0.0683
  452TMC3    O2 6742   3.390   3.799   1.674  0.1760 -0.0497  0.0506
  453TMC3    C1 6743   4.501   1.814  12.073  0.6283  1.1210  0.2327
  453TMC3    C2 6744   4.437   1.704  12.041 -0.4792  0.7740  0.3845
  453TMC3    C3 6745   4.419   1.673  11.911  0.0405  0.6791  0.3836
  453TMC3    C4 6746   4.545   1.907  11.983 -0.3283  0.4472  0.4064
  453TMC3    C5 6747   4.534   1.866  11.854  0.4549 -0.0564 -0.2006
  453TMC3    C6 6748   4.482   1.748  11.815 -0.0215  0.1789  0.2153
  453TMC3     C 6749   4.611   1.806  12.162  0.0771 -0.4781  0.1030
  453TMC3     O 6750   4.681   1.906  12.177 -0.5222  0.3580  0.4865
  453TMC3     H 6751   4.397   1.634  12.113 -2.2808 -1.0237 -2.3367
  453TMC3    H1 6752   4.587   2.004  12.006 -1.3676  1.4208 -1.7522
  453TMC3    H2 6753   4.464   1.741  11.709 -2.6340 -1.1619  0.7457
  453TMC3    C7 6754   4.622   1.931  11.758 -0.3912  0.5626 -0.4255
  453TMC3    C8 6755   4.359   1.546  11.879  0.2495  0.0324 -0.7616
  453TMC3    O1 6756   4.693   1.855  11.691  0.3220  0.0255  0.2530
  453TMC3    O2 6757   4.297   1.497  11.972 -0.4989  0.1225  0.3387
  454MPD2     C 6758   3.567   1.255  16.395  0.6283  0.2564 -0.1497
  454MPD2    C1 6759   3.478   1.153  16.418  0.2543 -0.1531 -0.3326
  454MPD2    C2 6760   3.403   1.157  16.536  0.3004 -0.2311 -0.0856
  454MPD2    C3 6761   3.413   1.277  16.616 -0.4281 -0.2869  0.4924
  454MPD2    C4 6762   3.511   1.373  16.595 -0.1580  0.4015 -0.1158
  454MPD2    C5 6763   3.587   1.356  16.486 -0.4853  0.1951  0.3040
  454MPD2     H 6764   3.327   1.087  16.569 -0.2999  0.6174  0.3288
  454MPD2    H1 6765   3.511   1.469  16.645  1.2281  0.5965 -0.4756
  454MPD2    H2 6766   3.624   1.258  16.302 -0.0224 -2.0053 -0.6195
  454MPD2    H3 6767   3.662   1.432  16.468 -1.4966  1.5219  1.6649
  454MPD2     N 6768   3.306   1.291  16.704  0.4829 -0.4090  0.1009
  454MPD2    H5 6769   3.245   1.210  16.705  0.7736 -0.6412 -1.0934
  454MPD2    N1 6770   3.453   1.052  16.324 -0.2855  0.2791  0.0772
  454MPD2    H7 6771   3.485   1.073  16.230  0.2525 -1.3294 -0.1041
  455TMC3    C1 6772   3.110   1.402  16.758  0.1020 -0.3291  0.5883
  455TMC3    C2 6773   3.047   1.481  16.845 -0.1293  0.5247  0.5819
  455TMC3    C3 6774   2.913   1.482  16.850 -0.1434  0.0343 -0.4205
  455TMC3    C4 6775   3.041   1.332  16.663 -0.0316 -0.1243  0.4664
  455TMC3    C5 6776   2.907   1.331  16.674  0.4052  0.5188 -0.2594
  455TMC3    C6 6777   2.833   1.403  16.771 -0.6400 -0.4418  0.0531
  455TMC3     C 6778   3.255   1.405  16.750  0.0505 -0.0873  0.6169
  455TMC3     O 6779   3.300   1.513  16.778 -0.0334  0.0185  0.2177
  455TMC3     H 6780   3.101   1.557  16.901  0.4063 -0.3994  1.3130
  455TMC3    H1 6781   3.104   1.285  16.588 -0.9438 -1.0681  0.2793
  455TMC3    H2 6782   2.724   1.407  16.770 -0.6588 -1.4078 -1.5482
  455TMC3    C7 6783   2.846   1.234  16.584  0.1549  0.4792 -0.2643
  455TMC3    C8 6784   2.855   1.586  16.944  0.2654 -0.2180 -0.3769
  455TMC3    O1 6785   2.914   1.184  16.491 -0.2794  0.3705 -0.0270
  455TMC3    O2 6786   2.933   1.619  17.036  0.2989  0.3889  0.1398
  456MPD2     C 6787   0.924   0.857  16.525 -0.3178 -0.3138 -0.1505
  456MPD2    C1 6788   1.025   0.839  16.617 -0.3845  0.7514  0.2527
  456MPD2    C2 6789   1.015   0.918  16.735 -0.1810 -0.7939  0.8644
  456MPD2    C3 6790   0.901   0.997  16.751  0.4328  0.5349 -0.8961
  456MPD2    C4 6791   0.807   1.014  16.648  0.2318  0.2453 -0.4420
  456MPD2    C5 6792   0.816   0.939  16.541  0.1859 -0.0062 -0.8778
  456MPD2     H 6793   1.096   0.932  16.807 -2.2235 -0.3615  3.1001
  456MPD2    H1 6794   0.719   1.076  16.659  0.0070  0.3469 -2.7135
  456MPD2    H2 6795   0.923   0.807  16.428 -1.9235 -0.5185 -0.0344
  456MPD2    H3 6796   0.742   0.930  16.462  0.6038  0.1165 -1.2778
  456MPD2     N 6797   0.884   1.078  16.868  0.3873 -0.0870 -0.2120
  456MPD2    H5 6798   0.805   1.141  16.865  0.4668 -0.0134 -0.7329
  456MPD2    N1 6799   1.129   0.752  16.581 -0.3378 -0.0271 -0.3231
  456MPD2    H7 6800   1.126   0.710  16.489  0.1136 -0.3059 -0.2112
  457TMC3    C1 6801   0.942   1.177  17.064 -0.7593  0.8473  0.8236
  457TMC3    C2 6802   0.940   1.300  17.009  0.3684  0.2126  0.2588
  457TMC3    C3 6803   0.931   1.407  17.097  0.2844 -0.3847 -0.0908
  457TMC3    C4 6804   0.935   1.158  17.206 -0.1335  0.0493  0.0048
  457TMC3    C5 6805   0.926   1.269  17.285 -0.2099  0.0380 -0.0204
  457TMC3    C6 6806   0.920   1.395  17.230  0.1668 -0.5520  0.1990
  457TMC3     C 6807   0.962   1.071  16.978  0.3226 -0.5557 -0.1933
  457TMC3     O 6808   1.022   0.971  17.016 -0.0401  0.1632 -0.3181
  457TMC3     H 6809   0.962   1.300  16.903 -0.3286 -0.0606  0.1124
  457TMC3    H1 6810   0.943   1.061  17.254  0.5108 -0.2298 -0.6607
  457TMC3    H2 6811   0.921   1.490  17.283 -0.7644  0.4403 -1.5639
  457TMC3    C7 6812   0.887   1.266  17.420  0.6679  0.1607  0.5753
  457TMC3    C8 6813   0.949   1.533  17.037  0.7209  0.2915 -0.5760
  457TMC3    O1 6814   0.934   1.181  17.495 -0.3766  0.2287 -0.3378
  457TMC3    O2 6815   0.924   1.625  17.116  0.3867 -0.0328  0.4510
  458MPD2     C 6816   3.264   1.169  12.653  0.4942 -0.2615 -0.4618
  458MPD2    C1 6817   3.264   1.114  12.777 -0.4490 -0.5770  0.4290
  458MPD2    C2 6818   3.152   1.046  12.824  0.8824  0.3818  0.6810
  458MPD2    C3 6819   3.040   1.038  12.744  0.5918 -0.0078 -0.0129
  458MPD2    C4 6820   3.037   1.112  12.627  0.1591  0.3485  0.6748
  458MPD2    C5 6821   3.151   1.169  12.575 -0.3607 -0.1368  0.1187
  458MPD2     H 6822   3.155   0.998  12.921  3.7762  0.3707  0.6104
  458MPD2    H1 6823   2.958   1.096  12.553  0.3837  0.3680  0.4306
  458MPD2    H2 6824   3.356   1.214  12.617  0.0824  0.4153 -0.6593
  458MPD2    H3 6825   3.155   1.205  12.473  1.4555 -0.1144  0.1891
  458MPD2     N 6826   2.916   0.971  12.795  0.3592 -0.3923 -0.3559
  458MPD2    H5 6827   2.927   0.943  12.891  2.6284 -0.9491 -0.7767
  458MPD2    N1 6828   3.390   1.111  12.842  0.0579  0.2476 -0.2549
  458MPD2    H7 6829   3.462   1.165  12.794  1.4106 -1.1207  0.2256
  459TMC3    C1 6830   3.551   1.056  12.997 -0.3947  0.4860 -0.2065
  459TMC3    C2 6831   3.653   1.094  12.919  0.3404 -0.1462 -0.3304
  459TMC3    C3 6832   3.778   1.048  12.952 -0.3841  0.2594  0.4958
  459TMC3    C4 6833   3.577   0.996  13.121 -0.3760 -0.1309 -0.8082
  459TMC3    C5 6834   3.696   0.937  13.145  0.0107 -0.6862  0.2985
  459TMC3    C6 6835   3.795   0.952  13.054  0.0115 -0.4867  0.5549
  459TMC3     C 6836   3.410   1.060  12.966  0.2623  0.0327  0.8453
  459TMC3     O 6837   3.332   1.021  13.054 -0.0974 -0.5045  0.0621
  459TMC3     H 6838   3.633   1.165  12.839  1.2556  2.3417  1.6179
  459TMC3    H1 6839   3.488   0.986  13.183 -0.8292 -0.0880 -1.4459
  459TMC3    H2 6840   3.895   0.913  13.069 -0.2355 -1.7403 -1.0785
  459TMC3    C7 6841   3.694   0.825  13.237 -0.3866 -0.3339 -0.8681
  459TMC3    C8 6842   3.885   1.065  12.863 -0.0656 -0.6914 -0.1212
  459TMC3    O1 6843   3.754   0.721  13.211  0.2474 -0.2282 -0.5833
  459TMC3    O2 6844   3.997   1.048  12.910 -0.2122  0.4372 -0.3015
  460MPD2     C 6845   3.008   3.128  10.863 -0.0068  0.3196  0.5968
  460MPD2    C1 6846   2.953   3.244  10.896 -0.2058 -0.6559  1.5527
  460MPD2    C2 6847   2.921   3.336  10.791  0.3726  0.0280  0.3720
  460MPD2    C3 6848   2.933   3.305  10.663  0.1873 -0.1866 -0.2833
  460MPD2    C4 6849   2.977   3.181  10.631  0.8881  0.2558 -0.5561
  460MPD2    C5 6850   3.012   3.093  10.730  0.0485  0.1276 -0.3922
  460MPD2     H 6851   2.876   3.428  10.826 -1.1152 -0.2053 -0.9237
  460MPD2    H1 6852   2.990   3.143  10.530 -0.7810  0.8440 -0.9867
  460MPD2    H2 6853   3.042   3.061  10.941 -1.1960 -0.7058  0.2363
  460MPD2    H3 6854   3.052   2.994  10.708 -1.0094 -0.8142  1.8865
  460MPD2     N 6855   2.900   3.399  10.562  0.5329 -0.7721  0.1734
  460MPD2    H5 6856   2.878   3.492  10.596  0.2154 -0.3057 -1.3017
  460MPD2    N1 6857   2.941   3.269  11.034 -0.3738 -0.1116  1.2774
  460MPD2    H7 6858   2.977   3.191  11.088  0.2622  0.2897  1.4203
  461TMC3    C1 6859   2.850   3.490  10.342 -0.0504  0.2043  0.2334
  461TMC3    C2 6860   2.841   3.468  10.206  0.1275 -0.4430  0.2010
  461TMC3    C3 6861   2.829   3.572  10.115  0.2849  0.3524 -0.1843
  461TMC3    C4 6862   2.855   3.623  10.386 -0.0599  0.0632 -0.5896
  461TMC3    C5 6863   2.840   3.719  10.289 -0.4796 -0.7416  0.7946
  461TMC3    C6 6864   2.830   3.700  10.157 -0.2197 -0.3587 -0.5191
  461TMC3     C 6865   2.899   3.379  10.425 -0.1286 -0.0926  0.0305
  461TMC3     O 6866   2.921   3.277  10.359 -0.3792 -0.1515  0.1725
  461TMC3     H 6867   2.844   3.369  10.163 -0.4582 -1.7125  3.1163
  461TMC3    H1 6868   2.842   3.643  10.491 -0.1903 -1.4056 -0.3252
  461TMC3    H2 6869   2.840   3.781  10.086 -1.1353 -0.4998 -0.8039
  461TMC3    C7 6870   2.748   3.815  10.322  0.3234 -0.1361  0.4869
  461TMC3    C8 6871   2.719   3.561  10.021  0.7770  0.1149 -0.7487
  461TMC3    O1 6872   2.678   3.860  10.230  0.2852 -0.3534  0.3345
  461TMC3    O2 6873   2.695   3.457   9.962 -0.2714  0.4896 -0.2552
  462TMC3    C1 6874   2.125   4.496   0.966  0.3230  1.0414 -0.2007
  462TMC3    C2 6875   2.241   4.553   0.926  0.6052 -0.5605  0.0618
  462TMC3    C3 6876   2.336   4.472   0.864  0.0261  0.6915  0.0082
  462TMC3    C4 6877   2.095   4.366   0.953 -1.3301  0.2801  0.8164
  462TMC3    C5 6878   2.196   4.290   0.896 -0.5966  1.0559 -0.0534
  462TMC3    C6 6879   2.310   4.337   0.843 -0.7206 -0.4509  0.0503
  462TMC3     C 6880   2.037   4.575   1.049 -0.5471  0.4273  0.0576
  462TMC3     O 6881   2.084   4.676   1.097  0.5117  0.0391 -0.3005
  462TMC3     H 6882   2.257   4.660   0.932 -0.0374 -0.4226 -0.6692
  462TMC3    H1 6883   2.019   4.319   1.013 -1.3438 -1.4424 -0.5803
  462TMC3    H2 6884   2.359   4.296   0.755 -0.7251  0.4603 -0.3701
  462TMC3    C7 6885   2.155   4.154   0.862 -0.4515 -0.4066 -0.1546
  462TMC3    C8 6886   2.448   4.537   0.798  0.8172 -0.7989  0.0293
  462TMC3    O1 6887   2.031   4.147   0.843  0.3134  0.3394  0.2722
  462TMC3    O2 6888   2.447   4.656   0.776 -0.1437 -0.2396  0.4030
  463MPD2     C 6889   4.105   2.904   1.518  0.1283 -0.5515  0.4233
  463MPD2    C1 6890   4.077   2.828   1.631 -0.5604 -0.2452  0.6892
  463MPD2    C2 6891   4.180   2.739   1.660 -0.0195 -0.0163  0.6271
  463MPD2    C3 6892   4.305   2.740   1.601  0.2123 -0.3665 -0.1967
  463MPD2    C4 6893   4.327   2.821   1.494  0.4197 -0.0991 -0.2184
  463MPD2    C5 6894   4.224   2.895   1.448 -0.2288 -0.2413 -0.6238
  463MPD2     H 6895   4.155   2.678   1.746  1.5960 -3.1209 -1.1254
  463MPD2    H1 6896   4.415   2.807   1.432 -1.3325 -0.0076 -2.7137
  463MPD2    H2 6897   4.030   2.972   1.480  0.5127 -0.0199  0.6133
  463MPD2    H3 6898   4.242   2.953   1.359 -0.1967  2.6184  1.2563
  463MPD2     N 6899   4.408   2.647   1.639 -0.1149 -0.1072  0.0323
  463MPD2    H5 6900   4.499   2.646   1.593 -0.1477  1.9404 -0.0846
  463MPD2    N1 6901   3.956   2.829   1.703  0.1195  0.2702 -0.0722
  463MPD2    H7 6902   3.941   2.757   1.773 -0.4466  0.1826 -0.2880
  464TMC3    C1 6903   3.735   2.898   1.770 -0.0453 -0.2365 -0.6374
  464TMC3    C2 6904   3.649   2.999   1.798  0.5368  0.5238  0.1479
  464TMC3    C3 6905   3.537   2.973   1.871 -0.0152  0.4532 -0.2100
  464TMC3    C4 6906   3.709   2.774   1.823  0.2327 -0.4277 -0.1548
  464TMC3    C5 6907   3.598   2.757   1.906  0.2706  0.4376  0.4185
  464TMC3    C6 6908   3.517   2.861   1.938 -0.0633  0.6778  0.7779
  464TMC3     C 6909   3.858   2.921   1.690 -0.1459 -0.0983  0.4952
  464TMC3     O 6910   3.869   3.027   1.634  0.2650  0.2950 -0.0052
  464TMC3     H 6911   3.661   3.089   1.738  1.6785 -0.3960 -0.9948
  464TMC3    H1 6912   3.760   2.681   1.801  1.7802  0.6443 -1.1005
  464TMC3    H2 6913   3.434   2.848   2.007 -0.0935  0.1937  0.6515
  464TMC3    C7 6914   3.545   2.625   1.930 -0.3538  0.0353  1.2156
  464TMC3    C8 6915   3.439   3.083   1.868  0.3823 -0.1986  0.0099
  464TMC3    O1 6916   3.619   2.542   1.979 -0.0210  0.6647 -0.0094
  464TMC3    O2 6917   3.483   3.190   1.826  0.0232 -0.5652  0.4697
  465MPD2     C 6918   4.232   0.743  17.049 -0.0447 -0.5348 -0.3280
  465MPD2    C1 6919   4.147   0.801  17.141 -0.1958  0.3316 -0.6492
  465MPD2    C2 6920   4.064   0.899  17.088  0.5162  1.1233  0.0723
  465MPD2    C3 6921   4.054   0.936  16.953 -0.5681 -0.6061  0.2562
  465MPD2    C4 6922   4.134   0.865  16.866  0.6203  0.4216 -0.2021
  465MPD2    C5 6923   4.219   0.770  16.918 -0.1689 -0.1211  0.7999
  465MPD2     H 6924   4.012   0.963  17.158 -0.5544 -0.0529  0.3469
  465MPD2    H1 6925   4.129   0.875  16.758 -0.6486  3.8453  0.2045
  465MPD2    H2 6926   4.306   0.671  17.081 -0.6461 -0.1317  1.9784
  465MPD2    H3 6927   4.264   0.698  16.851 -3.1007 -0.5527 -0.7131
  465MPD2     N 6928   3.962   1.030  16.912 -0.0749  0.1423  0.0879
  465MPD2    H5 6929   3.894   1.057  16.982 -0.7204 -1.5649  0.1172
  465MPD2    N1 6930   4.149   0.779  17.279 -0.3757 -0.0357 -0.0407
  465MPD2    H7 6931   4.104   0.855  17.329 -0.7541 -0.2167 -0.1068
  466TMC3    C1 6932   3.746   1.346  16.911  0.8613  0.4126  0.0162
  466TMC3    C2 6933   3.778   1.446  16.821  0.0173  0.2239 -0.2960
  466TMC3    C3 6934   3.855   1.415  16.710 -0.4467 -0.5777  0.4868
  466TMC3    C4 6935   3.794   1.224  16.891 -0.0840  0.6420  0.2442
  466TMC3    C5 6936   3.862   1.195  16.779  0.4417  0.3053  1.1599
  466TMC3    C6 6937   3.901   1.289  16.683 -0.6315  0.4750 -0.2288
  466TMC3     C 6938   3.696   1.375  17.043  0.5711 -0.1287 -0.3945
  466TMC3     O 6939   3.655   1.276  17.098  0.0653 -0.2979 -0.2137
  466TMC3     H 6940   3.742   1.547  16.840 -0.3832  0.0512 -0.1193
  466TMC3    H1 6941   3.757   1.149  16.959  3.0741  0.9881  2.3370
  466TMC3    H2 6942   3.945   1.269  16.587 -0.8617  0.4578 -0.3312
  466TMC3    C7 6943   3.956   1.083  16.788  0.7618  0.0521  0.8628
  466TMC3    C8 6944   3.942   1.516  16.660  0.0692  0.1911 -0.4318
  466TMC3    O1 6945   4.037   1.076  16.695  0.3187  0.4717  0.4874
  466TMC3    O2 6946   4.000   1.502  16.552  0.1819 -0.3339 -0.2117
  467TMC3    C1 6947   0.654   0.060  14.197 -0.7328  0.5543 -0.4038
  467TMC3    C2 6948   0.726   0.165  14.137 -0.0938  0.2456  0.0219
  467TMC3    C3 6949   0.673   0.205  14.012 -0.0626 -0.4237  0.0483
  467TMC3    C4 6950   0.539   0.005  14.143  0.0483  0.0297 -0.7803
  467TMC3    C5 6951   0.481   0.074  14.039 -0.0740  0.1940 -0.0382
  467TMC3    C6 6952   0.555   0.163  13.962  1.0081  0.4625 -0.1647
  467TMC3     C 6953   0.760   4.706  14.244  0.4250  0.4678  0.1833
  467TMC3     O 6954   0.831   0.032  14.329  0.1280  0.3360 -0.1376
  467TMC3     H 6955   0.815   0.209  14.181  0.0890 -0.5944  0.4947
  467TMC3    H1 6956   0.493   4.653  14.201 -1.4828  1.1266 -0.4822
  467TMC3    H2 6957   0.515   0.197  13.867 -0.4791  2.3607  1.1352
  467TMC3    C7 6958   0.388   0.002  13.962  0.5349 -0.2513 -0.0660
  467TMC3    C8 6959   0.770   0.239  13.909  0.5842 -1.0184  0.6647
  467TMC3    O1 6960   0.410   4.701  13.845  0.8377 -0.1461  0.1398
  467TMC3    O2 6961   0.724   0.295  13.812 -0.1209  0.8791 -0.1678
  468MPD2     C 6962   4.620   2.766  11.037  0.6787 -0.3733 -0.9973
  468MPD2    C1 6963   0.015   2.741  11.090  0.2406  0.0647  0.0535
  468MPD2    C2 6964   0.054   2.614  11.128 -0.5817 -0.1372 -0.5036
  468MPD2    C3 6965   4.696   2.508  11.111 -0.0148  0.1290  0.3309
  468MPD2    C4 6966   4.576   2.532  11.044 -0.2718 -0.1469  0.5104
  468MPD2    C5 6967   4.545   2.654  11.013 -0.0824  0.4270  0.1630
  468MPD2     H 6968   0.152   2.600  11.172  0.7964 -0.0281 -3.5369
  468MPD2    H1 6969   4.501   2.454  11.031 -0.6609  0.3036  0.0331
  468MPD2    H2 6970   4.581   2.861  11.001 -0.0756 -0.3907 -0.2052
  468MPD2    H3 6971   4.454   2.661  10.954  0.9723  2.2885 -1.2394
  468MPD2     N 6972   4.713   2.374  11.159 -0.3445 -0.4312  0.9535
  468MPD2    H5 6973   4.645   2.300  11.145 -1.8155  0.9771  0.5101
  468MPD2    N1 6974   0.116   2.844  11.103 -0.0139 -0.2482  0.5482
  468MPD2    H7 6975   0.204   2.813  11.143  0.5695 -2.9360 -2.8185
  469TMC3    C1 6976   0.204   3.061  11.123 -0.0963  0.0607  0.4322
  469TMC3    C2 6977   0.324   3.002  11.153  0.1859 -0.0355  0.2367
  469TMC3    C3 6978   0.433   3.092  11.171 -0.8079 -0.2682 -0.2257
  469TMC3    C4 6979   0.186   3.198  11.126 -0.1477 -0.8010  0.6313
  469TMC3    C5 6980   0.294   3.275  11.163  0.4072  0.2526  0.4205
  469TMC3    C6 6981   0.418   3.230  11.184  0.3274  0.2454 -0.0370
  469TMC3     C 6982   0.089   2.978  11.083  0.2124  0.2668 -0.3070
  469TMC3     O 6983   4.711   3.036  11.054  0.8096 -0.3103  0.0084
  469TMC3     H 6984   0.341   2.896  11.157 -0.9608 -0.0930  4.1878
  469TMC3    H1 6985   0.092   3.245  11.099  0.7928 -0.7267 -2.4465
  469TMC3    H2 6986   0.499   3.292  11.221  0.6705  1.5230 -2.9268
  469TMC3    C7 6987   0.279   3.402  11.235 -0.0420  0.0295 -0.1046
  469TMC3    C8 6988   0.552   3.022  11.215 -0.3729 -0.5643  0.1297
  469TMC3    O1 6989   0.375   3.478  11.242 -0.3952  0.0736 -0.5603
  469TMC3    O2 6990   0.593   2.916  11.170 -0.1428  0.4412 -0.6840
  470TMC3    C1 6991   1.633   3.822   1.249  0.7062 -0.4502 -0.0974
  470TMC3    C2 6992   1.746   3.893   1.251  0.6988 -0.2152 -0.5368
  470TMC3    C3 6993   1.773   3.971   1.362 -0.3667  0.3338  0.7182
  470TMC3    C4 6994   1.559   3.801   1.360  0.5550  0.2417 -0.1094
  470TMC3    C5 6995   1.605   3.859   1.475  0.0177  0.1587  0.8899
  470TMC3    C6 6996   1.706   3.954   1.483  0.6928 -0.6830 -0.0573
  470TMC3     C 6997   1.572   3.800   1.125  0.5359  0.2659  0.1584
  470TMC3     O 6998   1.632   3.830   1.024  0.0366  0.2832  0.1940
  470TMC3     H 6999   1.796   3.898   1.155  0.7626 -1.4492 -0.5669
  470TMC3    H1 7000   1.478   3.728   1.361  1.6437 -0.9564  2.8633
  470TMC3    H2 7001   1.767   3.984   1.568  0.3769 -0.6573  0.1614
  470TMC3    C7 7002   1.530   3.828   1.590 -0.1381 -0.2388 -0.3975
  470TMC3    C8 7003   1.870   4.077   1.363 -0.0266 -0.6616  0.4776
  470TMC3    O1 7004   1.450   3.738   1.587 -0.1258  0.1158 -0.1990
  470TMC3    O2 7005   1.854   4.164   1.449 -0.3627 -0.4731  0.9810
  471MPD2     C 7006   2.130   0.502  17.069 -0.0120  0.6196  1.1109
  471MPD2    C1 7007   2.183   0.378  17.057 -1.1326  0.3763 -0.8498
  471MPD2    C2 7008   2.291   0.341  17.134 -0.3241  0.2655  0.8291
  471MPD2    C3 7009   2.327   0.416  17.241  0.1206 -0.1811 -0.6473
  471MPD2    C4 7010   2.264   0.540  17.257  0.0033 -0.3524 -0.0603
  471MPD2    C5 7011   2.164   0.582  17.171  0.0786 -0.3180  0.3160
  471MPD2     H 7012   2.344   0.252  17.103 -1.4599  0.7666 -2.4908
  471MPD2    H1 7013   2.281   0.623  17.324 -0.4466  1.9828 -2.8257
  471MPD2    H2 7014   2.053   0.538  17.002  0.4910 -1.9886 -0.8252
  471MPD2    H3 7015   2.118   0.679  17.186  0.2576  0.0443 -1.4288
  471MPD2     N 7016   2.434   0.389  17.334  0.2092  0.0488 -0.0676
  471MPD2    H5 7017   2.458   0.442  17.417  0.7868 -1.0698  0.4903
  471MPD2    N1 7018   2.142   0.284  16.963  0.4056  0.2716  0.0681
  471MPD2    H7 7019   2.196   0.199  16.949 -0.2234 -0.2877  1.1456
  472TMC3    C1 7020   2.020   0.164  16.795 -0.3983 -0.5018  0.1466
  472TMC3    C2 7021   1.951   0.169  16.674  0.2650  0.2371  0.0606
  472TMC3    C3 7022   1.932   0.051  16.609  0.5939 -0.4602 -0.0804
  472TMC3    C4 7023   2.074   0.049  16.844 -0.4234 -0.4920  0.2281
  472TMC3    C5 7024   2.072   4.662  16.762  0.3702 -0.1891 -0.6460
  472TMC3    C6 7025   2.002   4.665  16.641  0.3917  0.1850 -0.9412
  472TMC3     C 7026   2.034   0.284  16.882  0.4755  0.3035 -0.2692
  472TMC3     O 7027   1.957   0.374  16.843  0.0990  0.8068 -0.5838
  472TMC3     H 7028   1.889   0.254  16.647 -0.7567 -0.3595  0.5464
  472TMC3    H1 7029   2.113   0.045  16.945 -0.4824 -0.9707  0.2309
  472TMC3    H2 7030   1.982   4.572  16.588 -0.8922 -0.3211  0.4515
  472TMC3    C7 7031   2.131   4.537  16.802  0.2577 -0.3892 -0.3646
  472TMC3    C8 7032   1.828   0.034  16.510  0.5934  0.1445 -0.0142
  472TMC3    O1 7033   2.099   4.505  16.915 -0.0224 -0.3073  0.6056
  472TMC3    O2 7034   1.800   0.137  16.447 -0.3822  0.4999  0.0995
  473MPD2     C 7035   2.310   2.365  14.160 -0.4059 -0.0939 -0.2731
  473MPD2    C1 7036   2.340   2.486  14.114 -0.2857 -0.4427  0.1030
  473MPD2    C2 7037   2.415   2.574  14.186  0.3052 -1.1247  0.0599
  473MPD2    C3 7038   2.456   2.537  14.312 -0.1815 -0.1553 -0.0770
  473MPD2    C4 7039   2.424   2.408  14.364  0.5226 -0.7220 -0.3205
  473MPD2    C5 7040   2.362   2.318  14.284 -0.2635 -0.4049 -0.3499
  473MPD2     H 7041   2.439   2.673  14.150 -1.1191 -1.2835 -1.3427
  473MPD2    H1 7042   2.460   2.382  14.463 -1.3671  0.1799  0.6164
  473MPD2    H2 7043   2.251   2.295  14.103  0.4858  0.8327 -2.3430
  473MPD2    H3 7044   2.340   2.218  14.320  0.0776  0.1010  1.2615
  473MPD2     N 7045   2.522   2.631  14.399  0.0479  0.2143  0.5544
  473MPD2    H5 7046   2.553   2.602  14.491 -1.2054 -1.8759  0.3072
  473MPD2    N1 7047   2.294   2.536  13.991  0.0333  0.2628  0.1553
  473MPD2    H7 7048   2.336   2.627  13.974  0.8432  0.2564  2.1370
  474TMC3    C1 7049   2.540   2.831  14.505  0.3745 -0.4169  0.7020
  474TMC3    C2 7050   2.465   2.944  14.521 -1.1092 -0.2913 -0.0670
  474TMC3    C3 7051   2.498   3.025  14.627 -0.2551  0.6237  0.0690
  474TMC3    C4 7052   2.641   2.800  14.589  0.6335 -0.2322  0.3470
  474TMC3    C5 7053   2.676   2.892  14.690 -0.7851  0.2307 -0.5698
  474TMC3    C6 7054   2.604   3.003  14.714 -0.2528 -0.7494 -0.2449
  474TMC3     C 7055   2.527   2.763  14.379  0.1097  0.1691  0.1702
  474TMC3     O 7056   2.498   2.835  14.288 -0.1629 -0.0228 -0.0198
  474TMC3     H 7057   2.391   2.976  14.448 -2.5207  0.6243  1.7800
  474TMC3    H1 7058   2.699   2.709  14.576 -0.8573 -1.0969 -0.2343
  474TMC3    H2 7059   2.630   3.082  14.783  0.2390 -0.4309 -0.7931
  474TMC3    C7 7060   2.816   2.890  14.732  0.4873  0.6245 -0.1426
  474TMC3    C8 7061   2.438   3.154  14.629 -0.2362  0.4375  0.4414
  474TMC3    O1 7062   2.904   2.856  14.652 -0.2000 -0.1337 -0.0784
  474TMC3    O2 7063   2.511   3.244  14.666  0.0858  0.2870 -0.0020
  475MPD2     C 7064   0.967   1.309  11.006  0.4432  0.3291 -0.6883
  475MPD2    C1 7065   0.888   1.223  10.926  1.1748 -0.8424 -0.6666
  475MPD2    C2 7066   0.752   1.221  10.950 -0.4063  0.0705 -0.8940
  475MPD2    C3 7067   0.701   1.289  11.066  0.0253 -0.0001 -0.1104
  475MPD2    C4 7068   0.783   1.368  11.143 -0.2192  0.0164  0.2037
  475MPD2    C5 7069   0.918   1.384  11.114  0.0972 -0.4758  0.7492
  475MPD2     H 7070   0.686   1.158  10.892 -1.2871  2.4440 -2.4926
  475MPD2    H1 7071   0.744   1.418  11.231  1.8897  3.4983 -0.8013
  475MPD2    H2 7072   1.074   1.310  10.988  0.5997 -0.5789  0.1925
  475MPD2    H3 7073   0.989   1.436  11.178  0.8300  1.4986 -1.6640
  475MPD2     N 7074   0.565   1.271  11.092 -0.3249 -0.2096 -0.5380
  475MPD2    H5 7075   0.508   1.223  11.023 -0.4026 -1.2464  0.2587
  475MPD2    N1 7076   0.950   1.151  10.819 -0.1934  0.3102  0.2960
  475MPD2    H7 7077   1.048   1.174  10.803 -0.2313  1.8047  2.1633
  476TMC3    C1 7078   0.982   0.974  10.660  0.0752  0.0823 -0.4640
  476TMC3    C2 7079   0.932   0.897  10.553 -0.0303 -0.2744  0.1758
  476TMC3    C3 7080   1.028   0.820  10.484 -0.3828  0.5137 -0.3639
  476TMC3    C4 7081   1.116   0.960  10.705 -0.1385 -0.6842 -0.2821
  476TMC3    C5 7082   1.194   0.866  10.635 -0.3993 -0.0048 -0.6419
  476TMC3    C6 7083   1.155   0.795  10.528 -0.0089  0.3835  0.8581
  476TMC3     C 7084   0.894   1.060  10.732  0.1935 -0.2724 -0.0184
  476TMC3     O 7085   0.777   1.030  10.719 -0.7738 -0.0385 -0.7413
  476TMC3     H 7086   0.828   0.909  10.524  0.4314  0.2043 -1.2840
  476TMC3    H1 7087   1.151   1.014  10.792 -1.6742 -1.5657  0.8851
  476TMC3    H2 7088   1.229   0.744  10.468  0.2072  0.5640  0.9698
  476TMC3    C7 7089   1.339   0.875  10.654  0.2833  0.2450  0.9561
  476TMC3    C8 7090   0.989   0.763  10.351  0.5736 -0.4488  0.0361
  476TMC3    O1 7091   1.406   0.780  10.608  0.8251  0.7378  0.5546
  476TMC3    O2 7092   1.033   0.649  10.331 -0.0021  0.0141 -0.4421
  477MPD2     C 7093   3.258   2.404  11.679  0.5943  0.1138  0.7436
  477MPD2    C1 7094   3.143   2.357  11.730 -0.6160 -0.3132  0.2647
  477MPD2    C2 7095   3.153   2.251  11.819 -0.0494  0.0942  0.6749
  477MPD2    C3 7096   3.268   2.187  11.850 -0.0310  0.4551  0.1129
  477MPD2    C4 7097   3.381   2.242  11.796  0.5654  0.5407  0.3200
  477MPD2    C5 7098   3.379   2.357  11.721  0.1368  0.7575  0.6472
  477MPD2     H 7099   3.064   2.218  11.872  0.9319 -0.5679  1.8860
  477MPD2    H1 7100   3.476   2.192  11.810  0.7627  0.7981 -0.0913
  477MPD2    H2 7101   3.264   2.493  11.617  0.8877 -1.6786 -1.8271
  477MPD2    H3 7102   3.470   2.401  11.683  0.1208  0.4060  0.2050
  477MPD2     N 7103   3.270   2.075  11.938 -0.2713  0.3205  0.1291
  477MPD2    H5 7104   3.186   2.037  11.980 -0.2235 -0.3360 -0.3715
  477MPD2    N1 7105   3.026   2.419  11.697  0.3719  0.1415  0.2718
  477MPD2    H7 7106   3.038   2.491  11.627 -4.1281  0.9630  0.3344
  478TMC3    C1 7107   2.819   2.508  11.718  0.7765 -0.1239  0.5237
  478TMC3    C2 7108   2.727   2.540  11.816 -0.4398  0.0524 -0.3043
  478TMC3    C3 7109   2.657   2.659  11.804  0.3357 -0.7227  0.1059
  478TMC3    C4 7110   2.843   2.593  11.617  0.1408 -0.3637  0.1606
  478TMC3    C5 7111   2.765   2.711  11.604 -0.3657 -0.2526  0.4108
  478TMC3    C6 7112   2.672   2.748  11.701  0.0245 -0.1404 -0.2846
  478TMC3     C 7113   2.904   2.403  11.755  0.0799  0.2425  0.4778
  478TMC3     O 7114   2.880   2.343  11.859 -0.0544 -0.5111  0.2270
  478TMC3     H 7115   2.729   2.480  11.906 -2.4697 -0.4121 -0.5627
  478TMC3    H1 7116   2.905   2.557  11.536  0.1108  2.1227 -0.9302
  478TMC3    H2 7117   2.611   2.834  11.676 -1.0387 -0.6801  0.4718
  478TMC3    C7 7118   2.775   2.791  11.486  0.5206  0.1420 -0.0842
  478TMC3    C8 7119   2.558   2.688  11.902 -0.1428 -0.6801  0.5328
  478TMC3    O1 7120   2.709   2.899  11.480 -0.0166 -0.3760  0.3192
  478TMC3    O2 7121   2.524   2.592  11.968 -0.3384  0.5113  0.2606
  479MPD2     C 7122   1.921   4.213  15.128  0.4681 -0.0940 -0.4326
  479MPD2    C1 7123   1.855   4.125  15.216 -0.3795 -0.6082  0.2211
  479MPD2    C2 7124   1.906   4.083  15.329 -0.1052  0.2888  0.5403
  479MPD2    C3 7125   2.028   4.132  15.369 -0.4079 -0.0784  0.0476
  479MPD2    C4 7126   2.097   4.216  15.281 -0.5560  0.6983  0.0999
  479MPD2    C5 7127   2.047   4.252  15.163 -0.6348 -0.6180  0.3145
  479MPD2     H 7128   1.852   4.011  15.389 -2.5467  1.0310 -0.7457
  479MPD2    H1 7129   2.188   4.264  15.315  1.0709 -2.5764  0.3580
  479MPD2    H2 7130   1.891   4.247  15.030  0.2747 -0.2827 -0.4388
  479MPD2    H3 7131   2.114   4.305  15.097 -1.6246 -1.7473 -1.5922
  479MPD2     N 7132   2.082   4.113  15.500 -0.5792 -0.6651  0.5080
  479MPD2    H5 7133   2.150   4.182  15.529  0.3689 -1.2858 -0.2498
  479MPD2    N1 7134   1.726   4.094  15.174  0.7209 -0.3364  0.3926
  479MPD2    H7 7135   1.696   4.140  15.089  0.4697 -0.7973  0.2314
  480TMC3    C1 7136   1.821   4.050  15.874 -0.3503 -0.1649 -0.3160
  480TMC3    C2 7137   1.726   4.135  15.826 -0.0783 -0.6500  0.2147
  480TMC3    C3 7138   1.757   4.215  15.719  0.0140  0.0376 -0.0703
  480TMC3    C4 7139   1.948   4.040  15.815  0.6028  0.0915 -0.0939
  480TMC3    C5 7140   1.974   4.108  15.702 -0.1517  0.0233 -0.1905
  480TMC3    C6 7141   1.879   4.194  15.663  0.1640  0.0617 -0.3230
  480TMC3     C 7142   1.796   3.974  15.998 -0.6360  0.2467 -0.7491
  480TMC3     O 7143   1.876   3.886  16.031  0.3662 -0.5594  0.0026
  480TMC3     H 7144   1.625   4.157  15.861  0.0109  0.2809 -0.1148
  480TMC3    H1 7145   2.017   3.964  15.850 -0.1447 -1.3850 -1.8683
  480TMC3    H2 7146   1.910   4.247  15.573 -0.7527  1.2768  0.0789
  480TMC3    C7 7147   2.021   4.027  15.592 -0.0908 -0.5921 -0.3653
  480TMC3    C8 7148   1.650   4.247  15.625 -0.0064  0.1698 -0.6254
  480TMC3    O1 7149   1.956   3.927  15.574 -0.3193  0.1172 -0.1002
  480TMC3    O2 7150   1.541   4.202  15.650  0.0721 -0.5589 -0.9536
  481MPD2     C 7151   3.583   3.740  14.304 -0.2182  0.8479 -0.4612
  481MPD2    C1 7152   3.466   3.771  14.363  0.2245 -0.4166 -0.2317
  481MPD2    C2 7153   3.461   3.820  14.486 -0.4009  0.4031 -0.4317
  481MPD2    C3 7154   3.576   3.844  14.555  0.6907 -0.0812  0.5550
  481MPD2    C4 7155   3.696   3.819  14.503  0.1098  0.2658  0.7216
  481MPD2    C5 7156   3.702   3.760  14.373 -0.5771 -0.1974  0.8953
  481MPD2     H 7157   3.362   3.836  14.527 -1.2271 -1.3619 -1.7299
  481MPD2    H1 7158   3.788   3.837  14.558  1.6565 -3.0639 -0.7835
  481MPD2    H2 7159   3.588   3.695  14.205 -0.5177 -0.4807  0.1243
  481MPD2    H3 7160   3.794   3.727  14.326 -0.0924 -0.0903  1.7501
  481MPD2     N 7161   3.575   3.888  14.697  0.1778  0.1463  0.1429
  481MPD2    H5 7162   3.664   3.895  14.745  0.4733  0.7599 -0.4882
  481MPD2    N1 7163   3.352   3.758  14.281  0.0732 -0.5765  0.0249
  481MPD2    H7 7164   3.352   3.705  14.194  0.8718 -0.3697 -0.1014
  482TMC3    C1 7165   3.139   3.814  14.205  0.1335 -0.4511  1.0710
  482TMC3    C2 7166   3.120   3.682  14.168  0.2038 -0.4760  0.1007
  482TMC3    C3 7167   3.016   3.664  14.080  0.0948  0.3736  0.3282
  482TMC3    C4 7168   3.049   3.915  14.175  0.1291 -1.2058  0.1314
  482TMC3    C5 7169   2.947   3.883  14.088 -0.2621  0.0109 -0.0992
  482TMC3    C6 7170   2.927   3.759  14.047 -0.1644 -0.1156  0.1188
  482TMC3     C 7171   3.247   3.845  14.293 -0.0839 -0.4124 -0.5580
  482TMC3     O 7172   3.225   3.932  14.379 -0.8358  0.1629  0.4330
  482TMC3     H 7173   3.175   3.596  14.204  1.6500 -0.4518 -2.0431
  482TMC3    H1 7174   3.075   4.018  14.197  0.0429 -1.5996  2.0710
  482TMC3    H2 7175   2.832   3.732  14.001 -0.3032  1.6288 -0.6304
  482TMC3    C7 7176   2.886   3.977  14.000  0.4393 -0.2734  0.1269
  482TMC3    C8 7177   3.034   3.550  13.996  0.4267  0.0732  0.3759
  482TMC3    O1 7178   2.817   3.933  13.907  0.7588  0.1920  0.3337
  482TMC3    O2 7179   3.130   3.476  14.024  0.5976  0.7718 -0.7631
  483TMC3    C1 7180   1.001   2.928   1.207  0.1750  0.4146  0.2341
  483TMC3    C2 7181   1.023   3.061   1.181  0.8262 -0.2404  0.1937
  483TMC3    C3 7182   1.126   3.114   1.254 -0.1016  0.4230 -1.1770
  483TMC3    C4 7183   1.079   2.854   1.291 -0.2028  0.0207  0.9864
  483TMC3    C5 7184   1.188   2.912   1.356  0.3581 -0.2091  0.0728
  483TMC3    C6 7185   1.203   3.047   1.341 -0.8058  0.2695  0.5890
  483TMC3     C 7186   0.912   2.854   1.113  0.1638 -0.0657  0.6381
  483TMC3     O 7187   0.830   2.925   1.060  0.0536  0.2706  0.1062
  483TMC3     H 7188   0.953   3.112   1.116 -0.3652 -0.5137  1.2532
  483TMC3    H1 7189   1.052   2.750   1.309  1.1249 -0.0977  2.3094
  483TMC3    H2 7190   1.302   3.082   1.369 -0.0372 -1.7042  0.4147
  483TMC3    C7 7191   1.303   2.836   1.411 -1.1373 -0.7386 -0.0985
  483TMC3    C8 7192   1.181   3.230   1.198  0.7278 -0.2425  0.5634
  483TMC3    O1 7193   1.376   2.891   1.495  0.3510 -0.2705 -0.2958
  483TMC3    O2 7194   1.162   3.240   1.077 -0.2239 -0.5511  0.3231
  484MPD2     C 7195   3.901   1.210  12.525 -0.5433 -0.4049 -0.5335
  484MPD2    C1 7196   3.946   1.138  12.631  0.3878  0.1401  0.0321
  484MPD2    C2 7197   4.068   1.075  12.637 -0.2350  0.7246  0.4612
  484MPD2    C3 7198   4.158   1.103  12.538  0.2466  0.4689 -0.3015
  484MPD2    C4 7199   4.123   1.196  12.443 -0.9310 -0.7476 -0.0143
  484MPD2    C5 7200   3.994   1.244  12.429  0.2631 -0.0204  0.1465
  484MPD2     H 7201   4.102   1.030  12.729  0.3546 -1.1663 -0.6949
  484MPD2    H1 7202   4.195   1.237  12.372 -0.7628 -2.4213 -0.8078
  484MPD2    H2 7203   3.808   1.267  12.526  0.0780  0.5908  0.5307
  484MPD2    H3 7204   3.966   1.316  12.353 -1.2918  0.9724  1.6492
  484MPD2     N 7205   4.297   1.058  12.541  0.4233 -0.5844 -0.0160
  484MPD2    H5 7206   4.361   1.095  12.471  0.4106  0.0716  0.3155
  484MPD2    N1 7207   3.853   1.116  12.739  0.1893 -0.0668  0.1623
  484MPD2    H7 7208   3.756   1.132  12.715 -0.1007 -0.6950  0.9424
  485TMC3    C1 7209   4.494   0.961  12.631  0.6105 -0.1357  0.1374
  485TMC3    C2 7210   4.544   0.851  12.703  0.7054 -0.1282  0.1924
  485TMC3    C3 7211   4.644   0.876  12.792  0.2211  0.5655  1.2722
  485TMC3    C4 7212   4.557   1.080  12.630 -0.2816  0.4397  0.1050
  485TMC3    C5 7213   4.664   1.103  12.716  0.1229 -0.0710 -0.6900
  485TMC3    C6 7214   4.700   0.999  12.800 -0.0277 -0.3146  0.0297
  485TMC3     C 7215   4.351   0.970  12.630 -0.4706  0.3326 -0.3331
  485TMC3     O 7216   4.294   0.873  12.678 -0.4022 -0.0057  0.2883
  485TMC3     H 7217   4.482   0.763  12.719  0.9763 -0.2715  0.4663
  485TMC3    H1 7218   4.526   1.167  12.573  0.9113  0.2396 -0.8704
  485TMC3    H2 7219   0.047   1.015  12.878 -0.4718 -0.8132  0.5420
  485TMC3    C7 7220   0.050   1.174  12.661  0.1429  0.8966 -0.2799
  485TMC3    C8 7221   0.015   0.780  12.791  0.0584  0.2076  0.5561
  485TMC3    O1 7222   0.031   1.275  12.596  0.2065 -0.6430 -0.1361
  485TMC3    O2 7223   0.129   0.828  12.779  0.7000 -0.0896  0.5185
  486MPD2     C 7224   1.145   4.256  12.967  0.1435 -0.3275 -0.5812
  486MPD2    C1 7225   1.201   4.284  12.839 -0.2667  1.4876  0.6004
  486MPD2    C2 7226   1.230   4.416  12.802 -0.5542 -0.0667 -0.1637
  486MPD2    C3 7227   1.188   4.519  12.883  0.1636 -0.4055 -0.1561
  486MPD2    C4 7228   1.136   4.485  13.008 -0.2364  0.2225  0.3022
  486MPD2    C5 7229   1.121   4.361  13.051 -0.1234 -0.7234 -1.0625
  486MPD2     H 7230   1.286   4.437  12.711 -1.2985  1.2894 -0.3085
  486MPD2    H1 7231   1.109   4.560  13.082 -1.3267 -0.8422  0.9892
  486MPD2    H2 7232   1.124   4.155  12.998 -3.7821  0.1692 -1.5603
  486MPD2    H3 7233   1.091   4.351  13.154 -2.0453 -1.7531 -1.7255
  486MPD2     N 7234   1.215   4.653  12.834 -0.1709  0.5898  0.1651
  486MPD2    H5 7235   1.284   4.653  12.760  0.4496  3.0991  0.7496
  486MPD2    N1 7236   1.243   4.171  12.759  0.6871  0.2242 -0.3723
  486MPD2    H7 7237   1.218   4.077  12.786 -0.4787  0.7823  0.5034
  487TMC3    C1 7238   1.344   4.061  12.582 -0.1933  0.6715  0.2856
  487TMC3    C2 7239   1.247   3.966  12.605 -0.7944 -0.0239 -0.3339
  487TMC3    C3 7240   1.296   3.844  12.636 -0.1754 -0.0858 -0.2708
  487TMC3    C4 7241   1.478   4.036  12.578 -0.5312 -0.2454  0.3518
  487TMC3    C5 7242   1.517   3.913  12.596 -0.6802  0.8290  0.0310
  487TMC3    C6 7243   1.424   3.812  12.612 -0.4343  0.0926 -0.3127
  487TMC3     C 7244   1.310   4.187  12.640 -0.5555 -0.3356 -0.2490
  487TMC3     O 7245   1.358   4.280  12.583  0.5559 -0.0322 -0.2497
  487TMC3     H 7246   1.140   3.988  12.607 -0.9406 -0.6936 -0.9829
  487TMC3    H1 7247   1.546   4.119  12.562 -0.8224 -0.0702 -0.0028
  487TMC3    H2 7248   1.460   3.711  12.626 -1.9642 -0.4475 -0.2499
  487TMC3    C7 7249   1.641   3.889  12.679 -0.2360  0.3475 -0.4540
  487TMC3    C8 7250   1.229   3.797  12.755 -1.0067  0.4223 -0.1514
  487TMC3    O1 7251   1.653   3.790  12.740 -0.4244 -0.0489 -0.3418
  487TMC3    O2 7252   1.157   3.883  12.810 -0.1510 -0.2550  0.5086
  488MPD2     C 7253   1.777   1.154  16.597  0.7142 -0.3852 -0.0188
  488MPD2    C1 7254   1.819   1.275  16.650 -0.0702  0.0154  0.4569
  488MPD2    C2 7255   1.799   1.305  16.781  0.4245  0.9117 -0.4044
  488MPD2    C3 7256   1.741   1.215  16.874  0.3716  0.3778 -0.4348
  488MPD2    C4 7257   1.705   1.097  16.823  0.6709 -0.4067 -0.9359
  488MPD2    C5 7258   1.725   1.065  16.687 -0.2380 -0.0283 -0.4619
  488MPD2     H 7259   1.840   1.397  16.821  1.1492  0.4009  0.0270
  488MPD2    H1 7260   1.666   1.018  16.886  0.4896 -0.8117 -1.5499
  488MPD2    H2 7261   1.777   1.126  16.492  1.5308  2.8442 -0.8757
  488MPD2    H3 7262   1.683   0.972  16.653 -1.3243  0.4228 -0.3666
  488MPD2     N 7263   1.735   1.252  17.007  0.5074  0.4068 -0.0997
  488MPD2    H5 7264   1.764   1.345  17.034 -1.8202  0.7752  1.1898
  488MPD2    N1 7265   1.855   1.383  16.574 -0.0173  0.8527  0.4351
  488MPD2    H7 7266   1.884   1.463  16.629 -0.6959  0.7166  0.9987
  489TMC3    C1 7267   1.643   1.255  17.223  0.3346  0.1304 -0.2894
  489TMC3    C2 7268   1.609   1.384  17.203  0.1116  0.7195  0.2250
  489TMC3    C3 7269   1.560   1.452  17.313 -0.0137 -0.7155  0.0750
  489TMC3    C4 7270   1.630   1.197  17.351  0.5799  0.0243  0.2331
  489TMC3    C5 7271   1.571   1.270  17.452 -0.5006  0.3111  0.4415
  489TMC3    C6 7272   1.545   1.404  17.437  0.3222 -0.4739  0.1043
  489TMC3     C 7273   1.686   1.177  17.109 -0.5303 -0.1559  0.1632
  489TMC3     O 7274   1.650   1.059  17.103 -0.4852 -0.0340  0.5971
  489TMC3     H 7275   1.590   1.424  17.104 -0.2967  1.9178  0.7903
  489TMC3    H1 7276   1.646   1.090  17.349 -1.8928 -0.3645  1.9571
  489TMC3    H2 7277   1.504   1.464  17.517  1.7693  1.4041 -0.5636
  489TMC3    C7 7278   1.522   1.194  17.560  0.0097  0.0517  0.3964
  489TMC3    C8 7279   1.590   1.596  17.301  0.5954 -0.2244 -1.2364
  489TMC3    O1 7280   1.518   1.073  17.545 -0.4846  0.2715  0.4960
  489TMC3    O2 7281   1.671   1.623  17.211 -0.1780 -0.4201  0.0468
  490MPD2     C 7282   2.500   1.489  17.578 -0.0177  0.6945 -0.6832
  490MPD2    C1 7283   2.470   1.448   0.001 -0.1623  0.1544  0.4469
  490MPD2    C2 7284   2.544   1.504   0.102 -0.5387 -0.3617  0.3513
  490MPD2    C3 7285   2.663   1.565   0.069  0.2367 -0.5593 -0.2820
  490MPD2    C4 7286   2.697   1.599  17.643  0.5400 -0.3196 -0.8364
  490MPD2    C5 7287   2.608   1.569  17.541  0.6721  0.5402 -0.4347
  490MPD2     H 7288   2.533   1.467   0.203  0.3051  0.9600  0.9271
  490MPD2    H1 7289   2.789   1.655  17.634  0.5504  0.1441  2.0329
  490MPD2    H2 7290   2.444   1.455  17.491  3.3462 -1.2899 -2.0556
  490MPD2    H3 7291   2.622   1.596  17.437  1.7427  0.9464 -0.1885
  490MPD2     N 7292   2.765   1.598   0.169  0.5296 -0.3936 -0.5389
  490MPD2    H5 7293   2.857   1.625   0.135  0.7884 -1.3044 -0.5780
  490MPD2    N1 7294   2.385   1.343   0.044 -0.1499 -0.2037  0.3420
  490MPD2    H7 7295   2.394   1.315   0.141 -1.5524 -0.9888  0.2492
  491TMC3    C1 7296   2.322   1.114   0.003  0.6208  0.1935  1.2140
  491TMC3    C2 7297   2.335   1.081   0.134 -0.0665 -0.0397 -0.2084
  491TMC3    C3 7298   2.333   0.947   0.169 -0.4264  0.2230  0.0448
  491TMC3    C4 7299   2.275   1.021  17.621  0.2544 -0.0075 -0.5742
  491TMC3    C5 7300   2.263   0.891  17.668  0.0069  0.3176  0.1116
  491TMC3    C6 7301   2.300   0.851   0.086 -0.4772 -0.1598 -1.2266
  491TMC3     C 7302   2.326   1.256  17.663 -0.2574 -0.0834  0.3016
  491TMC3     O 7303   2.294   1.277  17.546 -0.3211  0.2927  0.0627
  491TMC3     H 7304   2.359   1.149   0.215 -0.8789 -0.1223  0.0990
  491TMC3    H1 7305   2.275   1.039  17.514  0.2183  0.2771 -0.5269
  491TMC3    H2 7306   2.283   0.748   0.115 -0.0856  0.0551 -0.2516
  491TMC3    C7 7307   2.202   0.783  17.586  0.2489  0.9273 -0.7116
  491TMC3    C8 7308   2.342   0.922   0.314  0.5051 -0.1268  0.2067
  491TMC3    O1 7309   2.258   0.679  17.604 -0.4858 -0.3568 -0.5861
  491TMC3    O2 7310   2.328   1.012   0.394 -0.6129  0.0867 -0.0786
  492MPD2     C 7311   2.955   1.125  11.822 -0.4611  0.1534  0.2328
  492MPD2    C1 7312   2.913   1.030  11.735  1.6207 -0.0065 -0.8366
  492MPD2    C2 7313   2.789   0.962  11.762 -0.5743  0.8105  0.0233
  492MPD2    C3 7314   2.722   0.979  11.882 -0.5070 -0.6308  0.5372
  492MPD2    C4 7315   2.772   1.078  11.967 -0.7630 -0.4905  0.4961
  492MPD2    C5 7316   2.881   1.154  11.933 -0.4225  0.7152 -0.2800
  492MPD2     H 7317   2.749   0.901  11.682 -1.2686  1.8652 -0.4393
  492MPD2    H1 7318   2.716   1.105  12.056 -2.8134 -0.2595 -0.8540
  492MPD2    H2 7319   3.041   1.188  11.804  0.5415 -0.9692  1.1121
  492MPD2    H3 7320   2.911   1.235  11.998  2.5497 -0.3266 -0.3813
  492MPD2     N 7321   2.604   0.912  11.914  1.0224  0.5729 -0.4400
  492MPD2    H5 7322   2.559   0.936  12.002  1.1560  0.6227 -0.3860
  492MPD2    N1 7323   3.003   1.005  11.627 -0.0304  0.5955  0.3228
  492MPD2    H7 7324   3.081   1.069  11.617 -0.0621  0.7308  0.9177
  493TMC3    C1 7325   3.083   0.910  11.427 -0.6110 -0.7743  0.3978
  493TMC3    C2 7326   3.163   1.021  11.406 -0.5902  0.0759  0.8115
  493TMC3    C3 7327   3.227   1.035  11.285 -0.9303 -0.2741  0.3762
  493TMC3    C4 7328   3.071   0.813  11.328  0.1377 -0.0108  0.1117
  493TMC3    C5 7329   3.128   0.844  11.208 -0.1242  0.3746 -0.2488
  493TMC3    C6 7330   3.208   0.954  11.184  0.4459  0.2610  0.2236
  493TMC3     C 7331   2.991   0.902  11.538  0.1129 -0.3537 -0.0206
  493TMC3     O 7332   2.906   0.808  11.529  0.0374 -0.0474  0.0225
  493TMC3     H 7333   3.188   1.080  11.493 -0.7873  0.0327  0.8978
  493TMC3    H1 7334   2.994   0.737  11.337  0.8617 -0.7680 -0.0856
  493TMC3    H2 7335   3.256   0.965  11.088  1.0514 -0.3447  0.4526
  493TMC3    C7 7336   3.077   0.779  11.085 -0.0494  0.1255 -0.0788
  493TMC3    C8 7337   3.322   1.146  11.272 -0.7739 -0.2785  0.2222
  493TMC3    O1 7338   3.105   0.827  10.975  0.6505  0.2624 -0.1058
  493TMC3    O2 7339   3.335   1.210  11.377 -0.0818 -0.2369 -0.1375
  494TMC3    C1 7340   3.611   3.144   1.048 -0.2465  0.0607 -0.0116
  494TMC3    C2 7341   3.662   3.082   1.159  0.3895 -0.2254  0.0334
  494TMC3    C3 7342   3.769   2.992   1.132 -0.4701  0.6801  0.3658
  494TMC3    C4 7343   3.658   3.127   0.926  0.0011 -0.5159  0.5457
  494TMC3    C5 7344   3.761   3.037   0.905 -0.1422 -0.1604 -0.0186
  494TMC3    C6 7345   3.822   2.976   1.007 -0.3730 -0.3526 -1.3167
  494TMC3     C 7346   3.515   3.256   1.077 -0.0126 -0.3046  0.3495
  494TMC3     O 7347   3.456   3.239   1.186  0.2823 -0.3115  0.5056
  494TMC3     H 7348   3.629   3.115   1.256  1.3520  1.5492 -0.2417
  494TMC3    H1 7349   3.610   3.170   0.838 -0.3034  2.1820  2.0159
  494TMC3    H2 7350   3.905   2.907   1.003  0.1958  0.2829 -0.4772
  494TMC3    C7 7351   3.755   2.955   0.786  0.5063  0.9058 -0.3909
  494TMC3    C8 7352   3.783   2.881   1.217 -0.1107  0.2592  0.4487
  494TMC3    O1 7353   3.757   3.017   0.684  0.4769 -0.2179 -0.0930
  494TMC3    O2 7354   3.885   2.819   1.202 -0.1009 -0.0741  0.2877
  495TMC3    C1 7355   2.018   4.647  14.781 -0.1247 -0.4247 -0.5341
  495TMC3    C2 7356   1.919   4.722  14.714 -0.2023 -0.6632 -0.3339
  495TMC3    C3 7357   1.798   0.013  14.763  0.5003 -0.0771 -0.1033
  495TMC3    C4 7358   1.992   4.626  14.917 -0.0683  0.7577  0.1144
  495TMC3    C5 7359   1.866   4.661  14.964 -0.2211  0.3894  0.1097
  495TMC3    C6 7360   1.765   4.716  14.894  0.4683  0.4186  0.3760
  495TMC3     C 7361   2.029   4.520  14.704 -0.4276 -0.1237  0.5625
  495TMC3     O 7362   1.961   4.502  14.602 -0.4812 -0.1412  0.0919
  495TMC3     H 7363   1.932   0.017  14.609  0.8280 -1.8858 -0.4640
  495TMC3    H1 7364   2.061   4.562  14.971  0.0370 -0.0301 -0.9653
  495TMC3    H2 7365   1.674   0.025  14.942 -1.3667  0.2795 -2.9730
  495TMC3    C7 7366   1.829   4.587  15.084  0.1516 -0.1368  0.2063
  495TMC3    C8 7367   1.684   4.714  14.677  0.4458 -0.2996  0.2263
  495TMC3    O1 7368   1.925   4.553  15.155  1.0940 -0.4007  0.5671
  495TMC3    O2 7369   1.573   0.034  14.710 -0.1924  0.0677  0.0250
  496MPD2     C 7370   3.585   4.268  15.222 -0.8533 -0.4578  0.1791
  496MPD2    C1 7371   3.660   4.268  15.334  0.4049 -0.1539 -0.3859
  496MPD2    C2 7372   3.602   4.254  15.460 -0.0226  0.2154 -0.7852
  496MPD2    C3 7373   3.463   4.258  15.465  0.4550 -0.5317 -0.7452
  496MPD2    C4 7374   3.387   4.272  15.348  0.1750 -0.1328  0.0965
  496MPD2    C5 7375   3.454   4.266  15.228  0.8540 -0.2514  0.1004
  496MPD2     H 7376   3.669   4.239  15.543 -0.1580  0.0272 -0.7096
  496MPD2    H1 7377   3.279   4.278  15.349 -0.0049 -2.9322 -2.2088
  496MPD2    H2 7378   3.625   4.290  15.124 -1.8535  1.8285  0.2918
  496MPD2    H3 7379   3.397   4.266  15.136  0.1082 -2.1705  0.5642
  496MPD2     N 7380   3.380   4.265  15.581 -1.0174  0.4476  0.7708
  496MPD2    H5 7381   3.284   4.290  15.558 -0.0606  2.1616 -1.5249
  496MPD2    N1 7382   3.802   4.268  15.316  0.1299  0.7341  0.1505
  496MPD2    H7 7383   3.828   4.289  15.220 -0.4046  0.3281 -0.0779
  497TMC3    C1 7384   3.333   4.306  15.812 -0.2880  0.1721 -0.1014
  497TMC3    C2 7385   3.207   4.334  15.777  0.0550  1.0478  0.5373
  497TMC3    C3 7386   3.127   4.390  15.876  0.0702  0.9348  0.5096
  497TMC3    C4 7387   3.385   4.339  15.936 -0.3739 -0.0904 -0.0424
  497TMC3    C5 7388   3.289   4.382  16.028 -0.7758 -0.2156  0.0746
  497TMC3    C6 7389   3.159   4.410  16.003  0.1863 -0.3798 -0.1307
  497TMC3     C 7390   3.431   4.280  15.707  0.0073 -0.6184  0.6400
  497TMC3     O 7391   3.546   4.283  15.746 -0.6457 -0.1368  0.4176
  497TMC3     H 7392   3.166   4.307  15.681  1.3847 -1.3672  0.6358
  497TMC3    H1 7393   3.489   4.319  15.960  0.1608  1.9129 -0.6771
  497TMC3    H2 7394   3.092   4.442  16.082 -0.7935 -0.3275 -0.9822
  497TMC3    C7 7395   3.338   4.435  16.160 -0.1935  0.5534 -0.1181
  497TMC3    C8 7396   2.989   4.362  15.851 -0.5542 -0.0024  0.2891
  497TMC3    O1 7397   3.256   4.504  16.222  0.4839  0.8128  0.3729
  497TMC3    O2 7398   2.945   4.279  15.772  0.2589  0.1256 -0.2036
  498MPD2     C 7399   0.244   1.046  10.553 -0.1258 -0.6830  1.0360
  498MPD2    C1 7400   0.176   0.960  10.472 -0.4027 -0.1919  0.0680
  498MPD2    C2 7401   0.074   0.880  10.523 -0.8677  0.4560  0.0648
  498MPD2    C3 7402   0.031   0.887  10.650 -0.3753  0.3470 -0.1242
  498MPD2    C4 7403   0.102   0.970  10.734 -0.6181 -0.6933 -0.9507
  498MPD2    C5 7404   0.203   1.050  10.681  0.4333 -0.8536 -0.3100
  498MPD2     H 7405   0.022   0.813  10.455  0.7000 -1.3718  0.6676
  498MPD2    H1 7406   0.069   0.983  10.836  0.9613 -1.4604 -0.3572
  498MPD2    H2 7407   0.331   1.103  10.524 -2.2232  1.0155 -2.0697
  498MPD2    H3 7408   0.253   1.119  10.749 -0.7035  1.1734 -1.5448
  498MPD2     N 7409   4.670   0.786  10.699  0.2681 -0.4633  0.0266
  498MPD2    H5 7410   4.621   0.747  10.619  0.4008 -1.0564  0.2310
  498MPD2    N1 7411   0.207   0.940  10.337 -0.5608  0.2572  0.1909
  498MPD2    H7 7412   0.156   0.872  10.281  1.5536 -1.4498  0.3788
  499TMC3    C1 7413   0.325   0.952  10.135 -0.4747 -0.4371  0.4976
  499TMC3    C2 7414   0.294   0.824  10.109  0.7130 -0.3537  0.4589
  499TMC3    C3 7415   0.334   0.775   9.985  0.5143  0.6352  0.5280
  499TMC3    C4 7416   0.391   1.032  10.045 -0.5301  0.7646 -0.3754
  499TMC3    C5 7417   0.427   0.978   9.926 -0.1710 -0.3126  0.3595
  499TMC3    C6 7418   0.397   0.851   9.885 -0.3324 -0.1054  0.2461
  499TMC3     C 7419   0.305   1.009  10.267 -0.3044 -0.3590  0.1676
  499TMC3     O 7420   0.386   1.089  10.312 -0.8330  0.4152  0.1848
  499TMC3     H 7421   0.252   0.752  10.177  0.3484 -1.5364 -1.0112
  499TMC3    H1 7422   0.410   1.136  10.068 -1.3409  0.9446 -0.5439
  499TMC3    H2 7423   0.421   0.808   9.788 -1.0854 -0.9405  0.4276
  499TMC3    C7 7424   0.513   1.063   9.843 -0.9239  0.4312  0.6670
  499TMC3    C8 7425   0.294   0.639   9.948  0.1782 -0.1070 -0.4251
  499TMC3    O1 7426   0.521   1.177   9.883 -0.0770 -0.1951  0.2156
  499TMC3    O2 7427   0.371   0.603   9.863  0.3561  0.0867 -0.5281
  500MPD2     C 7428   2.161   1.916  10.335 -0.0598 -0.0158 -0.0393
  500MPD2    C1 7429   2.162   2.040  10.395  0.2687 -0.0601 -0.3350
  500MPD2    C2 7430   2.099   2.141  10.328 -0.5014 -0.3806 -0.4392
  500MPD2    C3 7431   2.011   2.109  10.224 -0.8953 -0.6278  0.1654
  500MPD2    C4 7432   2.007   1.980  10.165  0.1630 -0.4556  0.3798
  500MPD2    C5 7433   2.088   1.889  10.230 -0.3166 -0.4715  0.5198
  500MPD2     H 7434   2.124   2.244  10.352 -0.4309 -0.6793  0.7896
  500MPD2    H1 7435   1.935   1.939  10.095 -1.1135  3.1162 -0.3497
  500MPD2    H2 7436   2.222   1.839  10.382  1.5887 -0.2080 -2.4752
  500MPD2    H3 7437   2.077   1.785  10.203 -1.8542  0.1452 -1.2370
  500MPD2     N 7438   1.912   2.200  10.168  0.0482 -0.1511 -0.3922
  500MPD2    H5 7439   1.849   2.169  10.095  0.2744  2.7634 -1.8377
  500MPD2    N1 7440   2.220   2.070  10.525  0.2321  0.7614  0.4632
  500MPD2    H7 7441   2.225   2.171  10.538  4.6241  0.4857  0.9885
  501TMC3    C1 7442   2.321   2.044  10.739  0.1533 -0.4942  0.1836
  501TMC3    C2 7443   2.263   2.168  10.768 -0.1246 -0.2907 -0.3549
  501TMC3    C3 7444   2.333   2.244  10.864 -1.3753 -0.5246  0.5005
  501TMC3    C4 7445   2.431   1.999  10.791 -0.5311 -0.1870 -0.0176
  501TMC3    C5 7446   2.502   2.085  10.873  0.7303  0.3258  0.7406
  501TMC3    C6 7447   2.445   2.204  10.919 -0.3577 -0.2908 -0.1610
  501TMC3     C 7448   2.269   1.975  10.618 -0.4143 -0.0063 -0.1926
  501TMC3     O 7449   2.274   1.851  10.609 -0.3224  0.2070  0.6075
  501TMC3     H 7450   2.164   2.185  10.729 -0.6306 -1.9356  0.2018
  501TMC3    H1 7451   2.482   1.915  10.745 -1.2223  0.7421 -2.4737
  501TMC3    H2 7452   2.490   2.256  11.003 -1.7768  0.0763  0.3590
  501TMC3    C7 7453   2.626   2.035  10.924 -0.3499 -0.0058 -0.1092
  501TMC3    C8 7454   2.308   2.386  10.863  0.5926 -0.6627  1.0683
  501TMC3    O1 7455   2.635   1.915  10.927 -0.4453  0.5160 -0.2236
  501TMC3    O2 7456   2.371   2.451  10.949 -0.7997  0.0175 -0.1509
  502TMC3    C1 7457   1.179   0.337  15.612  0.2725  0.1853 -0.0114
  502TMC3    C2 7458   1.184   0.465  15.556 -0.2848  0.0366 -0.1910
  502TMC3    C3 7459   1.061   0.529  15.547 -0.2745  0.2179 -0.2227
  502TMC3    C4 7460   1.063   0.271  15.648 -0.4108  0.3042 -0.1951
  502TMC3    C5 7461   0.947   0.336  15.620 -0.1558 -0.6976 -0.1728
  502TMC3    C6 7462   0.943   0.462  15.570  0.0883  0.3249 -0.5996
  502TMC3     C 7463   1.305   0.294  15.677  0.7710 -0.3636  0.0625
  502TMC3     O 7464   1.406   0.341  15.624  0.1727  0.1743 -0.0208
  502TMC3     H 7465   1.279   0.517  15.548  0.6920 -1.2682  2.9809
  502TMC3    H1 7466   1.067   0.178  15.702  0.0577 -0.4476 -1.5195
  502TMC3    H2 7467   0.846   0.509  15.560  0.1608  0.9878  1.6966
  502TMC3    C7 7468   0.823   0.278  15.667  0.0246 -0.0983  0.7329
  502TMC3    C8 7469   1.071   0.668  15.512  0.5343  0.2207 -0.8001
  502TMC3    O1 7470   0.833   0.202  15.760  0.1385 -0.3540 -0.6049
  502TMC3    O2 7471   1.174   0.708  15.456  0.1627 -0.4636  0.0502
  503MPD2     C 7472   3.264   1.409  17.132  0.0740  0.8017 -0.3164
  503MPD2    C1 7473   3.353   1.443  17.236 -0.1844 -0.0272 -0.1375
  503MPD2    C2 7474   3.418   1.336  17.295 -0.2099  0.0294  0.2549
  503MPD2    C3 7475   3.407   1.205  17.254 -0.2526 -0.3239  0.1477
  503MPD2    C4 7476   3.323   1.182  17.143 -0.0573 -0.7025 -0.4953
  503MPD2    C5 7477   3.243   1.281  17.088  0.2233  0.1196 -0.1750
  503MPD2     H 7478   3.461   1.350  17.393 -0.3525 -0.6834  0.4185
  503MPD2    H1 7479   3.293   1.081  17.118  1.5031 -1.0602 -0.9760
  503MPD2    H2 7480   3.208   1.490  17.088  0.4638  0.8395 -0.7441
  503MPD2    H3 7481   3.166   1.250  17.019  1.1881 -2.6330 -0.0000
  503MPD2     N 7482   3.475   1.104  17.322 -0.1133 -0.5966  0.4949
  503MPD2    H5 7483   3.522   1.127  17.409 -1.3329  1.7297  0.5285
  503MPD2    N1 7484   3.359   1.571  17.291  0.2195 -0.0717  0.5492
  503MPD2    H7 7485   3.416   1.574  17.375 -1.5689  2.6273  1.6534
  504TMC3    C1 7486   3.550   0.883  17.367  0.0413 -0.0206 -0.0670
  504TMC3    C2 7487   3.535   0.898  17.501 -0.3899  0.3688  0.6760
  504TMC3    C3 7488   3.613   0.812  17.573 -0.2024  0.6616  0.5601
  504TMC3    C4 7489   3.633   0.790  17.310 -0.1539  0.1665  0.0287
  504TMC3    C5 7490   3.718   0.721  17.390 -0.3709 -0.1454  0.3266
  504TMC3    C6 7491   3.711   0.731  17.521 -0.7061 -0.2042  0.0977
  504TMC3     C 7492   3.500   0.979  17.274 -0.8317 -0.5498  0.3061
  504TMC3     O 7493   3.508   0.939  17.157 -0.1088  0.0230 -0.9279
  504TMC3     H 7494   3.449   0.943  17.550  0.4814  1.1881  1.4481
  504TMC3    H1 7495   3.634   0.771  17.204 -2.6276  2.4447 -0.4132
  504TMC3    H2 7496   3.783   0.679  17.583 -0.0386  0.9588  0.2839
  504TMC3    C7 7497   3.799   0.617  17.327  0.5653 -0.3854 -0.7694
  504TMC3    C8 7498   3.558   0.788  17.705  0.1504  0.4513 -0.2651
  504TMC3    O1 7499   3.816   0.622  17.207 -0.2990  0.4292 -0.0573
  504TMC3    O2 7500   3.438   0.794   0.013  0.2849 -0.5814  0.5454
  505MPD2     C 7501   4.212   4.285  11.337  0.6197 -0.0764 -0.2761
  505MPD2    C1 7502   4.319   4.265  11.247  0.2245 -0.2698  0.0496
  505MPD2    C2 7503   4.447   4.289  11.306 -0.2360 -0.0673  0.1984
  505MPD2    C3 7504   4.463   4.338  11.431 -0.3748 -0.9516 -0.6444
  505MPD2    C4 7505   4.355   4.352  11.517 -0.0019 -0.3012  0.0140
  505MPD2    C5 7506   4.231   4.325  11.465 -0.0259  0.8132  0.4942
  505MPD2     H 7507   4.532   4.288  11.238 -1.2239 -2.0968 -1.0088
  505MPD2    H1 7508   4.352   4.386  11.620  0.2374 -0.1199 -0.0402
  505MPD2    H2 7509   4.107   4.279  11.309  0.4251 -0.4044  0.5331
  505MPD2    H3 7510   4.141   4.345  11.522 -0.8008 -0.8708 -0.1503
  505MPD2     N 7511   4.595   4.358  11.476 -0.1793  0.3523  0.3894
  505MPD2    H5 7512   4.667   4.318  11.417  0.4791 -1.7774  2.6470
  505MPD2    N1 7513   4.295   4.223  11.111 -0.0828 -0.2156 -0.3311
  505MPD2    H7 7514   4.201   4.218  11.074 -0.9005 -0.9459  1.8779
  506TMC3    C1 7515   4.361   4.159  10.897 -0.3340 -0.0669  0.1494
  506TMC3    C2 7516   4.305   4.267  10.832 -0.0342 -0.0574 -0.0574
  506TMC3    C3 7517   4.316   4.268  10.695  0.0108  0.1607 -0.0880
  506TMC3    C4 7518   4.443   4.069  10.833  0.4550 -0.0661  0.7337
  506TMC3    C5 7519   4.480   4.107  10.703 -0.2641  0.2765 -0.2430
  506TMC3    C6 7520   4.401   4.190  10.627  0.0607 -0.9170 -0.3116
  506TMC3     C 7521   4.392   4.162  11.035 -0.3106 -0.6363 -0.0994
  506TMC3     O 7522   4.510   4.139  11.060  0.1030  0.6314 -0.2287
  506TMC3     H 7523   4.234   4.332  10.880 -0.9355 -0.4597 -0.8624
  506TMC3    H1 7524   4.494   3.997  10.895  0.9281 -2.0233 -1.9373
  506TMC3    H2 7525   4.419   4.220  10.525 -0.2974 -1.1678 -0.4468
  506TMC3    C7 7526   4.616   4.144  10.696 -0.3123 -0.6900  0.3791
  506TMC3    C8 7527   4.276   4.385  10.625 -0.4330  0.1729 -0.5262
  506TMC3    O1 7528   4.670   4.152  10.589  0.2438 -0.0904 -0.1649
  506TMC3    O2 7529   4.230   4.365  10.515  0.0460 -0.2414 -0.0550
  507TMC3    C1 7530   4.510   0.833  14.811  0.0761 -0.3661  0.4296
  507TMC3    C2 7531   4.510   0.715  14.741 -0.5556 -0.5578  0.9703
  507TMC3    C3 7532   4.588   0.712  14.625 -0.0683 -0.2397 -0.1163
  507TMC3    C4 7533   4.578   0.944  14.776 -0.9876 -0.7778  0.2361
  507TMC3    C5 7534   4.672   0.928  14.677  0.1166 -0.6667 -0.3891
  507TMC3    C6 7535   4.672   0.818  14.595 -0.6870 -0.0239 -0.4105
  507TMC3     C 7536   4.423   0.854  14.929  0.3269  0.0455  0.5825
  507TMC3     O 7537   4.457   0.939  15.009 -0.1953  0.1455  0.3163
  507TMC3     H 7538   4.448   0.633  14.775 -1.1371  0.9225  3.4477
  507TMC3    H1 7539   4.574   1.037  14.833  1.4940 -1.0572  0.8866
  507TMC3    H2 7540   0.008   0.830  14.507 -0.9930  1.1079 -0.4832
  507TMC3    C7 7541   4.666   1.041  14.582  0.5097 -0.2862 -0.0398
  507TMC3    C8 7542   4.517   0.672  14.511 -0.0927  0.0937  0.0002
  507TMC3    O1 7543   4.643   1.018  14.465 -0.1153 -0.2177 -0.1792
  507TMC3    O2 7544   4.445   0.579  14.525  0.0084  0.1240  0.1017
  508MPD2     C 7545   0.660   2.858  16.120 -0.2945 -0.2113 -0.7373
  508MPD2    C1 7546   0.701   2.981  16.151 -0.2771 -0.6533  0.4356
  508MPD2    C2 7547   0.656   3.082  16.067  0.2042 -0.5637  0.1785
  508MPD2    C3 7548   0.568   3.066  15.959 -0.0227 -0.1390 -0.1560
  508MPD2    C4 7549   0.517   2.937  15.943 -0.0239  0.3246  0.3120
  508MPD2    C5 7550   0.571   2.836  16.019  0.5098  0.4348  0.0628
  508MPD2     H 7551   0.682   3.185  16.090  2.0921 -1.1217  0.5558
  508MPD2    H1 7552   0.441   2.913  15.870  0.5111  0.1073 -0.1732
  508MPD2    H2 7553   0.688   2.771  16.178  0.9894  0.8375  0.2165
  508MPD2    H3 7554   0.524   2.739  16.009  0.6214  0.6005 -2.1066
  508MPD2     N 7555   0.521   3.177  15.896 -0.3116 -0.1693 -0.2859
  508MPD2    H5 7556   0.564   3.264  15.925  2.3947 -0.7740 -2.5555
  508MPD2    N1 7557   0.776   3.004  16.270 -0.5750  0.3614 -0.2190
  508MPD2    H7 7558   0.816   2.923  16.317 -0.5207  0.1743 -0.5913
  509TMC3    C1 7559   0.487   3.488  15.609  0.0654 -0.2355 -0.4532
  509TMC3    C2 7560   0.508   3.577  15.712  0.5260 -0.6283 -0.1320
  509TMC3    C3 7561   0.488   3.530  15.835 -0.0855  0.6866  0.2644
  509TMC3    C4 7562   0.444   3.363  15.630 -1.3583 -0.8290 -0.1252
  509TMC3    C5 7563   0.420   3.323  15.755  0.0734 -0.6652 -0.3670
  509TMC3    C6 7564   0.440   3.405  15.858  0.3855 -0.2040  0.2138
  509TMC3     C 7565   0.474   3.533  15.470 -0.0018 -0.0102 -0.1540
  509TMC3     O 7566   0.473   3.440  15.390  0.4777 -0.2560 -0.3134
  509TMC3     H 7567   0.548   3.675  15.687  0.5814 -0.5137  0.4176
  509TMC3    H1 7568   0.422   3.291  15.551  0.6013 -1.6437  0.0638
  509TMC3    H2 7569   0.408   3.377  15.958  2.6813  0.8166  1.2254
  509TMC3    C7 7570   0.437   3.183  15.792 -0.1084  0.8363 -0.6240
  509TMC3    C8 7571   0.546   3.613  15.938 -0.1601  0.2941 -0.3049
  509TMC3    O1 7572   0.391   3.089  15.731 -0.2689  0.1625 -0.2552
  509TMC3    O2 7573   0.559   3.549  16.040 -0.0913  0.1857  0.6804
  510MPD2     C 7574   2.874   0.427  14.686 -0.5915 -0.2976 -0.1863
  510MPD2    C1 7575   2.964   0.339  14.739 -0.6027 -0.8085 -0.9065
  510MPD2    C2 7576   3.090   0.317  14.682 -0.3072  0.1251 -0.1062
  510MPD2    C3 7577   3.131   0.389  14.567  0.6420 -0.1231  0.6315
  510MPD2    C4 7578   3.041   0.474  14.514  0.5355 -0.6343  0.4802
  510MPD2    C5 7579   2.919   0.497  14.574  0.4565 -0.4271 -0.0183
  510MPD2     H 7580   3.169   0.250  14.713  0.5367 -0.0753 -2.6728
  510MPD2    H1 7581   3.071   0.541  14.433 -1.1768  0.1032  0.4604
  510MPD2    H2 7582   2.788   0.457  14.745  0.4287 -1.6601  2.0015
  510MPD2    H3 7583   2.855   0.574  14.534 -0.1160 -1.4816 -1.1302
  510MPD2     N 7584   3.263   0.360  14.515  0.6528 -0.1826 -0.4408
  510MPD2    H5 7585   3.322   0.301  14.573  1.9174 -0.4961 -2.0559
  510MPD2    N1 7586   2.926   0.281  14.863  0.5883  0.1884  0.3574
  510MPD2    H7 7587   2.832   0.289  14.899  0.5188 -2.0995  0.7132
  511TMC3    C1 7588   2.953   0.137  15.056  0.7056 -0.6089  0.1928
  511TMC3    C2 7589   2.877   0.200  15.148  0.5387 -0.3307 -0.4744
  511TMC3    C3 7590   2.837   0.119  15.255 -0.3038  0.8145  0.6472
  511TMC3    C4 7591   2.998   0.008  15.066  0.1435  0.3553 -0.2068
  511TMC3    C5 7592   2.963   4.664  15.174 -0.2863 -0.0901 -1.2074
  511TMC3    C6 7593   2.885   4.721  15.272 -0.2092 -0.3458  0.9249
  511TMC3     C 7594   3.012   0.205  14.942  0.5489  0.8172 -0.2718
  511TMC3     O 7595   3.123   0.161  14.909  0.0797  0.0235 -0.4638
  511TMC3     H 7596   2.863   0.307  15.158  0.6741 -0.3369 -0.2040
  511TMC3    H1 7597   3.045   4.690  14.980 -1.5871 -1.5724 -0.1455
  511TMC3    H2 7598   2.853   4.662  15.357  1.7474 -0.7753  1.3672
  511TMC3    C7 7599   3.008   4.524  15.174  0.3315 -0.3813 -0.8863
  511TMC3    C8 7600   2.756   0.175  15.361 -0.0168  0.5031 -0.3814
  511TMC3    O1 7601   3.080   4.496  15.082 -0.4238  0.2792 -0.9714
  511TMC3    O2 7602   2.760   0.296  15.380  0.6068  0.7875 -0.3226
  512TMC3    C1 7603   2.382   3.997  13.879 -0.0748  0.3396  0.2803
  512TMC3    C2 7604   2.395   4.009  14.013 -0.3153  0.4146 -0.8541
  512TMC3    C3 7605   2.489   3.932  14.086 -0.5623  0.2722  0.2567
  512TMC3    C4 7606   2.454   3.897  13.818  0.5400 -0.1322  0.1431
  512TMC3    C5 7607   2.536   3.812  13.893 -1.1604  0.1519 -0.1236
  512TMC3    C6 7608   2.549   3.829  14.025  0.3182  0.5031 -0.1924
  512TMC3     C 7609   2.348   4.123  13.816  0.6183  0.8800 -0.0553
  512TMC3     O 7610   2.363   4.220  13.887  0.2706 -0.3881 -0.6584
  512TMC3     H 7611   2.342   4.086  14.067  0.0757 -0.4988  0.8288
  512TMC3    H1 7612   2.450   3.896  13.709  0.1685 -0.1400  0.1568
  512TMC3    H2 7613   2.624   3.776  14.082 -0.7510 -0.7232  0.0757
  512TMC3    C7 7614   2.548   3.668  13.854 -1.7259  0.6522 -0.5353
  512TMC3    C8 7615   2.555   3.998  14.194  0.1638 -0.7456  0.2651
  512TMC3    O1 7616   2.617   3.591  13.920  0.0997  0.4410  0.0367
  512TMC3    O2 7617   2.613   3.936  14.282  0.3343  0.2893 -0.2401
  513MPD2     C 7618   3.974   3.611  13.438  1.0017 -0.1298  0.5696
  513MPD2    C1 7619   3.966   3.733  13.378  0.1461  0.0922 -0.7230
  513MPD2    C2 7620   3.923   3.844  13.457  0.6798 -0.5685  0.5473
  513MPD2    C3 7621   3.897   3.837  13.595 -0.5562 -0.1829 -0.1333
  513MPD2    C4 7622   3.910   3.711  13.654 -0.1193 -0.3822  0.2088
  513MPD2    C5 7623   3.945   3.603  13.576  0.3654  0.6382 -0.2269
  513MPD2     H 7624   3.911   3.936  13.401  1.6795 -0.5128  0.4386
  513MPD2    H1 7625   3.905   3.699  13.762 -1.9661 -1.1442  0.0392
  513MPD2    H2 7626   4.008   3.524  13.382  1.0187  0.3722 -0.1918
  513MPD2    H3 7627   3.947   3.504  13.621 -0.2647  0.5143 -0.4696
  513MPD2     N 7628   3.884   3.951  13.676  0.8136  0.0738 -0.0429
  513MPD2    H5 7629   3.892   3.943  13.777 -0.8179  2.7173  0.3116
  513MPD2    N1 7630   3.988   3.747  13.237  0.0791 -0.3599  0.3681
  513MPD2    H7 7631   3.989   3.658  13.188 -2.1166  0.6019 -1.4237
  514TMC3    C1 7632   4.066   3.867  13.044 -0.3856  0.1479  0.4877
  514TMC3    C2 7633   3.968   3.819  12.964 -0.1428  0.0141  0.0167
  514TMC3    C3 7634   3.946   3.869  12.836  0.0898 -0.7421 -0.3381
  514TMC3    C4 7635   4.133   3.980  13.007 -0.2883  0.9829 -0.1340
  514TMC3    C5 7636   4.109   4.040  12.889 -0.7211  0.0562  0.1624
  514TMC3    C6 7637   4.015   3.988  12.799 -0.0712  0.2047 -0.0999
  514TMC3     C 7638   4.053   3.856  13.193 -0.0402  0.1924  0.1950
  514TMC3     O 7639   4.069   3.964  13.241  0.3469 -0.3093 -0.0188
  514TMC3     H 7640   3.901   3.744  13.003 -1.1038  0.2964 -1.0859
  514TMC3    H1 7641   4.217   4.012  13.068 -0.9499 -0.8434  1.7115
  514TMC3    H2 7642   3.997   4.047  12.710  0.2775  2.2055  1.1511
  514TMC3    C7 7643   4.086   4.176  12.914 -0.1454  0.8627  0.5181
  514TMC3    C8 7644   3.830   3.815  12.763 -0.3281 -0.2279 -0.6466
  514TMC3    O1 7645   4.090   4.259  12.826  0.2111 -0.3663  0.1451
  514TMC3    O2 7646   3.742   3.762  12.826 -0.0139 -0.6724 -0.4574
  515MPD2     C 7647   2.160   1.400  15.640 -0.8276 -0.1682 -0.2994
  515MPD2    C1 7648   2.176   1.354  15.519 -0.2038 -0.1947  0.0255
  515MPD2    C2 7649   2.263   1.421  15.431 -0.4369  0.3195 -0.2946
  515MPD2    C3 7650   2.339   1.533  15.482 -0.4187  0.2213 -0.0909
  515MPD2    C4 7651   2.321   1.567  15.615  0.1590 -0.1845 -0.0943
  515MPD2    C5 7652   2.230   1.498  15.692 -0.9280  0.0473 -0.5913
  515MPD2     H 7653   2.265   1.386  15.328  1.6895 -2.8701  0.8395
  515MPD2    H1 7654   2.379   1.649  15.656  0.9896 -1.2042  0.7586
  515MPD2    H2 7655   2.085   1.364  15.709 -0.4278 -0.1044  0.1636
  515MPD2    H3 7656   2.204   1.528  15.793 -3.1851 -1.8612 -0.6001
  515MPD2     N 7657   2.441   1.601  15.412  0.1446 -0.3583 -0.6501
  515MPD2    H5 7658   2.509   1.647  15.471 -0.3705  2.1493 -1.9993
  515MPD2    N1 7659   2.116   1.236  15.473 -0.5355 -0.7448  0.4404
  515MPD2    H7 7660   2.122   1.229  15.372 -2.2249  0.6298  0.2531
  516TMC3    C1 7661   1.981   1.042  15.471 -0.7502  0.0159 -0.0905
  516TMC3    C2 7662   1.931   1.066  15.349  0.1052  0.2430  0.1252
  516TMC3    C3 7663   1.863   0.960  15.282  0.1542 -0.1248  0.7749
  516TMC3    C4 7664   1.963   0.925  15.541 -0.3592 -0.2337  0.0292
  516TMC3    C5 7665   1.896   0.823  15.480  0.5156 -0.0540 -0.4173
  516TMC3    C6 7666   1.847   0.837  15.349  0.3962  0.6994  0.0896
  516TMC3     C 7667   2.036   1.151  15.548 -0.6375 -0.1080 -0.0975
  516TMC3     O 7668   2.029   1.137  15.669 -0.0578  0.0453  0.5434
  516TMC3     H 7669   1.917   1.170  15.323  0.3795  0.6736  1.7066
  516TMC3    H1 7670   2.004   0.922  15.641  1.5955  1.6146 -0.7467
  516TMC3    H2 7671   1.798   0.756  15.296  1.0236  0.0477  0.5023
  516TMC3    C7 7672   1.922   0.687  15.519  0.6119 -0.4121  0.1935
  516TMC3    C8 7673   1.768   0.992  15.175  0.0324  0.2475 -0.4289
  516TMC3    O1 7674   1.840   0.611  15.468  0.5607  0.4261  0.4784
  516TMC3    O2 7675   1.809   1.038  15.072  0.2543  0.5081  0.5902
  517MPD2     C 7676   1.405   2.889   0.283 -0.0547 -0.2161  0.3543
  517MPD2    C1 7677   1.541   2.881   0.320  0.8438  0.2704 -0.8717
  517MPD2    C2 7678   1.592   2.986   0.393  0.5806  0.1626  0.3572
  517MPD2    C3 7679   1.513   3.102   0.423 -0.4218 -1.1933  0.1725
  517MPD2    C4 7680   1.386   3.108   0.379  0.1977  0.3951 -0.4491
  517MPD2    C5 7681   1.338   3.011   0.302  0.1839 -0.2664  0.2692
  517MPD2     H 7682   1.695   2.979   0.425  0.0014 -0.7535  1.9577
  517MPD2    H1 7683   1.320   3.191   0.406  0.2298  0.6910 -1.2637
  517MPD2    H2 7684   1.354   2.816   0.221  0.0530 -0.1679  0.2071
  517MPD2    H3 7685   1.239   3.019   0.258  0.9629 -4.5282 -2.2828
  517MPD2     N 7686   1.571   3.213   0.495 -0.0311 -0.1744 -0.0863
  517MPD2    H5 7687   1.512   3.293   0.514  0.2388 -0.5883  2.5199
  517MPD2    N1 7688   1.618   2.764   0.283 -0.0797 -0.1541 -0.0834
  517MPD2    H7 7689   1.716   2.769   0.310  0.2009 -0.0978 -1.1100
  518TMC3    C1 7690   1.696   2.560   0.163  0.1261  0.8951  0.1830
  518TMC3    C2 7691   1.664   2.426   0.145  0.0360  0.2582 -0.4229
  518TMC3    C3 7692   1.772   2.333   0.138  0.4977  0.2466  0.9731
  518TMC3    C4 7693   1.818   2.607   0.151  0.1552  0.1061  0.1684
  518TMC3    C5 7694   1.919   2.518   0.148 -0.1460  0.0268 -0.0687
  518TMC3    C6 7695   1.899   2.382   0.141 -0.0518  0.2195 -0.2486
  518TMC3     C 7696   1.579   2.650   0.214  0.2541  0.1130  0.2732
  518TMC3     O 7697   1.474   2.624   0.160 -0.2043 -0.6599  0.4386
  518TMC3     H 7698   1.558   2.404   0.150  0.2383 -0.8591 -0.9581
  518TMC3    H1 7699   1.836   2.714   0.150 -0.1693  0.1615  0.0466
  518TMC3    H2 7700   1.983   2.313   0.146  1.0086  1.4594 -0.9488
  518TMC3    C7 7701   2.053   2.583   0.133 -0.4471 -0.4640  0.1875
  518TMC3    C8 7702   1.761   2.199   0.092 -0.4828 -0.0037 -0.7091
  518TMC3    O1 7703   2.063   2.700   0.158  0.1274 -0.5929 -0.3189
  518TMC3    O2 7704   1.861   2.141   0.063  0.3548  0.1786 -0.1209
  519MPD2     C 7705   3.213   1.336  14.485  0.7974 -0.0820  0.2697
  519MPD2    C1 7706   3.230   1.312  14.351  0.6601 -0.0232  0.3793
  519MPD2    C2 7707   3.315   1.212  14.310 -0.0384 -0.1679 -0.3707
  519MPD2    C3 7708   3.379   1.130  14.404 -0.7964  0.0001 -0.0215
  519MPD2    C4 7709   3.376   1.174  14.533  0.4593 -0.0170 -0.1510
  519MPD2    C5 7710   3.291   1.268  14.575  0.1010 -0.0847 -0.1498
  519MPD2     H 7711   3.337   1.197  14.204 -7.3125  1.0018 -2.0452
  519MPD2    H1 7712   3.445   1.127  14.603  1.8913 -0.1348 -1.6449
  519MPD2    H2 7713   3.160   1.417  14.533 -0.0154  0.7339 -1.9908
  519MPD2    H3 7714   3.277   1.297  14.678  1.4301  0.5557 -0.1461
  519MPD2     N 7715   3.447   1.022  14.347 -0.3584 -0.1338  0.0530
  519MPD2    H5 7716   3.446   1.020  14.246  1.5535 -0.0491  0.0203
  519MPD2    N1 7717   3.148   1.386  14.262  0.4092 -0.1505  0.8017
  519MPD2    H7 7718   3.068   1.432  14.305 -0.6208 -0.7096 -0.5082
  520TMC3    C1 7719   3.510   0.808  14.319 -0.3593 -0.9558  0.4245
  520TMC3    C2 7720   3.438   0.824  14.201  0.1125  0.2698 -0.3736
  520TMC3    C3 7721   3.496   0.796  14.081  0.0889  1.3248  0.3167
  520TMC3    C4 7722   3.634   0.762  14.318 -0.4769  0.2662  0.1096
  520TMC3    C5 7723   3.686   0.731  14.200 -0.3834  0.1758 -0.0137
  520TMC3    C6 7724   3.622   0.746  14.075 -0.6523  0.0185  0.4915
  520TMC3     C 7725   3.491   0.918  14.415  0.2603 -0.7706  1.4176
  520TMC3     O 7726   3.547   0.917  14.522 -0.1052 -0.3259  0.2058
  520TMC3     H 7727   3.334   0.853  14.202 -0.6247 -2.3518 -1.4870
  520TMC3    H1 7728   3.686   0.754  14.413 -0.3705  0.4433  0.0669
  520TMC3    H2 7729   3.660   0.721  13.977  2.2341  1.6525  1.1860
  520TMC3    C7 7730   3.810   0.661  14.197 -0.5868 -0.0090  0.0438
  520TMC3    C8 7731   3.438   0.853  13.963  0.3152 -0.4155  0.0610
  520TMC3    O1 7732   3.852   0.628  14.309 -0.7249  0.0264  0.6908
  520TMC3    O2 7733   3.519   0.899  13.879 -0.6902  0.2139  0.3696
  521MPD2     C 7734   4.656   3.911   0.178  0.0410 -0.8405 -0.5359
  521MPD2    C1 7735   4.613   3.849   0.069  0.4515  0.3078  0.0714
  521MPD2    C2 7736   4.706   3.801  17.688  0.1028 -0.8719 -0.2710
  521MPD2    C3 7737   0.113   3.811   0.002  0.7147  0.0922  1.1654
  521MPD2    C4 7738   0.161   3.887   0.104 -0.3851  0.4407 -0.3537
  521MPD2    C5 7739   0.065   3.932   0.191 -0.5700 -0.5716 -0.1925
  521MPD2     H 7740   4.670   3.750  17.600 -0.0170 -2.9604  0.9839
  521MPD2    H1 7741   0.266   3.912   0.112 -0.1264 -0.3199 -1.2441
  521MPD2    H2 7742   4.587   3.949   0.252  1.0758  0.7380 -0.3700
  521MPD2    H3 7743   0.106   3.991   0.273  0.3959 -0.8857 -0.4481
  521MPD2     N 7744   0.202   3.766  17.607  0.1180 -0.0484  0.0298
  521MPD2    H5 7745   0.163   3.697  17.544  2.1999 -0.1131 -1.1645
  521MPD2    N1 7746   4.476   3.837   0.041 -0.0472  0.1985  0.5885
  521MPD2    H7 7747   4.411   3.838   0.118 -0.9786  0.8413 -0.2089
  522TMC3    C1 7748   0.393   3.717  17.469 -0.1324  0.7510 -0.1146
  522TMC3    C2 7749   0.481   3.776  17.391  0.0103  0.0337 -0.1108
  522TMC3    C3 7750   0.560   3.687  17.322  0.2322  0.0268 -1.0826
  522TMC3    C4 7751   0.362   3.586  17.465  0.1758 -0.4076 -0.6457
  522TMC3    C5 7752   0.443   3.497  17.394  0.3656 -0.2939 -0.2498
  522TMC3    C6 7753   0.544   3.546  17.317  0.0523  0.0504 -0.1017
  522TMC3     C 7754   0.336   3.804  17.578  0.3465 -0.1602 -0.1052
  522TMC3     O 7755   0.405   3.891  17.626  0.3813  0.4075 -0.1780
  522TMC3     H 7756   0.511   3.879  17.405 -0.3172  0.0317  0.6311
  522TMC3    H1 7757   0.285   3.552  17.533  0.0833  1.2115  0.0618
  522TMC3    H2 7758   0.608   3.470  17.276 -0.1254 -0.2814  0.2310
  522TMC3    C7 7759   0.393   3.375  17.338  0.1260 -0.5564  0.4155
  522TMC3    C8 7760   0.610   3.749  17.202  0.5291  0.3445 -0.3408
  522TMC3    O1 7761   0.470   3.288  17.302  0.0800  0.6843  0.1783
  522TMC3    O2 7762   0.624   3.871  17.195  0.4298  0.0606  0.1315
  523MPD2     C 7763   2.755   4.042  10.607 -0.1028 -0.3873 -0.3330
  523MPD2    C1 7764   2.700   3.983  10.502 -0.1442 -0.2983  0.1340
  523MPD2    C2 7765   2.567   4.019  10.462 -0.3517 -0.4929 -0.5668
  523MPD2    C3 7766   2.506   4.134  10.512 -0.5995  0.8065  0.6562
  523MPD2    C4 7767   2.571   4.192  10.618 -0.2276 -0.3891 -0.1206
  523MPD2    C5 7768   2.694   4.149  10.663 -0.3123 -0.4242  0.7010
  523MPD2     H 7769   2.523   3.954  10.387  0.3469 -1.3501 -0.2435
  523MPD2    H1 7770   2.521   4.282  10.652 -3.0267 -1.6507 -0.9001
  523MPD2    H2 7771   2.852   4.010  10.644 -0.1636  1.8347  1.7241
  523MPD2    H3 7772   2.754   4.183  10.747  1.8055 -0.3621 -0.8436
  523MPD2     N 7773   2.386   4.188  10.466  0.0429  1.0061  0.2397
  523MPD2    H5 7774   2.334   4.256  10.520  1.8953  0.5030  2.6102
  523MPD2    N1 7775   2.773   3.879  10.440  0.2095 -0.3870  0.2689
  523MPD2    H7 7776   2.863   3.858  10.480 -0.2487 -2.7783  0.0313
  524TMC3    C1 7777   2.235   4.254  10.285 -0.3459 -0.5622 -0.7783
  524TMC3    C2 7778   2.255   4.304  10.160 -0.0540 -0.1521 -0.0607
  524TMC3    C3 7779   2.185   4.409  10.125 -0.0732  0.6653  0.1345
  524TMC3    C4 7780   2.148   4.316  10.373  0.3799  0.0163  1.4302
  524TMC3    C5 7781   2.081   4.425  10.330  0.5871  0.4486  0.0864
  524TMC3    C6 7782   2.104   4.481  10.203 -0.7100 -0.1102  0.4717
  524TMC3     C 7783   2.338   4.159  10.338 -0.0383 -0.0928  0.6032
  524TMC3     O 7784   2.388   4.086  10.250 -0.7203 -0.0180 -0.2024
  524TMC3     H 7785   2.343   4.277  10.104 -0.5481 -1.1008 -0.3813
  524TMC3    H1 7786   2.134   4.281  10.474  1.9523  0.8454  1.9327
  524TMC3    H2 7787   2.051   4.565  10.161 -1.2763 -1.1816 -0.9685
  524TMC3    C7 7788   1.977   4.472  10.420 -0.4094 -0.2076  0.7309
  524TMC3    C8 7789   2.243   4.470  10.006  0.3890  0.5055 -0.7771
  524TMC3    O1 7790   1.961   4.407  10.523  0.2293  0.0484  0.5763
  524TMC3    O2 7791   2.285   4.395   9.918 -0.0549 -0.5853 -0.2323
  525MPD2     C 7792   4.707   0.336  14.572  0.4749 -0.1960 -0.2388
  525MPD2    C1 7793   0.099   0.351  14.648  0.8346 -0.8031 -0.3974
  525MPD2    C2 7794   0.194   0.437  14.601 -0.6395 -0.0995  0.0815
  525MPD2    C3 7795   0.171   0.516  14.487  0.3249 -1.2457 -0.1660
  525MPD2    C4 7796   0.059   0.502  14.414  0.3475 -0.4952  0.3013
  525MPD2    C5 7797   4.697   0.410  14.456 -0.0528  0.1393 -0.3129
  525MPD2     H 7798   0.280   0.452  14.665 -0.9380  1.3931  0.1194
  525MPD2    H1 7799   0.036   0.566  14.329  2.6892 -0.3660 -0.2224
  525MPD2    H2 7800   4.627   0.272  14.608 -0.2005  0.3679 -0.7349
  525MPD2    H3 7801   4.612   0.380  14.396  1.0135  0.7035 -2.0896
  525MPD2     N 7802   0.263   0.607  14.428 -0.4194 -0.1396  0.0837
  525MPD2    H5 7803   0.244   0.665  14.347 -2.1499  1.1458  1.4103
  525MPD2    N1 7804   0.118   0.287  14.767  0.4648 -0.1601 -0.5215
  525MPD2    H7 7805   0.210   0.306  14.805 -0.2845  1.4691  0.4692
  526TMC3    C1 7806   0.063   0.158  14.965 -0.1424 -0.4220 -0.2684
  526TMC3    C2 7807   4.689   0.166  15.062  0.5499  0.3350 -0.4825
  526TMC3    C3 7808   0.006   0.174  15.192  0.0402  0.0063  0.8078
  526TMC3    C4 7809   0.191   0.186  14.997 -0.5845  0.2447 -0.1882
  526TMC3    C5 7810   0.228   0.197  15.128  0.3624  0.2954 -0.0976
  526TMC3    C6 7811   0.134   0.193  15.228 -0.4077  0.2988 -0.4732
  526TMC3     C 7812   0.026   0.211  14.834  0.6906  0.0898 -0.4963
  526TMC3     O 7813   4.640   0.186  14.804 -0.3004  0.1146  0.1389
  526TMC3     H 7814   4.585   0.153  15.032  0.9908  0.0453 -1.9086
  526TMC3    H1 7815   0.262   0.195  14.915 -2.9046  1.5534 -2.0509
  526TMC3    H2 7816   0.155   0.222  15.330  0.9067 -2.6514  0.0969
  526TMC3    C7 7817   0.371   0.207  15.153 -0.4277  0.5493 -0.3013
  526TMC3    C8 7818   4.630   0.181  15.294  0.0164 -0.0141  0.0965
  526TMC3    O1 7819   0.414   0.270  15.245 -0.0486  0.4597 -0.0976
  526TMC3    O2 7820   4.671   0.199  15.411 -0.6058  0.7998  0.2910
  527MPD2     C 7821   4.387   3.388   1.705  0.1344  0.1794 -0.4229
  527MPD2    C1 7822   4.349   3.269   1.642  1.1522  0.2768  0.4456
  527MPD2    C2 7823   4.380   3.237   1.511 -0.3059 -0.5221  0.2929
  527MPD2    C3 7824   4.457   3.330   1.440 -0.7840  0.7178  0.1254
  527MPD2    C4 7825   4.504   3.447   1.499 -0.4002  0.1299 -0.1797
  527MPD2    C5 7826   4.458   3.478   1.632 -0.2121 -0.6272 -0.3679
  527MPD2     H 7827   4.351   3.140   1.472  0.9770 -0.9937  0.5121
  527MPD2    H1 7828   4.569   3.519   1.452 -1.0244 -0.4969 -2.0322
  527MPD2    H2 7829   4.386   3.410   1.811  0.1827  2.6304 -0.9251
  527MPD2    H3 7830   4.493   3.566   1.685  1.0744 -1.4951  0.2126
  527MPD2     N 7831   4.494   3.284   1.310 -0.4714  0.0827  0.3922
  527MPD2    H5 7832   4.446   3.204   1.269 -0.0234 -0.9333  1.8763
  527MPD2    N1 7833   4.300   3.168   1.726  0.3201  0.4053 -0.3408
  527MPD2    H7 7834   4.310   3.070   1.703  0.1221  0.3604 -0.2387
  528TMC3    C1 7835   4.182   3.078   1.915 -0.0983  0.0493 -0.0740
  528TMC3    C2 7836   4.065   3.099   1.978 -0.1273 -0.0251  0.0069
  528TMC3    C3 7837   4.020   3.002   2.066  0.2107  0.6523 -0.5639
  528TMC3    C4 7838   4.254   2.963   1.919 -0.2225  0.4603  0.0989
  528TMC3    C5 7839   4.218   2.882   2.027  0.3697  0.3454 -0.0548
  528TMC3    C6 7840   4.100   2.895   2.103 -0.1322  0.1531 -0.3385
  528TMC3     C 7841   4.235   3.193   1.849  0.2509  0.5477  0.4941
  528TMC3     O 7842   4.196   3.307   1.878  0.5389  0.6084  0.2791
  528TMC3     H 7843   4.002   3.181   1.948 -0.6833 -0.8975 -1.2081
  528TMC3    H1 7844   4.350   2.947   1.871  0.9280  0.1346  2.5403
  528TMC3    H2 7845   4.073   2.836   2.190  1.8410  0.8933  0.7581
  528TMC3    C7 7846   4.304   2.779   2.068 -0.0659 -0.5949  0.0428
  528TMC3    C8 7847   3.889   3.021   2.118 -0.3644 -0.7762  0.0523
  528TMC3    O1 7848   4.416   2.790   2.014  0.3950  0.2312 -0.0285
  528TMC3    O2 7849   3.854   3.137   2.129  0.1357  0.1480  0.3290
  529MPD2     C 7850   0.525   1.293   0.891  0.2235  0.5872  0.3841
  529MPD2    C1 7851   0.649   1.348   0.894 -0.8698 -0.4358 -1.0770
  529MPD2    C2 7852   0.687   1.444   0.799  0.4806 -0.0469 -0.0384
  529MPD2    C3 7853   0.596   1.492   0.712 -0.7950  0.0242 -0.0703
  529MPD2    C4 7854   0.473   1.433   0.711  0.3130  0.1601 -0.5969
  529MPD2    C5 7855   0.442   1.335   0.794 -0.7560 -0.0189  0.0315
  529MPD2     H 7856   0.792   1.473   0.801  1.0842 -2.4753  3.1503
  529MPD2    H1 7857   0.409   1.453   0.625 -1.1568 -0.5252  0.3312
  529MPD2    H2 7858   0.493   1.222   0.966  0.2112 -1.2370 -1.3355
  529MPD2    H3 7859   0.344   1.290   0.788 -1.4152  1.4344  0.0365
  529MPD2     N 7860   0.618   1.580   0.612  0.3347  0.3998 -0.1127
  529MPD2    H5 7861   0.537   1.607   0.556 -1.3862 -1.9831  1.2640
  529MPD2    N1 7862   0.743   1.314   0.987 -0.2366 -0.4098 -0.4678
  529MPD2    H7 7863   0.837   1.346   0.964 -0.1992  0.2630  0.5972
  530TMC3    C1 7864   0.837   1.249   1.193 -0.9936 -0.0480 -0.0360
  530TMC3    C2 7865   0.934   1.346   1.184 -0.0171  0.3255 -0.0273
  530TMC3    C3 7866   1.022   1.362   1.289 -0.0108  0.0154 -0.1945
  530TMC3    C4 7867   0.830   1.159   1.295  0.2977  0.3368 -0.3159
  530TMC3    C5 7868   0.927   1.176   1.401  0.2603 -0.5417  0.4281
  530TMC3    C6 7869   1.028   1.268   1.396 -0.4722  0.3083  0.2077
  530TMC3     C 7870   0.724   1.251   1.103 -0.7918  0.1404 -0.4335
  530TMC3     O 7871   0.616   1.225   1.157 -0.0441 -0.0052  0.0009
  530TMC3     H 7872   0.918   1.424   1.111  3.6587  1.6312  0.5837
  530TMC3    H1 7873   0.745   1.094   1.310  0.5698  0.3259  1.1820
  530TMC3    H2 7874   1.077   1.297   1.488 -0.7224 -0.7380  0.6714
  530TMC3    C7 7875   0.927   1.079   1.506 -0.2496 -0.5104 -0.6005
  530TMC3    C8 7876   1.089   1.487   1.303 -1.0037 -0.0530  0.2478
  530TMC3    O1 7877   0.823   1.023   1.533 -0.1712  0.1745 -0.0173
  530TMC3    O2 7878   1.034   1.568   1.230 -0.2340  0.0521 -0.0485
  531MPD2     C 7879   4.070   4.530  13.296 -0.3061 -0.3693 -0.2641
  531MPD2    C1 7880   4.029   4.404  13.339 -0.1450  0.0364  0.3341
  531MPD2    C2 7881   4.024   4.293  13.253  1.1161  0.5762  0.4424
  531MPD2    C3 7882   4.058   4.306  13.118 -0.6990 -0.1083 -0.1212
  531MPD2    C4 7883   4.090   4.436  13.072 -0.1077 -0.0677 -0.0946
  531MPD2    C5 7884   4.100   4.537  13.162  0.5604  0.2730  0.0472
  531MPD2     H 7885   3.997   4.194  13.288  2.3596  0.1977  0.3272
  531MPD2    H1 7886   4.125   4.448  12.970  0.2710 -0.4518 -0.0137
  531MPD2    H2 7887   4.096   4.616  13.356  0.7342 -1.8063  1.3315
  531MPD2    H3 7888   4.126   4.635  13.124  0.0861  1.0493  1.7058
  531MPD2     N 7889   4.050   4.186  13.045  0.0615 -0.1196  0.1418
  531MPD2    H5 7890   4.034   4.100  13.097  2.7942 -1.0399 -0.5471
  531MPD2    N1 7891   3.992   4.364  13.472  0.2668  0.1845 -0.2266
  531MPD2    H7 7892   3.951   4.273  13.482  1.0477 -0.1874 -0.3763
  532TMC3    C1 7893   3.964   4.369  13.700 -0.3591 -0.5379 -0.0877
  532TMC3    C2 7894   3.854   4.289  13.677  0.1896 -0.3620  0.4301
  532TMC3    C3 7895   3.852   4.169  13.740  0.2030 -0.4981  1.2450
  532TMC3    C4 7896   4.067   4.332  13.784  0.1964 -0.1258  0.3869
  532TMC3    C5 7897   4.052   4.217  13.848 -0.0288 -0.3632 -0.6699
  532TMC3    C6 7898   3.952   4.130  13.828 -0.6351  0.0137  0.0554
  532TMC3     C 7899   4.013   4.439  13.587 -0.4072  0.3026  0.1122
  532TMC3     O 7900   4.076   4.540  13.604  0.3652  0.0662  0.2702
  532TMC3     H 7901   3.768   4.334  13.628  0.9205  1.2251  0.6114
  532TMC3    H1 7902   4.164   4.381  13.789 -0.4618  1.2268 -0.0387
  532TMC3    H2 7903   3.958   4.037  13.883  2.4397  1.2678  1.8131
  532TMC3    C7 7904   4.172   4.145  13.893  0.2082  0.3910  0.4665
  532TMC3    C8 7905   3.842   4.070  13.631  0.2863 -0.3795  0.4506
  532TMC3    O1 7906   4.157   4.083  13.994 -0.4511  0.0170  0.1420
  532TMC3    O2 7907   3.822   4.120  13.521  0.3840  0.3812 -0.7027
  533TMC3    C1 7908   0.449   0.748  14.419 -0.2198 -0.1940 -0.2854
  533TMC3    C2 7909   0.586   0.765  14.443  0.1563  0.3314 -0.7998
  533TMC3    C3 7910   0.635   0.893  14.481  0.7537 -0.0614 -0.7679
  533TMC3    C4 7911   0.368   0.858  14.441 -0.1586  0.3875 -0.4659
  533TMC3    C5 7912   0.420   0.972  14.493  0.8204  0.0800  0.1147
  533TMC3    C6 7913   0.552   1.006  14.495 -0.1659 -0.0440  0.3362
  533TMC3     C 7914   0.394   0.625  14.469 -0.2925  0.8331  0.0725
  533TMC3     O 7915   0.455   0.579  14.563  0.0841 -0.7948 -0.7481
  533TMC3     H 7916   0.655   0.683  14.429 -0.4545 -0.3523  0.2244
  533TMC3    H1 7917   0.260   0.847  14.431 -0.0107  0.2145 -1.8114
  533TMC3    H2 7918   0.590   1.108  14.500  0.5790 -0.2139 -1.5409
  533TMC3    C7 7919   0.352   0.997  14.624  0.3791  0.2970 -0.2026
  533TMC3    C8 7920   0.779   0.909  14.495 -0.0130  0.1331  0.2331
  533TMC3    O1 7921   0.254   0.929  14.651 -0.5570  0.3681  0.5027
  533TMC3    O2 7922   0.835   0.847  14.582 -0.5930 -0.0194 -0.1078
  534MPD2     C 7923   3.433   2.367   1.832  0.3040  0.1144  0.4058
  534MPD2    C1 7924   3.367   2.487   1.811 -0.0991  0.4392 -0.7108
  534MPD2    C2 7925   3.251   2.489   1.737  0.2217 -0.3095 -0.2230
  534MPD2    C3 7926   3.191   2.362   1.706 -0.1167  0.7415 -0.3604
  534MPD2    C4 7927   3.253   2.239   1.725  0.0602 -0.8821 -0.4797
  534MPD2    C5 7928   3.381   2.244   1.793  0.5257 -0.0915  0.3585
  534MPD2     H 7929   3.205   2.587   1.726 -1.9308 -1.4443 -1.2530
  534MPD2    H1 7930   3.211   2.141   1.705 -1.5806 -0.3288  0.2362
  534MPD2    H2 7931   3.531   2.367   1.878  0.0347 -1.7299  0.9984
  534MPD2    H3 7932   3.441   2.156   1.813 -0.9128 -1.0939  0.2605
  534MPD2     N 7933   3.068   2.359   1.632 -0.1935  0.7687 -0.6041
  534MPD2    H5 7934   3.034   2.265   1.611  2.2227  0.3756 -2.7055
  534MPD2    N1 7935   3.426   2.605   1.858 -0.5138  0.4531 -0.4673
  534MPD2    H7 7936   3.372   2.685   1.825 -2.7728  0.2848  2.8247
  535TMC3    C1 7937   2.895   2.413   1.498 -0.0328 -0.0249  0.1352
  535TMC3    C2 7938   2.774   2.463   1.516 -0.5336  0.4217  0.0115
  535TMC3    C3 7939   2.677   2.419   1.430 -0.5221  0.2030 -0.8113
  535TMC3    C4 7940   2.923   2.310   1.412 -0.6724  0.0831 -0.0204
  535TMC3    C5 7941   2.821   2.253   1.344  0.1723  0.5671  0.9928
  535TMC3    C6 7942   2.696   2.308   1.351 -0.1428  0.0099  0.9794
  535TMC3     C 7943   2.997   2.465   1.584 -0.2989  0.1899 -0.7893
  535TMC3     O 7944   3.011   2.586   1.596  0.0916 -0.2803 -0.3101
  535TMC3     H 7945   2.762   2.548   1.582  2.1239 -1.2173  2.5967
  535TMC3    H1 7946   3.022   2.266   1.409 -0.5618  0.3134  0.2670
  535TMC3    H2 7947   2.615   2.268   1.291  0.6684  3.9457 -2.7216
  535TMC3    C7 7948   2.855   2.132   1.269 -0.6294  0.9157 -0.0952
  535TMC3    C8 7949   2.539   2.449   1.474 -0.3608 -0.2522 -0.1303
  535TMC3    O1 7950   2.975   2.106   1.270 -0.0289 -0.1024 -0.1430
  535TMC3    O2 7951   2.466   2.350   1.477  0.3185 -0.0279  0.5040
  536MPD2     C 7952   1.779   4.455  16.920  0.2418 -0.2347  0.0646
  536MPD2    C1 7953   1.772   4.580  16.977  0.0393  0.8080 -0.2901
  536MPD2    C2 7954   1.692   4.674  16.912 -0.0310  1.0641  0.2708
  536MPD2    C3 7955   1.613   4.653  16.802  0.8725  0.2674  0.1304
  536MPD2    C4 7956   1.604   4.517  16.767  1.4007  0.2345  0.5598
  536MPD2    C5 7957   1.692   4.426  16.817  0.5545  0.2918 -0.8244
  536MPD2     H 7958   1.683   0.048  16.952  1.2361  1.1740  0.2697
  536MPD2    H1 7959   1.540   4.480  16.687  1.8594  2.6713 -0.9308
  536MPD2    H2 7960   1.848   4.383  16.961  0.6901 -1.0022 -2.0554
  536MPD2    H3 7961   1.701   4.331  16.766  0.2996  1.2907 -2.7151
  536MPD2     N 7962   1.539   0.022  16.730  0.4968  0.5022  0.2652
  536MPD2    H5 7963   1.481   4.721  16.652  0.5733  1.0155  0.0297
  536MPD2    N1 7964   1.847   4.606  17.089 -0.5404 -0.1311 -0.5296
  536MPD2    H7 7965   1.897   4.532  17.137  0.3980  0.1653 -1.0446
  537TMC3    C1 7966   1.955   0.010  17.260 -0.1118  0.0927 -0.4429
  537TMC3    C2 7967   2.014   0.132  17.290  0.3090 -0.1990  0.4835
  537TMC3    C3 7968   2.044   0.159  17.423  0.3581 -1.0415 -0.2908
  537TMC3    C4 7969   1.926   4.639  17.350 -0.2302  0.2710  0.0173
  537TMC3    C5 7970   1.938   4.679  17.481  0.5506  0.1308 -0.2467
  537TMC3    C6 7971   2.005   0.070  17.514 -0.3361 -0.3309  0.3825
  537TMC3     C 7972   1.877   0.008  17.135  0.2764 -0.0228  0.5941
  537TMC3     O 7973   1.838   0.116  17.099  0.6704 -0.1754 -0.0931
  537TMC3     H 7974   2.043   0.196  17.207 -0.1931  0.4979  0.8535
  537TMC3    H1 7975   1.879   4.544  17.331 -1.9539  1.6262 -2.5296
  537TMC3    H2 7976   2.019   0.097  17.618  1.8697  2.8201 -0.7283
  537TMC3    C7 7977   1.829   4.646  17.567  0.5609  1.2621 -0.6147
  537TMC3    C8 7978   2.043   0.296  17.464 -0.1122  0.7785  0.3490
  537TMC3    O1 7979   1.773   0.011  17.628  0.1610  0.3460  0.2041
  537TMC3    O2 7980   2.087   0.337  17.573  0.2741  0.2643 -0.3821
  538TMC3    C1 7981   3.118   3.790  11.239 -1.0631  0.1194  0.3881
  538TMC3    C2 7982   3.178   3.679  11.183  0.1251 -0.3608  0.1876
  538TMC3    C3 7983   3.195   3.678  11.048 -0.4161 -0.2689 -0.4230
  538TMC3    C4 7984   3.080   3.899  11.165 -0.3136  0.4754 -0.0119
  538TMC3    C5 7985   3.089   3.884  11.033  0.3293 -0.0657 -0.7025
  538TMC3    C6 7986   3.139   3.775  10.975 -0.0854  0.1837  0.1288
  538TMC3     C 7987   3.030   3.771  11.353  0.2242 -0.1373  0.4603
  538TMC3     O 7988   2.966   3.870  11.389 -0.2090 -0.4953 -0.4982
  538TMC3     H 7989   3.221   3.599  11.241 -2.5847  0.3062  3.0759
  538TMC3    H1 7990   3.033   3.986  11.211 -1.2863 -0.3636  0.5853
  538TMC3    H2 7991   3.127   3.764  10.868 -1.1719  2.9357 -0.0214
  538TMC3    C7 7992   2.974   3.935  10.964 -0.3654 -0.4642 -0.8209
  538TMC3    C8 7993   3.212   3.550  10.997 -0.1326 -0.9245 -0.1052
  538TMC3    O1 7994   2.918   3.862  10.886 -0.1222  0.3265 -0.1044
  538TMC3    O2 7995   3.208   3.458  11.079 -0.3063  0.7382  0.5391
  539MPD2     C 7996   2.327   2.797  12.068 -0.5173  0.0948 -0.9225
  539MPD2    C1 7997   2.411   2.874  11.986  0.0068  0.7638 -0.3581
  539MPD2    C2 7998   2.375   3.004  11.954 -0.5273  0.3393 -0.6475
  539MPD2    C3 7999   2.266   3.072  12.012  0.1863 -0.0841 -0.2123
  539MPD2    C4 8000   2.200   3.001  12.105  0.0604 -0.4773  0.6101
  539MPD2    C5 8001   2.226   2.867  12.134  0.3316  0.3333 -1.1705
  539MPD2     H 8002   2.421   3.060  11.873  3.6228  1.9279  2.8151
  539MPD2    H1 8003   2.117   3.040  12.162 -0.4297  1.6318 -1.5374
  539MPD2    H2 8004   2.344   2.691  12.084  1.4477  0.8881  2.3731
  539MPD2    H3 8005   2.154   2.827  12.204  2.8574  0.1332  1.2999
  539MPD2     N 8006   2.225   3.205  11.995 -0.0719  0.2651  0.4332
  539MPD2    H5 8007   2.139   3.235  12.038  0.5611  1.2138  1.0217
  539MPD2    N1 8008   2.509   2.820  11.902  0.4995  0.0550 -0.0854
  539MPD2    H7 8009   2.566   2.891  11.857  1.2487  0.0567  0.8833
  540TMC3    C1 8010   2.234   3.430  11.889 -0.7161  0.3245  0.1576
  540TMC3    C2 8011   2.298   3.509  11.791 -0.1626  0.8713 -0.1249
  540TMC3    C3 8012   2.262   3.643  11.787  1.3605  0.4893 -0.6387
  540TMC3    C4 8013   2.143   3.486  11.980  0.3353  0.3253  0.6623
  540TMC3    C5 8014   2.123   3.625  11.975  0.1778 -0.2444  1.0690
  540TMC3    C6 8015   2.171   3.703  11.875 -0.3217  0.5539  0.5607
  540TMC3     C 8016   2.295   3.298  11.919 -0.5458  0.0803  0.0898
  540TMC3     O 8017   2.409   3.294  11.870 -0.2232  0.2004 -0.7039
  540TMC3     H 8018   2.380   3.470  11.731 -0.1844 -0.7030  0.8832
  540TMC3    H1 8019   2.101   3.428  12.061 -1.4018  1.0070  0.2660
  540TMC3    H2 8020   2.143   3.805  11.852 -1.4377  0.1665  0.2213
  540TMC3    C7 8021   2.012   3.678  12.049 -0.8515 -0.5230 -0.1296
  540TMC3    C8 8022   2.323   3.714  11.676  0.1655  0.6923  0.4496
  540TMC3    O1 8023   1.936   3.609  12.112 -0.3482  0.2992 -0.3094
  540TMC3    O2 8024   2.366   3.828  11.692 -0.0524 -0.6338  0.0800
  541MPD2     C 8025   0.633   4.299  13.396 -0.5772 -0.6189  0.3623
  541MPD2    C1 8026   0.664   4.200  13.317  0.1797 -0.2410 -0.0044
  541MPD2    C2 8027   0.699   4.219  13.182 -0.1371  0.3563  0.4181
  541MPD2    C3 8028   0.705   4.343  13.127 -0.2961 -0.1854 -0.2229
  541MPD2    C4 8029   0.669   4.453  13.207 -0.4292  0.1786  0.0574
  541MPD2    C5 8030   0.638   4.425  13.340  0.0774  0.5581 -0.1946
  541MPD2     H 8031   0.743   4.133  13.133 -1.9125  0.3691 -1.2053
  541MPD2    H1 8032   0.679   4.553  13.165  0.5294  0.7818  1.7481
  541MPD2    H2 8033   0.606   4.279  13.500 -1.1572  1.1528  0.5485
  541MPD2    H3 8034   0.610   4.513  13.397  4.0092  0.3040  2.1034
  541MPD2     N 8035   0.746   4.376  12.996 -0.2997  0.2694 -0.3234
  541MPD2    H5 8036   0.753   4.475  12.976  2.3132  0.0188 -0.5960
  541MPD2    N1 8037   0.656   4.075  13.377  0.1608  0.0055  0.9438
  541MPD2    H7 8038   0.652   4.062  13.477  0.8712 -0.6915  0.8811
  542TMC3    C1 8039   0.856   4.360  12.788 -0.6041 -0.2506 -0.7318
  542TMC3    C2 8040   0.899   4.274  12.686  0.1509  0.0750  0.8976
  542TMC3    C3 8041   0.948   4.331  12.568 -0.0906 -0.0962 -0.7710
  542TMC3    C4 8042   0.868   4.493  12.778 -0.4001 -0.4896 -0.2677
  542TMC3    C5 8043   0.916   4.547  12.665 -0.5751 -0.0770  0.4374
  542TMC3    C6 8044   0.955   4.467  12.551 -0.0223  0.8774  0.3624
  542TMC3     C 8045   0.812   4.295  12.913 -0.5066 -0.6651  0.0954
  542TMC3     O 8046   0.834   4.174  12.924  0.4723  0.2240 -0.5014
  542TMC3     H 8047   0.886   4.167  12.700  0.0739  0.2153  1.8971
  542TMC3    H1 8048   0.833   4.559  12.857 -0.7290  0.6988 -1.3970
  542TMC3    H2 8049   0.990   4.512  12.459 -2.4373 -0.6415 -1.2888
  542TMC3    C7 8050   0.900   4.694  12.641 -0.4207  0.3880  0.0387
  542TMC3    C8 8051   0.966   4.256  12.447  0.5025  0.5194 -0.8515
  542TMC3    O1 8052   0.799   0.010  12.693 -0.0728  0.6549 -0.2339
  542TMC3    O2 8053   1.038   4.302  12.359 -0.0674 -0.5734  0.1805
  543TMC3    C1 8054   0.416   1.092  16.892 -0.4776  0.8188  0.2327
  543TMC3    C2 8055   0.428   1.020  16.781  1.0657  0.7666 -0.1883
  543TMC3    C3 8056   0.318   1.010  16.698 -0.2020  0.6073  1.2672
  543TMC3    C4 8057   0.297   1.150  16.934  0.8052 -0.1940  0.0842
  543TMC3    C5 8058   0.193   1.144  16.844 -0.1899  0.5527 -0.1572
  543TMC3    C6 8059   0.204   1.081  16.724 -0.0772 -0.1197  0.5060
  543TMC3     C 8060   0.518   1.058  16.993 -0.3676 -0.7402  0.2868
  543TMC3     O 8061   0.584   0.959  16.970 -0.0704  0.6521 -0.1085
  543TMC3     H 8062   0.520   0.965  16.760  1.0533  0.6223  0.1198
  543TMC3    H1 8063   0.286   1.216  17.020  1.7119  2.0704 -1.5414
  543TMC3    H2 8064   0.127   1.080  16.649 -1.1949 -0.0596  1.6584
  543TMC3    C7 8065   0.079   1.088  16.913  0.2921 -0.2765 -1.0235
  543TMC3    C8 8066   0.289   0.870  16.667  0.6815 -1.1407  0.4002
  543TMC3    O1 8067   0.008   1.018  16.843 -0.1030 -0.1192  0.8413
  543TMC3    O2 8068   0.378   0.802  16.619  0.0444  0.0721  0.0492
  544MPD2     C 8069   0.078   0.470  16.921 -0.2956  0.0090  0.5730
  544MPD2    C1 8070   0.191   0.480  16.843  0.2478  0.2563  0.7452
  544MPD2    C2 8071   0.224   0.602  16.774  0.2113 -0.8629 -0.0666
  544MPD2    C3 8072   0.131   0.704  16.768 -0.2045  0.4897  0.0815
  544MPD2    C4 8073   0.014   0.688  16.843  0.5093  0.6626 -0.0979
  544MPD2    C5 8074   4.711   0.574  16.914  0.1609  0.1164  0.3639
  544MPD2     H 8075   0.325   0.614  16.736  0.2039  0.8000  0.4494
  544MPD2    H1 8076   4.668   0.769  16.848 -2.9411 -2.4682  0.5840
  544MPD2    H2 8077   0.056   0.378  16.974  0.9832 -0.0073  1.0718
  544MPD2    H3 8078   4.613   0.560  16.956 -0.2412  3.4079  0.5362
  544MPD2     N 8079   0.162   0.835  16.720  0.5710  0.5617 -0.2385
  544MPD2    H5 8080   0.100   0.907  16.753  0.6191 -0.5058  2.1807
  544MPD2    N1 8081   0.281   0.367  16.840  0.1048  0.2816  0.3765
  544MPD2    H7 8082   0.260   0.289  16.901 -1.0266  0.4574  0.2171
  545TMC3    C1 8083   0.469   0.233  16.797 -0.0695 -0.3785  0.4372
  545TMC3    C2 8084   0.602   0.245  16.758  0.6683 -0.3456 -0.8791
  545TMC3    C3 8085   0.686   0.145  16.792 -0.2305 -0.2270  0.3767
  545TMC3    C4 8086   0.414   0.122  16.846  0.1639  0.3376 -0.2523
  545TMC3    C5 8087   0.510   0.022  16.875 -0.3684 -0.7238 -0.2209
  545TMC3    C6 8088   0.646   0.036  16.859 -0.4996 -0.5960  0.5761
  545TMC3     C 8089   0.393   0.355  16.764  0.5314  0.6817  0.1861
  545TMC3     O 8090   0.441   0.425  16.678  1.3437 -0.0866 -0.8507
  545TMC3     H 8091   0.650   0.334  16.720 -0.6052  0.5399 -0.4212
  545TMC3    H1 8092   0.310   0.104  16.870  0.2342 -1.9922 -1.7276
  545TMC3    H2 8093   0.708   4.673  16.867 -0.0270 -0.4735 -1.5973
  545TMC3    C7 8094   0.450   4.631  16.948  0.1582  0.2025 -0.1765
  545TMC3    C8 8095   0.808   0.125  16.706  0.2420 -0.4711 -0.0702
  545TMC3    O1 8096   0.333   4.612  16.920  0.4300  0.3986 -0.5111
  545TMC3    O2 8097   0.802   0.157  16.587 -0.2230  0.4429  0.5269
  546MPD2     C 8098   1.982   0.867   0.373  0.0218 -0.3289 -0.1899
  546MPD2    C1 8099   1.953   0.826   0.248 -0.3894  0.6049  0.2914
  546MPD2    C2 8100   1.940   0.922   0.149  1.2845 -0.5905  0.3055
  546MPD2    C3 8101   1.954   1.051   0.171 -0.0052  0.0714 -0.3124
  546MPD2    C4 8102   1.981   1.090   0.300 -0.3428 -0.4029  0.5609
  546MPD2    C5 8103   2.004   1.003   0.403  0.4520 -0.1164 -0.0619
  546MPD2     H 8104   1.926   0.894   0.046  0.5853 -0.1510  0.2835
  546MPD2    H1 8105   1.990   1.195   0.324 -0.3174 -0.5218  1.0697
  546MPD2    H2 8106   2.010   0.794   0.448  1.1526  0.6587  0.3510
  546MPD2    H3 8107   2.036   1.034   0.502  0.4473 -0.2059 -0.0314
  546MPD2     N 8108   1.941   1.151   0.074 -0.0959 -0.1250 -0.3843
  546MPD2    H5 8109   1.950   1.246   0.108 -0.9017 -0.4490  0.7427
  546MPD2    N1 8110   1.937   0.688   0.216  0.0331 -0.1258  0.4760
  546MPD2    H7 8111   1.965   0.620   0.286  2.1460  0.0725 -0.1676
  547TMC3    C1 8112   1.857   0.499   0.093  0.3355 -0.5221  0.0862
  547TMC3    C2 8113   1.775   0.458  17.702  0.2665  0.5113  0.4440
  547TMC3    C3 8114   1.715   0.337   0.000 -0.0745  0.0986  0.5252
  547TMC3    C4 8115   1.896   0.414   0.195 -0.4015  0.4807 -0.1075
  547TMC3    C5 8116   1.826   0.291   0.206  0.9672  0.0471 -0.4962
  547TMC3    C6 8117   1.725   0.258   0.111  0.1263  0.6132  0.0949
  547TMC3     C 8118   1.881   0.639   0.097  0.1710  0.2528 -0.0794
  547TMC3     O 8119   1.807   0.700   0.022 -0.2625  0.2137 -0.8473
  547TMC3     H 8120   1.753   0.521  17.617 -0.1216  0.5277  0.5518
  547TMC3    H1 8121   1.984   0.439   0.254 -0.7543  1.3903  0.0290
  547TMC3    H2 8122   1.668   0.166   0.117  3.5366 -1.5193  0.1489
  547TMC3    C7 8123   1.840   0.218   0.333  0.3115 -0.3906 -0.4169
  547TMC3    C8 8124   1.594   0.327  17.633  0.2790  0.3416 -0.2503
  547TMC3    O1 8125   1.760   0.128   0.347 -0.6077  0.2274 -0.2178
  547TMC3    O2 8126   1.532   0.429  17.614  0.5200  0.4238 -0.6203
  548MPD2     C 8127   1.695   1.165  12.760 -0.1821 -0.1664  0.1381
  548MPD2    C1 8128   1.595   1.084  12.812 -0.0341 -0.8349 -0.4620
  548MPD2    C2 8129   1.610   0.942  12.803  0.1861 -0.9728  0.2832
  548MPD2    C3 8130   1.718   0.885  12.734 -0.4495 -0.3840  0.4448
  548MPD2    C4 8131   1.814   0.970  12.682  0.3761 -0.2596  0.6354
  548MPD2    C5 8132   1.803   1.105  12.705  0.1641 -0.7405  1.1800
  548MPD2     H 8133   1.548   0.866  12.851  1.5462 -1.0960  1.8556
  548MPD2    H1 8134   1.899   0.941  12.621  0.5270 -0.1536  0.7952
  548MPD2    H2 8135   1.691   1.272  12.741 -0.2880 -0.2784 -0.4714
  548MPD2    H3 8136   1.878   1.174  12.671 -1.3794 -0.3523 -1.4474
  548MPD2     N 8137   1.720   0.742  12.718  0.0274  0.7762 -0.4732
  548MPD2    H5 8138   1.631   0.700  12.744  1.3927 -0.9166  1.5025
  548MPD2    N1 8139   1.476   1.146  12.868  0.6800  0.3497  0.4722
  548MPD2    H7 8140   1.480   1.245  12.889  0.4214  0.2599  0.9227
  549TMC3    C1 8141   1.248   1.160  12.915  0.3715 -0.2905  0.1585
  549TMC3    C2 8142   1.243   1.277  12.842  0.1115  0.8085 -0.0413
  549TMC3    C3 8143   1.122   1.341  12.823 -0.0119 -0.5449 -0.3054
  549TMC3    C4 8144   1.140   1.113  12.975 -0.2325  0.2198 -0.0290
  549TMC3    C5 8145   1.018   1.173  12.956  0.4801  0.4570 -0.7240
  549TMC3    C6 8146   1.015   1.301  12.898 -0.0439  0.1387 -0.4729
  549TMC3     C 8147   1.365   1.078  12.915 -0.3251  0.1863  0.4002
  549TMC3     O 8148   1.349   0.955  12.927  0.0561  0.1673 -0.2535
  549TMC3     H 8149   1.332   1.308  12.787 -0.8140  2.1085 -0.8019
  549TMC3    H1 8150   1.150   1.025  13.038  1.3488  0.5213  0.1440
  549TMC3    H2 8151   0.917   1.339  12.871  0.0837  0.7588 -0.0433
  549TMC3    C7 8152   0.900   1.092  12.954  0.7423  0.5397  0.0788
  549TMC3    C8 8153   1.104   1.438  12.718  0.0082  0.2581  0.4102
  549TMC3    O1 8154   0.788   1.142  12.962 -0.8906  0.0511  0.0453
  549TMC3    O2 8155   0.987   1.441  12.676  0.8160 -0.2609 -0.4535
  550TMC3    C1 8156   4.510   4.457  12.579 -0.1418 -0.2804  0.8456
  550TMC3    C2 8157   4.412   4.505  12.654  0.5184 -0.4340 -0.5676
  550TMC3    C3 8158   4.291   4.544  12.588 -0.0610 -0.1838  0.0042
  550TMC3    C4 8159   4.506   4.455  12.436  0.3168 -0.5220 -0.8263
  550TMC3    C5 8160   4.380   4.488  12.376  0.6952  0.2437 -0.0682
  550TMC3    C6 8161   4.268   4.531  12.452  0.6066  0.3066 -0.2477
  550TMC3     C 8162   4.606   4.367  12.641  0.6352  0.4967  0.1957
  550TMC3     O 8163   4.582   4.329  12.753  0.4915 -0.1673 -0.7418
  550TMC3     H 8164   4.425   4.503  12.761 -2.7077 -0.8142 -0.1682
  550TMC3    H1 8165   4.590   4.430  12.372  1.5906  2.7261 -0.4513
  550TMC3    H2 8166   4.176   4.560  12.402 -1.2366 -3.0626  1.1776
  550TMC3    C7 8167   4.342   4.446  12.245  0.4223  0.4694  0.2703
  550TMC3    C8 8168   4.186   4.574  12.677  0.1140  0.0623  0.3039
  550TMC3    O1 8169   4.226   4.461  12.211 -0.4880 -0.5160  0.9264
  550TMC3    O2 8170   4.218   4.614  12.788  0.3177  0.1712  0.8366
  551TMC3    C1 8171   2.461   1.472  13.676  0.2902 -0.3317  0.1671
  551TMC3    C2 8172   2.553   1.443  13.586  0.0579 -0.0500  0.1658
  551TMC3    C3 8173   2.671   1.510  13.583  0.6422 -0.1391 -0.3925
  551TMC3    C4 8174   2.482   1.574  13.770 -0.1263  0.1898  0.8424
  551TMC3    C5 8175   2.612   1.622  13.783  1.6178  0.4296  0.2367
  551TMC3    C6 8176   2.704   1.590  13.689 -0.8766  0.0698 -0.2694
  551TMC3     C 8177   2.325   1.461  13.617 -0.2841 -0.5799  0.1951
  551TMC3     O 8178   2.314   1.410  13.507  0.3132 -0.9795  0.1774
  551TMC3     H 8179   2.538   1.359  13.519 -0.7221  1.2208 -1.2409
  551TMC3    H1 8180   2.408   1.607  13.841 -0.6213  0.3181  0.2613
  551TMC3    H2 8181   2.795   1.649  13.699  0.3864 -1.9831  0.5452
  551TMC3    C7 8182   2.643   1.744  13.850  0.7480  0.2446 -0.5245
  551TMC3    C8 8183   2.725   1.539  13.451 -0.2770 -0.1281 -0.2175
  551TMC3    O1 8184   2.757   1.746  13.897 -0.7474 -0.1211 -0.2758
  551TMC3    O2 8185   2.668   1.487  13.352 -0.5702  0.2106  0.5117
  552MPD2     C 8186   4.123   3.745  14.281  0.8304  0.4238 -0.2502
  552MPD2    C1 8187   4.262   3.754  14.231 -0.6506 -1.1247 -0.3637
  552MPD2    C2 8188   4.360   3.788  14.320 -0.1010 -0.5093 -0.0649
  552MPD2    C3 8189   4.342   3.803  14.456 -0.0738  0.0417  0.5520
  552MPD2    C4 8190   4.216   3.775  14.501  0.2625 -0.1529  0.2186
  552MPD2    C5 8191   4.108   3.751  14.417 -0.2471 -0.2855  0.4973
  552MPD2     H 8192   4.451   3.822  14.272 -0.0285 -1.2834 -0.4797
  552MPD2    H1 8193   4.181   3.798  14.601  1.1686 -1.3942  0.8116
  552MPD2    H2 8194   4.041   3.727  14.213  0.7614  1.3381 -0.4085
  552MPD2    H3 8195   4.013   3.724  14.461 -1.0107  2.2811  0.4180
  552MPD2     N 8196   4.439   3.840  14.558  0.1407 -0.4184 -0.4902
  552MPD2    H5 8197   4.425   3.814  14.656  1.6730  0.3870 -0.0660
  552MPD2    N1 8198   4.291   3.727  14.100 -0.2453 -0.1865 -0.2274
  552MPD2    H7 8199   4.388   3.717  14.073  0.1975  0.1776  1.2883
  553TMC3    C1 8200   4.266   3.655  13.879 -0.4876  0.0247 -0.0130
  553TMC3    C2 8201   4.236   3.717  13.761 -0.7571  0.3601  0.8125
  553TMC3    C3 8202   4.306   3.670  13.651  0.4738  0.2478  0.5942
  553TMC3    C4 8203   4.378   3.578  13.895 -0.1932 -0.4850  0.0043
  553TMC3    C5 8204   4.447   3.532  13.785  0.0348 -0.0466 -0.3784
  553TMC3    C6 8205   4.417   3.584  13.663  0.0671  0.6839 -0.0304
  553TMC3     C 8206   4.201   3.710  13.995  0.2445  0.7185 -0.4660
  553TMC3     O 8207   4.082   3.726  13.983 -0.0366  0.4731 -0.0082
  553TMC3     H 8208   4.170   3.803  13.762 -1.8794 -0.5210  1.5228
  553TMC3    H1 8209   4.390   3.517  13.984  1.0813  0.3660  0.4086
  553TMC3    H2 8210   4.465   3.531  13.581 -0.7854 -0.0060 -0.0865
  553TMC3    C7 8211   4.529   3.412  13.796  0.3661  0.9717 -0.4607
  553TMC3    C8 8212   4.310   3.740  13.525 -0.6687  0.9178 -0.6776
  553TMC3    O1 8213   4.551   3.350  13.693  0.3355  0.0330  0.7859
  553TMC3    O2 8214   4.296   3.860  13.533 -0.5392 -0.0242 -0.5653
  554TMC3    C1 8215   1.486   3.184  11.803 -0.7711  0.4182 -0.1407
  554TMC3    C2 8216   1.483   3.123  11.685 -0.6362  0.7971  0.5062
  554TMC3    C3 8217   1.503   3.202  11.570 -0.0724  0.1003 -0.0045
  554TMC3    C4 8218   1.492   3.320  11.814  0.7801  0.4119 -0.0273
  554TMC3    C5 8219   1.505   3.394  11.702  0.3057 -0.0458  1.0790
  554TMC3    C6 8220   1.510   3.337  11.578 -0.1424 -0.5370 -0.3345
  554TMC3     C 8221   1.487   3.099  11.918  0.1409 -0.4934 -0.0905
  554TMC3     O 8222   1.485   2.978  11.902  0.1187 -0.4566 -0.3158
  554TMC3     H 8223   1.480   3.015  11.683  2.3434  0.7138  1.1529
  554TMC3    H1 8224   1.478   3.362  11.913 -2.1196  2.9673 -1.5096
  554TMC3    H2 8225   1.517   3.400  11.490  0.3739  0.1720  0.2191
  554TMC3    C7 8226   1.604   3.493  11.723  0.1274  0.6235  0.6530
  554TMC3    C8 8227   1.480   3.151  11.441  0.0850 -0.6257 -0.0392
  554TMC3    O1 8228   1.614   3.554  11.825  0.2199 -0.1383  0.5338
  554TMC3    O2 8229   1.505   3.221  11.342  0.4428  0.5666  0.0037
  555TMC3    C1 8230   0.629   2.019  15.410 -0.3297 -0.0823  0.1006
  555TMC3    C2 8231   0.570   2.127  15.476 -0.4380 -0.8149  0.0913
  555TMC3    C3 8232   0.528   2.111  15.608 -0.7570  0.4960  0.2500
  555TMC3    C4 8233   0.642   1.893  15.468 -0.2733 -0.4145  0.4017
  555TMC3    C5 8234   0.591   1.888  15.592 -0.2881 -0.5266 -0.1385
  555TMC3    C6 8235   0.549   1.994  15.670 -0.1053  0.5764 -0.4351
  555TMC3     C 8236   0.741   2.059  15.325 -0.0314 -0.5333 -0.1488
  555TMC3     O 8237   0.843   1.997  15.330  0.7718 -0.1444  0.1457
  555TMC3     H 8238   0.544   2.221  15.430  0.1867 -1.0289 -0.6977
  555TMC3    H1 8239   0.691   1.811  15.416  0.6388  0.5284 -0.2240
  555TMC3    H2 8240   0.514   1.991  15.773  0.1350 -1.7280 -0.4174
  555TMC3    C7 8241   0.557   1.754  15.643  0.7682  0.3069 -0.2226
  555TMC3    C8 8242   0.551   2.223  15.694 -0.3744  0.2269  0.8030
  555TMC3    O1 8243   0.468   1.741  15.733  0.1911 -0.0519 -0.4762
  555TMC3    O2 8244   0.482   2.322  15.677  0.1681  0.3014 -0.1304
  556MPD2     C 8245   4.095   3.992  10.734  0.9344  0.3555  0.4444
  556MPD2    C1 8246   4.004   3.909  10.800 -0.0567 -0.3606  0.1067
  556MPD2    C2 8247   3.959   3.798  10.739 -0.3674 -0.4799  0.4515
  556MPD2    C3 8248   4.015   3.754  10.620 -0.2908 -0.2620 -0.2576
  556MPD2    C4 8249   4.105   3.839  10.550 -0.8375  0.1275  0.9042
  556MPD2    C5 8250   4.148   3.956  10.616  0.1334  1.1224  0.0556
  556MPD2     H 8251   3.892   3.737  10.798 -0.2097  0.1763  1.3150
  556MPD2    H1 8252   4.153   3.814  10.456  0.9680 -0.2262  1.9173
  556MPD2    H2 8253   4.125   4.084  10.783  1.1326 -0.3283  1.6074
  556MPD2    H3 8254   4.220   4.022  10.570  1.7793 -1.3609 -0.9779
  556MPD2     N 8255   3.971   3.625  10.571 -0.0355 -0.3581 -0.0116
  556MPD2    H5 8256   3.907   3.579  10.634 -0.3444 -2.3013 -1.7137
  556MPD2    N1 8257   3.944   3.945  10.927 -0.1398  0.4560  0.4156
  556MPD2    H7 8258   3.876   3.884  10.971  0.8434 -0.6317  0.4553
  557TMC3    C1 8259   3.881   3.519  10.380 -0.1498  0.3695 -0.1946
  557TMC3    C2 8260   3.890   3.426  10.276 -0.3624 -0.0208 -0.3696
  557TMC3    C3 8261   3.776   3.366  10.224  0.1456  0.2748 -0.4373
  557TMC3    C4 8262   3.758   3.570  10.415  0.6127 -0.0134  0.2862
  557TMC3    C5 8263   3.643   3.518  10.362  0.8396 -0.0901 -0.1943
  557TMC3    C6 8264   3.651   3.413  10.270  0.7022  0.1656 -0.0822
  557TMC3     C 8265   3.999   3.575  10.441  0.2461 -0.1250 -0.0919
  557TMC3     O 8266   4.093   3.594  10.361 -0.3380 -0.4459 -0.1266
  557TMC3     H 8267   3.989   3.396  10.244 -1.3232 -1.7568 -1.6875
  557TMC3    H1 8268   3.746   3.648  10.490 -0.4643 -0.1665  0.2785
  557TMC3    H2 8269   3.563   3.367  10.225  0.5295 -0.1000  0.5253
  557TMC3    C7 8270   3.529   3.532  10.439  0.3943  0.1961  0.4387
  557TMC3    C8 8271   3.786   3.260  10.130 -0.7666 -0.6146 -0.1862
  557TMC3    O1 8272   3.521   3.638  10.502 -0.0297 -0.0156 -0.0950
  557TMC3    O2 8273   3.892   3.205  10.115  0.1372 -0.5059 -0.5241
  558TMC3    C1 8274   1.759   2.379  10.149  0.2026 -0.5066 -0.0185
  558TMC3    C2 8275   1.653   2.386  10.235  0.2591 -0.1662 -0.0819
  558TMC3    C3 8276   1.531   2.375  10.173 -0.5432  0.6295  0.9257
  558TMC3    C4 8277   1.750   2.352  10.017  0.1441 -0.1625  0.4954
  558TMC3    C5 8278   1.623   2.351   9.967  0.5211 -0.7695 -0.6325
  558TMC3    C6 8279   1.514   2.357  10.038  0.6018 -0.4952 -0.0359
  558TMC3     C 8280   1.872   2.324  10.220  0.0318  0.3882  0.2438
  558TMC3     O 8281   1.912   2.387  10.318  0.0589  0.2023  0.4897
  558TMC3     H 8282   1.675   2.426  10.333  0.1331  1.4788 -0.7200
  558TMC3    H1 8283   1.830   2.323   9.951  0.0643 -1.3544  0.9324
  558TMC3    H2 8284   1.415   2.354   9.995  0.1329  0.4759  0.9624
  558TMC3    C7 8285   1.605   2.322   9.827 -0.5787  0.2406 -0.2400
  558TMC3    C8 8286   1.425   2.324  10.258 -0.1420  0.3008 -1.0943
  558TMC3    O1 8287   1.684   2.371   9.750  0.5283  0.3812  0.1242
  558TMC3    O2 8288   1.308   2.344  10.220  0.2519 -0.7298 -1.0497
  559MPD2     C 8289   1.561   2.661  10.526 -0.0348  1.0447 -0.3777
  559MPD2    C1 8290   1.513   2.599  10.640 -0.3570  0.1190 -0.3731
  559MPD2    C2 8291   1.593   2.607  10.755 -0.0580 -0.6127  0.7689
  559MPD2    C3 8292   1.710   2.678  10.754  0.7096  0.0175  0.1919
  559MPD2    C4 8293   1.754   2.736  10.643  0.4184 -0.8009  0.5387
  559MPD2    C5 8294   1.683   2.727  10.526 -0.0057  0.4640  0.1357
  559MPD2     H 8295   1.573   2.549  10.844  1.5766 -2.1620  0.1318
  559MPD2    H1 8296   1.847   2.792  10.645 -0.3746  0.6344 -2.4879
  559MPD2    H2 8297   1.504   2.654  10.433  1.1553 -2.2159 -0.8834
  559MPD2    H3 8298   1.731   2.754  10.432  1.6689  1.3452  1.2428
  559MPD2     N 8299   1.784   2.669  10.872 -0.4774  0.1648 -0.2606
  559MPD2    H5 8300   1.743   2.625  10.954 -0.2697 -0.1917 -0.3466
  559MPD2    N1 8301   1.393   2.526  10.639  0.1569 -0.4454  0.2536
  559MPD2    H7 8302   1.330   2.554  10.565 -2.2820  0.3793  2.6078
  560TMC3    C1 8303   1.979   2.676  10.998 -0.8774 -0.4304 -0.1590
  560TMC3    C2 8304   1.981   2.538  11.010 -0.0086  0.3647  0.0684
  560TMC3    C3 8305   2.068   2.495  11.107 -0.8894 -0.2261  0.2046
  560TMC3    C4 8306   2.048   2.765  11.081 -0.9011 -0.1610  0.2391
  560TMC3    C5 8307   2.129   2.709  11.173  0.6558  0.6833 -0.0086
  560TMC3    C6 8308   2.142   2.572  11.193  0.2825 -0.0900 -0.3993
  560TMC3     C 8309   1.901   2.732  10.895 -0.0353 -1.1791 -0.2911
  560TMC3     O 8310   1.927   2.844  10.859 -0.4126 -0.4433 -0.0895
  560TMC3     H 8311   1.948   2.474  10.929  2.0486  0.6175 -0.9686
  560TMC3    H1 8312   2.043   2.873  11.070 -0.4003 -0.0383  1.2063
  560TMC3    H2 8313   2.195   2.531  11.278  0.4306 -1.4898 -1.1732
  560TMC3    C7 8314   2.155   2.780  11.289  0.7817 -0.0346  0.4897
  560TMC3    C8 8315   2.045   2.360  11.131 -0.0531 -0.0947 -0.3870
  560TMC3    O1 8316   2.146   2.716  11.392  0.0763  0.2483  0.0478
  560TMC3    O2 8317   1.935   2.308  11.102  0.0644 -0.5675  0.6102
  561TMC3    C1 8318   4.119   1.205  11.334 -0.3487  0.5043  0.5025
  561TMC3    C2 8319   4.046   1.182  11.444 -0.4836  0.2898  0.1342
  561TMC3    C3 8320   4.042   1.286  11.534  0.1118  0.3002 -0.6485
  561TMC3    C4 8321   4.204   1.310  11.312  0.4568  0.2906 -0.2621
  561TMC3    C5 8322   4.198   1.406  11.411  0.7565  0.2762 -0.4705
  561TMC3    C6 8323   4.120   1.401  11.524  0.2755  0.3616  0.6035
  561TMC3     C 8324   4.059   1.161  11.197  0.3277  0.4360  0.1982
  561TMC3     O 8325   4.130   1.187  11.101 -0.1474 -0.0338  0.2984
  561TMC3     H 8326   3.985   1.093  11.453  0.7404 -0.2829  2.7610
  561TMC3    H1 8327   4.251   1.325  11.215 -0.9947  0.6435 -0.9113
  561TMC3    H2 8328   4.122   1.458  11.616  1.7429  0.8237  0.2967
  561TMC3    C7 8329   4.284   1.523  11.396  0.4384  0.2914  0.9672
  561TMC3    C8 8330   3.983   1.258  11.669 -0.3527 -0.7334 -0.4523
  561TMC3    O1 8331   4.385   1.530  11.328 -0.0862 -0.3640  0.2092
  561TMC3    O2 8332   3.966   1.142  11.703 -0.0184  0.0738  0.2350
  562TMC3    C1 8333   0.362   2.727  16.332  0.7405  0.0313  0.2378
  562TMC3    C2 8334   0.265   2.814  16.313 -0.1449  0.1615  0.1221
  562TMC3    C3 8335   0.190   2.811  16.204 -0.0126  0.3530 -0.5104
  562TMC3    C4 8336   0.379   2.614  16.258  0.4520 -0.0988 -0.8810
  562TMC3    C5 8337   0.297   2.610  16.149 -0.5167 -0.0257  0.5578
  562TMC3    C6 8338   0.201   2.708  16.116 -0.2456  0.9730 -0.1563
  562TMC3     C 8339   0.465   2.738  16.440 -0.2225  0.4017 -0.0266
  562TMC3     O 8340   0.545   2.646  16.454 -0.2254 -0.3398 -0.2959
  562TMC3     H 8341   0.265   2.901  16.376  1.4327  0.3403 -0.1203
  562TMC3    H1 8342   0.460   2.545  16.275  1.5742  0.5742 -3.4704
  562TMC3    H2 8343   0.131   2.699  16.034  0.9347  0.7125 -1.1341
  562TMC3    C7 8344   0.284   2.481  16.075  0.6077 -0.2880 -0.8627
  562TMC3    C8 8345   0.066   2.876  16.227  0.9707 -0.2912  0.0642
  562TMC3    O1 8346   0.257   2.489  15.960 -0.5187 -0.0410 -0.7219
  562TMC3    O2 8347   0.040   2.881  16.348 -0.4330 -0.4318  0.1302
  563MPD2     C 8348   3.012   4.084  16.021 -0.8048  0.6972  0.0088
  563MPD2    C1 8349   2.998   4.116  16.156 -0.4889  0.2256  0.2106
  563MPD2    C2 8350   3.101   4.089  16.240  0.5341  0.9626 -0.3890
  563MPD2    C3 8351   3.212   4.020  16.192 -0.2882  0.1572 -0.0118
  563MPD2    C4 8352   3.232   4.004  16.054 -0.3568  0.5945  0.1938
  563MPD2    C5 8353   3.128   4.038  15.968  0.4871  0.2363 -0.1871
  563MPD2     H 8354   3.101   4.114  16.345 -1.4162 -0.3571 -0.0841
  563MPD2    H1 8355   3.329   3.980  16.013 -0.7644 -2.0254  0.7631
  563MPD2    H2 8356   2.922   4.115  15.967  1.2910  0.2739 -3.7496
  563MPD2    H3 8357   3.140   4.041  15.860  1.5599  2.4292 -0.0090
  563MPD2     N 8358   3.307   3.972  16.284 -0.5991  0.3328 -0.4287
  563MPD2    H5 8359   3.282   3.971  16.382  1.4804  0.3392  0.0961
  563MPD2    N1 8360   2.881   4.182  16.205 -0.3551 -0.3636  0.0054
  563MPD2    H7 8361   2.805   4.190  16.138 -0.7722  0.4280  0.5735
  564TMC3    C1 8362   2.757   4.194  16.415  0.1038 -0.1973  0.1132
  564TMC3    C2 8363   2.647   4.143  16.354  0.1461  0.8653  0.4285
  564TMC3    C3 8364   2.557   4.082  16.437  0.6781 -0.3884  0.4881
  564TMC3    C4 8365   2.786   4.176  16.549 -0.8166 -0.5670  0.4149
  564TMC3    C5 8366   2.683   4.119  16.625  0.2171  0.6376  0.2410
  564TMC3    C6 8367   2.568   4.077  16.572 -0.1046  0.9164 -0.5246
  564TMC3     C 8368   2.873   4.235  16.336 -0.2422 -0.7243  0.9760
  564TMC3     O 8369   2.968   4.274  16.405  0.1367  0.2650 -0.0183
  564TMC3     H 8370   2.640   4.146  16.246 -1.8881 -2.1085  0.4748
  564TMC3    H1 8371   2.873   4.216  16.598  1.3739 -1.0766 -3.0744
  564TMC3    H2 8372   2.487   4.054  16.639  0.5491  1.9353  0.6189
  564TMC3    C7 8373   2.734   4.022  16.717 -0.0795  0.1923 -0.6972
  564TMC3    C8 8374   2.520   3.940  16.395 -0.4733  0.4433 -0.0814
  564TMC3    O1 8375   2.819   4.056  16.802 -0.2327 -0.3074 -0.1124
  564TMC3    O2 8376   2.448   3.881  16.475  0.2083 -0.1527 -0.6644
  565TMC3    C1 8377   3.467   1.142  10.242  0.3049  0.2372  0.6204
  565TMC3    C2 8378   3.453   1.017  10.201  0.1078  0.3146  0.6008
  565TMC3    C3 8379   3.334   0.955  10.220  0.6432 -0.3387 -0.2293
  565TMC3    C4 8380   3.374   1.208  10.319 -0.2390  0.4210  0.6821
  565TMC3    C5 8381   3.264   1.140  10.350 -0.6728  0.2977  0.1704
  565TMC3    C6 8382   3.232   1.017  10.296  0.5135 -0.2030  0.1374
  565TMC3     C 8383   3.610   1.185  10.257  0.7030  0.3995  0.7114
  565TMC3     O 8384   3.648   1.252  10.165  0.2220  0.7586 -0.5612
  565TMC3     H 8385   3.533   0.972  10.143 -0.8309 -0.8104  0.1737
  565TMC3    H1 8386   3.392   1.304  10.366  1.0438 -0.6977  2.4470
  565TMC3    H2 8387   3.164   0.945  10.339  0.3730 -1.6200 -2.4605
  565TMC3    C7 8388   3.178   1.196  10.452  0.5168 -0.2721 -0.1083
  565TMC3    C8 8389   3.324   0.813  10.209  0.1893  0.2239 -0.1071
  565TMC3    O1 8390   3.227   1.292  10.509  0.4636  0.1230 -0.2892
  565TMC3    O2 8391   3.431   0.755  10.230  0.1891  0.4604  0.5416
  566MPD2     C 8392   0.004   2.621  14.399 -0.5482  0.7502 -0.4722
  566MPD2    C1 8393   0.088   2.517  14.362  0.5996 -0.0128  0.3314
  566MPD2    C2 8394   0.034   2.408  14.290  1.0135 -0.2494 -0.1154
  566MPD2    C3 8395   4.633   2.401  14.254  0.2455 -0.2918  0.4990
  566MPD2    C4 8396   4.549   2.507  14.287  0.3097  0.2704  0.0388
  566MPD2    C5 8397   4.596   2.612  14.366  0.4696  0.5002 -0.5016
  566MPD2     H 8398   0.106   2.335  14.253  1.1961  1.2004 -2.5764
  566MPD2    H1 8399   4.444   2.511  14.262  0.0744  2.1042  1.3386
  566MPD2    H2 8400   0.038   2.707  14.455  2.1130 -1.3143  1.0565
  566MPD2    H3 8401   4.523   2.681  14.405  2.0794  2.0829 -0.2668
  566MPD2     N 8402   4.585   2.303  14.163  0.5039  0.6872 -0.5311
  566MPD2    H5 8403   4.496   2.321  14.118  0.6109  1.0947 -0.5847
  566MPD2    N1 8404   0.225   2.512  14.394  0.4452  0.0532 -0.0578
  566MPD2    H7 8405   0.268   2.420  14.395 -2.2204 -1.1844  1.1524
  567TMC3    C1 8406   0.446   2.578  14.422 -0.7235 -0.6348 -0.0923
  567TMC3    C2 8407   0.518   2.602  14.311  0.3001  0.2013  0.2762
  567TMC3    C3 8408   0.617   2.513  14.273 -0.0294  0.1800  0.6458
  567TMC3    C4 8409   0.465   2.464  14.494 -0.6218  0.4314 -0.2513
  567TMC3    C5 8410   0.562   2.378  14.458 -0.2698  1.0686 -0.5683
  567TMC3    C6 8411   0.642   2.393  14.347  0.0792 -0.3663  0.2538
  567TMC3     C 8412   0.308   2.622  14.421  0.1761 -0.0276 -0.6535
  567TMC3     O 8413   0.293   2.742  14.392  0.5487  0.8739  0.0829
  567TMC3     H 8414   0.501   2.698  14.265 -0.0854  0.5100  1.0623
  567TMC3    H1 8415   0.412   2.457  14.588  0.6242 -1.5331  0.3091
  567TMC3    H2 8416   0.722   2.325  14.321  1.3685  0.7608  1.2491
  567TMC3    C7 8417   0.608   2.288  14.557  0.4632 -0.2670  0.1530
  567TMC3    C8 8418   0.654   2.516  14.131 -0.2363 -0.6400  0.3467
  567TMC3    O1 8419   0.729   2.265  14.559  0.3218 -0.8055 -0.4023
  567TMC3    O2 8420   0.597   2.609  14.070 -0.8908 -0.1484  0.2171
  568MPD2     C 8421   2.377   2.450  16.698  0.5565  0.1657  0.4277
  568MPD2    C1 8422   2.349   2.543  16.793  0.9546  0.4472 -0.0716
  568MPD2    C2 8423   2.329   2.675  16.761 -0.2588  0.2392 -0.2249
  568MPD2    C3 8424   2.333   2.709  16.628  0.1797 -0.7707 -0.1427
  568MPD2    C4 8425   2.361   2.622  16.530 -0.3257 -0.4671  0.4365
  568MPD2    C5 8426   2.392   2.491  16.571  0.3885  0.1749  0.2481
  568MPD2     H 8427   2.291   2.746  16.834 -0.2124  1.6229 -1.5612
  568MPD2    H1 8428   2.390   2.662  16.433 -2.3327 -2.7838 -1.0902
  568MPD2    H2 8429   2.382   2.348  16.732 -2.3801 -0.0698  0.1548
  568MPD2    H3 8430   2.414   2.410  16.503  2.1906  0.1691  0.8361
  568MPD2     N 8431   2.298   2.847  16.597 -0.3190 -0.1305 -0.0746
  568MPD2    H5 8432   2.307   2.904  16.680 -1.5130  0.7937 -0.5883
  568MPD2    N1 8433   2.342   2.487  16.924  0.8159  0.3550 -0.0216
  568MPD2    H7 8434   2.368   2.390  16.936  0.9582  0.5955  1.7242
  569TMC3    C1 8435   2.288   3.059  16.504 -0.1314  0.5544  0.3243
  569TMC3    C2 8436   2.242   3.106  16.626  0.0343 -0.2058 -0.3587
  569TMC3    C3 8437   2.275   3.231  16.661  0.6831 -0.9020 -0.2222
  569TMC3    C4 8438   2.373   3.134  16.435  0.5189 -0.0239 -0.0199
  569TMC3    C5 8439   2.396   3.264  16.463  0.0929  0.5276  0.2081
  569TMC3    C6 8440   2.356   3.317  16.585 -0.5735 -0.3140 -0.1631
  569TMC3     C 8441   2.299   2.914  16.480  0.9211 -0.3881 -0.5065
  569TMC3     O 8442   2.327   2.879  16.368  0.1245 -0.3609  0.4692
  569TMC3     H 8443   2.177   3.048  16.690 -2.1254 -0.6856 -2.9974
  569TMC3    H1 8444   2.417   3.096  16.344 -0.0813 -0.4675 -0.1249
  569TMC3    H2 8445   2.375   3.418  16.617  0.8950 -1.2253  1.8931
  569TMC3    C7 8446   2.508   3.322  16.389  0.1070 -0.2414  0.7243
  569TMC3    C8 8447   2.244   3.264  16.799  0.0820  0.1474  0.4424
  569TMC3    O1 8448   2.600   3.249  16.358 -0.1116  0.0896 -0.2282
  569TMC3    O2 8449   2.180   3.180  16.861 -0.1725 -0.0498 -0.3701
  570TMC3    C1 8450   1.942   1.499  16.386  0.5905  0.0484 -0.2089
  570TMC3    C2 8451   2.024   1.501  16.279  0.0199 -0.4406 -0.5952
  570TMC3    C3 8452   2.067   1.618  16.233 -0.2815  0.4555  0.2841
  570TMC3    C4 8453   1.915   1.622  16.449 -0.2507 -0.6860  0.4716
  570TMC3    C5 8454   1.959   1.737  16.400  0.2026 -0.0307 -0.3924
  570TMC3    C6 8455   2.040   1.738  16.288  0.2081 -0.1881  0.3534
  570TMC3     C 8456   1.891   1.375  16.440 -0.2870 -0.6460  0.7252
  570TMC3     O 8457   1.881   1.279  16.364  0.2481  0.2304  0.3141
  570TMC3     H 8458   2.031   1.413  16.217  0.0747  0.3920 -1.7544
  570TMC3    H1 8459   1.840   1.623  16.528 -2.2375  2.8403 -1.4737
  570TMC3    H2 8460   2.093   1.826  16.253  2.5624 -1.6332  0.2529
  570TMC3    C7 8461   1.953   1.855  16.489 -0.1653  0.4511 -0.1583
  570TMC3    C8 8462   2.159   1.631  16.122  0.7747 -0.2218 -0.0446
  570TMC3    O1 8463   1.897   1.847  16.596  0.0255 -0.0922  0.6533
  570TMC3    O2 8464   2.174   1.744  16.081  0.1147  0.3700  0.0852
  571MPD2     C 8465   4.181   3.057   0.748 -0.3758  0.1292  0.4197
  571MPD2    C1 8466   4.279   3.092   0.661 -0.0960 -0.1197  0.0288
  571MPD2    C2 8467   4.346   3.208   0.683 -0.4421 -0.2436 -1.0032
  571MPD2    C3 8468   4.318   3.292   0.789  0.2647 -0.1228  0.1628
  571MPD2    C4 8469   4.217   3.251   0.874 -0.5976 -0.0489 -0.5935
  571MPD2    C5 8470   4.152   3.134   0.852  0.3010  0.3932 -0.4232
  571MPD2     H 8471   4.424   3.241   0.615  1.4866 -0.4245  1.0899
  571MPD2    H1 8472   4.193   3.302   0.967  2.2507  2.6363 -1.3299
  571MPD2    H2 8473   4.130   2.963   0.731  0.6229 -0.3453  0.0058
  571MPD2    H3 8474   4.066   3.104   0.911  0.5729  1.0184  0.2965
  571MPD2     N 8475   4.394   3.409   0.810  0.5287 -0.1851 -0.1164
  571MPD2    H5 8476   4.462   3.440   0.742  0.3921 -1.7370 -0.9665
  571MPD2    N1 8477   4.314   2.998   0.562  0.0167 -0.0659 -0.0756
  571MPD2    H7 8478   4.254   2.916   0.559 -1.0906  0.6821  1.3574
  572TMC3    C1 8479   4.484   3.595   0.914  0.9259 -0.2863 -0.2809
  572TMC3    C2 8480   4.546   3.628   1.030 -0.0455  0.0507 -0.7296
  572TMC3    C3 8481   4.621   3.746   1.041  0.0326  0.1359 -0.0974
  572TMC3    C4 8482   4.493   3.675   0.805  1.5510 -0.8874  0.4464
  572TMC3    C5 8483   4.563   3.800   0.817 -0.2519  0.1781  0.0656
  572TMC3    C6 8484   4.626   3.832   0.935  0.2341 -0.4816 -0.3504
  572TMC3     C 8485   4.388   3.486   0.921 -0.0749  0.3186  0.4992
  572TMC3     O 8486   4.337   3.463   1.031 -0.0630  0.3143  0.1092
  572TMC3     H 8487   4.522   3.575   1.122 -1.3290  0.4384 -0.8411
  572TMC3    H1 8488   4.430   3.656   0.719  1.1729  0.4999  0.4272
  572TMC3    H2 8489   4.689   3.921   0.933 -0.5888  0.1544  1.5363
  572TMC3    C7 8490   4.571   3.883   0.702  0.1823  0.1474 -0.1580
  572TMC3    C8 8491   4.670   3.803   1.168 -0.2149  0.5481 -0.5115
  572TMC3    O1 8492   4.508   3.848   0.601 -0.4229 -0.2872 -0.4653
  572TMC3    O2 8493   4.690   3.926   1.178 -0.0031 -0.1480 -0.0547
  573MPD2     C 8494   0.503   4.155   0.574  0.5692  0.3594  0.4676
  573MPD2    C1 8495   0.632   4.209   0.583  0.0254  0.1362 -0.5439
  573MPD2    C2 8496   0.716   4.211   0.474  0.2517  0.7145  0.1291
  573MPD2    C3 8497   0.675   4.145   0.364 -0.8388  0.1928 -0.5895
  573MPD2    C4 8498   0.548   4.087   0.360  0.0407  1.2430  0.2705
  573MPD2    C5 8499   0.462   4.087   0.463  0.2062 -0.0581 -0.3770
  573MPD2     H 8500   0.817   4.251   0.468  0.4699  0.0015 -0.9351
  573MPD2    H1 8501   0.527   4.044   0.263  0.9613 -0.2544  0.7341
  573MPD2    H2 8502   0.444   4.150   0.664  1.3615 -0.0954  0.9650
  573MPD2    H3 8503   0.361   4.049   0.458  0.3266 -0.7278  2.5836
  573MPD2     N 8504   0.749   4.146   0.247 -0.7935  0.3825  0.0864
  573MPD2    H5 8505   0.704   4.097   0.170  0.7911  2.0950 -1.9365
  573MPD2    N1 8506   0.673   4.269   0.704 -0.0513 -0.1566  0.1281
  573MPD2    H7 8507   0.610   4.264   0.784 -0.2436  0.8692  0.0391
  574TMC3    C1 8508   0.894   4.184   0.079 -0.2997  0.1912 -0.1616
  574TMC3    C2 8509   0.786   4.183  17.706 -0.1836 -0.0042 -0.4126
  574TMC3    C3 8510   0.807   4.185  17.572 -0.4070  0.2315 -0.7061
  574TMC3    C4 8511   1.024   4.174   0.037 -0.4691 -0.0714 -0.2809
  574TMC3    C5 8512   1.037   4.175  17.610 -0.2400 -0.1020 -0.3496
  574TMC3    C6 8513   0.934   4.196  17.523  0.5910  0.2256 -0.1048
  574TMC3     C 8514   0.866   4.203   0.219  0.2754  0.3959  0.2632
  574TMC3     O 8515   0.945   4.272   0.282  0.1511 -0.6563 -0.5770
  574TMC3     H 8516   0.684   4.187   0.035 -0.5000  0.7104 -1.3644
  574TMC3    H1 8517   1.107   4.167   0.107 -0.3336 -2.9307 -0.7654
  574TMC3    H2 8518   0.933   4.191  17.415  0.6497 -0.8170 -0.0514
  574TMC3    C7 8519   1.176   4.183  17.567  0.4349 -0.3465 -0.7640
  574TMC3    C8 8520   0.686   4.196  17.486 -0.4254 -0.1332  0.8118
  574TMC3    O1 8521   1.266   4.189  17.652 -0.1983  0.4087 -0.0975
  574TMC3    O2 8522   0.593   4.135  17.530 -0.5476  0.1026  0.6620
  575TMC3    C1 8523   3.682   0.220  10.587 -0.2399  0.2033  0.4603
  575TMC3    C2 8524   3.616   0.118  10.644 -0.4457 -0.9724  0.2080
  575TMC3    C3 8525   3.503   0.072  10.584  0.0859  0.5982  0.4194
  575TMC3    C4 8526   3.633   0.283  10.473 -1.0244  0.2213  0.0840
  575TMC3    C5 8527   3.509   0.248  10.422  0.0332 -0.6292  0.0114
  575TMC3    C6 8528   3.446   0.135  10.475 -0.3489  0.2129  0.2799
  575TMC3     C 8529   3.754   0.314  10.681 -0.1863 -0.4765 -0.4379
  575TMC3     O 8530   3.777   0.426  10.644  0.2581 -0.3319 -0.4773
  575TMC3     H 8531   3.674   0.062  10.717  0.0879 -0.7480 -0.0437
  575TMC3    H1 8532   3.699   0.359  10.432 -2.3552  0.9201 -0.7472
  575TMC3    H2 8533   3.362   0.099  10.418 -2.4907 -0.5596  3.8868
  575TMC3    C7 8534   3.434   0.349  10.355 -0.2164 -0.1470 -0.2891
  575TMC3    C8 8535   3.460   4.665  10.631  0.2438 -0.0870  0.6147
  575TMC3    O1 8536   3.498   0.452  10.334  0.4312 -0.1047 -0.1182
  575TMC3    O2 8537   3.537   4.610  10.708 -0.4712 -0.1203  0.7128
  576MPD2     C 8538   3.031   1.846  12.620 -0.5685  0.3258 -0.0657
  576MPD2    C1 8539   3.108   1.941  12.560 -0.2355  0.2018 -0.0387
  576MPD2    C2 8540   3.137   2.053  12.637 -0.2074  0.3109  0.0127
  576MPD2    C3 8541   3.110   2.060  12.774 -0.1351 -0.4056 -0.3565
  576MPD2    C4 8542   3.034   1.963  12.831 -0.6128  0.3910  0.2804
  576MPD2    C5 8543   2.990   1.860  12.751 -0.4795 -0.1094  0.0507
  576MPD2     H 8544   3.181   2.142  12.594  2.3759 -0.6003  0.7500
  576MPD2    H1 8545   3.008   1.975  12.935 -0.5396 -0.2854  0.3763
  576MPD2    H2 8546   2.992   1.754  12.579  2.4172 -0.2253 -1.6543
  576MPD2    H3 8547   2.930   1.781  12.793  0.6970 -0.8001  0.4419
  576MPD2     N 8548   3.152   2.170  12.852 -0.2657 -0.3022  0.4477
  576MPD2    H5 8549   3.184   2.249  12.797 -1.3843  1.1966  1.9540
  576MPD2    N1 8550   3.167   1.921  12.428  0.3275 -0.4325 -0.0770
  576MPD2    H7 8551   3.221   1.999  12.393 -0.5373  1.4969  2.8825
  577TMC3    C1 8552   3.247   1.789  12.244 -0.6126  0.0950 -0.0685
  577TMC3    C2 8553   3.318   1.677  12.228  0.0386 -0.0800 -0.8361
  577TMC3    C3 8554   3.417   1.678  12.140  0.3669  0.4228  0.5248
  577TMC3    C4 8555   3.261   1.903  12.173 -0.4395  0.0301 -0.6546
  577TMC3    C5 8556   3.360   1.890  12.072  0.2632  0.6371  0.3786
  577TMC3    C6 8557   3.445   1.782  12.061  0.5149  0.5020  0.4970
  577TMC3     C 8558   3.170   1.799  12.365  0.3628 -0.3078 -0.1767
  577TMC3     O 8559   3.128   1.690  12.405  0.2923 -0.0675  0.2430
  577TMC3     H 8560   3.307   1.601  12.305 -0.6627  1.0444  0.1622
  577TMC3    H1 8561   3.198   1.990  12.189 -1.4418 -0.3259 -2.5954
  577TMC3    H2 8562   3.529   1.788  11.993 -0.2343  1.7853 -0.3106
  577TMC3    C7 8563   3.382   2.003  11.982 -0.0319  0.2002 -0.1871
  577TMC3    C8 8564   3.497   1.558  12.130 -0.6653 -0.4239 -0.2225
  577TMC3    O1 8565   3.503   2.029  11.960  0.2885 -0.2383  0.2377
  577TMC3    O2 8566   3.495   1.487  12.229 -0.1203  0.6273  0.4456
  578MPD2     C 8567   1.002   2.256   1.510  0.4842  0.5642  0.3112
  578MPD2    C1 8568   1.092   2.200   1.420  0.2942 -0.2416  0.0167
  578MPD2    C2 8569   1.224   2.225   1.428  0.2756  0.1754 -0.1589
  578MPD2    C3 8570   1.274   2.298   1.532  0.2050 -0.0952 -0.1675
  578MPD2    C4 8571   1.186   2.369   1.613 -0.2644 -0.0156 -0.3798
  578MPD2    C5 8572   1.050   2.340   1.603 -0.3311  0.2276  0.2600
  578MPD2     H 8573   1.292   2.191   1.350 -0.8472 -0.8518 -0.6948
  578MPD2    H1 8574   1.223   2.433   1.692  0.4605  0.8434 -1.4170
  578MPD2    H2 8575   0.894   2.245   1.509  0.6160 -0.8370  1.0150
  578MPD2    H3 8576   0.981   2.398   1.662 -0.0660  0.9006 -0.0886
  578MPD2     N 8577   1.410   2.313   1.539  0.6500  0.0853  0.6309
  578MPD2    H5 8578   1.465   2.254   1.478 -1.0080 -1.4588  0.5926
  578MPD2    N1 8579   1.029   2.124   1.321  0.4679  0.0482  0.4037
  578MPD2    H7 8580   0.927   2.129   1.320  0.4442 -0.4788 -0.2226
  579TMC3    C1 8581   1.613   2.350   1.623  0.0423 -0.1647 -0.5112
  579TMC3    C2 8582   1.700   2.437   1.689 -0.1029 -0.3569  0.8716
  579TMC3    C3 8583   1.832   2.411   1.669 -0.2232 -0.7500  0.6544
  579TMC3    C4 8584   1.646   2.234   1.558  0.2918 -0.0066  0.7214
  579TMC3    C5 8585   1.779   2.205   1.555  0.7764 -0.3451 -0.0602
  579TMC3    C6 8586   1.871   2.287   1.615  0.3525 -0.2282  0.4478
  579TMC3     C 8587   1.476   2.392   1.625 -0.4308 -0.1655 -0.1171
  579TMC3     O 8588   1.436   2.481   1.701 -0.0118 -0.3610  0.3169
  579TMC3     H 8589   1.663   2.522   1.745  0.6481 -0.6606  1.8319
  579TMC3    H1 8590   1.580   2.156   1.525  3.3851 -1.8559 -1.0432
  579TMC3    H2 8591   1.974   2.255   1.616  0.3726 -0.1852 -2.0563
  579TMC3    C7 8592   1.829   2.077   1.502  0.3431 -0.1348  0.3473
  579TMC3    C8 8593   1.937   2.510   1.709  0.4738 -0.3113 -0.6760
  579TMC3    O1 8594   1.941   2.041   1.541 -0.0037  0.3593  0.4228
  579TMC3    O2 8595   1.897   2.612   1.763  0.0895 -0.6471  0.2692
  580TMC3    C1 8596   1.392   1.312  12.404  0.0938  0.2380 -0.1293
  580TMC3    C2 8597   1.518   1.355  12.440  0.2343 -0.2036 -0.0731
  580TMC3    C3 8598   1.620   1.268  12.452  0.3158 -0.1356 -0.2061
  580TMC3    C4 8599   1.372   1.177  12.395  0.4889  0.5804 -0.0034
  580TMC3    C5 8600   1.474   1.088  12.414  0.5828  0.1710  0.6098
  580TMC3    C6 8601   1.601   1.132  12.436  0.1768  0.1477  1.3214
  580TMC3     C 8602   1.350   1.389  12.294  0.1923 -0.3501  0.2392
  580TMC3     O 8603   1.439   1.452  12.232 -0.1103  0.1875  0.2425
  580TMC3     H 8604   1.532   1.461  12.425  0.5485 -0.2263  0.0697
  580TMC3    H1 8605   1.271   1.137  12.395  2.0777 -3.4318  1.8984
  580TMC3    H2 8606   1.680   1.065  12.468  2.0052  2.0087  0.7014
  580TMC3    C7 8607   1.450   0.941  12.428 -0.0192  0.5533  0.4741
  580TMC3    C8 8608   1.721   1.305  12.351 -0.1450 -0.6598 -0.6919
  580TMC3    O1 8609   1.339   0.897  12.446  0.2906 -0.4987 -0.4789
  580TMC3    O2 8610   1.750   1.217  12.271 -0.5255 -0.0346 -0.5093
  581MPD2     C 8611   3.492   0.501  15.559  0.6669 -0.0460 -0.3918
  581MPD2    C1 8612   3.463   0.451  15.437 -0.2714 -0.1964  0.3373
  581MPD2    C2 8613   3.402   0.537  15.344  0.4942  0.2896  0.7520
  581MPD2    C3 8614   3.365   0.660  15.372 -1.0677 -0.2654 -0.5158
  581MPD2    C4 8615   3.398   0.710  15.497  0.4487  0.8113 -0.0063
  581MPD2    C5 8616   3.467   0.634  15.584  0.2375  0.1581  0.4361
  581MPD2     H 8617   3.384   0.508  15.241 -0.0230  0.4584  0.7958
  581MPD2    H1 8618   3.360   0.802  15.541  1.3220  1.0042  0.3409
  581MPD2    H2 8619   3.533   0.437  15.636  2.0331  0.2197 -0.8865
  581MPD2    H3 8620   3.506   0.678  15.675 -2.0334  1.8114  0.6008
  581MPD2     N 8621   3.294   0.733  15.274  0.3149 -0.3156  0.5228
  581MPD2    H5 8622   3.280   0.690  15.183  2.8685  0.8097 -0.3997
  581MPD2    N1 8623   3.481   0.317  15.417 -0.3951  0.0414  0.2877
  581MPD2    H7 8624   3.524   0.276  15.499  1.1674  1.4907  0.1942
  582TMC3    C1 8625   3.479   0.099  15.336 -0.3489 -0.0486 -0.2243
  582TMC3    C2 8626   3.577   0.088  15.428 -0.4594 -0.3751 -0.7612
  582TMC3    C3 8627   3.554   0.001  15.530  0.8254 -0.8807 -0.3291
  582TMC3    C4 8628   3.375   0.009  15.323  0.1953  0.1953  0.3327
  582TMC3    C5 8629   3.371   4.632  15.415 -0.0010  0.9979 -0.1283
  582TMC3    C6 8630   3.454   4.636  15.531  0.4238  0.1277  0.0026
  582TMC3     C 8631   3.433   0.235  15.314  0.1197 -0.8722 -0.0217
  582TMC3     O 8632   3.339   0.252  15.236 -0.6637 -0.2164  0.0352
  582TMC3     H 8633   3.646   0.170  15.442  1.2467 -1.9928  0.4394
  582TMC3    H1 8634   3.303   0.022  15.244  0.2203 -1.4557  0.0361
  582TMC3    H2 8635   3.427   4.579  15.620 -0.9583  0.2062 -0.3700
  582TMC3    C7 8636   3.236   4.592  15.454 -0.2279 -0.0204  0.1916
  582TMC3    C8 8637   3.573   0.058  15.663 -0.0126  0.2122 -0.3550
  582TMC3    O1 8638   3.204   4.490  15.507 -0.4734  0.5298 -0.0067
  582TMC3    O2 8639   3.549   0.175  15.666  0.6645  0.4698 -0.1161
  583MPD2     C 8640   3.859   2.084  17.251  0.0849  0.3852  0.5976
  583MPD2    C1 8641   3.846   2.213  17.196 -0.1103  0.5051 -0.0628
  583MPD2    C2 8642   3.834   2.323  17.277 -0.9044 -0.4847  0.3117
  583MPD2    C3 8643   3.825   2.307  17.414 -0.0916  0.6170  1.1525
  583MPD2    C4 8644   3.845   2.184  17.468  0.3646 -0.5449 -0.2283
  583MPD2    C5 8645   3.858   2.073  17.389  0.0323  0.3998  0.1655
  583MPD2     H 8646   3.808   2.417  17.229  1.9571  0.8055  1.2807
  583MPD2    H1 8647   3.859   2.168  17.574 -0.6490  2.0922  0.2874
  583MPD2    H2 8648   3.874   1.993  17.193 -1.0295  1.7514 -1.8357
  583MPD2    H3 8649   3.890   1.984  17.441  0.9484 -0.3188 -1.6508
  583MPD2     N 8650   3.801   2.422  17.492 -0.1521 -0.1829 -0.8555
  583MPD2    H5 8651   3.781   2.507  17.440  1.9921  0.7636 -0.1325
  583MPD2    N1 8652   3.848   2.229  17.060  0.6153  0.3110 -0.1612
  583MPD2    H7 8653   3.859   2.323  17.025  0.2248  1.5773  3.1145
  584TMC3    C1 8654   3.730   2.554  17.679  0.1528  0.0664  0.2006
  584TMC3    C2 8655   3.709   2.658  17.596  0.1891  0.0621  0.8040
  584TMC3    C3 8656   3.722   2.785  17.641  0.7044  0.7349 -0.4900
  584TMC3    C4 8657   3.732   2.574   0.112  0.0827 -0.0434  0.1167
  584TMC3    C5 8658   3.739   2.709   0.149  0.1454 -0.4365  0.4899
  584TMC3    C6 8659   3.739   2.815   0.068 -0.0235 -0.6571  0.0747
  584TMC3     C 8660   3.776   2.426  17.628  0.3751 -0.4742 -0.5272
  584TMC3     O 8661   3.790   2.339   0.009  0.4658  0.1911  0.0385
  584TMC3     H 8662   3.671   2.646  17.495 -1.2722 -2.1881  1.6279
  584TMC3    H1 8663   3.744   2.493   0.183 -1.3553 -2.1630 -2.0552
  584TMC3    H2 8664   3.747   2.915   0.110 -2.0374 -0.2273 -0.6034
  584TMC3    C7 8665   3.725   2.743   0.289 -0.1879 -0.0825 -0.4903
  584TMC3    C8 8666   3.740   2.882  17.541  0.3659  0.5065 -0.1863
  584TMC3    O1 8667   3.757   2.854   0.327 -0.0468  0.7176 -0.2100
  584TMC3    O2 8668   3.692   2.855  17.430  0.0281  0.2802 -0.0920
  585MPD2     C 8669   2.976   1.471   1.159 -0.7185 -0.8263 -0.6662
  585MPD2    C1 8670   3.078   1.439   1.069  0.0858  0.2252  0.7340
  585MPD2    C2 8671   3.039   1.413   0.935  0.1397  0.1177  0.6180
  585MPD2    C3 8672   2.914   1.420   0.882 -0.2641  0.7851 -0.3826
  585MPD2    C4 8673   2.814   1.464   0.973 -0.4452  0.2042 -0.6334
  585MPD2    C5 8674   2.852   1.495   1.104 -0.1407 -0.4410  0.7545
  585MPD2     H 8675   3.118   1.376   0.870  0.8495 -0.1635  1.6298
  585MPD2    H1 8676   2.711   1.461   0.940 -0.8025  2.2434  0.3463
  585MPD2    H2 8677   2.993   1.485   1.265  1.3534 -1.1265 -0.9644
  585MPD2    H3 8678   2.783   1.535   1.177 -1.8435  1.0349 -1.6984
  585MPD2     N 8679   2.880   1.404   0.750  0.4850  0.3198  0.1910
  585MPD2    H5 8680   2.783   1.420   0.725  0.0133 -1.2333  1.0440
  585MPD2    N1 8681   3.213   1.438   1.113 -0.0076  0.1825 -0.5274
  585MPD2    H7 8682   3.223   1.430   1.214 -1.4636 -0.1106 -0.4062
  586TMC3    C1 8683   2.891   1.357   0.525 -0.4571  0.9828  0.7096
  586TMC3    C2 8684   2.966   1.275   0.443 -0.0220  0.5259 -0.1079
  586TMC3    C3 8685   3.007   1.327   0.326  0.3673 -0.3721 -0.1473
  586TMC3    C4 8686   2.826   1.465   0.488 -0.0853  0.2990 -0.0832
  586TMC3    C5 8687   2.866   1.517   0.367  0.0147 -0.2303  0.2835
  586TMC3    C6 8688   2.952   1.449   0.289  0.2503 -0.6835  0.1936
  586TMC3     C 8689   2.964   1.363   0.651  0.8123  0.3112 -0.3929
  586TMC3     O 8690   3.076   1.319   0.664  0.2672 -0.1406 -0.0839
  586TMC3     H 8691   2.999   1.178   0.478 -0.8162 -0.6858 -2.7509
  586TMC3    H1 8692   2.769   1.522   0.561 -0.3970 -0.3356  0.1724
  586TMC3    H2 8693   2.978   1.498   0.196 -1.7418 -2.1574 -1.1453
  586TMC3    C7 8694   2.748   1.578   0.304 -0.5249  0.2961  0.4400
  586TMC3    C8 8695   3.021   1.223   0.217  0.1603  0.2913  0.3331
  586TMC3    O1 8696   2.650   1.597   0.378 -0.0224  0.5385  0.1377
  586TMC3    O2 8697   2.992   1.112   0.255  0.0396  0.2440 -0.3646
  587TMC3    C1 8698   0.455   4.228  16.755  0.0560  0.2846  0.0704
  587TMC3    C2 8699   0.398   4.341  16.707 -0.4031 -0.0475  0.2716
  587TMC3    C3 8700   0.487   4.438  16.666 -0.0500 -0.6218 -0.3252
  587TMC3    C4 8701   0.584   4.213  16.790  0.0780 -0.0964  0.1575
  587TMC3    C5 8702   0.664   4.314  16.748 -0.6126 -0.3697 -0.4149
  587TMC3    C6 8703   0.623   4.428  16.688 -0.6688  0.3972 -0.1235
  587TMC3     C 8704   0.356   4.133  16.810 -0.9498  0.4485  0.2718
  587TMC3     O 8705   0.390   4.059  16.900  0.2560  0.0921  0.3772
  587TMC3     H 8706   0.291   4.355  16.706 -0.2598  1.0035  0.3800
  587TMC3    H1 8707   0.624   4.120  16.829 -0.5212 -0.5625 -0.3299
  587TMC3    H2 8708   0.687   4.499  16.638 -0.8476 -0.6786 -1.8958
  587TMC3    C7 8709   0.809   4.303  16.759  0.5772  0.2862 -0.0904
  587TMC3    C8 8710   0.429   4.546  16.591  0.4626 -0.0461 -0.5209
  587TMC3    O1 8711   0.877   4.399  16.721  0.1252 -0.0777 -0.9235
  587TMC3    O2 8712   0.480   4.576  16.484 -0.5718 -0.2421 -0.3488
  588TMC3    C1 8713   2.749   2.279  10.026  0.0391 -0.4616  0.2528
  588TMC3    C2 8714   2.721   2.143  10.047  0.0003 -0.4431 -0.4804
  588TMC3    C3 8715   2.799   2.073  10.133  0.4031  1.0133 -0.3018
  588TMC3    C4 8716   2.844   2.344  10.089 -0.2009 -0.4097  0.0698
  588TMC3    C5 8717   2.910   2.279  10.198 -0.7910 -0.3775  0.3799
  588TMC3    C6 8718   2.895   2.141  10.211 -0.1206  0.1900 -0.3393
  588TMC3     C 8719   2.664   2.350   9.933 -0.1263  0.2266 -0.4442
  588TMC3     O 8720   2.542   2.326   9.931 -0.1579  0.0395  0.6434
  588TMC3     H 8721   2.649   2.086   9.990  2.4647 -1.3581 -2.6312
  588TMC3    H1 8722   2.830   2.451  10.080  0.6581 -0.0180  3.3630
  588TMC3    H2 8723   2.951   2.098  10.293  1.5587 -0.3601 -1.7607
  588TMC3    C7 8724   3.019   2.350  10.254 -0.2194  0.4551  0.5165
  588TMC3    C8 8725   2.786   1.931  10.144  0.0986  0.2815  0.0367
  588TMC3    O1 8726   3.088   2.295  10.340 -0.7286 -0.1685  0.2249
  588TMC3    O2 8727   2.675   1.881  10.118 -0.0297  0.5189 -0.3638
  589TMC3    C1 8728   2.045   0.140   1.544  0.5143  0.4948 -1.1522
  589TMC3    C2 8729   2.136   0.148   1.644 -0.1147 -0.8769  0.0932
  589TMC3    C3 8730   2.238   0.062   1.637  0.4650 -0.4867 -0.6821
  589TMC3    C4 8731   2.063   0.057   1.438 -0.0083 -0.0483 -0.0218
  589TMC3    C5 8732   2.166   4.700   1.435 -0.0954 -0.6669 -0.0424
  589TMC3    C6 8733   2.258   4.700   1.533 -0.1741 -0.2386 -0.5640
  589TMC3     C 8734   1.918   0.217   1.556  1.5054  0.1058  0.2150
  589TMC3     O 8735   1.838   0.203   1.465 -0.0907  0.1985  0.3225
  589TMC3     H 8736   2.121   0.209   1.733  1.5607 -0.3607  0.0314
  589TMC3    H1 8737   1.992   0.051   1.357 -0.0546  0.8841 -0.0432
  589TMC3    H2 8738   2.337   4.626   1.541  0.6534  0.4003 -2.8740
  589TMC3    C7 8739   2.114   4.576   1.392  0.0931  0.0568  0.0895
  589TMC3    C8 8740   2.325   0.052   1.747  0.2576  0.3941 -0.4601
  589TMC3    O1 8741   1.994   4.559   1.403  0.1656  0.1098  0.0327
  589TMC3    O2 8742   2.288   0.108   1.850  0.6384  0.1445  0.0802
  590MPD2     C 8743   1.312   2.923  16.929  0.4188 -0.0017  0.0043
  590MPD2    C1 8744   1.285   2.965  16.803  0.6035  0.8123 -1.2063
  590MPD2    C2 8745   1.386   3.009  16.721  0.5268  0.8263  1.0441
  590MPD2    C3 8746   1.511   3.035  16.774  0.4516  0.5753  0.1024
  590MPD2    C4 8747   1.539   2.996  16.902  0.7372 -0.2702  0.0339
  590MPD2    C5 8748   1.439   2.947  16.983 -0.0288  0.1044 -0.1986
  590MPD2     H 8749   1.371   3.038  16.618 -1.2384 -0.2820  0.9916
  590MPD2    H1 8750   1.638   3.022  16.938  1.4095  0.0390 -2.0559
  590MPD2    H2 8751   1.232   2.882  16.990  0.5360 -2.8963 -1.7718
  590MPD2    H3 8752   1.458   2.921  17.087 -0.8795  0.3806  0.0216
  590MPD2     N 8753   1.601   3.097  16.685  0.5366 -0.2755  0.1359
  590MPD2    H5 8754   1.553   3.133  16.603 -0.4620  1.8446  1.6394
  590MPD2    N1 8755   1.152   2.954  16.761 -0.2013 -0.6957  0.1559
  590MPD2    H7 8756   1.080   2.970  16.831 -0.3316  0.0018 -0.1326
  591TMC3    C1 8757   1.783   3.223  16.617 -0.1373  0.1614 -0.2979
  591TMC3    C2 8758   1.896   3.203  16.549  0.0962 -0.9404  0.0395
  591TMC3    C3 8759   1.928   3.295  16.451 -0.3496  0.4371 -0.1473
  591TMC3    C4 8760   1.706   3.336  16.590  0.2975 -1.0478 -0.4806
  591TMC3    C5 8761   1.744   3.426  16.498  0.9360  0.5404 -0.4852
  591TMC3    C6 8762   1.856   3.413  16.428  0.1930  0.0343  0.1107
  591TMC3     C 8763   1.732   3.122  16.703 -0.2236 -1.1482 -0.0512
  591TMC3     O 8764   1.806   3.079  16.793 -0.0851 -0.7098 -0.5851
  591TMC3     H 8765   1.967   3.125  16.576  1.8053 -0.1729 -2.1530
  591TMC3    H1 8766   1.625   3.369  16.655 -0.0102 -0.1933 -1.2964
  591TMC3    H2 8767   1.863   3.468  16.334 -0.4380  1.0934  0.6899
  591TMC3    C7 8768   1.646   3.513  16.439  0.8611 -0.2708  0.0351
  591TMC3    C8 8769   2.005   3.245  16.342  0.3653  0.6343 -0.1348
  591TMC3    O1 8770   1.530   3.473  16.454 -0.2294 -0.5290 -0.1029
  591TMC3    O2 8771   2.002   3.127  16.330  0.7600  0.8554 -0.5694
  592MPD2     C 8772   2.260   0.480  11.269 -0.4292  0.5562 -0.8418
  592MPD2    C1 8773   2.179   0.548  11.365 -0.1483  0.1470  0.7495
  592MPD2    C2 8774   2.073   0.488  11.424  0.2671  0.1961 -0.1334
  592MPD2    C3 8775   2.057   0.355  11.407  0.5625 -0.8444 -0.6300
  592MPD2    C4 8776   2.130   0.284  11.313 -0.3535  0.5599 -0.4844
  592MPD2    C5 8777   2.223   0.352  11.242 -0.1541 -0.1693 -0.3094
  592MPD2     H 8778   2.007   0.543  11.489  1.4370  0.5720  0.7488
  592MPD2    H1 8779   2.119   0.177  11.297 -1.0761  0.4947  0.4664
  592MPD2    H2 8780   2.356   0.516  11.235 -0.5597 -0.7928 -2.6214
  592MPD2    H3 8781   2.275   0.290  11.170  1.3761  1.9497 -1.0331
  592MPD2     N 8782   1.961   0.288  11.480 -0.0689 -0.3630  0.0142
  592MPD2    H5 8783   1.905   0.345  11.543 -1.5884 -2.7709  0.8339
  592MPD2    N1 8784   2.229   0.679  11.400  0.4650 -0.3736 -0.5763
  592MPD2    H7 8785   2.325   0.707  11.385  0.9712 -1.2385  1.0349
  593TMC3    C1 8786   2.226   0.873  11.530 -0.7748 -0.1667 -0.5618
  593TMC3    C2 8787   2.183   0.937  11.648 -0.0164 -0.2351  0.6012
  593TMC3    C3 8788   2.274   1.019  11.706 -0.3858 -0.1251  0.1312
  593TMC3    C4 8789   2.350   0.900  11.472  0.1308  0.3010 -0.2196
  593TMC3    C5 8790   2.425   0.999  11.530 -0.4015  0.0289 -0.2037
  593TMC3    C6 8791   2.395   1.050  11.654 -0.1642  0.4942  0.8336
  593TMC3     C 8792   2.157   0.755  11.495 -0.0029  0.4358 -0.5543
  593TMC3     O 8793   2.059   0.734  11.566  0.2117  0.6287 -0.3182
  593TMC3     H 8794   2.090   0.914  11.699  1.1695 -2.5555  1.7093
  593TMC3    H1 8795   2.369   0.864  11.372 -2.7461  0.0954 -0.7070
  593TMC3    H2 8796   2.468   1.109  11.707  0.7895 -0.6346  0.7774
  593TMC3    C7 8797   2.536   1.067  11.461 -0.4900 -0.6649 -0.7271
  593TMC3    C8 8798   2.244   1.052  11.838  0.9703  0.2262  0.3222
  593TMC3    O1 8799   2.585   1.166  11.506  0.9431 -0.1194 -0.5554
  593TMC3    O2 8800   2.166   0.981  11.897  0.1560 -0.0359 -0.6819
  594MPD2     C 8801   0.440   3.962  14.296 -0.3328  0.7387 -0.4298
  594MPD2    C1 8802   0.434   3.997  14.428  1.1258 -1.0440  0.5278
  594MPD2    C2 8803   0.532   4.078  14.482 -0.2394  0.9412 -0.3489
  594MPD2    C3 8804   0.641   4.110  14.408  0.3847 -0.8352  0.0820
  594MPD2    C4 8805   0.656   4.061  14.277 -0.8045 -0.3010  0.2157
  594MPD2    C5 8806   0.554   3.984  14.223  0.4686 -0.2686 -0.6168
  594MPD2     H 8807   0.518   4.100  14.587 -1.5755  1.4820 -0.6374
  594MPD2    H1 8808   0.753   4.076  14.230 -1.5525  0.8787 -0.9519
  594MPD2    H2 8809   0.367   3.890  14.262 -0.3461 -0.8810  3.0717
  594MPD2    H3 8810   0.553   3.936  14.125 -0.4980  3.2837 -2.3437
  594MPD2     N 8811   0.737   4.188  14.469  0.0204  0.5165 -0.1278
  594MPD2    H5 8812   0.732   4.185  14.571  0.1998 -0.3555 -0.1407
  594MPD2    N1 8813   0.320   3.949  14.489 -0.0945  0.1347  0.4931
  594MPD2    H7 8814   0.250   3.895  14.439  1.9437 -1.2420 -0.8845
  595TMC3    C1 8815   1.064   4.523  14.551  0.2495  0.5057 -0.1231
  595TMC3    C2 8816   1.012   4.423  14.467  0.2843 -0.4557  0.3050
  595TMC3    C3 8817   0.886   4.378  14.492  0.5689 -0.1054  0.5751
  595TMC3    C4 8818   0.993   4.574  14.652  0.1927  0.1969 -0.1532
  595TMC3    C5 8819   0.855   4.539  14.661  0.8177 -0.4608  0.3756
  595TMC3    C6 8820   0.796   4.437  14.583 -0.1667  0.6768 -0.2553
  595TMC3     C 8821   1.195   4.569  14.523  0.1769 -0.1714  0.8093
  595TMC3     O 8822   1.236   4.672  14.569  0.5778 -0.1624  0.5113
  595TMC3     H 8823   1.059   4.391  14.374  1.4380 -2.4709  1.6012
  595TMC3    H1 8824   1.043   4.645  14.717 -1.4692  0.1758  1.1486
  595TMC3    H2 8825   0.700   4.393  14.607  0.3744  0.1544  1.0002
  595TMC3    C7 8826   0.760   4.608  14.747 -0.8472  0.7970 -0.0834
  595TMC3    C8 8827   0.844   4.259  14.413  0.6532 -0.0680  0.3951
  595TMC3    O1 8828   0.669   4.533  14.787 -0.4219 -0.5236  0.4692
  595TMC3    O2 8829   0.879   4.250  14.294  0.3922  0.6352  0.2396
  596MPD2     C 8830   4.536   1.763  17.000 -0.1860 -0.6784  0.2511
  596MPD2    C1 8831   4.590   1.887  16.956  0.1553 -0.1692 -0.2094
  596MPD2    C2 8832   4.586   1.928  16.821  0.0218  0.1744  0.9085
  596MPD2    C3 8833   4.536   1.837  16.722  0.3840  0.8229 -0.5369
  596MPD2    C4 8834   4.481   1.718  16.770  0.1623 -0.3942 -0.3679
  596MPD2    C5 8835   4.482   1.681  16.905 -0.1415 -0.1104  0.2126
  596MPD2     H 8836   4.640   2.016  16.787  2.2291 -1.5700 -0.1421
  596MPD2    H1 8837   4.424   1.652  16.706 -2.0597  2.5309 -1.4283
  596MPD2    H2 8838   4.525   1.734  17.104 -3.1074  1.0015  0.4276
  596MPD2    H3 8839   4.427   1.590  16.927  2.3852 -1.5994  0.3539
  596MPD2     N 8840   4.534   1.866  16.579  0.4939 -0.3761 -0.1757
  596MPD2    H5 8841   4.510   1.795  16.512 -3.4258 -0.0066  0.8148
  596MPD2    N1 8842   4.650   1.982  17.047 -0.4493 -0.5522  0.3760
  596MPD2    H7 8843   4.691   2.064  17.004  1.1204 -0.4280  2.1557
  597TMC3    C1 8844   4.696   2.087  17.264  0.0074 -0.1433  0.4656
  597TMC3    C2 8845   0.069   2.162  17.210  0.0438 -0.0146 -0.3080
  597TMC3    C3 8846   0.055   2.291  17.249 -0.0324 -0.3561  0.4096
  597TMC3    C4 8847   4.609   2.125  17.361  0.0872  0.1453  0.0969
  597TMC3    C5 8848   4.622   2.251  17.410  0.0169 -0.3497  0.4808
  597TMC3    C6 8849   4.699   2.339  17.346  1.0701 -0.2726  0.0248
  597TMC3     C 8850   4.639   1.979  17.186  0.2134 -0.3688  0.5312
  597TMC3     O 8851   4.561   1.905  17.242  0.2877 -0.1724 -0.0867
  597TMC3     H 8852   0.141   2.119  17.142 -0.7391 -1.2716 -0.3418
  597TMC3    H1 8853   4.529   2.061  17.397  1.5177 -1.7877 -0.1453
  597TMC3    H2 8854   4.710   2.443  17.373  4.2519 -0.5282 -0.1769
  597TMC3    C7 8855   4.513   2.304  17.490  0.6086 -0.2632 -0.6192
  597TMC3    C8 8856   0.143   2.389  17.191 -0.1763 -0.8193  0.7537
  597TMC3    O1 8857   4.449   2.222  17.554  0.4525  0.1905 -0.2240
  597TMC3    O2 8858   0.257   2.366  17.169  0.0718  0.2097 -0.4335
  598TMC3    C1 8859   2.677   3.918  15.852  0.8742 -0.0797  0.0226
  598TMC3    C2 8860   2.662   3.788  15.862 -1.0920  0.2786 -0.1046
  598TMC3    C3 8861   2.755   3.706  15.803 -0.0729  0.2828  0.5721
  598TMC3    C4 8862   2.777   3.978  15.784 -0.5693  0.1439 -0.4828
  598TMC3    C5 8863   2.871   3.893  15.729 -0.1897 -0.2390 -0.6047
  598TMC3    C6 8864   2.862   3.754  15.744  0.1040  0.0082  0.4498
  598TMC3     C 8865   2.603   3.997  15.947 -0.5905 -0.7721  0.8806
  598TMC3     O 8866   2.680   4.077  15.996  0.1142  0.5842 -0.1936
  598TMC3     H 8867   2.582   3.735  15.912 -0.9999  0.3989  0.1699
  598TMC3    H1 8868   2.771   4.085  15.766 -0.7976  0.5413  2.0821
  598TMC3    H2 8869   2.950   3.697  15.719 -1.2204 -1.1405 -1.6411
  598TMC3    C7 8870   2.946   3.928  15.608 -0.1895  0.2196  0.8545
  598TMC3    C8 8871   2.692   3.596  15.733  0.4805 -0.3000 -0.4990
  598TMC3    O1 8872   2.952   3.839  15.529 -0.1051 -0.3594  0.2866
  598TMC3    O2 8873   2.593   3.535  15.780  0.3221  0.7247  0.2278
  599MPD2     C 8874   2.995   1.402  16.191 -0.2584  0.3107 -0.0499
  599MPD2    C1 8875   2.923   1.288  16.202  0.3548  0.4247  0.2482
  599MPD2    C2 8876   2.786   1.286  16.221 -0.3613 -0.5123 -0.4384
  599MPD2    C3 8877   2.717   1.405  16.244 -0.0082 -0.1294 -0.3172
  599MPD2    C4 8878   2.784   1.516  16.251 -0.5604  0.0842 -0.2538
  599MPD2    C5 8879   2.914   1.516  16.223  0.4900  0.8140 -1.3124
  599MPD2     H 8880   2.723   1.198  16.211  0.2526 -0.9703 -0.2484
  599MPD2    H1 8881   2.736   1.609  16.279 -0.1019  0.3067 -0.2006
  599MPD2    H2 8882   3.099   1.407  16.163 -0.3274 -1.0937 -0.5549
  599MPD2    H3 8883   2.963   1.613  16.222  1.5266  0.2958 -1.0853
  599MPD2     N 8884   2.576   1.408  16.279  0.7341 -0.4779 -0.0301
  599MPD2    H5 8885   2.537   1.495  16.314  1.5723  0.1389 -0.6240
  599MPD2    N1 8886   2.998   1.177  16.186  0.0857  0.1656  0.7468
  599MPD2    H7 8887   3.095   1.197  16.163  0.2053 -0.4896  0.6814
  600TMC3    C1 8888   2.382   1.312  16.375  0.0356  0.1944  0.1082
  600TMC3    C2 8889   2.331   1.198  16.432 -0.1714  0.7372 -0.2930
  600TMC3    C3 8890   2.256   1.218  16.553 -0.4129  0.0234 -0.3223
  600TMC3    C4 8891   2.347   1.437  16.427  0.0797 -0.8487 -0.0500
  600TMC3    C5 8892   2.269   1.452  16.542  0.4093 -0.0003  0.4714
  600TMC3    C6 8893   2.226   1.343  16.611 -0.5382  0.4411 -0.3927
  600TMC3     C 8894   2.496   1.291  16.294 -0.3341  0.9606 -0.8519
  600TMC3     O 8895   2.507   1.185  16.234  0.3402  0.0306  0.5005
  600TMC3     H 8896   2.359   1.096  16.408  1.1570  1.0321  0.0098
  600TMC3    H1 8897   2.387   1.522  16.372 -1.1382 -0.6421 -0.6130
  600TMC3    H2 8898   2.192   1.350  16.714  0.0516 -0.1763 -0.1619
  600TMC3    C7 8899   2.255   1.586  16.600  0.9381  0.3870  0.1337
  600TMC3    C8 8900   2.249   1.112  16.650  0.2120  0.0467 -0.1669
  600TMC3    O1 8901   2.163   1.597  16.681  0.3248  0.2137  0.2627
  600TMC3    O2 8902   2.276   1.133  16.770  0.5612 -0.2490 -0.2281
  601MPD2     C 8903   0.082   4.242   0.418 -0.0620  0.3594 -0.1754
  601MPD2    C1 8904   4.691   4.170   0.401 -0.0051 -0.3913  0.7361
  601MPD2    C2 8905   4.654   4.072   0.491 -0.8385  0.3829  0.8814
  601MPD2    C3 8906   0.004   4.044   0.604 -0.6554  0.2395 -0.0566
  601MPD2    C4 8907   0.123   4.109   0.622 -0.2178  0.4700 -0.5255
  601MPD2    C5 8908   0.155   4.208   0.527 -0.1946  0.6661  0.1081
  601MPD2     H 8909   4.554   4.030   0.482 -0.0915 -1.1456 -0.2570
  601MPD2    H1 8910   0.179   4.082   0.711  2.5268  1.3469 -2.0280
  601MPD2    H2 8911   0.122   4.321   0.357  0.7383 -0.2394 -0.4290
  601MPD2    H3 8912   0.247   4.263   0.544 -0.0821  0.3584  0.5103
  601MPD2     N 8913   4.688   3.955   0.702  0.5975 -0.0645 -0.3910
  601MPD2    H5 8914   0.027   3.941   0.778 -0.1219 -1.4117 -0.0116
  601MPD2    N1 8915   4.596   4.198   0.294  0.0957  0.3920 -0.2412
  601MPD2    H7 8916   4.499   4.167   0.297 -0.4251  1.8327 -2.4038
  602TMC3    C1 8917   4.521   4.286   0.088  0.0981  0.4460  0.1797
  602TMC3    C2 8918   4.536   4.383  17.699 -0.1677  1.2322  0.3561
  602TMC3    C3 8919   4.428   4.410  17.620 -0.1358 -0.1233 -0.3815
  602TMC3    C4 8920   4.409   4.206   0.099 -0.2353 -0.8499 -0.3905
  602TMC3    C5 8921   4.311   4.231   0.006  0.1335  0.7365  0.2834
  602TMC3    C6 8922   4.312   4.340  17.630 -0.3596  0.1328  0.4694
  602TMC3     C 8923   4.626   4.284   0.191  0.3457 -0.2208 -0.2815
  602TMC3     O 8924   0.011   4.326   0.169 -0.5096  0.7243  0.0086
  602TMC3     H 8925   4.623   4.446  17.683 -0.4063  0.3437 -4.4959
  602TMC3    H1 8926   4.405   4.118   0.163 -0.7829  1.9077  3.3972
  602TMC3    H2 8927   4.230   4.358  17.562  1.7497  0.3429 -2.0341
  602TMC3    C7 8928   4.176   4.197   0.057 -0.1132 -1.1547 -0.2597
  602TMC3    C8 8929   4.426   4.540  17.555 -0.5983 -0.1495  0.0259
  602TMC3    O1 8930   4.128   4.087   0.030 -0.4382  0.0902 -0.6785
  602TMC3    O2 8931   4.526   4.595  17.514  0.3171 -0.4376  0.0053
  603TMC3    C1 8932   3.545   4.345  10.960  0.1759 -0.1270  0.4089
  603TMC3    C2 8933   3.424   4.292  10.995 -0.2302  0.4956 -0.4402
  603TMC3    C3 8934   3.321   4.375  11.026 -1.2572 -1.5797  0.4903
  603TMC3    C4 8935   3.573   4.480  10.971 -0.6525  0.1324 -0.2294
  603TMC3    C5 8936   3.464   4.556  11.013  0.5533 -0.1511  0.8910
  603TMC3    C6 8937   3.334   4.510  11.034  0.0917 -0.2079  0.2651
  603TMC3     C 8938   3.617   4.261  10.869  0.3971  0.5438 -0.7542
  603TMC3     O 8939   3.652   4.148  10.907  0.1967  0.7805 -0.0487
  603TMC3     H 8940   3.396   4.190  10.972 -0.3717  0.5457 -0.4946
  603TMC3    H1 8941   3.668   4.520  10.938  0.2903 -0.8774  1.3064
  603TMC3    H2 8942   3.263   4.578  11.081 -1.0024 -1.2074  0.0706
  603TMC3    C7 8943   3.491   4.698  10.978 -0.2739  0.0206 -0.5113
  603TMC3    C8 8944   3.199   4.318  11.081  0.1727 -0.2973 -0.1165
  603TMC3    O1 8945   3.606   0.010  10.975  0.0360 -0.4795 -0.1212
  603TMC3    O2 8946   3.189   4.203  11.111 -0.0511  0.7077 -0.0842
  604MPD2     C 8947   3.692   3.088  16.928  1.2043 -0.3139  0.3398
  604MPD2    C1 8948   3.639   3.199  16.870 -0.5438  0.1976  0.2182
  604MPD2    C2 8949   3.677   3.230  16.739 -0.0001  0.4616  0.0507
  604MPD2    C3 8950   3.762   3.150  16.669  0.3393  0.0774 -0.3081
  604MPD2    C4 8951   3.821   3.048  16.734  0.1372  0.0859 -0.5661
  604MPD2    C5 8952   3.787   3.021  16.862 -0.9593 -0.2505  0.1751
  604MPD2     H 8953   3.644   3.319  16.686  0.9643  0.0460 -1.2695
  604MPD2    H1 8954   3.897   2.992  16.680  0.4779 -0.9136  0.9874
  604MPD2    H2 8955   3.665   3.071  17.032 -0.5005 -3.3286 -0.6132
  604MPD2    H3 8956   3.827   2.928  16.898  2.7608  1.3949  0.2572
  604MPD2     N 8957   3.770   3.182  16.531 -0.2321 -0.2157 -0.5674
  604MPD2    H5 8958   3.717   3.263  16.502  1.3001  0.3335 -1.8449
  604MPD2    N1 8959   3.544   3.270  16.943 -0.0341 -0.4223  1.1929
  604MPD2    H7 8960   3.539   3.252  17.043 -0.5550 -0.6270  1.1317
  605TMC3    C1 8961   3.388   3.436  16.987 -0.7430 -0.5986  0.2172
  605TMC3    C2 8962   3.460   3.477  17.099  0.9691 -0.2846  0.3689
  605TMC3    C3 8963   3.413   3.594  17.157 -0.0012  0.1746  0.2956
  605TMC3    C4 8964   3.282   3.502  16.931 -0.2825  0.1135  0.4599
  605TMC3    C5 8965   3.234   3.615  16.996 -0.9125 -0.5565 -1.1398
  605TMC3    C6 8966   3.299   3.660  17.114  0.3254  0.1873 -0.2486
  605TMC3     C 8967   3.463   3.364  16.891 -0.4277  0.0343  0.0764
  605TMC3     O 8968   3.443   3.391  16.773 -1.1773 -0.6668  0.1252
  605TMC3     H 8969   3.554   3.429  17.124 -0.1665 -1.7871  1.7106
  605TMC3    H1 8970   3.239   3.465  16.839 -1.1870 -2.6759  2.0043
  605TMC3    H2 8971   3.271   3.749  17.168  0.9832 -1.0678  2.1729
  605TMC3    C7 8972   3.114   3.685  16.950  0.4960  0.3407  0.0949
  605TMC3    C8 8973   3.505   3.665  17.236  0.6947 -0.9221 -0.2906
  605TMC3    O1 8974   3.116   3.807  16.959 -0.6967 -0.0508 -0.4859
  605TMC3    O2 8975   3.470   3.768  17.293  0.0612 -0.0766  0.3117
  606TMC3    C1 8976   0.204   1.728  17.057  0.2361  0.2805 -0.2934
  606TMC3    C2 8977   0.241   1.766  17.183 -0.0691 -0.1493 -0.2968
  606TMC3    C3 8978   0.166   1.716  17.284  0.2264 -0.1257 -0.5496
  606TMC3    C4 8979   0.106   1.635  17.030  0.2138  0.7129 -0.1316
  606TMC3    C5 8980   0.037   1.598  17.135 -0.5655 -0.1131 -0.7556
  606TMC3    C6 8981   0.059   1.642  17.266  0.3713  0.0117  0.1669
  606TMC3     C 8982   0.248   1.823  16.954 -0.5559 -0.8355  0.1829
  606TMC3     O 8983   0.298   1.928  16.995  0.2756  0.2220 -0.3998
  606TMC3     H 8984   0.329   1.825  17.204  0.0430  0.4828 -2.5675
  606TMC3    H1 8985   0.067   1.629  16.929 -1.2116 -0.0948  0.4740
  606TMC3    H2 8986   0.024   1.587  17.352 -1.2257  1.7620  0.6512
  606TMC3    C7 8987   4.683   1.484  17.101 -0.0796 -0.8310 -0.0838
  606TMC3    C8 8988   0.215   1.744  17.418 -0.3918 -0.1734 -0.4741
  606TMC3    O1 8989   4.694   1.428  16.991  0.4659  0.7785 -0.1163
  606TMC3    O2 8990   0.334   1.758  17.436 -0.3282 -0.0901 -0.8377
  607MPD2     C 8991   2.143   0.204  11.798  0.1123  0.1865 -0.2214
  607MPD2    C1 8992   2.139   0.277  11.913 -0.3587 -0.1240 -0.6394
  607MPD2    C2 8993   2.111   0.208  12.036  0.2179  0.1710  0.6272
  607MPD2    C3 8994   2.117   0.069  12.034 -0.4648 -0.7417 -0.3904
  607MPD2    C4 8995   2.145   0.004  11.909 -0.8926 -0.2612 -0.5448
  607MPD2    C5 8996   2.149   0.072  11.793 -0.3257 -0.3019  0.9764
  607MPD2     H 8997   2.102   0.257  12.132  0.4207 -0.3061  0.8905
  607MPD2    H1 8998   2.149   4.624  11.894 -2.3770 -0.1353 -1.8693
  607MPD2    H2 8999   2.150   0.257  11.703  1.9117 -1.7369 -1.1548
  607MPD2    H3 9000   2.147   0.011  11.703  0.9566 -1.7379  1.9128
  607MPD2     N 9001   2.114   4.724  12.156 -0.2359  0.5412  0.0795
  607MPD2    H5 9002   2.117   0.060  12.236  0.2757  1.5093 -0.6874
  607MPD2    N1 9003   2.158   0.417  11.921 -0.0001 -0.1918 -0.4427
  607MPD2    H7 9004   2.138   0.470  12.005  0.4759  1.7223 -1.5605
  608TMC3    C1 9005   2.236   0.628  11.849 -0.2120 -0.1680  0.2883
  608TMC3    C2 9006   2.190   0.656  11.970  0.5306  0.0889 -0.2059
  608TMC3    C3 9007   2.277   0.719  12.050 -0.3806  0.5809 -0.1060
  608TMC3    C4 9008   2.357   0.674  11.803 -0.0302  1.1104 -0.2586
  608TMC3    C5 9009   2.440   0.736  11.898 -1.0369  0.2171  0.2642
  608TMC3    C6 9010   2.401   0.753  12.024  0.4377 -0.0127  0.2970
  608TMC3     C 9011   2.216   0.494  11.816  0.6881 -0.5848 -0.1941
  608TMC3     O 9012   2.262   0.465  11.705  0.2616  0.7075  0.0469
  608TMC3     H 9013   2.084   0.650  11.995  0.9230 -0.6075  1.2719
  608TMC3    H1 9014   2.383   0.643  11.703 -0.4945  1.4096 -0.4722
  608TMC3    H2 9015   2.460   0.794  12.106  1.5803 -1.4191  0.1848
  608TMC3    C7 9016   2.551   0.807  11.841 -0.2121 -0.8509 -0.1195
  608TMC3    C8 9017   2.259   0.702  12.191  1.1019 -0.2853 -0.0226
  608TMC3    O1 9018   2.556   0.793  11.717 -0.1455  0.2803 -0.5674
  608TMC3    O2 9019   2.171   0.774  12.224  0.1843  0.2975 -0.5770
  609TMC3    C1 9020   1.241   3.414   9.754  0.1779 -0.4606 -0.5718
  609TMC3    C2 9021   1.201   3.352   9.635 -0.6594  0.0529 -0.5538
  609TMC3    C3 9022   1.289   3.259   9.573  0.3434  0.3345 -0.7437
  609TMC3    C4 9023   1.359   3.397   9.806  0.0125  0.1516 -0.2983
  609TMC3    C5 9024   1.442   3.315   9.738  0.4001 -0.6978 -0.4756
  609TMC3    C6 9025   1.417   3.243   9.629  0.3334 -0.6474 -0.1029
  609TMC3     C 9026   1.140   3.499   9.814  0.7414 -0.4327 -0.4553
  609TMC3     O 9027   1.050   3.532   9.740 -0.1997  0.3665  0.7546
  609TMC3     H 9028   1.103   3.374   9.594 -1.1655 -1.1888 -0.0072
  609TMC3    H1 9029   1.388   3.446   9.898  0.4047  0.9136 -0.8263
  609TMC3    H2 9030   1.475   3.159   9.593 -1.7261 -1.8933 -0.5086
  609TMC3    C7 9031   1.580   3.334   9.777 -0.0712 -0.3931 -0.6548
  609TMC3    C8 9032   1.228   3.169   9.473 -0.2358 -0.0885 -0.0656
  609TMC3    O1 9033   1.607   3.412   9.870 -0.4791 -0.2224 -0.1179
  609TMC3    O2 9034   1.110   3.191   9.443 -0.9133 -0.1858 -0.5463
  610TMC3    C1 9035   2.523   0.517  12.736  0.3280  0.2229  0.0037
  610TMC3    C2 9036   2.581   0.480  12.619  0.3662  0.4696  0.5216
  610TMC3    C3 9037   2.610   0.345  12.608  0.1571 -0.1198 -0.5081
  610TMC3    C4 9038   2.497   0.427  12.837  0.4064  0.6097  0.0674
  610TMC3    C5 9039   2.526   0.300  12.824  0.7863  0.0503  0.2212
  610TMC3    C6 9040   2.585   0.261  12.711 -0.1253  0.4262  0.1811
  610TMC3     C 9041   2.442   0.638  12.737 -0.3949 -0.0465 -0.7486
  610TMC3     O 9042   2.356   0.646  12.821 -0.2251  0.0100 -0.2084
  610TMC3     H 9043   2.585   0.547  12.534 -1.6280  0.5929  0.5186
  610TMC3    H1 9044   2.448   0.462  12.927  0.5301  0.3850  0.2211
  610TMC3    H2 9045   2.625   0.160  12.706 -0.3622  0.3524 -0.2411
  610TMC3    C7 9046   2.534   0.206  12.931 -0.0171  0.4004 -0.7285
  610TMC3    C8 9047   2.671   0.302  12.482  0.0311  0.2227  0.7064
  610TMC3    O1 9048   2.600   0.104  12.919 -0.2827  0.1638  0.3102
  610TMC3    O2 9049   2.691   0.392  12.401  0.0108 -0.4447 -0.2897
  611MPD2     C 9050   2.388   0.027  10.313  0.3677  0.2836 -0.0960
  611MPD2    C1 9051   2.394   0.101  10.426 -0.6353  0.2223 -0.0005
  611MPD2    C2 9052   2.496   0.192  10.442  0.0927 -0.3667 -0.1250
  611MPD2    C3 9053   2.586   0.208  10.344 -0.4333 -0.0661 -0.6811
  611MPD2    C4 9054   2.566   0.145  10.224  0.3830 -0.5021  0.1165
  611MPD2    C5 9055   2.469   0.045  10.209 -0.2626 -0.5160 -0.4596
  611MPD2     H 9056   2.493   0.253  10.532  1.6387  0.1207 -0.4055
  611MPD2    H1 9057   2.635   0.155  10.141 -1.6078 -1.2254 -1.6064
  611MPD2    H2 9058   2.307   4.685  10.290 -0.4071  1.1240  0.0914
  611MPD2    H3 9059   2.482   4.697  10.131 -0.1044  0.6730 -1.5721
  611MPD2     N 9060   2.694   0.302  10.353 -0.2446 -0.3987 -0.4824
  611MPD2    H5 9061   2.733   0.334  10.265 -1.3941  0.3313 -0.7157
  611MPD2    N1 9062   2.296   0.097  10.535 -0.4368 -0.9186  0.6108
  611MPD2    H7 9063   2.296   0.173  10.602  0.6467  0.3820 -0.8417
  612TMC3    C1 9064   2.863   0.437  10.439 -0.9436 -0.3055  0.3780
  612TMC3    C2 9065   2.970   0.417  10.517  1.0352 -0.0766  0.1371
  612TMC3    C3 9066   3.050   0.525  10.538 -1.0784 -0.6797  0.0788
  612TMC3    C4 9067   2.824   0.554  10.386  0.1673 -0.0393  0.7317
  612TMC3    C5 9068   2.916   0.655  10.391 -0.5933 -0.0686  0.1002
  612TMC3    C6 9069   3.025   0.649  10.478 -0.1475 -0.2306 -0.2284
  612TMC3     C 9070   2.752   0.345  10.468 -0.5988 -0.2209 -0.0483
  612TMC3     O 9071   2.749   0.308  10.586  0.0400 -0.7358  0.7868
  612TMC3     H 9072   3.004   0.315  10.532 -1.1579 -0.3644  2.9212
  612TMC3    H1 9073   2.734   0.568  10.328  1.6612  2.2778 -1.0222
  612TMC3    H2 9074   3.097   0.730  10.477  1.4154 -1.5831  1.8256
  612TMC3    C7 9075   2.888   0.784  10.325  0.3291 -0.4178 -0.2956
  612TMC3    C8 9076   3.174   0.519  10.614  0.0034 -0.0460 -0.0492
  612TMC3    O1 9077   2.968   0.877  10.344  0.0725 -0.2517 -0.1473
  612TMC3    O2 9078   3.245   0.617  10.628  0.0497  0.2498 -0.0409
  613MPD2     C 9079   0.972   2.294  16.761  0.4636  0.7454 -0.3505
  613MPD2    C1 9080   1.031   2.204  16.674  0.1376 -0.4809 -0.0481
  613MPD2    C2 9081   0.975   2.077  16.648 -0.4155 -0.0896 -0.0543
  613MPD2    C3 9082   0.858   2.042  16.716  0.0608  0.4227 -0.5923
  613MPD2    C4 9083   0.810   2.128  16.817 -0.5637 -0.1701 -0.1102
  613MPD2    C5 9084   0.858   2.255  16.829 -0.1375 -0.1189 -0.6006
  613MPD2     H 9085   1.024   2.009  16.580 -1.9342 -1.2405  0.0032
  613MPD2    H1 9086   0.717   2.111  16.871 -1.2748 -2.2016 -1.9710
  613MPD2    H2 9087   1.020   2.389  16.782  0.1272 -0.2059  4.6842
  613MPD2    H3 9088   0.812   2.328  16.895  1.5862  1.9325 -1.6555
  613MPD2     N 9089   0.801   1.915  16.685 -0.1190 -0.4486 -0.3968
  613MPD2    H5 9090   0.838   1.861  16.607  0.0284 -1.2372  0.2236
  613MPD2    N1 9091   1.152   2.239  16.603  0.3149  0.3170 -0.1722
  613MPD2    H7 9092   1.190   2.169  16.540  3.2699  2.5278 -0.8294
  614TMC3    C1 9093   1.277   2.361  16.454 -0.6914 -0.2140 -0.0441
  614TMC3    C2 9094   1.331   2.237  16.434  0.1256 -0.1001  0.4400
  614TMC3    C3 9095   1.302   2.177  16.308  0.2622  0.1691  0.1410
  614TMC3    C4 9096   1.218   2.430  16.352  0.3279  0.2715 -0.1808
  614TMC3    C5 9097   1.185   2.362  16.233  0.1054  0.4153 -0.1032
  614TMC3    C6 9098   1.234   2.240  16.206 -0.3602 -0.2030  0.1728
  614TMC3     C 9099   1.204   2.366  16.576 -0.2505 -0.6459 -1.0056
  614TMC3     O 9100   1.171   2.475  16.621 -0.0607  0.3086  0.2276
  614TMC3     H 9101   1.388   2.177  16.504 -0.0555  0.6723  1.2557
  614TMC3    H1 9102   1.170   2.521  16.387  1.5322 -0.1417  2.5140
  614TMC3    H2 9103   1.225   2.195  16.108  0.7356 -1.2244  0.5352
  614TMC3    C7 9104   1.055   2.404  16.182 -0.7001  0.5797  0.4158
  614TMC3    C8 9105   1.274   2.036  16.329 -0.1907  0.0299  0.0743
  614TMC3    O1 9106   1.034   2.522  16.206 -0.2493 -0.8374  0.0711
  614TMC3    O2 9107   1.225   2.026  16.444  0.4430  0.2053 -1.1381
  615MPD2     C 9108   0.410   3.214  16.308 -0.1156 -0.5227  0.1398
  615MPD2    C1 9109   0.342   3.331  16.333 -0.2910  0.2968  0.2231
  615MPD2    C2 9110   0.229   3.361  16.249  0.3209 -0.3227 -0.1171
  615MPD2    C3 9111   0.194   3.281  16.142  0.1265  0.6935  0.4403
  615MPD2    C4 9112   0.265   3.162  16.128  0.2250 -0.7785  1.2158
  615MPD2    C5 9113   0.372   3.132  16.206 -0.4040  0.4251 -0.0804
  615MPD2     H 9114   0.170   3.451  16.261 -2.0943 -2.2569  2.4571
  615MPD2    H1 9115   0.237   3.092  16.051 -1.0003  0.8095  0.1977
  615MPD2    H2 9116   0.496   3.183  16.367  0.4996 -0.1438 -0.5527
  615MPD2    H3 9117   0.424   3.038  16.190 -1.5295 -0.2438  0.2382
  615MPD2     N 9118   0.108   3.317  16.039  0.1169 -0.4458  0.3167
  615MPD2    H5 9119   0.114   3.270  15.949  2.6441  0.8406 -0.1917
  615MPD2    N1 9120   0.373   3.422  16.436  0.3721  0.0099 -0.3832
  615MPD2    H7 9121   0.328   3.513  16.433  1.8009  0.7276 -0.0547
  616TMC3    C1 9122   0.442   3.531  16.620 -0.4214  0.0708 -0.5468
  616TMC3    C2 9123   0.449   3.650  16.549  0.2404  0.3845  0.1518
  616TMC3    C3 9124   0.387   3.762  16.610 -1.0046  0.0398  0.5622
  616TMC3    C4 9125   0.403   3.523  16.751  0.0992  1.1373  0.3498
  616TMC3    C5 9126   0.357   3.636  16.807  0.7543 -0.2446 -0.2752
  616TMC3    C6 9127   0.342   3.762  16.745 -0.2266  0.1028  0.1064
  616TMC3     C 9128   0.448   3.406  16.549  0.8055 -0.2816  0.8702
  616TMC3     O 9129   0.497   3.303  16.590 -0.5139 -0.0200  0.2564
  616TMC3     H 9130   0.486   3.654  16.447 -0.7409 -3.3811 -0.3541
  616TMC3    H1 9131   0.395   3.434  16.811  1.9177  1.0718  0.4790
  616TMC3    H2 9132   0.322   3.863  16.780 -0.1014  0.7651 -1.7298
  616TMC3    C7 9133   0.295   3.629  16.938  0.0230  0.1481 -0.9805
  616TMC3    C8 9134   0.436   3.888  16.562  0.8634  0.8950 -0.0617
  616TMC3    O1 9135   0.267   3.521  16.983  0.3644  0.6399 -0.3610
  616TMC3    O2 9136   0.359   3.973  16.517  0.1074 -0.1251  0.1676
  617MPD2     C 9137   3.286   1.762  13.776  0.2811 -0.2663  0.1025
  617MPD2    C1 9138   3.352   1.742  13.901  0.8714 -0.3299 -0.0947
  617MPD2    C2 9139   3.272   1.741  14.017  1.2002 -0.0698  0.4954
  617MPD2    C3 9140   3.136   1.779  14.010 -0.2988 -0.3591  0.9919
  617MPD2    C4 9141   3.079   1.818  13.889 -0.5684  0.3718 -0.3096
  617MPD2    C5 9142   3.153   1.795  13.769  0.1887  0.1432  0.2316
  617MPD2     H 9143   3.311   1.722  14.117  1.0644  1.3550  0.8112
  617MPD2    H1 9144   2.975   1.849  13.893 -0.5661  0.5938 -2.0993
  617MPD2    H2 9145   3.337   1.767  13.680 -0.1265 -0.9675 -0.1479
  617MPD2    H3 9146   3.122   1.823  13.669  0.1550 -1.0023 -0.0826
  617MPD2     N 9147   3.050   1.789  14.118 -0.7883 -0.1240  0.3061
  617MPD2    H5 9148   2.959   1.832  14.103 -1.7391 -2.2895 -0.0330
  617MPD2    N1 9149   3.491   1.715  13.916 -0.5210 -0.3525  0.0713
  617MPD2    H7 9150   3.517   1.704  14.014 -2.2252  2.7151  0.8649
  618TMC3    C1 9151   3.718   1.662  13.861 -0.7048  0.9223  0.3462
  618TMC3    C2 9152   3.802   1.583  13.789  0.0344 -0.1691  0.8051
  618TMC3    C3 9153   3.932   1.569  13.834 -0.7756  0.2550 -0.4095
  618TMC3    C4 9154   3.765   1.723  13.971 -0.6035  0.1566 -0.8331
  618TMC3    C5 9155   3.895   1.712  14.010  0.3040  0.2429  0.3209
  618TMC3    C6 9156   3.979   1.631  13.952  0.7019 -0.6482 -0.2538
  618TMC3     C 9157   3.584   1.689  13.817  0.3153  0.1002  0.1770
  618TMC3     O 9158   3.563   1.672  13.699  0.0854 -0.5784 -0.2701
  618TMC3     H 9159   3.753   1.543  13.701 -0.8282 -0.1263  1.2677
  618TMC3    H1 9160   3.706   1.799  14.021  1.8807  2.4874 -1.4590
  618TMC3    H2 9161   4.083   1.628  13.983  0.3079  0.8363  1.1948
  618TMC3    C7 9162   3.939   1.836  14.075 -0.2478  0.3499 -0.4259
  618TMC3    C8 9163   4.027   1.508  13.743  0.0619  0.4656  0.3261
  618TMC3    O1 9164   3.874   1.865  14.176 -0.1023  0.0866  0.2412
  618TMC3    O2 9165   3.985   1.464  13.641  0.0921  0.6269 -0.7357
  619MPD2     C 9166   0.085   3.417  13.127 -0.2323 -0.1931 -0.0502
  619MPD2    C1 9167   0.006   3.490  13.215 -0.1327  0.1659 -0.3974
  619MPD2    C2 9168   4.636   3.425  13.283 -0.1436 -0.3027 -0.6260
  619MPD2    C3 9169   4.598   3.289  13.246  0.3856  0.3392  0.8416
  619MPD2    C4 9170   4.670   3.228  13.145 -0.0078 -0.1717  0.3805
  619MPD2    C5 9171   0.059   3.282  13.093 -0.6517  0.4523 -0.8037
  619MPD2     H 9172   4.573   3.486  13.348 -2.4138 -0.2244 -2.9116
  619MPD2    H1 9173   4.641   3.126  13.124 -0.0288  0.0078 -0.4314
  619MPD2    H2 9174   0.172   3.456  13.077 -0.5932  1.5382  0.6845
  619MPD2    H3 9175   0.129   3.234  13.024  0.3305 -0.4654  0.8158
  619MPD2     N 9176   4.492   3.213  13.295 -0.2921  0.3970  0.7993
  619MPD2    H5 9177   4.475   3.124  13.249  2.0135  0.7815 -0.8369
  619MPD2    N1 9178   0.021   3.621  13.260  0.2470 -0.3705 -0.7032
  619MPD2    H7 9179   4.690   3.647  13.340  4.4514 -0.8782  2.5035
  620TMC3    C1 9180   0.061   3.848  13.212 -0.5532  0.0599 -0.1038
  620TMC3    C2 9181   0.057   3.928  13.094  0.0367 -0.9958 -0.1890
  620TMC3    C3 9182   4.710   4.040  13.098 -0.2719  0.2243 -0.2455
  620TMC3    C4 9183   0.010   3.883  13.328 -0.3561 -0.0261  0.3610
  620TMC3    C5 9184   4.686   4.010  13.337 -0.4386  0.7230 -0.6055
  620TMC3    C6 9185   4.657   4.082  13.224 -0.4192 -0.1817 -0.0245
  620TMC3     C 9186   0.095   3.712  13.193  0.2339  0.4718 -0.9464
  620TMC3     O 9187   0.149   3.692  13.086  0.5842  0.0229 -0.0756
  620TMC3     H 9188   0.099   3.894  13.000 -0.7066 -1.3713 -0.3841
  620TMC3    H1 9189   0.034   3.826  13.417  2.5973  0.8343  0.1104
  620TMC3    H2 9190   4.599   4.173  13.228 -0.8744 -0.4854  0.2000
  620TMC3    C7 9191   4.645   4.065  13.461  0.0047 -0.2456  0.1625
  620TMC3    C8 9192   4.603   4.023  13.004 -0.2610 -0.1021 -0.1493
  620TMC3    O1 9193   4.603   4.180  13.463 -0.0163 -0.4163 -0.2612
  620TMC3    O2 9194   4.640   3.972  12.899  0.3438  0.3937  0.0290
  621MPD2     C 9195   0.500   3.509  10.923 -0.9329  0.2924  0.0952
  621MPD2    C1 9196   0.545   3.468  10.796  0.0474  0.1451  0.2399
  621MPD2    C2 9197   0.495   3.543  10.687 -0.2501 -0.1938 -0.1022
  621MPD2    C3 9198   0.407   3.648  10.698 -0.1367 -0.3266 -0.1540
  621MPD2    C4 9199   0.369   3.682  10.821 -0.2758 -0.9428  0.6041
  621MPD2    C5 9200   0.414   3.617  10.933  0.4070  0.2207 -0.6498
  621MPD2     H 9201   0.538   3.525  10.590 -0.0445  1.5747 -0.3432
  621MPD2    H1 9202   0.299   3.765  10.833  2.5067  1.2400  1.6831
  621MPD2    H2 9203   0.520   3.455  11.015 -0.7564 -0.7142 -0.5430
  621MPD2    H3 9204   0.378   3.655  11.028 -0.4528  2.3609 -1.8288
  621MPD2     N 9205   0.383   3.728  10.584  0.1180  0.3013  0.3320
  621MPD2    H5 9206   0.429   3.702  10.498 -0.0687  2.0138 -0.2819
  621MPD2    N1 9207   0.629   3.356  10.769 -0.2580  0.2460 -0.3827
  621MPD2    H7 9208   0.651   3.342  10.671 -0.2654 -1.2906 -0.1584
  622TMC3    C1 9209   0.676   3.132  10.793  0.4129  0.2149 -0.3773
  622TMC3    C2 9210   0.560   3.071  10.822 -0.6402 -0.3262 -0.9240
  622TMC3    C3 9211   0.509   2.996  10.718  0.8101 -0.7253  0.6061
  622TMC3    C4 9212   0.739   3.135  10.672  0.1594  0.1161 -0.0401
  622TMC3    C5 9213   0.684   3.053  10.572 -0.8112 -0.5325 -0.2097
  622TMC3    C6 9214   0.566   2.979  10.588 -0.1657 -0.2773  0.7051
  622TMC3     C 9215   0.662   3.259  10.860 -0.0593  0.0294  0.3150
  622TMC3     O 9216   0.656   3.263  10.983 -0.1147  0.0284  0.4395
  622TMC3     H 9217   0.511   3.090  10.917 -2.5483 -0.6620 -1.8482
  622TMC3    H1 9218   0.839   3.176  10.666  0.3217 -0.4028 -0.9493
  622TMC3    H2 9219   0.532   2.927  10.500  0.8104  0.2996 -0.0179
  622TMC3    C7 9220   0.770   3.027  10.461  0.1915 -0.1287 -0.9649
  622TMC3    C8 9221   0.363   2.984  10.725 -0.5531  0.4867  0.2497
  622TMC3    O1 9222   0.888   2.999  10.481 -0.0834 -0.5224  0.6274
  622TMC3    O2 9223   0.310   3.035  10.821 -0.3307 -0.7072 -0.0327
  623MPD2     C 9224   3.993   3.501  16.215  0.2673 -0.0020 -0.6574
  623MPD2    C1 9225   3.914   3.512  16.326  0.2767 -0.3238 -0.3128
  623MPD2    C2 9226   3.970   3.464  16.444 -0.3472  0.3969 -0.8505
  623MPD2    C3 9227   4.094   3.413  16.456 -0.2541 -0.3506  0.2256
  623MPD2    C4 9228   4.174   3.411  16.342  0.0692  0.1868 -0.5750
  623MPD2    C5 9229   4.118   3.454  16.222 -0.3932  0.1891 -0.1958
  623MPD2     H 9230   3.907   3.463  16.532  0.2662  1.5812 -0.4104
  623MPD2    H1 9231   4.278   3.383  16.330 -0.7192 -0.9434 -4.5508
  623MPD2    H2 9232   3.948   3.525  16.120  0.4832 -0.2381 -0.8215
  623MPD2    H3 9233   4.178   3.454  16.132 -1.5435 -0.1790 -0.9622
  623MPD2     N 9234   4.141   3.395  16.592  0.4595 -0.2678  0.3029
  623MPD2    H5 9235   4.061   3.398  16.654  0.6315 -0.2828  0.5262
  623MPD2    N1 9236   3.779   3.558  16.309 -0.0473  0.2988  0.5342
  623MPD2    H7 9237   3.748   3.603  16.223 -1.7750 -1.2024  0.3707
  624TMC3    C1 9238   4.402   3.431  16.976  0.1928  0.2844  0.6580
  624TMC3    C2 9239   4.319   3.530  17.026 -0.1742  0.0728 -0.5064
  624TMC3    C3 9240   4.207   3.563  16.950  0.7191 -0.9421 -0.2000
  624TMC3    C4 9241   4.399   3.389  16.847 -0.1449 -0.3310 -0.2045
  624TMC3    C5 9242   4.293   3.431  16.772 -0.3229 -0.0866 -0.0929
  624TMC3    C6 9243   4.199   3.518  16.821 -0.6663 -0.2631  0.1016
  624TMC3     C 9244   4.517   3.397  17.066 -0.2849  0.2096  0.3916
  624TMC3     O 9245   4.526   3.463  17.169  0.2751  0.3475 -0.2763
  624TMC3     H 9246   4.329   3.555  17.131  0.8327 -1.2634 -0.2931
  624TMC3    H1 9247   4.470   3.324  16.797  0.1546 -0.4244  0.3426
  624TMC3    H2 9248   4.127   3.564  16.755 -1.9133 -2.2483  0.0848
  624TMC3    C7 9249   4.269   3.391  16.633 -0.0271  0.9264  1.2001
  624TMC3    C8 9250   4.083   3.623  17.001  0.3545  0.2291 -0.4602
  624TMC3    O1 9251   4.373   3.376  16.566 -0.4667 -0.5245 -0.2831
  624TMC3    O2 9252   3.984   3.610  16.929  0.4800 -0.6059  0.3298
  625MPD2     C 9253   4.463   4.715   0.601 -0.2590  0.1889 -0.1600
  625MPD2    C1 9254   4.533   0.108   0.615 -0.7132  0.1740 -0.3289
  625MPD2    C2 9255   4.673   0.099   0.623 -1.1319 -0.7887 -0.0679
  625MPD2    C3 9256   0.012   4.706   0.610 -0.0807 -0.5887 -0.5602
  625MPD2    C4 9257   4.663   4.590   0.588  0.4117  0.1537 -0.4544
  625MPD2    C5 9258   4.524   4.594   0.592 -0.0202  0.1641 -0.2714
  625MPD2     H 9259   0.003   0.189   0.607  0.2197 -1.5904  0.2063
  625MPD2    H1 9260   4.707   4.491   0.573 -1.0391 -0.5512 -0.0610
  625MPD2    H2 9261   4.355   4.718   0.597 -0.2509 -0.4003 -0.7867
  625MPD2    H3 9262   4.464   4.504   0.590 -1.4684  1.2394 -4.4979
  625MPD2     N 9263   0.149   4.717   0.601 -0.7251 -0.1105  0.0392
  625MPD2    H5 9264   0.186   0.081   0.631 -0.3351 -0.3690  0.3424
  625MPD2    N1 9265   4.460   0.234   0.614 -0.5356  0.0850 -0.0119
  625MPD2    H7 9266   4.513   0.318   0.635  1.7987 -1.2545 -0.6357
  626TMC3    C1 9267   4.279   0.385   0.590 -0.3811 -0.0837 -0.5297
  626TMC3    C2 9268   4.175   0.415   0.505 -0.5098 -0.0550  0.4987
  626TMC3    C3 9269   4.079   0.505   0.547  0.1221  0.2607 -0.4939
  626TMC3    C4 9270   4.285   0.443   0.716 -0.1255 -0.3157 -0.7149
  626TMC3    C5 9271   4.184   0.530   0.751  0.1430  0.0628  0.6083
  626TMC3    C6 9272   4.075   0.566   0.670 -0.0677 -0.7753  0.1003
  626TMC3     C 9273   4.327   0.245   0.570 -0.0064  0.2011  0.4539
  626TMC3     O 9274   4.234   0.173   0.531  0.9755 -0.7938  0.1725
  626TMC3     H 9275   4.164   0.375   0.405 -0.6470 -1.1709  0.9588
  626TMC3    H1 9276   4.366   0.415   0.782  0.9558  1.9911 -1.0652
  626TMC3    H2 9277   4.020   0.656   0.696 -0.1237 -0.3688 -1.4168
  626TMC3    C7 9278   4.202   0.601   0.876 -0.2694  0.4031 -0.8904
  626TMC3    C8 9279   3.991   0.558   0.438  0.7109  0.2376  0.1921
  626TMC3    O1 9280   4.318   0.635   0.892 -0.8773 -0.0932 -0.1387
  626TMC3    O2 9281   4.027   0.573   0.325 -0.2270 -0.2886 -0.7737
  627MPD2     C 9282   2.804   0.921  14.616 -0.5807  0.1150  0.1566
  627MPD2    C1 9283   2.815   0.858  14.741  0.1819 -0.1649  0.7254
  627MPD2    C2 9284   2.728   0.757  14.783  0.4213  0.3325 -0.3797
  627MPD2    C3 9285   2.636   0.711  14.693 -0.0987 -0.0465 -0.1034
  627MPD2    C4 9286   2.633   0.758  14.564  0.2810  0.4868  0.9777
  627MPD2    C5 9287   2.709   0.868  14.531  0.2530  0.4122  0.3482
  627MPD2     H 9288   2.734   0.726  14.886 -0.5298 -0.7059 -0.6380
  627MPD2    H1 9289   2.559   0.732  14.489  1.8873  0.1532 -0.4879
  627MPD2    H2 9290   2.862   1.004  14.577  0.4643 -0.3050  0.8039
  627MPD2    H3 9291   2.683   0.918  14.438  0.6110  0.1502  0.1072
  627MPD2     N 9292   2.548   0.604  14.727  0.1275 -0.5653  0.1989
  627MPD2    H5 9293   2.544   0.575  14.824  3.2800 -0.1660  0.4612
  627MPD2    N1 9294   2.911   0.910  14.829 -0.4203  0.7448  0.2808
  627MPD2    H7 9295   2.966   0.981  14.781  0.5772  1.7020  2.8606
  628TMC3    C1 9296   3.066   0.935  15.001  0.1279  0.2545 -1.0398
  628TMC3    C2 9297   3.130   0.862  15.099 -0.5613  0.0957  0.5612
  628TMC3    C3 9298   3.221   0.931  15.167  0.1529  0.7629 -0.3527
  628TMC3    C4 9299   3.069   1.070  14.984  0.2946 -0.4109  0.0306
  628TMC3    C5 9300   3.159   1.134  15.066  0.1279 -0.0895 -0.1547
  628TMC3    C6 9301   3.240   1.064  15.155 -0.0425  0.5052  0.2122
  628TMC3     C 9302   2.958   0.860  14.942  0.1818  0.0862  0.0476
  628TMC3     O 9303   2.910   0.769  15.010  0.3106  0.4691 -0.4961
  628TMC3     H 9304   3.113   0.757  15.119  0.9171  0.1714  2.1678
  628TMC3    H1 9305   3.006   1.113  14.907 -0.2252 -0.5578  0.3727
  628TMC3    H2 9306   3.290   1.124  15.230 -0.7577  0.5726  0.6422
  628TMC3    C7 9307   3.173   1.273  15.055  0.3029 -0.1182  0.2271
  628TMC3    C8 9308   3.280   0.871  15.279 -0.1501 -0.2676  0.0808
  628TMC3    O1 9309   3.264   1.320  15.122  0.4755 -0.5661  0.2472
  628TMC3    O2 9310   3.331   0.952  15.359  0.2404  0.0736 -0.5150
  629MPD2     C 9311   0.817   4.203  16.432 -0.2252 -0.1142 -1.0235
  629MPD2    C1 9312   0.872   4.085  16.480 -0.0613 -0.0889  0.5952
  629MPD2    C2 9313   0.789   3.980  16.512  0.1998 -0.8878  0.2654
  629MPD2    C3 9314   0.651   3.995  16.504 -0.0400  0.5333 -0.1503
  629MPD2    C4 9315   0.594   4.116  16.467 -0.6178 -0.3158  0.3796
  629MPD2    C5 9316   0.683   4.209  16.422  0.3802  0.0381  0.4138
  629MPD2     H 9317   0.827   3.887  16.553  1.9789 -0.4125 -0.3457
  629MPD2    H1 9318   0.491   4.150  16.470 -0.2363  0.9047 -0.3135
  629MPD2    H2 9319   0.877   4.289  16.407  1.5672 -0.6838  1.3255
  629MPD2    H3 9320   0.645   4.306  16.393 -0.4193  1.0437  4.7294
  629MPD2     N 9321   0.572   3.890  16.562 -0.2258  0.4831  0.3333
  629MPD2    H5 9322   0.619   3.810  16.604  0.0873  0.0530 -0.8391
  629MPD2    N1 9323   1.013   4.070  16.488  0.4466 -0.0384 -0.4968
  629MPD2    H7 9324   1.070   4.152  16.467 -0.7405  0.6743 -0.9274
  630TMC3    C1 9325   1.235   3.978  16.531  0.8208  0.0410  1.0525
  630TMC3    C2 9326   1.293   4.080  16.461  0.9520  0.2225  0.2943
  630TMC3    C3 9327   1.435   4.084  16.465 -0.6731  0.1758  0.2031
  630TMC3    C4 9328   1.301   3.892  16.613  0.0599 -0.8100  0.1175
  630TMC3    C5 9329   1.438   3.910  16.622  0.0242  0.4748 -0.1080
  630TMC3    C6 9330   1.508   3.998  16.535 -0.2343 -0.7187  0.0347
  630TMC3     C 9331   1.086   3.972  16.549 -0.1754 -1.0749  0.2269
  630TMC3     O 9332   1.041   3.872  16.607 -0.0959 -0.2340  0.1391
  630TMC3     H 9333   1.239   4.146  16.395  3.1654  0.1728 -1.5874
  630TMC3    H1 9334   1.251   3.834  16.690  1.3885 -3.0699 -0.7132
  630TMC3    H2 9335   1.614   4.017  16.547  0.1407 -0.8596 -2.8838
  630TMC3    C7 9336   1.486   3.912  16.765 -0.1464  0.3982  0.0064
  630TMC3    C8 9337   1.494   4.210  16.480 -0.6707 -0.2870  0.1824
  630TMC3    O1 9338   1.417   3.845  16.842 -0.4512  0.3339 -0.0279
  630TMC3    O2 9339   1.554   4.228  16.583  0.7446 -0.2258  0.0088
  631MPD2     C 9340   4.351   4.235  15.910 -0.3725 -0.2393  1.0018
  631MPD2    C1 9341   4.364   4.193  15.776 -0.1718 -0.1345 -0.3252
  631MPD2    C2 9342   4.400   4.064  15.745 -0.3107 -0.0270 -1.2413
  631MPD2    C3 9343   4.432   3.980  15.845  0.4736  0.8836  0.1675
  631MPD2    C4 9344   4.421   4.019  15.974 -0.4854 -0.3139  0.3569
  631MPD2    C5 9345   4.387   4.145  16.008 -0.4408 -0.2670  0.5936
  631MPD2     H 9346   4.399   4.022  15.645 -2.0781 -0.8202 -0.8880
  631MPD2    H1 9347   4.451   3.964  16.062 -0.4686  0.2000  0.6717
  631MPD2    H2 9348   4.325   4.335  15.942  2.5331  0.6942  0.4305
  631MPD2    H3 9349   4.374   4.169  16.113  0.5323 -2.5761  1.2485
  631MPD2     N 9350   4.472   3.847  15.813 -0.0811 -0.3678  0.5743
  631MPD2    H5 9351   4.500   3.818  15.720  0.7872 -3.2629  1.7011
  631MPD2    N1 9352   4.332   4.289  15.684  0.3937 -0.0371 -0.4800
  631MPD2    H7 9353   4.290   4.373  15.721 -0.7679 -0.8205 -0.0347
  632TMC3    C1 9354   4.246   4.348  15.474 -0.0017 -0.0735  0.2073
  632TMC3    C2 9355   4.115   4.308  15.500  0.6181 -0.0308 -0.2836
  632TMC3    C3 9356   4.026   4.306  15.388  0.7448  0.4418  0.2069
  632TMC3    C4 9357   4.282   4.396  15.350  0.1536 -0.7332  0.0084
  632TMC3    C5 9358   4.193   4.390  15.242 -0.8730 -0.9884 -0.5903
  632TMC3    C6 9359   4.068   4.352  15.260  0.5231 -0.8958  0.0927
  632TMC3     C 9360   4.352   4.274  15.547 -0.4741  0.0333  0.7158
  632TMC3     O 9361   4.444   4.225  15.489  0.5453 -0.0354  0.2328
  632TMC3     H 9362   4.084   4.287  15.602  0.6959 -0.7121 -0.3973
  632TMC3    H1 9363   4.384   4.428  15.333 -0.4703  1.3548  0.1766
  632TMC3    H2 9364   4.006   4.333  15.173 -0.4926 -2.9418  1.2530
  632TMC3    C7 9365   4.243   4.391  15.106  0.3310  0.2815  0.2666
  632TMC3    C8 9366   3.893   4.268  15.420 -0.2068  0.1095 -0.2997
  632TMC3    O1 9367   4.161   4.433  15.030 -0.4522 -0.0032  0.2140
  632TMC3    O2 9368   3.879   4.220  15.533  0.1844 -0.5760 -0.4509
  633MPD2     C 9369   4.007   1.991   0.017 -0.4599  0.1492 -0.2950
  633MPD2    C1 9370   4.092   1.919  17.642 -0.5842 -0.2386 -0.4251
  633MPD2    C2 9371   4.078   1.781  17.656 -0.9110 -0.4512 -0.8460
  633MPD2    C3 9372   4.000   1.720   0.048 -0.5212  0.6087 -0.7053
  633MPD2    C4 9373   3.922   1.800   0.129  0.4145  0.5247  0.4951
  633MPD2    C5 9374   3.923   1.933   0.105 -0.1071 -0.9475 -0.4699
  633MPD2     H 9375   4.140   1.719  17.593  1.1461  0.8448 -0.0819
  633MPD2    H1 9376   3.862   1.761   0.210  1.9778  1.0729  1.9150
  633MPD2    H2 9377   4.003   2.100   0.020  2.3567  0.2303  0.6269
  633MPD2    H3 9378   3.864   2.005   0.161  0.7846  1.5096 -2.6494
  633MPD2     N 9379   4.003   1.582   0.070  0.1905  0.4416 -0.2463
  633MPD2    H5 9380   3.941   1.551   0.145 -0.4317  0.6298 -0.6784
  633MPD2    N1 9381   4.161   1.979  17.535  0.1068  0.1582 -0.3497
  633MPD2    H7 9382   4.199   1.919  17.462 -3.1452 -2.1018 -0.2191
  634TMC3    C1 9383   4.201   2.155  17.382 -0.1808 -0.1398 -0.0009
  634TMC3    C2 9384   4.229   2.057  17.292  0.4754  0.0500  0.2139
  634TMC3    C3 9385   4.239   2.093  17.158  0.0096  0.2606  0.5015
  634TMC3    C4 9386   4.191   2.293  17.350 -0.4323 -0.0753 -0.1678
  634TMC3    C5 9387   4.190   2.318  17.213 -0.0560  0.0368  0.3128
  634TMC3    C6 9388   4.217   2.222  17.116 -0.0160 -0.2949  0.1147
  634TMC3     C 9389   4.177   2.119  17.521  0.1216  0.2102  0.6314
  634TMC3     O 9390   4.158   2.214  17.597  0.0962 -0.2113  0.6219
  634TMC3     H 9391   4.263   1.957  17.314 -0.2390 -0.0931  0.6741
  634TMC3    H1 9392   4.173   2.362  17.432  0.8221  0.3607 -0.2468
  634TMC3    H2 9393   4.198   2.249  17.013 -5.6101 -0.6336  1.0441
  634TMC3    C7 9394   4.142   2.447  17.163  0.0345 -0.0122 -0.0166
  634TMC3    C8 9395   4.173   1.992  17.068  0.2559 -0.5308  0.0606
  634TMC3    O1 9396   4.109   2.457  17.046 -0.7046  0.4912  0.7444
  634TMC3    O2 9397   4.133   1.888  17.126  1.1110  0.5734 -0.0068
  635TMC3    C1 9398   4.414   2.892   0.382  0.1066  0.1325 -1.0095
  635TMC3    C2 9399   4.464   2.907   0.261 -0.0318  0.5628  0.0554
  635TMC3    C3 9400   4.485   2.795   0.186  0.0899 -0.5939 -0.0834
  635TMC3    C4 9401   4.391   2.773   0.443 -0.0183 -0.0172  0.5803
  635TMC3    C5 9402   4.409   2.663   0.357  0.2929 -0.3765  0.2547
  635TMC3    C6 9403   4.448   2.671   0.227  0.2781 -0.0296 -0.1732
  635TMC3     C 9404   4.404   3.013   0.462  1.0224 -0.3026  0.0333
  635TMC3     O 9405   4.480   3.101   0.432  0.9249 -0.7420 -0.2162
  635TMC3     H 9406   4.495   3.002   0.219 -2.9133  0.0782 -3.0798
  635TMC3    H1 9407   4.368   2.755   0.547 -1.0880 -1.2486  0.1350
  635TMC3    H2 9408   4.470   2.581   0.171 -0.2571 -0.2493 -0.0287
  635TMC3    C7 9409   4.374   2.527   0.405 -1.0604 -0.1615 -0.0756
  635TMC3    C8 9410   4.581   2.806   0.072 -0.4583 -0.5483  0.3553
  635TMC3    O1 9411   4.349   2.445   0.312 -0.2510  0.8901  0.1632
  635TMC3    O2 9412   4.569   2.905  17.704 -0.3173 -0.3760 -0.0699
  636MPD2     C 9413   0.326   2.189  15.990 -0.6389  0.0194  0.1382
  636MPD2    C1 9414   0.356   2.242  16.113  0.2406 -0.0072 -0.0574
  636MPD2    C2 9415   0.414   2.158  16.203  0.5261 -0.5099 -0.0773
  636MPD2    C3 9416   0.445   2.025  16.181  0.1749  0.0405  0.2779
  636MPD2    C4 9417   0.406   1.971  16.059 -0.4389  0.1477  0.1797
  636MPD2    C5 9418   0.349   2.059  15.965 -0.6004 -0.6557 -0.7627
  636MPD2     H 9419   0.428   2.200  16.302 -1.3597 -0.1343  0.0270
  636MPD2    H1 9420   0.402   1.867  16.030  2.0158  0.6639 -1.9479
  636MPD2    H2 9421   0.272   2.250  15.918 -0.1317 -0.3453 -0.5498
  636MPD2    H3 9422   0.319   2.024  15.867 -0.4130 -1.4483 -0.5314
  636MPD2     N 9423   0.496   1.948  16.287 -0.3214 -0.0790  0.5862
  636MPD2    H5 9424   0.514   1.998  16.373  2.1395 -0.5190  0.3177
  636MPD2    N1 9425   0.321   2.375  16.156 -0.7043  0.2319 -0.2011
  636MPD2    H7 9426   0.323   2.389  16.257 -1.3523  0.6624 -0.2487
  637TMC3    C1 9427   0.556   1.743  16.395  0.0192  0.1096  0.3196
  637TMC3    C2 9428   0.559   1.813  16.522  0.5102 -0.0246  0.1860
  637TMC3    C3 9429   0.636   1.768  16.621 -0.4416  0.4607 -0.1407
  637TMC3    C4 9430   0.653   1.649  16.371 -0.1088  0.0074  0.3760
  637TMC3    C5 9431   0.751   1.630  16.470 -0.0415  0.0065 -0.2362
  637TMC3    C6 9432   0.728   1.674  16.600  0.2983 -0.4316 -0.1524
  637TMC3     C 9433   0.512   1.807  16.271  0.2343  0.7678 -0.0946
  637TMC3     O 9434   0.524   1.744  16.166 -0.5637 -0.3835  0.5544
  637TMC3     H 9435   0.492   1.898  16.538  0.1324 -0.4016  0.5946
  637TMC3    H1 9436   0.678   1.615  16.271  0.5411  0.4529  0.3867
  637TMC3    H2 9437   0.809   1.657  16.670  1.5438  0.0370 -1.4742
  637TMC3    C7 9438   0.877   1.678  16.423  0.1650 -0.3189 -0.2188
  637TMC3    C8 9439   0.676   1.869  16.716  0.0933  0.5892  0.2137
  637TMC3    O1 9440   0.903   1.789  16.471 -0.4674  0.7359  0.5584
  637TMC3    O2 9441   0.598   1.921  16.797  0.0712 -0.4812 -0.2712
  638MPD2     C 9442   0.440   1.210  14.901 -0.9686  0.0329 -0.9553
  638MPD2    C1 9443   0.384   1.103  14.837 -0.4895 -0.2280  0.3193
  638MPD2    C2 9444   0.317   1.006  14.911  0.0812 -0.1094  0.5538
  638MPD2    C3 9445   0.293   1.015  15.040 -0.4082 -0.6279 -0.4945
  638MPD2    C4 9446   0.356   1.119  15.109  0.0682  0.0032  0.1879
  638MPD2    C5 9447   0.424   1.217  15.039  0.1900 -0.4845  0.5404
  638MPD2     H 9448   0.287   0.913  14.864  1.7965  0.5755 -1.8921
  638MPD2    H1 9449   0.348   1.120  15.217 -0.4870  2.4699  0.1347
  638MPD2    H2 9450   0.483   1.293  14.846 -1.2076 -0.5019 -1.9343
  638MPD2    H3 9451   0.462   1.296  15.102 -0.8714  0.1967  0.3298
  638MPD2     N 9452   0.243   0.898  15.092 -0.4766 -0.0338  0.3501
  638MPD2    H5 9453   0.210   0.833  15.022  0.6862 -0.3457  0.0853
  638MPD2    N1 9454   0.419   1.078  14.704  0.1387  0.1125 -0.0525
  638MPD2    H7 9455   0.486   1.143  14.666 -1.4346  2.7293  1.6892
  639TMC3    C1 9456   0.169   0.741  15.237  0.5149 -0.0883 -1.2367
  639TMC3    C2 9457   0.048   0.723  15.165 -0.1636 -0.0497  0.3918
  639TMC3    C3 9458   4.684   0.637  15.220  0.7056  0.3409 -0.3128
  639TMC3    C4 9459   0.203   0.670  15.350  0.2551 -0.0150  0.0744
  639TMC3    C5 9460   0.111   0.578  15.396  0.4654  0.6130  0.3451
  639TMC3    C6 9461   4.717   0.568  15.334 -0.0847  0.3815  0.3793
  639TMC3     C 9462   0.250   0.858  15.224 -0.1294  0.3629  1.1843
  639TMC3     O 9463   0.322   0.903  15.314 -0.1182 -0.0285  0.3000
  639TMC3     H 9464   0.019   0.785  15.080  1.5110 -0.0003 -0.1607
  639TMC3    H1 9465   0.307   0.689  15.375 -0.8127  2.3137  2.7281
  639TMC3    H2 9466   4.651   0.491  15.372  0.6620 -0.8625 -0.8393
  639TMC3    C7 9467   0.145   0.481  15.495  0.5581 -0.6194 -0.4309
  639TMC3    C8 9468   4.612   0.570  15.117  0.5442 -0.1825 -0.9000
  639TMC3    O1 9469   0.050   0.416  15.548 -0.3566  1.0368  0.4832
  639TMC3    O2 9470   4.656   0.579  15.005 -0.0641 -0.3531 -0.1443
  640MPD2     C 9471   1.093   4.386   9.943  0.4714 -1.1330  0.5971
  640MPD2    C1 9472   1.142   4.512   9.963 -0.2646  0.5276 -0.2161
  640MPD2    C2 9473   1.060   4.619   9.929  0.3376  0.4013 -0.1977
  640MPD2    C3 9474   0.941   4.601   9.868 -0.9534  0.5943 -0.1937
  640MPD2    C4 9475   0.895   4.474   9.849 -0.7126 -0.4321 -0.2791
  640MPD2    C5 9476   0.963   4.367   9.899 -0.0284 -0.0116  0.2677
  640MPD2     H 9477   1.090   4.720   9.952  1.5494 -0.1282  0.5304
  640MPD2    H1 9478   0.795   4.457   9.810 -1.0784  1.7650 -0.2843
  640MPD2    H2 9479   1.143   4.295   9.975  1.6887 -1.0126 -0.9770
  640MPD2    H3 9480   0.919   4.268   9.901  2.3054 -1.0332  1.5169
  640MPD2     N 9481   0.856   4.704   9.819  0.1725 -0.1812 -0.1768
  640MPD2    H5 9482   0.761   4.683   9.789 -0.2049  0.1488  0.7930
  640MPD2    N1 9483   1.273   4.521  10.024 -0.1919  0.5955 -0.3380
  640MPD2    H7 9484   1.330   4.438  10.033 -0.6687  0.1274 -1.6443
  641TMC3    C1 9485   1.477   4.636  10.049  0.0749  0.8967  0.6894
  641TMC3    C2 9486   1.547   4.532  10.008 -0.2361  0.4630  0.3705
  641TMC3    C3 9487   1.683   4.553   9.987  0.2828 -0.6386 -0.6249
  641TMC3    C4 9488   1.532   0.030  10.076  0.2457  0.8376 -0.3307
  641TMC3    C5 9489   1.664   0.042  10.076 -0.1847  0.0929  0.5432
  641TMC3    C6 9490   1.748   4.669  10.028 -0.1185  1.4383  0.0242
  641TMC3     C 9491   1.334   4.638  10.050  0.4051  1.0763  0.1272
  641TMC3     O 9492   1.279   0.022  10.062 -0.3353  0.2470 -0.1299
  641TMC3     H 9493   1.504   4.438   9.975 -2.3274  1.2419  0.8908
  641TMC3    H1 9494   1.475   0.108  10.125 -0.8689 -1.0111  1.3461
  641TMC3    H2 9495   1.855   4.681  10.032  0.2192 -2.1091  1.2643
  641TMC3    C7 9496   1.726   0.172  10.081  0.7556 -0.3790 -0.3909
  641TMC3    C8 9497   1.766   4.437  10.020  0.3945 -0.1439 -0.4617
  641TMC3    O1 9498   1.844   0.176  10.094  0.0174 -0.2403  0.7806
  641TMC3    O2 9499   1.880   4.431   9.973 -0.3399  0.4759  0.0853
  642TMC3    C1 9500   1.788   0.531  12.665 -0.2349 -0.0816 -0.1242
  642TMC3    C2 9501   1.712   0.478  12.768 -0.1833  0.3854  0.2370
  642TMC3    C3 9502   1.680   0.342  12.765  0.2420 -0.2448 -0.3805
  642TMC3    C4 9503   1.829   0.455  12.569  0.4424  0.4080  0.4311
  642TMC3    C5 9504   1.810   0.319  12.569  0.4839 -0.7529  0.5753
  642TMC3    C6 9505   1.734   0.260  12.665 -0.1675 -0.0599 -1.1445
  642TMC3     C 9506   1.821   0.668  12.658  0.4565 -0.3118  0.7756
  642TMC3     O 9507   1.920   0.711  12.603  0.6661  0.8773 -0.5075
  642TMC3     H 9508   1.669   0.543  12.843  0.7232 -0.3107  1.3718
  642TMC3    H1 9509   1.889   0.503  12.493 -2.8476  0.6798 -1.9626
  642TMC3    H2 9510   1.715   0.153  12.656 -1.2994 -0.1188  2.0279
  642TMC3    C7 9511   1.837   0.246  12.446 -0.3578 -0.2461  0.2104
  642TMC3    C8 9512   1.596   0.295  12.868 -0.4966  0.6888  0.6553
  642TMC3    O1 9513   1.887   0.306  12.351 -0.0372  0.0756 -0.4458
  642TMC3    O2 9514   1.543   0.386  12.934  0.1756 -0.8950  0.3621
  643TMC3    C1 9515   1.519   0.509   1.023  0.5751 -0.3890  0.1018
  643TMC3    C2 9516   1.384   0.497   1.026  0.2349 -0.1001  0.3086
  643TMC3    C3 9517   1.326   0.411   0.935  0.0439  0.1928 -0.2773
  643TMC3    C4 9518   1.598   0.426   0.946 -0.6698  0.3842  0.0275
  643TMC3    C5 9519   1.537   0.320   0.884  0.0607  0.3255 -0.1603
  643TMC3    C6 9520   1.395   0.316   0.862  0.3659  0.4749 -0.0449
  643TMC3     C 9521   1.565   0.639   1.054 -0.0488 -0.5652  0.8016
  643TMC3     O 9522   1.477   0.723   1.035  0.2501 -0.1972 -0.3872
  643TMC3     H 9523   1.317   0.568   1.073  0.3694  0.4536 -0.3286
  643TMC3    H1 9524   1.705   0.447   0.948 -0.6662  0.5580 -1.6597
  643TMC3    H2 9525   1.341   0.233   0.816  0.0360  1.4402 -1.4199
  643TMC3    C7 9526   1.612   0.211   0.807  0.0585 -0.1818 -0.2494
  643TMC3    C8 9527   1.188   0.425   0.906  0.6828  0.2296 -0.3564
  643TMC3    O1 9528   1.574   0.174   0.694  0.0641  0.2559  0.4040
  643TMC3    O2 9529   1.119   0.324   0.886 -0.3034 -0.2375  0.1136
  644MPD2     C 9530   1.168   0.457   9.937  0.2164  0.0225  0.4693
  644MPD2    C1 9531   1.202   0.574   9.995  0.1678  0.3183 -0.2133
  644MPD2    C2 9532   1.184   0.696   9.927 -0.4486 -1.1794 -0.0448
  644MPD2    C3 9533   1.114   0.699   9.813  0.2837 -0.1426 -0.6109
  644MPD2    C4 9534   1.055   0.584   9.769 -0.0282  0.6658  0.2940
  644MPD2    C5 9535   1.090   0.465   9.827 -0.0423  0.6551 -0.1347
  644MPD2     H 9536   1.229   0.790   9.959 -0.2096 -1.5290  0.6453
  644MPD2    H1 9537   1.006   0.577   9.672  0.8749 -2.2698  0.0368
  644MPD2    H2 9538   1.192   0.357   9.972  3.1752  0.0405 -1.4585
  644MPD2    H3 9539   1.060   0.379   9.768  1.5089  0.5501 -0.7641
  644MPD2     N 9540   1.107   0.827   9.745  0.2535  0.3546  0.1124
  644MPD2    H5 9541   1.150   0.911   9.782  1.4686 -0.2337  0.0510
  644MPD2    N1 9542   1.255   0.560  10.131  0.7670  0.2543  0.3291
  644MPD2    H7 9543   1.272   0.466  10.167 -0.0920 -0.0657 -0.1085
  645TMC3    C1 9544   1.039   0.991   9.584  0.3552 -0.0749 -0.7769
  645TMC3    C2 9545   1.049   1.090   9.680 -0.1901 -0.3918 -0.2823
  645TMC3    C3 9546   1.084   1.215   9.633  0.2794  0.3447  0.9669
  645TMC3    C4 9547   1.067   1.013   9.451 -0.3838  0.0322  0.6794
  645TMC3    C5 9548   1.093   1.142   9.413  0.3898 -0.0572 -0.0783
  645TMC3    C6 9549   1.118   1.239   9.505  0.0004 -0.3158 -0.0192
  645TMC3     C 9550   1.036   0.849   9.629 -0.2748  0.6606  0.1828
  645TMC3     O 9551   0.997   0.772   9.543  0.1746  0.3843 -0.3949
  645TMC3     H 9552   1.034   1.067   9.785  1.9102  0.2479  0.1633
  645TMC3    H1 9553   1.055   0.934   9.378 -0.7989  0.3998  0.3507
  645TMC3    H2 9554   1.145   1.339   9.472  1.7776 -0.6966  0.2675
  645TMC3    C7 9555   1.127   1.146   9.271  0.0074 -0.9197 -0.1960
  645TMC3    C8 9556   1.082   1.322   9.730 -0.1858 -0.1192  0.2865
  645TMC3    O1 9557   1.128   1.041   9.205  0.4338 -0.1870 -0.5475
  645TMC3    O2 9558   1.006   1.308   9.826 -0.4395 -0.0619  0.2455
  646MPD2     C 9559   0.197   4.320  14.654  0.5553 -0.7885  0.5200
  646MPD2    C1 9560   0.199   4.429  14.738 -0.2095  1.2791 -0.3671
  646MPD2    C2 9561   0.129   4.535  14.696  0.3120 -0.0125  0.5628
  646MPD2    C3 9562   0.061   4.545  14.578  0.0963 -0.1470 -0.2551
  646MPD2    C4 9563   0.073   4.440  14.493 -0.7312  0.1052 -0.0219
  646MPD2    C5 9564   0.138   4.322  14.531  0.2747 -0.3049 -0.4489
  646MPD2     H 9565   0.116   4.610  14.774  0.3104  0.0761  0.4775
  646MPD2    H1 9566   0.040   4.445  14.390  0.5074 -0.2770 -0.4398
  646MPD2    H2 9567   0.249   4.228  14.681  1.3478 -0.2060  0.9764
  646MPD2    H3 9568   0.156   4.235  14.469 -0.7898 -1.0877  0.3568
  646MPD2     N 9569   4.707   4.659  14.560 -0.1132  0.3984 -0.2457
  646MPD2    H5 9570   4.690   4.717  14.642 -0.2770 -0.0741  0.0556
  646MPD2    N1 9571   0.258   4.417  14.864 -0.0617  0.1735  0.9731
  646MPD2    H7 9572   0.286   4.324  14.895  1.3181 -0.5201 -2.3594
  647TMC3    C1 9573   0.350   4.459  15.078 -0.0602 -0.3465 -0.7239
  647TMC3    C2 9574   0.292   4.344  15.137  0.7266 -0.3997  0.1508
  647TMC3    C3 9575   0.350   4.299  15.252  0.4681  0.7333  0.5684
  647TMC3    C4 9576   0.463   4.522  15.129  0.1700 -0.4414 -1.0425
  647TMC3    C5 9577   0.518   4.468  15.242 -1.1243 -1.2516 -0.1789
  647TMC3    C6 9578   0.453   4.365  15.313 -0.9392  0.0591  0.4007
  647TMC3     C 9579   0.298   4.514  14.951 -0.2474  0.3599 -0.0415
  647TMC3     O 9580   0.288   4.640  14.940 -0.0751 -0.2680 -0.3028
  647TMC3     H 9581   0.217   4.288  15.083  1.0272 -0.3934 -0.2733
  647TMC3    H1 9582   0.512   4.612  15.093 -1.4410  1.3620  1.2985
  647TMC3    H2 9583   0.503   4.330  15.402 -1.1992 -1.7580 -0.1589
  647TMC3    C7 9584   0.666   4.453  15.242  0.8815  0.4510  0.2182
  647TMC3    C8 9585   0.354   4.164  15.301 -0.4276  0.3161 -0.3405
  647TMC3    O1 9586   0.707   4.365  15.312 -0.0127 -0.4751  0.7745
  647TMC3    O2 9587   0.355   4.148  15.427  0.3003 -0.2409 -0.2964
  648TMC3    C1 9588   4.498   1.990  16.396 -1.1558 -0.1053  0.1569
  648TMC3    C2 9589   4.493   1.869  16.329 -0.2979 -0.2657 -0.6999
  648TMC3    C3 9590   4.405   1.851  16.224  0.8672  0.7916  0.0727
  648TMC3    C4 9591   4.405   2.088  16.367 -0.0723 -0.1005 -0.7699
  648TMC3    C5 9592   4.326   2.071  16.255 -0.2358  0.0426 -0.4976
  648TMC3    C6 9593   4.324   1.953  16.187  0.2553  0.5909  0.5800
  648TMC3     C 9594   4.549   1.984  16.527 -0.2589 -0.5114 -0.1069
  648TMC3     O 9595   4.551   2.091  16.588  0.1258  0.3464 -1.0482
  648TMC3     H 9596   4.570   1.796  16.351  0.2550  0.8739  1.1575
  648TMC3    H1 9597   4.392   2.178  16.427  1.0662 -1.3322  1.3253
  648TMC3    H2 9598   4.267   1.952  16.094  1.1392  2.4796  0.0255
  648TMC3    C7 9599   4.231   2.167  16.202 -0.3519  0.4891 -0.1362
  648TMC3    C8 9600   4.425   1.734  16.145 -0.5215  0.1534 -0.4317
  648TMC3    O1 9601   4.147   2.129  16.124 -0.2900 -0.2123  0.7727
  648TMC3    O2 9602   4.523   1.667  16.166  0.0407  0.0631 -0.5127
  649TMC3    C1 9603   3.623   3.270  12.636  1.0018 -0.6827 -0.8774
  649TMC3    C2 9604   3.741   3.338  12.636 -0.0319  0.3479  0.5285
  649TMC3    C3 9605   3.820   3.350  12.745 -0.6148 -0.0399  0.5134
  649TMC3    C4 9606   3.577   3.215  12.750  0.3213  0.1114 -0.1644
  649TMC3    C5 9607   3.662   3.221  12.859  0.2779  0.5352 -0.7962
  649TMC3    C6 9608   3.784   3.288  12.864  0.0104  0.0769  0.2017
  649TMC3     C 9609   3.550   3.237  12.518 -0.0828 -0.1138 -0.1162
  649TMC3     O 9610   3.427   3.254  12.524 -1.0018 -0.0103  0.5046
  649TMC3     H 9611   3.758   3.391  12.543  0.1175 -1.6208 -0.5739
  649TMC3    H1 9612   3.493   3.148  12.748 -0.3305  0.9632 -1.1123
  649TMC3    H2 9613   3.843   3.300  12.955 -0.7319  1.9848  0.4316
  649TMC3    C7 9614   3.616   3.148  12.976  0.3910 -0.3349  0.5036
  649TMC3    C8 9615   3.928   3.447  12.755  0.5049 -0.4969  0.1436
  649TMC3    O1 9616   3.506   3.111  12.987  0.2281 -0.2355 -0.0287
  649TMC3    O2 9617   4.005   3.428  12.849  0.0964  0.0731  0.8617
  650TMC3    C1 9618   1.184   0.162  12.830  0.6497  0.4654 -0.0518
  650TMC3    C2 9619   1.087   0.259  12.837 -0.1242  0.0764  0.2931
  650TMC3    C3 9620   1.088   0.361  12.746 -0.0956  0.9229  0.4018
  650TMC3    C4 9621   1.283   0.168  12.734  0.3469 -0.0224 -0.1881
  650TMC3    C5 9622   1.277   0.275  12.648  0.3398 -0.3818  0.7257
  650TMC3    C6 9623   1.175   0.367  12.645  0.1450 -0.0908  0.4801
  650TMC3     C 9624   1.155   0.037  12.891  0.2621 -0.2827 -0.3147
  650TMC3     O 9625   1.058   0.035  12.963  0.5274 -0.3627 -0.1226
  650TMC3     H 9626   1.015   0.263  12.919  0.2665 -2.6484  0.7707
  650TMC3    H1 9627   1.365   0.098  12.724  0.5216  0.1132  0.3471
  650TMC3    H2 9628   1.167   0.440  12.566  0.2177  0.0042  0.5603
  650TMC3    C7 9629   1.396   0.308  12.568 -0.3008 -0.2559  0.4091
  650TMC3    C8 9630   1.050   0.493  12.788  0.2748  0.6985  0.5783
  650TMC3    O1 9631   1.457   0.214  12.524  0.4989 -0.1632 -0.5319
  650TMC3    O2 9632   1.121   0.582  12.748  0.1168  0.2280  0.5233
  651MPD2     C 9633   0.675   1.893  11.166  0.8023 -0.3775 -0.6361
  651MPD2    C1 9634   0.597   1.984  11.099  0.4664 -0.7100 -0.9036
  651MPD2    C2 9635   0.671   2.073  11.025 -0.2493  0.0296  0.2798
  651MPD2    C3 9636   0.806   2.087  11.025 -0.6432  0.2815 -0.1541
  651MPD2    C4 9637   0.879   1.991  11.083  0.0942 -0.3853  0.5794
  651MPD2    C5 9638   0.814   1.892  11.157 -0.2845  0.3445  0.4845
  651MPD2     H 9639   0.603   2.145  10.979  4.2179  2.7714 -2.0132
  651MPD2    H1 9640   0.987   1.994  11.083  0.0418  0.6741 -2.3451
  651MPD2    H2 9641   0.636   1.808  11.221  2.2137 -0.3472  0.4164
  651MPD2    H3 9642   0.876   1.816  11.203  1.8891  2.7764  1.5488
  651MPD2     N 9643   0.863   2.190  10.946 -0.2937 -0.5554  0.1095
  651MPD2    H5 9644   0.804   2.246  10.885  0.7517  0.0095 -0.3985
  651MPD2    N1 9645   0.457   1.999  11.104 -0.3318 -0.3598  0.0627
  651MPD2    H7 9646   0.417   2.071  11.044 -1.4092  0.0929  1.3202
  652TMC3    C1 9647   1.197   2.435  10.716  0.2511 -0.8008  0.1219
  652TMC3    C2 9648   1.154   2.320  10.769  0.5240  0.3235 -0.8652
  652TMC3    C3 9649   1.036   2.318  10.841  0.6101  1.2695  0.3927
  652TMC3    C4 9650   1.120   2.550  10.733  0.8205  0.0737 -0.1129
  652TMC3    C5 9651   1.003   2.549  10.807 -0.0477 -0.5308  0.2871
  652TMC3    C6 9652   0.962   2.432  10.858 -0.2909  0.1837  0.7547
  652TMC3     C 9653   1.343   2.455  10.741  0.5127  0.2427  0.0926
  652TMC3     O 9654   1.405   2.395  10.829  0.0349  0.1944  0.0540
  652TMC3     H 9655   1.224   2.238  10.767 -1.4011 -1.3142 -1.1404
  652TMC3    H1 9656   1.164   2.645  10.706 -0.5394  0.9658  0.8030
  652TMC3    H2 9657   0.878   2.437  10.926  0.3585 -0.7657  1.6330
  652TMC3    C7 9658   0.953   2.671  10.876  0.4617  0.1416  0.1573
  652TMC3    C8 9659   1.002   2.202  10.924  0.2671  0.5408  0.4080
  652TMC3    O1 9660   0.893   2.652  10.982  0.0432 -0.1380 -0.0431
  652TMC3    O2 9661   1.095   2.130  10.962 -0.1970  0.5915  0.2837
  653MPD2     C 9662   3.705   2.011   0.377 -0.1994  0.0086 -0.4109
  653MPD2    C1 9663   3.693   2.111   0.287 -0.4075  0.4117  0.1908
  653MPD2    C2 9664   3.603   2.100   0.180  0.0672 -0.2936  0.2011
  653MPD2    C3 9665   3.523   1.991   0.165 -0.3237 -0.3227 -0.5523
  653MPD2    C4 9666   3.541   1.892   0.259  0.5417  0.4229  0.2356
  653MPD2    C5 9667   3.625   1.898   0.361 -0.2908 -0.5467  0.3433
  653MPD2     H 9668   3.603   2.178   0.105 -1.6838  1.5878  2.1399
  653MPD2    H1 9669   3.481   1.802   0.266  2.9425 -1.0111  2.3779
  653MPD2    H2 9670   3.777   2.009   0.458  0.0976  0.9984 -0.6480
  653MPD2    H3 9671   3.644   1.817   0.430 -0.6615  0.7149  1.9334
  653MPD2     N 9672   3.447   1.978   0.048  0.2541 -0.0585 -0.1191
  653MPD2    H5 9673   3.444   2.061  17.696 -1.0146  0.7112  1.0191
  653MPD2    N1 9674   3.791   2.219   0.290  0.4921  0.2906  0.4977
  653MPD2    H7 9675   3.803   2.268   0.202 -0.1002  1.4397  1.0654
  654TMC3    C1 9676   3.334   1.883  17.572  0.2021 -0.3533 -0.4536
  654TMC3    C2 9677   3.268   1.999  17.538  0.0216 -0.3051  0.1883
  654TMC3    C3 9678   3.215   2.018  17.412  0.3723  0.1750  0.2897
  654TMC3    C4 9679   3.361   1.785  17.477 -0.3120 -0.6742  0.5564
  654TMC3    C5 9680   3.299   1.803  17.353  0.2112 -0.0770  0.2235
  654TMC3    C6 9681   3.224   1.916  17.318  0.2710  0.0670  0.0526
  654TMC3     C 9682   3.395   1.866  17.698  1.4557  0.1983 -0.3878
  654TMC3     O 9683   3.403   1.755   0.040 -0.5488 -0.8344 -0.2973
  654TMC3     H 9684   3.260   2.075  17.616 -0.5788  0.1591 -0.3259
  654TMC3    H1 9685   3.420   1.697  17.497  4.4422  2.3935 -0.0959
  654TMC3    H2 9686   3.183   1.930  17.219  0.5924 -1.6393 -0.3220
  654TMC3    C7 9687   3.285   1.683  17.264 -0.4734 -0.0203  0.1551
  654TMC3    C8 9688   3.111   2.116  17.382 -0.3697  0.7683  0.1325
  654TMC3    O1 9689   3.228   1.716  17.160 -0.4263  0.1911  0.0947
  654TMC3    O2 9690   3.038   2.091  17.287 -0.1575  0.1260 -0.6539
  655MPD2     C 9691   4.714   1.928  15.980 -0.1024  0.8895 -0.4499
  655MPD2    C1 9692   4.706   2.039  15.899 -0.0155  0.1994  0.3730
  655MPD2    C2 9693   0.005   2.032  15.765  0.3432  0.2935  0.1453
  655MPD2    C3 9694   0.032   1.915  15.700 -0.4897  0.8258  0.1670
  655MPD2    C4 9695   0.043   1.803  15.787  0.7515  0.4285 -0.0732
  655MPD2    C5 9696   0.027   1.810  15.920  0.7074 -0.1254  0.6544
  655MPD2     H 9697   4.712   2.127  15.715  1.2258 -0.0426 -0.8526
  655MPD2    H1 9698   0.066   1.707  15.743  0.4501  0.1394  0.4012
  655MPD2    H2 9699   4.687   1.932  16.084  0.4983  0.8760 -0.2949
  655MPD2    H3 9700   0.039   1.723  15.984 -1.0762  0.0849  1.2713
  655MPD2     N 9701   0.030   1.892  15.561 -0.2312  0.4872 -0.4409
  655MPD2    H5 9702   0.071   1.804  15.530 -1.1301  0.3243 -1.1678
  655MPD2    N1 9703   4.697   2.169  15.951  0.4593 -0.3372  0.0342
  655MPD2    H7 9704   4.694   2.248  15.887  0.3597  0.2278  0.7430
  656TMC3    C1 9705   4.692   2.341  16.120  0.7912 -0.1751 -0.5436
  656TMC3    C2 9706   4.693   2.378  16.251 -0.4394 -0.0807  0.0135
  656TMC3    C3 9707   4.653   2.505  16.295 -0.1095  0.3285 -0.6348
  656TMC3    C4 9708   4.644   2.431  16.029 -1.2504  0.1905 -0.0888
  656TMC3    C5 9709   4.593   2.550  16.078  0.3174  0.1947 -0.2173
  656TMC3    C6 9710   4.604   2.591  16.204 -0.5679 -0.2115  0.4052
  656TMC3     C 9711   4.698   2.198  16.088  0.2211 -0.0272 -0.2232
  656TMC3     O 9712   4.709   2.124  16.182 -0.1864 -0.0459 -0.0703
  656TMC3     H 9713   4.726   2.308  16.327  2.2639  0.7590 -0.3692
  656TMC3    H1 9714   4.618   2.402  15.927 -1.0711 -0.5552  0.0781
  656TMC3    H2 9715   4.574   2.688  16.243 -1.7925 -1.4539  2.5676
  656TMC3    C7 9716   4.531   2.642  15.982 -0.0293 -0.0056 -0.2801
  656TMC3    C8 9717   4.555   2.489  16.398 -0.4972 -0.7807  0.2788
  656TMC3    O1 9718   4.554   2.622  15.862  0.2001 -0.5889 -0.6493
  656TMC3    O2 9719   4.497   2.382  16.400  0.2738  0.5655 -0.3256
  657TMC3    C1 9720   3.873   1.716  14.816  0.2885 -0.5534 -0.0850
  657TMC3    C2 9721   3.853   1.740  14.956 -0.4257 -0.9422 -0.1075
  657TMC3    C3 9722   3.795   1.857  14.990  0.0250 -0.2638 -0.9500
  657TMC3    C4 9723   3.825   1.797  14.721  0.4738  0.0236 -0.0372
  657TMC3    C5 9724   3.794   1.923  14.765 -0.2861 -0.0051 -0.2087
  657TMC3    C6 9725   3.774   1.957  14.898  0.1316  0.1433  0.0496
  657TMC3     C 9726   3.910   1.580  14.773  0.1876 -0.3612  0.0244
  657TMC3     O 9727   3.858   1.549  14.670  0.5147 -0.3466  0.2145
  657TMC3     H 9728   3.877   1.664  15.029  1.0302 -1.2844 -0.9516
  657TMC3    H1 9729   3.846   1.788  14.615  0.6210  0.1741 -0.0214
  657TMC3    H2 9730   3.728   2.049  14.933  2.4788  0.5451  2.1143
  657TMC3    C7 9731   3.723   1.997  14.667 -0.8324  0.6650 -0.0410
  657TMC3    C8 9732   3.787   1.895  15.130  0.5196 -0.0558  0.2482
  657TMC3    O1 9733   3.689   1.925  14.575  0.7938  0.2856 -0.3053
  657TMC3    O2 9734   3.738   2.002  15.161 -0.1011 -0.0478 -0.3975
  658MPD2     C 9735   0.535   2.014  14.982  0.3261  0.1115 -0.1420
  658MPD2    C1 9736   0.412   2.054  14.940  0.0222  0.3631  0.2944
  658MPD2    C2 9737   0.408   2.131  14.824 -0.6856  0.5754  0.2955
  658MPD2    C3 9738   0.522   2.171  14.760  0.1278 -0.3730  0.4261
  658MPD2    C4 9739   0.642   2.140  14.808 -0.7325 -0.0460 -0.2578
  658MPD2    C5 9740   0.645   2.056  14.914  0.5663  0.1911 -0.7546
  658MPD2     H 9741   0.311   2.147  14.779  0.4124 -3.2170 -3.4074
  658MPD2    H1 9742   0.736   2.174  14.766 -2.0486  2.6974 -0.9842
  658MPD2    H2 9743   0.551   1.940  15.059 -1.2884 -0.0978 -0.0105
  658MPD2    H3 9744   0.741   2.025  14.953  0.4610  2.0299  1.0100
  658MPD2     N 9745   0.510   2.242  14.639 -0.3164 -0.1446 -0.0839
  658MPD2    H5 9746   0.416   2.251  14.603 -0.1078  2.8105  0.0861
  658MPD2    N1 9747   0.293   2.038  15.013  0.2714 -0.7657  0.0154
  658MPD2    H7 9748   0.209   2.085  14.981  1.0609  1.6887  1.5759
  659TMC3    C1 9749   0.146   1.954  15.167 -0.4999  0.5469 -0.1010
  659TMC3    C2 9750   0.118   1.918  15.298  0.5546 -0.2996  0.4527
  659TMC3    C3 9751   4.713   1.931  15.329  0.0301 -0.3527 -0.1414
  659TMC3    C4 9752   0.048   1.999  15.081  0.6211 -0.0221 -0.4052
  659TMC3    C5 9753   4.650   2.024  15.131 -0.1360 -0.5228  0.5627
  659TMC3    C6 9754   4.619   1.996  15.257 -0.6104  0.1906  0.0485
  659TMC3     C 9755   0.283   1.954  15.124 -0.3441  0.1106 -0.2110
  659TMC3     O 9756   0.360   1.886  15.189 -0.1253  0.3302  0.4191
  659TMC3     H 9757   0.192   1.878  15.367  0.0239  0.0880  1.2419
  659TMC3    H1 9758   0.064   2.019  14.976 -1.9342  0.6857 -0.6442
  659TMC3    H2 9759   4.519   2.009  15.297 -0.8973  1.9393 -1.2243
  659TMC3    C7 9760   4.544   2.062  15.046 -0.2199  0.4718  0.7434
  659TMC3    C8 9761   4.698   1.974  15.471  1.0250 -0.7324 -0.1509
  659TMC3    O1 9762   4.461   2.136  15.100  0.0376  0.1832  0.5083
  659TMC3    O2 9763   4.646   2.082  15.487  0.0406 -0.0250  0.3550
  660MPD2     C 9764   3.047   1.336  12.915  0.4731 -0.5190 -0.3437
  660MPD2    C1 9765   2.913   1.336  12.871  0.0395  0.4151 -0.1058
  660MPD2    C2 9766   2.819   1.278  12.956 -0.2965  0.4398  0.6529
  660MPD2    C3 9767   2.854   1.235  13.085  0.3601  0.1008  0.0419
  660MPD2    C4 9768   2.985   1.227  13.114  0.3818 -0.4436 -0.5384
  660MPD2    C5 9769   3.077   1.275  13.029 -0.4855  0.1367  0.8977
  660MPD2     H 9770   2.715   1.277  12.927 -1.0771  1.5705  3.3767
  660MPD2    H1 9771   3.023   1.189  13.208 -0.0663 -3.4505 -1.5727
  660MPD2    H2 9772   3.121   1.377  12.847  1.3992  0.3512  1.2000
  660MPD2    H3 9773   3.184   1.284  13.047 -0.0900 -1.0437 -0.8203
  660MPD2     N 9774   2.758   1.185  13.185 -0.6964 -0.3148  0.2671
  660MPD2    H5 9775   2.797   1.141  13.267 -1.9318 -2.6278 -0.3475
  660MPD2    N1 9776   2.888   1.387  12.743 -0.7221  0.9749  0.2976
  660MPD2    H7 9777   2.970   1.406  12.686 -0.5017  0.2660  0.3753
  661TMC3    C1 9778   2.765   1.471  12.560 -0.2622  0.7198  0.3813
  661TMC3    C2 9779   2.863   1.440  12.468  0.4461 -0.9042  0.0604
  661TMC3    C3 9780   2.841   1.487  12.340  0.3316  0.9237  0.6867
  661TMC3    C4 9781   2.643   1.525  12.524 -0.4238 -0.1918 -0.8464
  661TMC3    C5 9782   2.617   1.564  12.393 -0.1317 -0.0513 -0.0985
  661TMC3    C6 9783   2.719   1.545  12.303  0.3896  0.0248  0.3887
  661TMC3     C 9784   2.763   1.395  12.686  1.2149 -0.1630  0.2273
  661TMC3     O 9785   2.654   1.398  12.743  0.0471  0.1999 -0.5075
  661TMC3     H 9786   2.958   1.394  12.492  2.0417  0.9121 -2.7930
  661TMC3    H1 9787   2.572   1.538  12.605 -1.3570 -1.4813 -1.4523
  661TMC3    H2 9788   2.699   1.586  12.205 -2.3833 -1.0079  0.5158
  661TMC3    C7 9789   2.489   1.513  12.357 -0.7529 -0.2221  0.8543
  661TMC3    C8 9790   2.948   1.473  12.242  0.1847  0.3861  0.5236
  661TMC3    O1 9791   2.406   1.525  12.447  0.1203 -0.1338  0.1366
  661TMC3    O2 9792   3.020   1.373  12.245 -0.0480 -0.4130 -0.7106
  662MPD2     C 9793   3.154   1.021  17.473  0.5794  0.7434 -0.3538
  662MPD2    C1 9794   3.125   0.966  17.591  0.2874 -0.0373 -0.1446
  662MPD2    C2 9795   3.098   1.047  17.696 -0.3003 -0.0279  0.1490
  662MPD2    C3 9796   3.082   1.187  17.687 -0.5626  0.3054  0.2470
  662MPD2    C4 9797   3.107   1.243  17.564 -0.1881 -0.0608 -0.2755
  662MPD2    C5 9798   3.141   1.158  17.461  0.3800 -0.3361  0.6869
  662MPD2     H 9799   3.060   1.001   0.079 -1.7700  1.9445  0.5328
  662MPD2    H1 9800   3.090   1.349  17.548 -2.3633 -0.8166 -2.8075
  662MPD2    H2 9801   3.203   0.969  17.392  0.4521 -0.4495  0.3452
  662MPD2    H3 9802   3.150   1.194  17.359 -1.2857  1.7253  1.2664
  662MPD2     N 9803   3.049   1.268   0.090  0.8153  0.5010  0.3259
  662MPD2    H5 9804   3.053   1.369   0.077 -3.1024  0.7856  1.1909
  662MPD2    N1 9805   3.121   0.828  17.612 -0.0190 -0.0772  0.1754
  662MPD2    H7 9806   3.108   0.796   0.001  0.8592  0.1886  0.3903
  663TMC3    C1 9807   3.117   0.602  17.565 -0.1605  0.3143  0.8132
  663TMC3    C2 9808   3.174   0.568  17.681 -0.2643  0.3982  0.1495
  663TMC3    C3 9809   3.206   0.437  17.704  0.0342  0.6909 -0.1525
  663TMC3    C4 9810   3.073   0.508  17.478  0.0274 -0.6087 -0.5485
  663TMC3    C5 9811   3.083   0.371  17.514  0.0348  0.3780 -0.0623
  663TMC3    C6 9812   3.152   0.337  17.632 -0.2298  0.8816  0.2596
  663TMC3     C 9813   3.135   0.737  17.515 -0.1235  0.7015 -0.3777
  663TMC3     O 9814   3.144   0.754  17.394  0.1111  0.1650 -0.0068
  663TMC3     H 9815   3.215   0.637   0.046  0.4272 -0.0597  0.1900
  663TMC3    H1 9816   3.019   0.536  17.388 -0.2490 -2.1781 -0.8789
  663TMC3    H2 9817   3.192   0.238  17.650 -1.1064  0.3922 -0.4818
  663TMC3    C7 9818   3.059   0.273  17.407 -0.3805  0.1685 -0.3172
  663TMC3    C8 9819   3.249   0.385   0.131  0.4807 -0.2625  0.8396
  663TMC3    O1 9820   3.030   0.312  17.293  0.5640  0.0119  0.0013
  663TMC3    O2 9821   3.305   0.275   0.134  0.6474 -1.1043  0.0662
  664MPD2     C 9822   0.999   3.807   0.175  0.6642  0.1176  0.5572
  664MPD2    C1 9823   1.121   3.861   0.212  0.5166 -0.4008 -0.1197
  664MPD2    C2 9824   1.123   3.924   0.337 -0.8338 -0.5508  0.5138
  664MPD2    C3 9825   1.015   3.927   0.419 -0.4563 -0.2055 -0.2853
  664MPD2    C4 9826   0.897   3.879   0.377  0.3816 -0.3768 -0.4324
  664MPD2    C5 9827   0.889   3.817   0.255  0.2756 -0.0049  0.3189
  664MPD2     H 9828   1.218   3.952   0.382 -0.1376 -2.2400  0.1053
  664MPD2    H1 9829   0.806   3.889   0.434  1.1843 -2.3109  1.2135
  664MPD2    H2 9830   0.979   3.758   0.080 -0.5128  0.1819  0.7702
  664MPD2    H3 9831   0.789   3.790   0.223 -0.4476  1.2399  1.5527
  664MPD2     N 9832   1.035   3.978   0.552  0.5636 -0.0186 -0.0067
  664MPD2    H5 9833   1.127   4.020   0.564  0.5311  0.1669 -0.4233
  664MPD2    N1 9834   1.229   3.873   0.125  0.2227  0.5711  0.2670
  664MPD2    H7 9835   1.311   3.923   0.159  0.1733  1.3853 -0.8130
  665TMC3    C1 9836   1.012   4.012   0.783 -0.1707  1.0087 -0.4550
  665TMC3    C2 9837   0.939   4.014   0.898  0.1038  0.6550 -0.3690
  665TMC3    C3 9838   1.008   4.023   1.014  0.0610  0.3107 -0.7804
  665TMC3    C4 9839   1.144   4.017   0.786 -0.2573 -0.2097 -0.0533
  665TMC3    C5 9840   1.207   4.033   0.906  0.2012  0.0119 -0.2891
  665TMC3    C6 9841   1.145   4.044   1.024  0.2872  0.5033  0.3218
  665TMC3     C 9842   0.952   3.956   0.664 -0.4220 -0.2237 -0.5814
  665TMC3     O 9843   0.841   3.905   0.676  0.0813 -0.3208 -0.3407
  665TMC3     H 9844   0.834   3.987   0.893  0.6805 -1.4806 -0.6752
  665TMC3    H1 9845   1.217   4.015   0.706 -0.3897  2.2657 -0.2451
  665TMC3    H2 9846   1.194   4.042   1.121  0.4290  0.9451  0.2585
  665TMC3    C7 9847   1.345   4.082   0.900 -0.7000  0.4878 -0.9281
  665TMC3    C8 9848   0.929   4.007   1.132  0.0105  0.2199 -0.5148
  665TMC3    O1 9849   1.424   4.040   0.815  0.0869 -0.1031  0.2371
  665TMC3    O2 9850   0.809   4.032   1.125  0.4367 -0.0883 -0.3905
  666TMC3    C1 9851   0.325   3.902  10.444 -0.4435 -0.4770  0.2434
  666TMC3    C2 9852   0.432   3.857  10.369 -0.1133 -0.9234  0.1474
  666TMC3    C3 9853   0.499   3.953  10.297  0.0303  0.2948  0.3350
  666TMC3    C4 9854   0.272   4.026  10.433 -0.3025 -0.1057 -0.1693
  666TMC3    C5 9855   0.334   4.119  10.353  0.3730 -0.4078 -0.1419
  666TMC3    C6 9856   0.453   4.081  10.288 -0.2418 -0.1643 -0.6418
  666TMC3     C 9857   0.310   3.846  10.579  0.5043  0.2692 -0.4482
  666TMC3     O 9858   0.249   3.905  10.665 -0.3541 -0.4278 -0.7323
  666TMC3     H 9859   0.480   3.760  10.368 -1.1035 -1.4064 -0.8603
  666TMC3    H1 9860   0.194   4.047  10.506  0.7019 -0.8734  1.1349
  666TMC3    H2 9861   0.512   4.152  10.230 -0.3931  2.6206  2.6354
  666TMC3    C7 9862   0.270   4.248  10.324  0.5652  0.9049 -0.0294
  666TMC3    C8 9863   0.640   3.936  10.307 -0.1093  0.4569  0.5614
  666TMC3    O1 9864   0.352   4.330  10.275 -0.1535  0.5414  0.5521
  666TMC3    O2 9865   0.672   3.906  10.421 -0.0550  0.6287 -0.3719
  667MPD2     C 9866   2.631   3.585  15.020  0.6421  0.3426  0.4076
  667MPD2    C1 9867   2.527   3.671  15.064  0.7710 -0.3884 -0.1135
  667MPD2    C2 9868   2.403   3.643  15.031 -0.6961  0.1211  0.0919
  667MPD2    C3 9869   2.368   3.533  14.951 -0.2576 -0.2072  0.5584
  667MPD2    C4 9870   2.467   3.450  14.915 -0.8197  0.4809 -0.0166
  667MPD2    C5 9871   2.600   3.473  14.951 -0.4633 -0.0700  0.2507
  667MPD2     H 9872   2.323   3.700  15.077 -1.6267 -2.0949  1.2668
  667MPD2    H1 9873   2.438   3.360  14.862  2.4867 -0.3146 -0.5002
  667MPD2    H2 9874   2.736   3.590  15.043  1.2418 -2.3779 -1.7043
  667MPD2    H3 9875   2.678   3.398  14.943 -1.0173 -0.4041 -2.0557
  667MPD2     N 9876   2.233   3.501  14.910  0.0808 -0.3373  0.1742
  667MPD2    H5 9877   2.211   3.410  14.870 -2.5368  0.6175 -0.6036
  667MPD2    N1 9878   2.549   3.775  15.161 -0.2919  0.0662 -0.1621
  667MPD2    H7 9879   2.467   3.828  15.188  0.0660 -0.0107  1.1103
  668TMC3    C1 9880   2.640   3.898  15.320  0.0852  0.5532  0.7357
  668TMC3    C2 9881   2.675   4.026  15.335  0.4441 -0.7956 -1.0789
  668TMC3    C3 9882   2.614   4.107  15.420  0.3496  0.3165 -0.4933
  668TMC3    C4 9883   2.559   3.839  15.412  0.2213 -0.3714 -0.0238
  668TMC3    C5 9884   2.488   3.917  15.497 -0.8477 -0.2921  0.0628
  668TMC3    C6 9885   2.515   4.053  15.505 -0.3663  0.0515 -0.2118
  668TMC3     C 9886   2.672   3.820  15.198  0.1083  0.3584 -0.0917
  668TMC3     O 9887   2.778   3.819  15.139 -0.1315  0.4178 -0.1295
  668TMC3     H 9888   2.743   4.068  15.261  0.7951  0.4100 -0.0771
  668TMC3    H1 9889   2.538   3.734  15.397 -0.3328 -0.3911  0.8633
  668TMC3    H2 9890   2.459   4.116  15.573 -1.6962 -0.5930 -0.7051
  668TMC3    C7 9891   2.385   3.867  15.591  0.0476  0.0234  0.3374
  668TMC3    C8 9892   2.603   4.244  15.379  0.0279 -0.3686 -0.3967
  668TMC3    O1 9893   2.340   3.951  15.669  0.2852  0.0343 -0.5494
  668TMC3    O2 9894   2.554   4.315  15.467  0.1067 -0.4391 -0.1482
  669TMC3    C1 9895   0.016   3.814  14.822  0.9014  0.1351 -0.1941
  669TMC3    C2 9896   4.635   3.851  14.744  0.0023 -0.5169  0.1603
  669TMC3    C3 9897   4.659   3.910  14.622  0.6569 -0.7417  0.1240
  669TMC3    C4 9898   0.149   3.838  14.778 -0.1836 -0.4772 -0.0373
  669TMC3    C5 9899   0.163   3.899  14.656  0.3750  0.0977 -0.2115
  669TMC3    C6 9900   0.062   3.935  14.578 -0.4148  0.0863  0.7566
  669TMC3     C 9901   4.718   3.712  14.917 -0.5889  0.3752 -0.5167
  669TMC3     O 9902   4.601   3.697  14.959 -0.4916  0.7813 -0.5242
  669TMC3     H 9903   4.534   3.846  14.782  0.0467 -0.5985  0.2665
  669TMC3    H1 9904   0.231   3.814  14.845  0.0468 -0.7312 -0.4158
  669TMC3    H2 9905   0.078   3.963  14.475 -0.1155 -0.1010  0.7517
  669TMC3    C7 9906   0.293   3.953  14.620 -0.0914  0.2002  0.0072
  669TMC3    C8 9907   4.556   3.886  14.518 -0.6194 -0.1073 -0.4780
  669TMC3    O1 9908   0.368   3.988  14.709  0.0428 -0.1982 -0.1393
  669TMC3    O2 9909   4.593   3.895  14.402 -0.3522  0.0573  0.0421
  670MPD2     C 9910   3.288   1.509  13.296  0.6054 -0.6264  0.7111
  670MPD2    C1 9911   3.354   1.551  13.407  0.0786 -0.0729  0.5995
  670MPD2    C2 9912   3.300   1.521  13.529  0.7035  0.0965  0.6636
  670MPD2    C3 9913   3.178   1.462  13.539  0.1678 -0.2637 -0.7020
  670MPD2    C4 9914   3.115   1.420  13.426 -0.0720  0.3924  0.7879
  670MPD2    C5 9915   3.177   1.435  13.310 -0.4481 -0.1772  0.4219
  670MPD2     H 9916   3.354   1.535  13.622  1.3429  1.0229  0.1502
  670MPD2    H1 9917   3.023   1.364  13.430  0.9806 -1.5059 -1.4596
  670MPD2    H2 9918   3.328   1.529  13.197  1.2248 -0.4274  1.0052
  670MPD2    H3 9919   3.120   1.412  13.221  0.0783  0.9280 -0.2078
  670MPD2     N 9920   3.134   1.442  13.667  0.1507  0.3749  0.0144
  670MPD2    H5 9921   3.194   1.468  13.745 -0.6658 -0.0385  0.7743
  670MPD2    N1 9922   3.479   1.619  13.399  0.4524 -0.3765  0.3508
  670MPD2    H7 9923   3.533   1.635  13.484  1.4442 -1.2955 -0.1018
  671TMC3    C1 9924   2.978   1.396  13.842 -0.0756  0.4538  0.3631
  671TMC3    C2 9925   3.072   1.444  13.934 -0.3399  0.3413 -0.0827
  671TMC3    C3 9926   3.039   1.442  14.068  0.1461 -0.8664 -1.1156
  671TMC3    C4 9927   2.861   1.342  13.886 -0.2267 -0.3859 -0.0336
  671TMC3    C5 9928   2.846   1.328  14.022 -1.1035  0.0866 -0.1501
  671TMC3    C6 9929   2.933   1.374  14.114  0.1518  0.5036  0.2901
  671TMC3     C 9930   3.008   1.395  13.698  0.3425  0.8670  0.5999
  671TMC3     O 9931   2.929   1.330  13.631  1.0639 -0.1502 -0.2802
  671TMC3     H 9932   3.155   1.506  13.903 -0.1252 -0.4627 -1.1238
  671TMC3    H1 9933   2.788   1.301  13.817  1.0615 -0.4714 -1.3693
  671TMC3    H2 9934   2.906   1.381  14.219 -1.5420  1.2605 -0.2006
  671TMC3    C7 9935   2.775   1.207  14.061 -0.8925 -0.1174 -0.3957
  671TMC3    C8 9936   3.165   1.396  14.129  0.4186  0.2050 -0.5220
  671TMC3    O1 9937   2.681   1.180  13.986  0.2988 -0.4472 -0.4595
  671TMC3    O2 9938   3.254   1.364  14.050  0.1679 -0.1214 -0.2200
  672MPD2     C 9939   4.489   2.536   1.208  0.5464  0.4805 -0.6379
  672MPD2    C1 9940   4.523   2.424   1.284 -0.0299  0.2289  0.3546
  672MPD2    C2 9941   4.649   2.374   1.267  0.1810  0.0106 -0.1635
  672MPD2    C3 9942   0.021   2.444   1.200  0.1898  0.2393  0.0009
  672MPD2    C4 9943   4.718   2.565   1.133  0.0582  0.2036  0.5424
  672MPD2    C5 9944   4.589   2.605   1.135 -0.2079  0.4697  0.4438
  672MPD2     H 9945   4.679   2.295   1.335 -2.7848 -0.7591  0.2363
  672MPD2    H1 9946   0.070   2.624   1.088  0.1229 -1.9100 -2.1867
  672MPD2    H2 9947   4.387   2.574   1.206  0.5959  0.4258 -4.7261
  672MPD2    H3 9948   4.572   2.697   1.079  0.8576 -0.6281 -1.6878
  672MPD2     N 9949   0.154   2.400   1.188 -0.3676  0.0682  0.3274
  672MPD2    H5 9950   0.217   2.459   1.134 -0.3345 -1.1324 -0.9742
  672MPD2    N1 9951   4.436   2.350   1.366 -0.5188  0.4403 -0.1110
  672MPD2    H7 9952   4.460   2.260   1.406  0.6090  1.1029  0.7046
  673TMC3    C1 9953   4.235   2.308   1.490 -0.3045  0.1052 -0.6600
  673TMC3    C2 9954   4.247   2.179   1.494  0.0568 -0.2686  0.3871
  673TMC3    C3 9955   4.143   2.113   1.542  0.1281  0.1157 -0.1968
  673TMC3    C4 9956   4.128   2.381   1.533  0.6183  0.3750  0.3500
  673TMC3    C5 9957   4.028   2.310   1.596  0.4182  0.7395 -0.7097
  673TMC3    C6 9958   4.033   2.170   1.598 -0.1810  0.0887 -0.3168
  673TMC3     C 9959   4.307   2.387   1.386 -0.0743  1.0384 -0.9921
  673TMC3     O 9960   4.239   2.483   1.350  0.3355  0.2546 -0.1685
  673TMC3     H 9961   4.322   2.121   1.441  0.5526  0.1160  0.6653
  673TMC3    H1 9962   4.137   2.488   1.547  0.8980  0.3917  0.0647
  673TMC3    H2 9963   3.949   2.112   1.635 -0.6418  0.1588 -1.2462
  673TMC3    C7 9964   3.896   2.370   1.611  0.3009  0.1405  1.2500
  673TMC3    C8 9965   4.132   1.969   1.513  0.2136  0.9068  0.6326
  673TMC3    O1 9966   3.816   2.303   1.679 -0.8256 -0.4786  0.4483
  673TMC3    O2 9967   4.026   1.922   1.480 -0.0022  0.5806  0.5020
  674MPD2     C 9968   3.464   1.160   0.147 -0.4836 -0.3575 -0.1321
  674MPD2    C1 9969   3.388   1.097   0.249 -0.1706  0.1669 -0.5124
  674MPD2    C2 9970   3.359   1.168   0.366  0.1821 -0.1383 -0.5941
  674MPD2    C3 9971   3.421   1.295   0.386  0.1560 -0.4115 -0.5453
  674MPD2    C4 9972   3.516   1.345   0.293 -0.5671  0.0935 -0.2987
  674MPD2    C5 9973   3.533   1.275   0.179  0.3412 -0.1567  0.0121
  674MPD2     H 9974   3.273   1.145   0.426  0.8735  1.0486  0.8499
  674MPD2    H1 9975   3.575   1.434   0.315  0.2757 -0.5600  0.0730
  674MPD2    H2 9976   3.480   1.122   0.046  1.3099  1.9358 -0.6851
  674MPD2    H3 9977   3.604   1.320   0.111 -2.4267  4.1512 -0.0422
  674MPD2     N 9978   3.384   1.366   0.503 -0.4756 -0.8906 -0.2031
  674MPD2    H5 9979   3.331   1.321   0.576 -0.6337 -1.0509 -0.4171
  674MPD2    N1 9980   3.330   0.975   0.206 -0.3241  0.5084  0.5562
  674MPD2    H7 9981   3.349   0.961   0.107  2.4095  1.3473  0.9491
  675TMC3    C1 9982   3.261   0.892   0.410  0.4227 -0.2287  0.2578
  675TMC3    C2 9983   3.143   0.893   0.474  0.0197 -0.4901  0.1996
  675TMC3    C3 9984   3.137   0.830   0.597 -0.5150  0.4738 -0.8072
  675TMC3    C4 9985   3.382   0.859   0.471  0.8770 -1.0289  0.1940
  675TMC3    C5 9986   3.370   0.788   0.586  0.3986  0.3094  0.3938
  675TMC3    C6 9987   3.247   0.766   0.647 -0.2166  0.0733  0.3431
  675TMC3     C 9988   3.255   0.883   0.273 -0.5759 -0.2095  1.0090
  675TMC3     O 9989   3.187   0.795   0.220 -0.3295 -0.7764  0.0570
  675TMC3     H 9990   3.054   0.935   0.429 -0.2877 -1.7304 -0.3588
  675TMC3    H1 9991   3.470   0.868   0.409  0.1493 -1.9277 -0.9754
  675TMC3    H2 9992   3.244   0.721   0.746  1.9517 -0.6449  0.0791
  675TMC3    C7 9993   3.474   0.800   0.687  0.3290  0.3083 -0.8477
  675TMC3    C8 9994   3.057   0.902   0.694  0.2194  0.1672 -0.2720
  675TMC3    O1 9995   3.446   0.786   0.802 -0.1098 -0.3711  0.0312
  675TMC3    O2 9996   2.959   0.964   0.655  1.2098 -0.1317  0.4831
  676MPD2     C 9997   1.702   0.219  11.159  0.0311 -0.3514  0.6581
  676MPD2    C1 9998   1.563   0.218  11.177 -0.5481 -0.5696 -0.3440
  676MPD2    C2 9999   1.497   0.098  11.188  0.3043  0.8798  0.4912
  676MPD2    C310000   1.569   4.709  11.187 -0.4779 -0.4213  0.3567
  676MPD2    C410001   1.710   4.711  11.179  0.6545  0.4673 -0.1144
  676MPD2    C510002   1.769   0.106  11.166 -0.5037  0.2312  0.0730
  676MPD2     H10003   1.389   0.099  11.201  0.0495 -2.0026 -1.2943
  676MPD2    H110004   1.772   4.622  11.176  0.9428  0.6876 -0.6566
  676MPD2    H210005   1.765   0.306  11.155  1.4414 -1.4115 -0.2305
  676MPD2    H310006   1.876   0.121  11.169 -0.3509 -0.9977  0.8587
  676MPD2     N10007   1.508   4.586  11.217 -0.1630  0.1099 -0.4139
  676MPD2    H510008   1.574   4.509  11.212  0.5776  0.5028  3.0552
  676MPD2    N110009   1.486   0.333  11.175  0.1908  0.0473 -0.6020
  676MPD2    H710010   1.385   0.329  11.190  0.1686 -1.6883 -1.2063
  677TMC3    C110011   1.417   0.553  11.188 -0.1531  0.6845  0.1211
  677TMC3    C210012   1.290   0.503  11.166  0.0241 -0.4065 -0.2469
  677TMC3    C310013   1.192   0.551  11.246  0.3836  0.2071  0.2701
  677TMC3    C410014   1.443   0.666  11.260  0.7197  0.9782  0.0371
  677TMC3    C510015   1.334   0.730  11.312 -0.2974  0.0887 -0.0592
  677TMC3    C610016   1.218   0.669  11.320  0.3792  0.7712 -1.1383
  677TMC3     C10017   1.527   0.465  11.170 -0.0609 -0.0927  0.1625
  677TMC3     O10018   1.635   0.512  11.187 -0.3272  0.3763 -0.3150
  677TMC3     H10019   1.269   0.412  11.110 -0.0958  0.0488 -0.9427
  677TMC3    H110020   1.541   0.705  11.282 -0.3245  2.2167  2.5504
  677TMC3    H210021   1.132   0.719  11.365  0.4342  0.9976 -1.2843
  677TMC3    C710022   1.337   0.864  11.363  0.4230  0.3278  0.0963
  677TMC3    C810023   1.137   0.444  11.325  0.2443  0.2034  0.3579
  677TMC3    O110024   1.226   0.917  11.380 -1.2410 -0.3811  0.2986
  677TMC3    O210025   1.183   0.331  11.297 -0.1499 -0.2057  0.3256
  678MPD2     C10026   2.748   4.683   1.995  0.5472 -0.3285  1.0190
  678MPD2    C110027   2.781   4.720   1.867 -0.0570 -0.2554 -0.1908
  678MPD2    C210028   2.682   0.014   1.773  0.0499 -0.2404  0.0146
  678MPD2    C310029   2.550   4.726   1.808  0.0270  0.5282  0.1945
  678MPD2    C410030   2.520   4.686   1.939 -0.2970  0.2399 -0.0501
  678MPD2    C510031   2.620   4.670   2.034 -0.7078  0.0552 -0.5688
  678MPD2     H10032   2.700   0.037   1.669  0.4593  0.2564  0.1973
  678MPD2    H110033   2.416   4.687   1.970  0.1137  0.6379  1.3255
  678MPD2    H210034   2.828   4.663   2.066  1.9139  1.4596 -0.0253
  678MPD2    H310035   2.601   4.652   2.139 -0.2091 -0.1361 -0.5122
  678MPD2     N10036   2.454   0.024   1.710 -0.1024 -0.4936  0.2223
  678MPD2    H510037   2.475   0.040   1.613  0.6771  0.6439  0.5834
  678MPD2    N110038   2.916   0.007   1.824  0.4607 -0.4895 -0.5695
  678MPD2    H710039   2.928   0.041   1.729 -2.1718  1.8420 -0.0602
  679TMC3    C110040   3.346   4.705   1.706  0.1035  1.0193 -0.3613
  679TMC3    C210041   3.248   4.671   1.795 -0.1573 -0.1673  0.2548
  679TMC3    C310042   3.146   0.032   1.823  0.1645 -0.2099 -0.5463
  679TMC3    C410043   3.350   0.107   1.653  0.1570 -0.2718  0.4215
  679TMC3    C510044   3.248   0.192   1.685 -0.4124  0.4587 -0.4818
  679TMC3    C610045   3.137   0.152   1.760 -0.7290 -0.3405  0.1423
  679TMC3     C10046   3.373   4.598   1.613  0.2433  0.3304 -0.5882
  679TMC3     O10047   3.315   4.494   1.637 -0.2420 -0.0704  0.2792
  679TMC3     H10048   3.247   4.571   1.836 -4.2309 -1.1496 -2.2611
  679TMC3    H110049   3.423   0.151   1.586  0.4717  0.5999  1.3369
  679TMC3    H210050   3.057   0.223   1.780 -1.5658 -1.3389  0.3598
  679TMC3    C710051   3.228   0.309   1.612 -0.4877 -0.6705  0.4343
  679TMC3    C810052   3.031   4.702   1.893 -0.2624  0.5316  0.6813
  679TMC3    O110053   3.285   0.311   1.502 -0.2252 -0.1310 -0.5099
  679TMC3    O210054   3.046   4.632   1.990 -0.0237  0.2631  0.1939
  680MPD2     C10055   2.951   3.262  13.583 -0.3898 -0.8885  0.4103
  680MPD2    C110056   3.028   3.236  13.691  0.2491  0.5980  0.1143
  680MPD2    C210057   3.024   3.325  13.798 -0.4601  0.3207  0.2884
  680MPD2    C310058   2.945   3.438  13.798 -0.6452  0.3698  0.7675
  680MPD2    C410059   2.861   3.459  13.695  0.6476  0.2393  0.0261
  680MPD2    C510060   2.860   3.369  13.595 -0.7829  0.5713 -0.6320
  680MPD2     H10061   3.083   3.296  13.884 -1.3188  0.6739  1.0049
  680MPD2    H110062   2.792   3.542  13.700 -1.0527 -1.2625  1.9317
  680MPD2    H210063   2.947   3.213  13.487  0.2550 -0.6037  0.2315
  680MPD2    H310064   2.793   3.396  13.514 -0.6154 -0.4027 -1.1016
  680MPD2     N10065   2.943   3.540  13.895  0.5174  0.0154  0.6086
  680MPD2    H510066   2.894   3.626  13.876 -1.0594 -0.5789  2.0110
  680MPD2    N110067   3.118   3.129  13.700 -0.1514  0.0898 -0.3677
  680MPD2    H710068   3.173   3.119  13.785 -1.3238  0.4149  0.4281
  681TMC3    C110069   3.217   2.933  13.653 -0.2597  0.0084  0.4000
  681TMC3    C210070   3.228   2.911  13.788 -0.0073 -0.1633  0.4276
  681TMC3    C310071   3.331   2.829  13.827 -0.3245 -0.4060 -0.2485
  681TMC3    C410072   3.303   2.876  13.561 -0.0855 -0.6649  0.3947
  681TMC3    C510073   3.412   2.807  13.609  0.2487  0.3037 -0.6285
  681TMC3    C610074   3.425   2.786  13.740  0.0269  0.8563 -0.3265
  681TMC3     C10075   3.119   3.026  13.608  0.0003 -0.1932 -0.8084
  681TMC3     O10076   3.051   3.000  13.512  0.4296  0.0182  0.0528
  681TMC3     H10077   3.160   2.955  13.861  0.4095  0.9611  0.1347
  681TMC3    H110078   3.285   2.906  13.458  1.5264  1.2606  0.6745
  681TMC3    H210079   3.497   2.719  13.785 -0.3481 -0.2040 -1.3070
  681TMC3    C710080   3.531   2.784  13.527 -0.4852 -0.1200  0.5426
  681TMC3    C810081   3.347   2.788  13.964 -0.3996  0.7694 -0.0843
  681TMC3    O110082   3.613   2.701  13.575 -0.2888  0.3596 -0.4058
  681TMC3    O210083   3.375   2.671  13.990  0.2549  0.0882 -0.5680
  682MPD2     C10084   0.252   0.599  10.731  0.2314 -0.3359 -0.2693
  682MPD2    C110085   0.274   0.465  10.702  0.4580  0.1156  0.4283
  682MPD2    C210086   0.307   0.382  10.809 -0.0640 -0.5433 -0.0441
  682MPD2    C310087   0.332   0.429  10.936  0.3293  0.5447 -0.6970
  682MPD2    C410088   0.308   0.563  10.963  0.2876  0.2290  0.6196
  682MPD2    C510089   0.259   0.644  10.862 -0.8833 -0.3688  0.1225
  682MPD2     H10090   0.318   0.277  10.788 -0.5087 -0.2661 -1.6310
  682MPD2    H110091   0.312   0.592  11.067 -1.4472  0.3212  0.6623
  682MPD2    H210092   0.225   0.674  10.658  0.9487 -0.5344 -0.7419
  682MPD2    H310093   0.228   0.744  10.888  1.6995  0.0524  1.6181
  682MPD2     N10094   0.389   0.359  11.048  0.7958 -0.2157  0.1437
  682MPD2    H510095   0.392   0.402  11.140 -1.4369 -0.8045  0.5082
  682MPD2    N110096   0.257   0.405  10.573  0.4211  0.6367 -0.1753
  682MPD2    H710097   0.243   0.307  10.553 -0.1834  0.3069  1.9316
  683TMC3    C110098   0.520   0.184  11.412  0.7061  0.5206  0.0508
  683TMC3    C210099   0.565   0.057  11.409 -0.0227  0.8032  0.6487
  683TMC3    C310100   0.549   4.720  11.288  0.6188 -0.0864 -0.4352
  683TMC3    C410101   0.462   0.241  11.301 -0.2530  0.8016 -0.2903
  683TMC3    C510102   0.449   0.174  11.178  0.2874 -0.0157  0.1023
  683TMC3    C610103   0.485   0.045  11.180 -0.0338 -0.3620  0.0136
  683TMC3     C10104   0.554   0.267  11.535  0.6803 -0.3876  0.1350
  683TMC3     O10105   0.558   0.209  11.641 -0.3458  0.2583  0.0116
  683TMC3     H10106   0.618   0.024  11.498 -0.9315  0.5716  1.1002
  683TMC3    H110107   0.425   0.342  11.309 -2.6633 -0.2427  1.6549
  683TMC3    H210108   0.487   4.710  11.091  2.6061  1.2429 -1.0116
  683TMC3    C710109   0.403   0.222  11.052 -0.0944  0.3901  0.3250
  683TMC3    C810110   0.548   4.580  11.298  0.1995 -0.8707 -0.1353
  683TMC3    O110111   0.393   0.143  10.959 -0.4800  0.4559 -0.7111
  683TMC3    O210112   0.542   4.523  11.189 -0.5672 -0.0251 -0.1847
  684MPD2     C10113   3.538   3.961  16.965 -0.7275 -0.1214 -0.5607
  684MPD2    C110114   3.457   4.005  16.862 -0.1239  0.3214 -0.3924
  684MPD2    C210115   3.411   4.137  16.864  0.1316 -0.1468 -0.2218
  684MPD2    C310116   3.462   4.223  16.955 -0.1065  0.1168 -0.2430
  684MPD2    C410117   3.550   4.182  17.049  0.6100 -0.4212 -0.2317
  684MPD2    C510118   3.583   4.046  17.063 -0.4617 -0.4434 -0.5634
  684MPD2     H10119   3.344   4.162  16.782  1.7755  0.6381 -1.3374
  684MPD2    H110120   3.596   4.249  17.121 -0.2687  0.3675 -0.3957
  684MPD2    H210121   3.585   3.863  16.969 -0.8169 -0.0320  2.2784
  684MPD2    H310122   3.651   4.008  17.138 -0.5406 -2.8187 -1.7006
  684MPD2     N10123   3.435   4.365  16.952 -0.6459  0.2925 -0.5846
  684MPD2    H510124   3.476   4.423  17.025 -1.9378  2.3082 -1.4720
  684MPD2    N110125   3.428   3.931  16.745 -0.4466 -0.6591  0.0161
  684MPD2    H710126   3.388   3.979  16.665 -0.3298 -0.4758  0.0695
  685TMC3    C110127   3.464   3.767  16.581 -0.7484  1.0405  0.6211
  685TMC3    C210128   3.448   3.863  16.486  0.1536 -1.2701 -0.5798
  685TMC3    C310129   3.488   3.835  16.359 -0.3394  0.3755  0.4085
  685TMC3    C410130   3.532   3.654  16.553 -0.7445 -0.1963  0.5781
  685TMC3    C510131   3.582   3.638  16.428  0.2574 -0.3027 -0.5463
  685TMC3    C610132   3.561   3.723  16.326 -0.1134 -1.1042  0.3624
  685TMC3     C10133   3.486   3.808  16.726  0.0025 -0.4607  0.3519
  685TMC3     O10134   3.534   3.729  16.800 -0.3238  0.0340  0.1206
  685TMC3     H10135   3.406   3.958  16.519 -0.5981 -1.9601  0.4605
  685TMC3    H110136   3.548   3.579  16.630 -0.5944 -1.7758 -0.9768
  685TMC3    H210137   3.605   3.720  16.227 -0.2489 -0.5107  0.2871
  685TMC3    C710138   3.697   3.542  16.414 -0.2848 -0.0192  0.5296
  685TMC3    C810139   3.426   3.908  16.248  0.9578 -0.5818 -0.3028
  685TMC3    O110140   3.685   3.446  16.486 -0.1591 -0.1787 -0.0093
  685TMC3    O210141   3.495   3.896  16.146 -0.4011  0.3234  0.4501
  686MPD2     C10142   0.086   4.040  15.722  0.1071 -0.2388  0.0140
  686MPD2    C110143   0.104   3.931  15.807  0.3638 -0.7607  0.3532
  686MPD2    C210144   0.114   3.816  15.743 -0.4890 -0.5626  0.2495
  686MPD2    C310145   0.100   3.797  15.607 -0.6286  0.4134  0.0237
  686MPD2    C410146   0.091   3.902  15.527 -0.5438 -0.3278 -1.1274
  686MPD2    C510147   0.084   4.028  15.584 -0.6954  0.4971  0.5602
  686MPD2     H10148   0.124   3.720  15.791  2.2675 -0.3206  0.1833
  686MPD2    H110149   0.090   3.897  15.419 -1.6596 -0.0733 -1.1270
  686MPD2    H210150   0.070   4.138  15.765 -0.4824 -0.7982  1.0361
  686MPD2    H310151   0.094   4.117  15.523 -2.3159  0.0922 -0.3187
  686MPD2     N10152   0.110   3.660  15.552  0.0490  0.0694  0.1247
  686MPD2    H510153   0.132   3.657  15.453 -0.2497 -1.0609  0.0952
  686MPD2    N110154   0.096   3.940  15.949 -0.3234 -0.1565 -0.5673
  686MPD2    H710155   0.096   4.034  15.989 -0.3705 -0.8027  0.9654
  687TMC3    C110156   4.720   3.530  15.719  0.4199  0.5996 -0.1206
  687TMC3    C210157   4.613   3.611  15.733  0.5682 -0.1577  0.0394
  687TMC3    C310158   4.534   3.609  15.848 -0.1829  0.3762 -0.2478
  687TMC3    C410159   0.027   3.434  15.817 -0.0888 -0.2321  0.7551
  687TMC3    C510160   4.666   3.426  15.924  0.5048  0.1232 -0.2852
  687TMC3    C610161   4.553   3.502  15.934 -0.2140  0.4919  0.7285
  687TMC3     C10162   0.102   3.546  15.617  0.8196  0.7914 -0.3333
  687TMC3     O10163   0.143   3.442  15.576 -0.4095 -0.2101 -0.2302
  687TMC3     H10164   4.591   3.687  15.660 -0.6941  0.8372  1.4569
  687TMC3    H110165   0.118   3.377  15.803 -0.2050 -0.0936 -0.5322
  687TMC3    H210166   4.479   3.488  16.012 -0.6522 -0.2185  0.1894
  687TMC3    C710167   0.003   3.403  16.051  0.5946  0.0200 -0.2847
  687TMC3    C810168   4.468   3.737  15.898 -0.4012 -0.7931 -0.3066
  687TMC3    O110169   4.693   3.473  16.146  0.3468 -0.2220  0.1289
  687TMC3    O210170   4.433   3.733  16.012 -0.6507  0.0149 -0.4438
  688MPD2     C10171   4.209   2.690  17.625  0.0123 -0.2795 -0.6310
  688MPD2    C110172   4.228   2.565  17.688 -0.2233  0.1107  0.2015
  688MPD2    C210173   4.326   2.481  17.634  0.2751 -0.5610  0.1298
  688MPD2    C310174   4.403   2.523  17.521 -0.1278  0.5250 -1.1479
  688MPD2    C410175   4.385   2.650  17.467  0.8528  0.4816 -1.2250
  688MPD2    C510176   4.293   2.727  17.523 -0.2345  0.6548 -0.0032
  688MPD2     H10177   4.340   2.383  17.678  0.3747 -0.0707  1.1893
  688MPD2    H110178   4.426   2.690  17.375 -1.1555  0.6064 -2.0674
  688MPD2    H210179   4.138   2.767  17.650 -0.3358 -0.4351 -1.1440
  688MPD2    H310180   4.283   2.826  17.480 -0.0532 -0.8919 -3.5997
  688MPD2     N10181   4.489   2.439  17.456  0.1008  0.0225  0.0270
  688MPD2    H510182   4.519   2.479  17.368  0.3724 -1.7159 -0.6886
  688MPD2    N110183   4.151   2.521   0.090  0.1284 -0.1930  0.1803
  688MPD2    H710184   4.174   2.428   0.124  1.2931 -0.6266 -1.8025
  689TMC3    C110185   4.025   2.547   0.283  0.1362 -0.2902 -0.8934
  689TMC3    C210186   4.024   2.634   0.382  0.0169 -0.0765  0.3513
  689TMC3    C310187   4.002   2.576   0.504  0.1080  0.1269  0.4882
  689TMC3    C410188   3.976   2.424   0.275  0.8814 -0.1369  0.3477
  689TMC3    C510189   3.951   2.370   0.396  0.4665  0.2482  0.1135
  689TMC3    C610190   3.967   2.441   0.515 -0.2838  0.2130  0.6870
  689TMC3     C10191   4.063   2.603   0.159 -0.2448  0.4327 -0.1567
  689TMC3     O10192   4.027   2.719   0.140 -0.3170  0.0734 -0.0651
  689TMC3     H10193   4.073   2.731   0.375 -0.5841  0.2024 -0.0105
  689TMC3    H110194   3.969   2.362   0.186 -1.5688  1.5107 -0.5944
  689TMC3    H210195   3.966   2.394   0.612 -2.0361 -1.2783 -0.0399
  689TMC3    C710196   3.856   2.262   0.407  0.6046 -0.5584  0.3166
  689TMC3    C810197   4.083   2.640   0.606 -0.4144  0.4813  0.3167
  689TMC3    O110198   3.853   2.225   0.524  0.1285 -0.5071  0.7644
  689TMC3    O210199   4.137   2.747   0.577  0.1899 -0.3198  0.0421
  690MPD2     C10200   1.006   4.695  15.423  0.4924  1.1225  0.5492
  690MPD2    C110201   1.019   4.653  15.552 -0.2498  0.2590 -0.7166
  690MPD2    C210202   1.148   4.641  15.610  0.3335 -0.4799  0.2810
  690MPD2    C310203   1.265   4.669  15.538 -0.3518  0.5232 -0.1649
  690MPD2    C410204   1.244   4.719  15.417  0.0188  0.0101  0.2014
  690MPD2    C510205   1.124   0.001  15.357 -0.3218 -0.2175  0.1315
  690MPD2     H10206   1.167   4.592  15.705 -0.2221 -2.0014 -0.4073
  690MPD2    H110207   1.327   0.026  15.355 -0.7799  1.2563 -0.1974
  690MPD2    H210208   0.910   4.724  15.381 -0.9343 -3.5269  0.6698
  690MPD2    H310209   1.125   0.040  15.256  0.9678  0.8901  0.5767
  690MPD2     N10210   1.392   4.648  15.599  0.1940  0.0182  0.6997
  690MPD2    H510211   1.385   4.607  15.692 -0.0417 -1.4689  0.0087
  690MPD2    N110212   0.901   4.624  15.624  0.1726  0.5659 -0.1322
  690MPD2    H710213   0.816   4.621  15.569  0.8330  0.1938 -1.1278
  691TMC3    C110214   0.772   4.572  15.817 -0.3204 -0.3589 -0.1340
  691TMC3    C210215   0.662   4.576  15.737  0.2059 -0.1136  0.4181
  691TMC3    C310216   0.549   4.509  15.779  0.2837 -0.0548 -0.6914
  691TMC3    C410217   0.771   4.501  15.936 -0.4710  0.2660 -0.1542
  691TMC3    C510218   0.662   4.430  15.974 -0.1273 -0.0870  0.5581
  691TMC3    C610219   0.551   4.429  15.888 -0.1026  0.3710  0.1413
  691TMC3     C10220   0.901   4.604  15.763  0.0991  0.4256  0.3588
  691TMC3     O10221   0.995   4.606  15.844  0.0723  0.2879  0.4381
  691TMC3     H10222   0.659   4.635  15.646 -0.7894 -1.2530 -0.2919
  691TMC3    H110223   0.863   4.489  15.993  0.3826  0.8484 -1.3865
  691TMC3    H210224   0.463   4.367  15.907  1.2337 -1.3378  0.7493
  691TMC3    C710225   0.677   4.321  16.064  0.0009  0.4338  0.2970
  691TMC3    C810226   0.422   4.518  15.710  0.0558 -0.0480  0.3079
  691TMC3    O110227   0.743   4.335  16.167  0.0673 -0.1823  0.2709
  691TMC3    O210228   0.417   4.509  15.587 -0.2673 -0.1611  0.5274
  692TMC3    C110229   3.065   0.945  16.199  0.2204  0.3277  1.0144
  692TMC3    C210230   3.189   0.992  16.217 -0.1681  0.2775  0.1063
  692TMC3    C310231   3.294   0.909  16.227  0.4695 -0.2671 -0.1934
  692TMC3    C410232   3.041   0.813  16.188  0.5205  0.4410 -0.0086
  692TMC3    C510233   3.142   0.729  16.217  0.3538 -0.5578  1.0269
  692TMC3    C610234   3.266   0.774  16.226  0.2269 -0.3352  0.0864
  692TMC3     C10235   2.957   1.045  16.187  0.3263  0.3045 -0.5406
  692TMC3     O10236   2.841   1.004  16.179  0.3014 -0.0328 -0.4838
  692TMC3     H10237   3.207   1.088  16.264 -1.1999 -0.3023  1.6802
  692TMC3    H110238   2.940   0.773  16.188  0.6808  0.0225  0.6746
  692TMC3    H210239   3.343   0.704  16.256 -0.2006 -0.1983  1.4832
  692TMC3    C710240   3.125   0.590  16.199  0.3179  0.1708  0.0225
  692TMC3    C810241   3.375   0.943  16.344 -0.7512 -0.3516  0.6478
  692TMC3    O110242   3.050   0.546  16.114  0.1111 -0.4012  0.0221
  692TMC3    O210243   3.353   0.873  16.440  0.3448 -0.0712 -0.5783
  693MPD2     C10244   2.539   4.214  11.007 -0.3948  0.0536  0.7743
  693MPD2    C110245   2.559   4.084  10.973  0.0482 -0.0661 -0.1526
  693MPD2    C210246   2.687   4.035  10.959 -0.2186 -0.5711 -0.0571
  693MPD2    C310247   2.797   4.114  10.984 -0.8221  0.6203  0.2253
  693MPD2    C410248   2.776   4.247  11.009  0.1601  0.3980  0.7498
  693MPD2    C510249   2.643   4.298  11.015  0.4003 -0.0457 -0.5933
  693MPD2     H10250   2.703   3.928  10.947 -1.1144 -0.8947  1.6553
  693MPD2    H110251   2.860   4.308  11.039 -0.0157  0.1950  1.6693
  693MPD2    H210252   2.437   4.249  11.004  0.1669  1.6421 -0.2998
  693MPD2    H310253   2.628   4.402  11.041 -1.1467  0.3288 -2.9026
  693MPD2     N10254   2.928   4.059  11.001 -0.6342 -0.2735  0.5882
  693MPD2    H510255   3.006   4.113  11.037 -0.9205  0.7800 -0.3934
  693MPD2    N110256   2.448   4.003  10.956  0.4795  0.1364 -0.4894
  693MPD2    H710257   2.361   4.054  10.964  0.1137 -0.4265 -0.8551
  694TMC3    C110258   2.303   3.816  10.964  0.7308 -0.2200 -0.0064
  694TMC3    C210259   2.266   3.711  10.886 -0.2237  0.3338  0.2238
  694TMC3    C310260   2.153   3.650  10.939 -0.1199  0.2552 -0.0058
  694TMC3    C410261   2.242   3.857  11.084  0.7097 -0.1274 -0.3219
  694TMC3    C510262   2.143   3.770  11.135 -0.0610  0.4227  0.1070
  694TMC3    C610263   2.082   3.677  11.050 -0.4017  0.5758  0.1067
  694TMC3     C10264   2.438   3.866  10.941  0.3149  0.5858  0.3420
  694TMC3     O10265   2.521   3.790  10.905  0.3298 -0.2370  0.5441
  694TMC3     H10266   2.310   3.687  10.790 -0.4323  0.2600  0.1443
  694TMC3    H110267   2.289   3.934  11.144 -0.7332 -1.4671  2.5470
  694TMC3    H210268   1.983   3.637  11.063  0.1007 -0.1047  1.9007
  694TMC3    C710269   2.083   3.810  11.265 -0.3270  0.5408  0.5139
  694TMC3    C810270   2.092   3.551  10.854 -0.0543 -0.6025 -0.2869
  694TMC3    O110271   2.117   3.918  11.319  0.2890 -0.0026  0.1681
  694TMC3    O210272   2.016   3.469  10.907 -0.3977  0.0074 -0.3189
  695MPD2     C10273   3.265   0.998  13.777 -0.4149 -0.0937 -0.1932
  695MPD2    C110274   3.212   0.908  13.862  0.7560  0.2365 -0.2151
  695MPD2    C210275   3.079   0.886  13.871 -0.4767 -0.0530 -0.5155
  695MPD2    C310276   2.992   0.960  13.799 -0.4155  0.1677 -0.1400
  695MPD2    C410277   3.040   1.043  13.697 -0.2995 -0.4317  0.9304
  695MPD2    C510278   3.177   1.064  13.697  0.1133 -0.3195 -0.7975
  695MPD2     H10279   3.045   0.813  13.944  1.6387  0.0375  0.5608
  695MPD2    H110280   2.978   1.107  13.636 -0.8312  1.7963  3.7894
  695MPD2    H210281   3.371   1.019  13.773 -0.3612 -0.3472 -0.0850
  695MPD2    H310282   3.203   1.140  13.624 -0.8317 -2.4231 -3.3166
  695MPD2     N10283   2.856   0.947  13.823 -0.0006 -0.0815 -0.3603
  695MPD2    H510284   2.840   0.886  13.902 -0.0999  1.0032  0.4499
  695MPD2    N110285   3.299   0.856  13.959  1.1016 -0.0878  0.0813
  695MPD2    H710286   3.254   0.797  14.029  0.5072  0.6749  0.3347
  696TMC3    C110287   2.620   0.949  13.785 -0.0532 -0.3917  0.3334
  696TMC3    C210288   2.613   0.834  13.868  0.3660 -0.5485 -0.8168
  696TMC3    C310289   2.498   0.817  13.936  1.0283  0.3041 -0.2371
  696TMC3    C410290   2.515   1.037  13.765 -0.2796 -0.4212  0.6457
  696TMC3    C510291   2.404   1.022  13.838  0.0750  0.4056 -0.4985
  696TMC3    C610292   2.395   0.914  13.930 -0.2573 -1.1399  0.4836
  696TMC3     C10293   2.752   0.988  13.740 -0.6044 -0.1324 -0.2392
  696TMC3     O10294   2.748   1.060  13.642  0.2504 -0.1254  0.3949
  696TMC3     H10295   2.694   0.763  13.869  0.6969 -0.1617 -0.2128
  696TMC3    H110296   2.535   1.130  13.714 -2.3077 -1.6814 -2.4298
  696TMC3    H210297   2.311   0.900  13.998  0.6469 -2.3648  1.3285
  696TMC3    C710298   2.327   1.142  13.875 -0.1394 -1.1707 -0.1271
  696TMC3    C810299   2.477   0.737  14.059  0.6629  0.1653 -0.4563
  696TMC3    O110300   2.207   1.140  13.849 -0.0051 -0.0078 -0.5963
  696TMC3    O210301   2.366   0.682  14.067 -0.0128 -0.0049 -0.2675
  697MPD2     C10302   2.704   2.602  16.047 -0.0376 -0.3612 -0.2099
  697MPD2    C110303   2.756   2.563  15.927  0.0479  0.2789 -0.3425
  697MPD2    C210304   2.793   2.663  15.841  0.3454 -0.5941 -0.1431
  697MPD2    C310305   2.769   2.792  15.873 -0.3066 -0.3490  0.9187
  697MPD2    C410306   2.708   2.826  15.989  0.4858  0.0386  0.4820
  697MPD2    C510307   2.683   2.732  16.083  0.2362  0.3234  0.1625
  697MPD2     H10308   2.854   2.652  15.752 -1.0005 -1.8280 -0.9036
  697MPD2    H110309   2.686   2.929  16.014  1.2149  0.3045  0.0040
  697MPD2    H210310   2.661   2.529  16.114 -0.9312  3.1482  3.0503
  697MPD2    H310311   2.625   2.750  16.173 -0.1747  0.6741 -0.1737
  697MPD2     N10312   2.812   2.894  15.780  0.5698  0.4142  0.7104
  697MPD2    H510313   2.844   2.865  15.689  0.4492 -0.8479  1.0742
  697MPD2    N110314   2.769   2.424  15.901  0.1970  0.6932  0.7279
  697MPD2    H710315   2.790   2.409  15.803  1.4039  0.2402  1.0652
  698TMC3    C110316   2.813   3.113  15.678  0.1947 -0.3066 -0.2762
  698TMC3    C210317   2.878   3.231  15.710  0.8247  0.3551 -0.2772
  698TMC3    C310318   2.959   3.276  15.625 -0.1366  0.0598  0.0268
  698TMC3    C410319   2.829   3.047  15.558 -0.1558  0.1278  0.4677
  698TMC3    C510320   2.925   3.105  15.473 -0.2225 -0.2029 -0.6141
  698TMC3    C610321   2.991   3.218  15.505 -0.1737  0.1092 -0.5875
  698TMC3     C10322   2.789   3.030  15.796  0.1557 -0.4105 -0.2944
  698TMC3     O10323   2.768   3.095  15.901 -0.3265 -0.6751  0.9157
  698TMC3     H10324   2.867   3.268  15.811 -0.0291 -1.2850  0.2311
  698TMC3    H110325   2.768   2.959  15.541  1.7892 -1.2707  0.6865
  698TMC3    H210326   3.068   3.258  15.441 -1.3479  3.2032 -0.0975
  698TMC3    C710327   2.928   3.046  15.346  0.9364 -0.6903  0.6989
  698TMC3    C810328   3.019   3.406  15.656 -0.9189  0.4823  0.9838
  698TMC3    O110329   2.847   2.957  15.325  0.4386 -0.4887 -0.1707
  698TMC3    O210330   2.995   3.455  15.767  0.0655  0.2789 -0.4748
  699TMC3    C110331   2.547   1.093  13.248  0.4738  0.4498 -0.7531
  699TMC3    C210332   2.608   0.972  13.290  0.5286  0.1318  0.2191
  699TMC3    C310333   2.541   0.902  13.391  0.3326  0.7246 -0.2557
  699TMC3    C410334   2.416   1.124  13.267  0.3537 -0.4556 -0.2118
  699TMC3    C510335   2.349   1.048  13.365  0.0656 -0.3073  0.3230
  699TMC3    C610336   2.412   0.936  13.424  0.4017 -0.2089 -0.4083
  699TMC3     C10337   2.620   1.179  13.162  0.0764  0.9599  0.2340
  699TMC3     O10338   2.547   1.241  13.080  0.1447  0.0746 -0.5344
  699TMC3     H10339   2.709   0.949  13.257  0.1010 -2.7767  0.9554
  699TMC3    H110340   2.380   1.219  13.229 -1.4295 -1.7536 -1.7677
  699TMC3    H210341   2.351   0.876  13.491 -0.2808  2.7286  1.6432
  699TMC3    C710342   2.199   1.069  13.380 -0.4232 -0.1964  0.3636
  699TMC3    C810343   2.607   0.787  13.446 -0.5539 -0.7605  0.1566
  699TMC3    O110344   2.146   1.042  13.489  0.2297 -0.2602 -0.1119
  699TMC3    O210345   2.526   0.711  13.503  0.0836 -0.6284 -0.2166
  700TMC3    C110346   1.423   3.080  17.527 -0.2492 -0.2035 -0.1354
  700TMC3    C210347   1.495   2.961  17.523  0.0346  0.4350 -0.2543
  700TMC3    C310348   1.588   2.937  17.620  0.8737 -0.9698  0.5214
  700TMC3    C410349   1.447   3.173  17.623  0.2509 -0.1606  0.5783
  700TMC3    C510350   1.545   3.146   0.006 -0.4195  0.1022  0.1411
  700TMC3    C610351   1.624   3.035   0.004  0.0495 -0.6413 -0.6034
  700TMC3     C10352   1.393   3.134  17.394  0.5510 -0.1450  0.2882
  700TMC3     O10353   1.371   3.048  17.313 -0.2299  0.3362  0.2105
  700TMC3     H10354   1.479   2.896  17.437 -1.4249 -0.1517  0.4589
  700TMC3    H110355   1.393   3.267  17.621  0.8535  0.1654 -0.6252
  700TMC3    H210356   1.696   3.016   0.083 -1.6169  1.6160  1.4571
  700TMC3    C710357   1.598   3.259   0.082  0.3709  0.6464 -0.6048
  700TMC3    C810358   1.689   2.836  17.599 -0.0857 -0.1333  0.0435
  700TMC3    O110359   1.714   3.257   0.119  0.6834 -0.2843  0.5906
  700TMC3    O210360   1.801   2.856  17.639 -0.2490  0.0505  0.1631
  701TMC3    C110361   1.915   1.735  15.818 -0.0158  0.4090 -0.1464
  701TMC3    C210362   1.901   1.670  15.695  0.0655 -0.5405  0.4618
  701TMC3    C310363   1.981   1.722  15.597 -0.0585 -0.4373  0.3641
  701TMC3    C410364   2.014   1.828  15.849 -0.3776 -0.2287  1.0256
  701TMC3    C510365   2.097   1.861  15.748  0.2446 -0.7690  0.5380
  701TMC3    C610366   2.079   1.818  15.617  0.5083 -0.6100  0.1044
  701TMC3     C10367   1.829   1.691  15.926 -0.0344  1.1039 -0.4846
  701TMC3     O10368   1.793   1.575  15.933 -0.0605 -0.3946 -0.3500
  701TMC3     H10369   1.819   1.601  15.683  0.7298 -1.3331  0.4713
  701TMC3    H110370   2.017   1.875  15.946  0.2574 -1.1345  1.4443
  701TMC3    H210371   2.149   1.848  15.540  0.0980 -0.1663 -0.0902
  701TMC3    C710372   2.186   1.976  15.770  0.6659 -0.2180  0.4004
  701TMC3    C810373   1.987   1.651  15.472  0.1917 -0.2625  0.2422
  701TMC3    O110374   2.234   2.036  15.677  0.1824 -0.0238 -0.0587
  701TMC3    O210375   2.077   1.697  15.398  0.5302  0.0454  0.1223
  702MPD2     C10376   1.607   4.128  10.869  0.0122  0.4665 -0.5846
  702MPD2    C110377   1.648   4.215  10.969 -0.7492 -0.0279 -0.7286
  702MPD2    C210378   1.734   4.318  10.943 -0.7173 -0.1719  0.5348
  702MPD2    C310379   1.809   4.320  10.826 -0.5783 -0.3785 -0.0384
  702MPD2    C410380   1.770   4.226  10.728 -0.0030  0.1037 -0.7801
  702MPD2    C510381   1.679   4.122  10.752  0.1833 -0.2902 -0.5305
  702MPD2     H10382   1.762   4.385  11.024  0.4833  2.1901 -1.8617
  702MPD2    H110383   1.821   4.227  10.632  0.0415  0.1038 -0.7564
  702MPD2    H210384   1.528   4.053  10.873  0.9581 -0.5276 -0.2899
  702MPD2    H310385   1.657   4.050  10.674 -1.9295 -0.1596 -0.0379
  702MPD2     N10386   1.903   4.427  10.804  0.4280 -0.0496  0.1458
  702MPD2    H510387   1.938   4.438  10.709  1.7577  0.8741  0.7429
  702MPD2    N110388   1.581   4.226  11.093 -0.4674 -0.5169 -0.2454
  702MPD2    H710389   1.596   4.307  11.152  0.8363  1.1153 -2.8153
  703TMC3    C110390   1.980   4.643  10.815  0.0636 -0.7107  0.8534
  703TMC3    C210391   1.916   0.038  10.826 -0.1716 -0.0922  0.1471
  703TMC3    C310392   1.959   0.147  10.749 -0.1286  0.7204 -0.5169
  703TMC3    C410393   2.071   4.624  10.721  0.3175  0.3511 -0.1145
  703TMC3    C510394   2.116   0.004  10.645  0.0697  0.2984  0.5647
  703TMC3    C610395   2.062   0.130  10.656 -0.0382  0.5168  0.0909
  703TMC3     C10396   1.936   4.529  10.890  0.0736 -1.3291  0.5395
  703TMC3     O10397   1.917   4.539  11.012 -0.2927  0.3511 -0.0762
  703TMC3     H10398   1.834   0.036  10.896 -0.3065  1.8862  0.0397
  703TMC3    H110399   2.115   4.524  10.716  1.2302  0.5905  2.9239
  703TMC3    H210400   2.066   0.200  10.574  0.9741  1.1894  0.7033
  703TMC3    C710401   2.227   4.712  10.558 -0.6039 -0.5995 -0.3118
  703TMC3    C810402   1.859   0.249  10.716  0.9169 -0.2621  0.5481
  703TMC3    O110403   2.249   4.601  10.520  0.5640 -0.3197 -0.0507
  703TMC3    O210404   1.903   0.342  10.652  0.3646 -0.0106  0.3108
  704TMC3    C110405   4.608   2.657  12.521  1.0051 -0.2631 -0.1092
  704TMC3    C210406   4.586   2.715  12.399 -0.2120 -0.7782  0.8502
  704TMC3    C310407   4.697   2.758  12.329 -0.5328  0.4878 -0.7056
  704TMC3    C410408   0.001   2.641  12.577 -0.2067 -0.6715  0.2738
  704TMC3    C510409   0.109   2.668  12.501  1.3166  0.1360  0.3445
  704TMC3    C610410   0.096   2.736  12.383  0.5237 -0.4998  0.4841
  704TMC3     C10411   4.497   2.562  12.563 -0.4345 -0.6427  0.0979
  704TMC3     O10412   4.508   2.502  12.666 -0.5013  0.0818 -0.2333
  704TMC3     H10413   4.486   2.740  12.363  0.0388  0.9923  1.4079
  704TMC3    H110414   0.011   2.582  12.668  0.6449  0.6316  1.0231
  704TMC3    H210415   0.182   2.764  12.322  0.0520 -2.5606 -1.1399
  704TMC3    C710416   0.248   2.628  12.552 -0.3017  0.2236 -0.0670
  704TMC3    C810417   4.679   2.762  12.187  1.0205 -0.7923  0.5393
  704TMC3    O110418   0.335   2.703  12.512 -0.2162  0.0732  0.3173
  704TMC3    O210419   4.564   2.772  12.149  0.7757  0.6578  0.3252
  705MPD2     C10420   3.468   0.613  16.944 -0.8845  0.2186 -0.8558
  705MPD2    C110421   3.369   0.627  16.845  0.2861 -0.7657 -0.2373
  705MPD2    C210422   3.249   0.678  16.876  0.3846 -0.5099 -0.0562
  705MPD2    C310423   3.227   0.714  17.016 -0.3403  0.3906 -0.0075
  705MPD2    C410424   3.325   0.694  17.109  0.3774  0.8238  0.3148
  705MPD2    C510425   3.441   0.635  17.072  0.5768  0.1559  0.0358
  705MPD2     H10426   3.172   0.687  16.800  0.3920  0.1323  0.0124
  705MPD2    H110427   3.304   0.710  17.214 -2.7930  3.6852 -0.7723
  705MPD2    H210428   3.572   0.585  16.929 -0.9156 -0.0073 -0.6560
  705MPD2    H310429   3.521   0.609  17.140 -0.3433  0.2780  1.1648
  705MPD2     N10430   3.100   0.761  17.074  0.5671  0.3428 -0.1836
  705MPD2    H510431   3.094   0.764  17.175 -0.9046 -0.5540 -0.2491
  705MPD2    N110432   3.396   0.584  16.715  0.1690 -0.0883 -0.6783
  705MPD2    H710433   3.330   0.611  16.643 -0.6059 -2.4101 -0.8378
  706TMC3    C110434   3.572   0.395  16.347  0.1528  0.7028  0.1090
  706TMC3    C210435   3.603   0.504  16.278  0.0950  0.5951 -0.2585
  706TMC3    C310436   3.585   0.629  16.340 -1.1134  0.2487 -0.1492
  706TMC3    C410437   3.536   0.398  16.474 -0.7842  0.3310  0.2523
  706TMC3    C510438   3.520   0.517  16.534 -0.1873  0.4898 -0.1915
  706TMC3    C610439   3.547   0.632  16.474  0.4003  0.0584  0.1601
  706TMC3     C10440   3.612   0.263  16.295 -0.0501  0.1063 -0.2323
  706TMC3     O10441   3.656   0.192  16.388  0.5279  0.5065 -0.3004
  706TMC3     H10442   3.649   0.501  16.180  0.3394  1.2709 -0.1629
  706TMC3    H110443   3.522   0.306  16.529  1.2215 -0.3094 -0.3217
  706TMC3    H210444   3.552   0.726  16.529 -2.4425  0.2374  0.1083
  706TMC3    C710445   3.508   0.511  16.673  0.7339  1.1405  0.0249
  706TMC3    C810446   3.662   0.741  16.281 -0.5879  0.2204  0.1410
  706TMC3    O110447   3.584   0.450  16.745  0.0270 -0.3060  0.1657
  706TMC3    O210448   3.659   0.752  16.156 -0.1022  0.2237  0.4567
  707TMC3    C110449   0.033   0.217   1.203  0.3457 -0.2011 -0.3759
  707TMC3    C210450   0.000   0.203   1.339  0.0273 -0.1753  0.0485
  707TMC3    C310451   4.595   0.180   1.375 -0.3406 -0.3078 -0.3691
  707TMC3    C410452   4.668   0.228   1.105  0.0483 -0.3017  0.5031
  707TMC3    C510453   4.536   0.213   1.144 -0.0860  0.1984 -0.1003
  707TMC3    C610454   4.500   0.189   1.274  0.2745 -0.6799  0.0303
  707TMC3     C10455   0.167   0.200   1.156 -0.3172  0.1729 -0.0372
  707TMC3     O10456   0.179   0.123   1.060 -0.1832 -0.2521  0.2733
  707TMC3     H10457   0.077   0.191   1.415  0.6810  2.6583 -0.1498
  707TMC3    H110458   4.693   0.247   1.001  0.2816  0.0187  0.6188
  707TMC3    H210459   4.401   0.158   1.304 -0.0896  0.0992 -0.3599
  707TMC3    C710460   4.430   0.254   1.052 -0.0160  0.0604 -0.1397
  707TMC3    C810461   4.565   0.101   1.484  0.2194  0.1455  0.2234
  707TMC3    O110462   4.459   0.264   0.931 -0.0288  0.3082 -0.0042
  707TMC3    O210463   4.451   0.112   1.524 -0.2421 -0.5444 -0.2389
  708MPD2     C10464   2.171   3.719  13.870 -0.3537 -0.2952  0.2688
  708MPD2    C110465   2.055   3.800  13.852 -0.1141  0.0331 -0.4628
  708MPD2    C210466   1.969   3.812  13.959  0.3915 -1.0657 -0.8980
  708MPD2    C310467   1.988   3.738  14.078 -0.6263 -0.6853  0.6100
  708MPD2    C410468   2.101   3.669  14.093  0.2219 -0.0678 -0.7972
  708MPD2    C510469   2.189   3.649  13.988  0.0284  0.0573  0.5288
  708MPD2     H10470   1.878   3.870  13.949 -1.4415 -3.7719  0.3449
  708MPD2    H110471   2.120   3.606  14.179  2.1785 -1.2381 -2.0730
  708MPD2    H210472   2.233   3.689  13.787 -0.6409 -0.9232  0.2794
  708MPD2    H310473   2.279   3.589  13.997 -0.9397 -0.9929  3.1210
  708MPD2     N10474   1.899   3.744  14.185  0.9984  0.5507  0.0738
  708MPD2    H510475   1.933   3.722  14.278  0.8212 -1.5906 -0.3625
  708MPD2    N110476   2.049   3.877  13.735  0.5155  0.5795 -0.7180
  708MPD2    H710477   2.115   3.859  13.660  0.7649 -0.4944 -0.2419
  709TMC3    C110478   1.944   4.041  13.594  0.6304  0.3146 -0.6704
  709TMC3    C210479   1.942   3.949  13.491  0.3585  0.1218  0.7902
  709TMC3    C310480   1.852   3.962  13.386  0.2668  0.5820 -0.5998
  709TMC3    C410481   1.856   4.150  13.585 -0.4593  0.0545  0.3493
  709TMC3    C510482   1.752   4.145  13.493  0.2907 -0.7358  0.4894
  709TMC3    C610483   1.751   4.056  13.391 -0.0152  1.1972  0.2331
  709TMC3     C10484   1.975   3.992  13.729 -0.1273  0.6073 -1.2123
  709TMC3     O10485   1.900   4.046  13.808  0.0277  0.2094 -0.3997
  709TMC3     H10486   2.009   3.865  13.482  0.3754  0.3332 -1.0890
  709TMC3    H110487   1.870   4.233  13.653  3.1258 -0.8776  0.7735
  709TMC3    H210488   1.661   4.057  13.331 -1.6450 -0.2560  2.6603
  709TMC3    C710489   1.626   4.163  13.558  0.2421 -0.0982 -0.2346
  709TMC3    C810490   1.936   3.973  13.263  0.9447  0.2581 -0.0642
  709TMC3    O110491   1.525   4.168  13.492 -0.1761 -0.0640  0.7475
  709TMC3    O210492   2.058   3.994  13.265 -0.1311 -0.3425  0.4195
  710TMC3    C110493   2.781   0.722   0.977  0.5884  0.5848  0.0821
  710TMC3    C210494   2.819   0.665   0.858  0.3880 -0.0824 -0.1444
  710TMC3    C310495   2.944   0.606   0.855  0.0194 -0.4105 -0.8248
  710TMC3    C410496   2.851   0.715   1.092 -0.4039 -0.0782 -0.7459
  710TMC3    C510497   2.976   0.652   1.085 -0.2877  0.3436  0.8456
  710TMC3    C610498   3.015   0.584   0.971  0.2682 -0.1859 -0.3395
  710TMC3     C10499   2.648   0.787   0.974  0.4832 -0.1297  0.9082
  710TMC3     O10500   2.563   0.737   0.903  0.2808  0.7402 -0.0588
  710TMC3     H10501   2.762   0.689   0.769 -1.2016  0.1346  0.9445
  710TMC3    H110502   2.811   0.754   1.185  3.0226 -1.2859  1.2692
  710TMC3    H210503   3.103   0.521   0.964 -0.1242 -0.5748 -1.9419
  710TMC3    C710504   3.045   0.614   1.202 -0.3150 -0.0557  0.4898
  710TMC3    C810505   2.986   0.555   0.724  0.4208 -0.2540 -0.1186
  710TMC3    O110506   3.120   0.519   1.193 -0.1915 -1.1766  0.2695
  710TMC3    O210507   2.911   0.588   0.629 -0.4621  0.0797  0.5104
  711TMC3    C110508   2.620   1.617  15.268 -0.0796  0.0089  0.1147
  711TMC3    C210509   2.673   1.705  15.355 -0.3078 -0.3101  0.0265
  711TMC3    C310510   2.809   1.706  15.375  0.0079  0.4551  0.3582
  711TMC3    C410511   2.692   1.534  15.195  0.8206 -0.2324 -0.5224
  711TMC3    C510512   2.823   1.541  15.217  0.9232 -0.7868 -0.3973
  711TMC3    C610513   2.889   1.629  15.299  1.0369 -0.3493 -1.1524
  711TMC3     C10514   2.480   1.580  15.282 -0.5013 -0.4643 -0.1832
  711TMC3     O10515   2.434   1.500  15.202  0.0590 -0.0557  0.3493
  711TMC3     H10516   2.606   1.780  15.397 -0.0676  0.3563 -0.7704
  711TMC3    H110517   2.640   1.457  15.141  0.0183 -1.2131  1.6473
  711TMC3    H210518   2.993   1.617  15.328  0.7401 -0.8017 -0.2678
  711TMC3    C710519   2.888   1.411  15.225  0.3885  0.5660  0.3140
  711TMC3    C810520   2.834   1.715  15.518 -0.9743 -0.7615  1.2441
  711TMC3    O110521   2.970   1.398  15.312  0.1558  0.1298 -0.0125
  711TMC3    O210522   2.736   1.719  15.584 -0.1226 -0.3746 -0.4074
  712MPD2     C10523   4.432   2.607  13.959  0.5440  0.3334 -0.6981
  712MPD2    C110524   4.329   2.576  13.873 -0.1471  0.0608  0.5665
  712MPD2    C210525   4.306   2.659  13.771 -0.7716 -0.2652  0.0666
  712MPD2    C310526   4.360   2.783  13.760  0.4454  0.8852  0.2703
  712MPD2    C410527   4.463   2.819  13.849 -0.1644 -0.1015  0.4610
  712MPD2    C510528   4.496   2.733  13.947  0.0888 -0.2942 -0.0483
  712MPD2     H10529   4.231   2.630  13.698  1.9306 -1.0910 -2.4225
  712MPD2    H110530   4.521   2.911  13.844 -0.6422  0.2631  1.6933
  712MPD2    H210531   4.468   2.540  14.036  0.2175  1.5328  0.5114
  712MPD2    H310532   4.566   2.753  14.027 -0.6229 -1.6320  0.9068
  712MPD2     N10533   4.328   2.866  13.649 -0.1203  0.9512 -0.3362
  712MPD2    H510534   4.389   2.946  13.643 -0.2661  1.0571 -0.4030
  712MPD2    N110535   4.258   2.452  13.868  0.7930 -0.6365 -0.3191
  712MPD2    H710536   4.194   2.443  13.790 -0.2932 -1.0675  0.6413
  713TMC3    C110537   4.189   2.987  13.495 -0.0426  0.1112  0.8669
  713TMC3    C210538   4.298   3.060  13.459  0.3098 -0.6397  0.1722
  713TMC3    C310539   4.276   3.184  13.407  0.0683 -0.2560  0.2901
  713TMC3    C410540   4.069   3.041  13.480 -0.1182  0.3632 -0.0998
  713TMC3    C510541   4.052   3.169  13.434  0.0578 -0.0514 -0.0798
  713TMC3    C610542   4.153   3.246  13.400  0.1350  0.2647 -0.2585
  713TMC3     C10543   4.213   2.861  13.575 -0.6330 -0.1421 -0.2925
  713TMC3     O10544   4.123   2.780  13.566 -0.2840 -0.0114  0.2639
  713TMC3     H10545   4.402   3.028  13.463  0.8159  0.9352 -0.3822
  713TMC3    H110546   3.979   2.981  13.483  0.5216 -0.5716  0.3875
  713TMC3    H210547   4.143   3.339  13.345 -0.2468  1.2501  1.4693
  713TMC3    C710548   3.926   3.217  13.401  0.4390 -0.2140 -0.3108
  713TMC3    C810549   4.391   3.268  13.372  0.3808 -0.9920  0.3284
  713TMC3    O110550   3.910   3.306  13.314 -0.4010  0.1395 -0.1267
  713TMC3    O210551   4.386   3.381  13.418  0.6317 -0.4282 -0.4554
  714MPD2     C10552   1.427   1.794   1.520 -0.2827 -0.0623 -0.4434
  714MPD2    C110553   1.467   1.665   1.538 -0.7678 -0.1678 -0.2408
  714MPD2    C210554   1.390   1.554   1.493  0.6690 -0.2798  0.5464
  714MPD2    C310555   1.266   1.583   1.441 -0.1029 -0.1898 -0.3971
  714MPD2    C410556   1.226   1.712   1.412 -0.4160  0.4137  0.6752
  714MPD2    C510557   1.304   1.814   1.462 -0.1897 -0.0067 -0.2366
  714MPD2     H10558   1.420   1.452   1.511  0.0125 -0.5474  0.0938
  714MPD2    H110559   1.123   1.742   1.395 -0.0607  0.1153 -1.9391
  714MPD2    H210560   1.485   1.875   1.563 -3.6970  0.9060  2.3772
  714MPD2    H310561   1.271   1.916   1.447 -0.4234 -0.0001  0.3214
  714MPD2     N10562   1.188   1.477   1.401 -0.3914 -0.0308  0.3011
  714MPD2    H510563   1.214   1.382   1.427  0.4246  0.1119  0.0032
  714MPD2    N110564   1.595   1.649   1.593 -0.5958  0.9730  0.2841
  714MPD2    H710565   1.648   1.733   1.614 -0.6400  1.4839 -1.6888
  715TMC3    C110566   1.802   1.571   1.664 -0.4664  0.1351  0.2235
  715TMC3    C210567   1.887   1.462   1.679  0.2486  0.7249  1.2166
  715TMC3    C310568   2.017   1.483   1.728 -0.3518  0.4564 -0.1225
  715TMC3    C410569   1.841   1.693   1.707  0.0254 -0.8411  0.0583
  715TMC3    C510570   1.967   1.708   1.759  0.2722  0.3304  0.6636
  715TMC3    C610571   2.063   1.608   1.772 -0.3930  0.0836  0.0300
  715TMC3     C10572   1.678   1.541   1.596  0.6906 -0.1774  0.4221
  715TMC3     O10573   1.654   1.430   1.550 -0.4859 -0.2139  0.8544
  715TMC3     H10574   1.863   1.360   1.653 -0.1185  0.7439  1.5015
  715TMC3    H110575   1.779   1.782   1.698  1.3476  0.2029  1.3413
  715TMC3    H210576   2.161   1.628   1.814 -0.5201  1.0531 -0.1365
  715TMC3    C710577   2.008   1.834   1.796 -0.3082  0.3618  0.1084
  715TMC3    C810578   2.110   1.374   1.709  0.8297 -0.2210  0.6304
  715TMC3    O110579   2.124   1.868   1.772 -0.2060  0.7424  0.6849
  715TMC3    O210580   2.070   1.263   1.674  0.3840  0.4451  0.2237
  716MPD2     C10581   1.724   4.234  10.328  0.7928 -0.3737  0.4263
  716MPD2    C110582   1.769   4.261  10.199 -0.1957 -0.3717 -0.5746
  716MPD2    C210583   1.867   4.181  10.144 -0.4574 -0.4905  0.1248
  716MPD2    C310584   1.924   4.066  10.206 -0.2447 -0.0467 -0.5120
  716MPD2    C410585   1.886   4.043  10.340  0.1897 -0.2030 -0.2154
  716MPD2    C510586   1.781   4.120  10.389  0.2327 -0.4893  0.1035
  716MPD2     H10587   1.899   4.205  10.043  0.5140  0.4443  0.6592
  716MPD2    H110588   1.906   3.951  10.394 -0.6268  0.2111  0.7925
  716MPD2    H210589   1.642   4.283  10.380  1.7135  0.3315  1.2010
  716MPD2    H310590   1.749   4.101  10.491  1.4110  0.9721  0.7229
  716MPD2     N10591   2.009   3.977  10.140  0.6565 -0.3717 -0.2355
  716MPD2    H510592   2.024   3.981  10.039 -1.7360 -1.1119 -0.6304
  716MPD2    N110593   1.706   4.370  10.127 -0.7086 -0.2196 -0.0037
  716MPD2    H710594   1.621   4.405  10.169 -0.2283  0.3894  0.4560
  717TMC3    C110595   2.173   3.797  10.144 -0.0549  0.1308  0.6521
  717TMC3    C210596   2.108   3.741  10.039  0.5772  0.7226 -0.2547
  717TMC3    C310597   2.145   3.616  10.001 -0.2504 -0.5549  0.6154
  717TMC3    C410598   2.278   3.745  10.209 -0.1301 -0.0860  0.6073
  717TMC3    C510599   2.323   3.623  10.161  0.4214  0.3063  0.1024
  717TMC3    C610600   2.264   3.561  10.048 -0.8537  1.1319 -0.6151
  717TMC3     C10601   2.102   3.899  10.216  0.0175  0.0243 -0.5103
  717TMC3     O10602   2.129   3.910  10.335 -0.4284 -0.2366  0.0658
  717TMC3     H10603   2.018   3.775   9.988  0.8852 -0.3832 -1.5328
  717TMC3    H110604   2.312   3.798  10.296  0.0163 -1.7643  1.5825
  717TMC3    H210605   2.289   3.458  10.023 -2.2013  0.7004 -0.1585
  717TMC3    C710606   2.406   3.536  10.245  0.0296 -0.1112 -0.3394
  717TMC3    C810607   2.040   3.526   9.946  0.0566 -0.3130 -0.2376
  717TMC3    O110608   2.439   3.431  10.198 -0.2674 -0.0134  0.4003
  717TMC3    O210609   1.933   3.582   9.935  0.3484  0.3953 -0.1652
  718MPD2     C10610   0.923   2.911  13.308  0.4874 -0.4625 -0.1149
  718MPD2    C110611   0.917   2.890  13.173  0.5835  0.2711 -0.6592
  718MPD2    C210612   0.941   2.768  13.118  0.0078 -0.7792 -0.2352
  718MPD2    C310613   0.966   2.664  13.199 -0.1070  0.0975 -0.0951
  718MPD2    C410614   0.980   2.684  13.334  0.6384  0.2909  0.3564
  718MPD2    C510615   0.961   2.806  13.391  0.1361 -0.1940  0.1480
  718MPD2     H10616   0.908   2.766  13.015 -2.2965  2.1423  0.4517
  718MPD2    H110617   1.012   2.606  13.402 -2.2872 -1.4326 -0.2453
  718MPD2    H210618   0.910   3.010  13.351  2.8368 -1.0255  1.8969
  718MPD2    H310619   0.982   2.825  13.496  0.4067 -1.9197  0.3941
  718MPD2     N10620   0.997   2.533  13.155 -0.5647 -0.4237  0.1419
  718MPD2    H510621   1.019   2.460  13.223  4.1060  0.4639 -0.4079
  718MPD2    N110622   0.874   3.000  13.094 -0.6259 -0.2324 -0.0861
  718MPD2    H710623   0.841   3.084  13.141 -0.1724 -0.2495  0.2609
  719TMC3    C110624   0.795   3.113  12.901 -0.6404 -0.9333  0.4909
  719TMC3    C210625   0.698   3.041  12.832  0.0239  0.1229  0.2611
  719TMC3    C310626   0.664   3.074  12.706 -0.3720  0.2008  0.1329
  719TMC3    C410627   0.857   3.213  12.833  0.2216 -0.0488  0.5889
  719TMC3    C510628   0.815   3.246  12.713 -0.3289  0.2461  0.0772
  719TMC3    C610629   0.725   3.178  12.642  0.4015 -0.3611  0.7436
  719TMC3     C10630   0.885   3.011  12.952 -0.2848  0.5510 -0.5624
  719TMC3     O10631   0.944   2.945  12.866 -0.3739  0.2286  0.0965
  719TMC3     H10632   0.652   2.957  12.882 -0.2526  0.5987  0.8067
  719TMC3    H110633   0.931   3.276  12.881 -0.7430  1.9414 -0.5373
  719TMC3    H210634   0.711   3.182  12.535  1.0281  1.9589  0.7553
  719TMC3    C710635   0.904   3.333  12.641  0.9793  0.1921  0.2243
  719TMC3    C810636   0.653   2.965  12.621 -0.0155  0.6966  0.2323
  719TMC3    O110637   0.853   3.383  12.544  0.3170  0.0606 -0.2661
  719TMC3    O210638   0.579   2.990  12.528 -0.6488  0.6347  0.3450
  720MPD2     C10639   3.545   4.408  13.924 -0.1490 -0.1993 -0.6134
  720MPD2    C110640   3.627   4.505  13.879  0.4622 -0.1486 -0.1561
  720MPD2    C210641   3.748   4.528  13.945 -0.1006  0.7554  0.6916
  720MPD2    C310642   3.793   4.463  14.059  0.7462  0.1180 -0.4428
  720MPD2    C410643   3.709   4.362  14.100  0.2959 -0.1715  0.1520
  720MPD2    C510644   3.587   4.343  14.040  0.5392  0.4372 -0.4716
  720MPD2     H10645   3.814   4.608  13.912 -0.2017  0.4318 -0.2902
  720MPD2    H110646   3.737   4.301  14.184  0.7678  0.8852  0.7697
  720MPD2    H210647   3.450   4.387  13.875 -0.7908  0.4346  0.3509
  720MPD2    H310648   3.529   4.263  14.085  0.7712 -0.1275 -1.1950
  720MPD2     N10649   3.923   4.492  14.109  0.2103  0.9689  0.0765
  720MPD2    H510650   3.956   4.583  14.076 -0.5252  1.2462  0.1003
  720MPD2    N110651   3.607   4.588  13.773 -0.2936  0.2716 -0.5055
  720MPD2    H710652   3.651   4.679  13.770  0.9508 -0.3033  0.5965
  721TMC3    C110653   4.122   4.468  14.232  0.3984 -0.0923  0.6862
  721TMC3    C210654   4.191   4.435  14.348 -0.5593  0.2618  0.2219
  721TMC3    C310655   4.322   4.432  14.352 -0.2250 -0.0408 -0.0120
  721TMC3    C410656   4.196   4.503  14.123 -0.0480  0.3522  0.2272
  721TMC3    C510657   4.330   4.511  14.132  0.5558 -0.5265 -0.1989
  721TMC3    C610658   4.395   4.465  14.236  0.1422 -0.2090 -0.2296
  721TMC3     C10659   3.980   4.431  14.215 -0.3520  0.1921  0.0365
  721TMC3     O10660   3.942   4.327  14.271 -0.1740  0.7442 -0.3040
  721TMC3     H10661   4.138   4.388  14.430 -0.8786  0.4384  0.1167
  721TMC3    H110662   4.152   4.533  14.029 -2.6396 -3.2260  0.3359
  721TMC3    H210663   4.503   4.469  14.249  0.2378 -0.3920 -0.9903
  721TMC3    C710664   4.412   4.550  14.021  0.5436  0.3936  0.6856
  721TMC3    C810665   4.400   4.360  14.456 -0.0558 -0.1672 -0.5459
  721TMC3    O110666   4.353   4.541  13.914 -0.2432 -0.0887  0.3807
  721TMC3    O210667   4.498   4.304  14.416  0.5743  0.1601  0.3931
  722MPD2     C10668   2.843   3.061  12.731 -0.1511 -0.4197 -0.2391
  722MPD2    C110669   2.853   3.146  12.833 -0.4172 -0.4635  0.1350
  722MPD2    C210670   2.735   3.200  12.884 -0.5728 -0.4825 -0.1727
  722MPD2    C310671   2.611   3.166  12.834 -0.0206  0.0734  0.6352
  722MPD2    C410672   2.603   3.083  12.728 -0.2107 -0.6076  0.4707
  722MPD2    C510673   2.720   3.040  12.677 -0.2994  0.2830 -0.3825
  722MPD2     H10674   2.732   3.267  12.969 -0.2026  0.0698 -0.5918
  722MPD2    H110675   2.511   3.076  12.672 -0.4840 -0.7471  0.9343
  722MPD2    H210676   2.930   3.022  12.679 -0.8304  0.0490 -1.7309
  722MPD2    H310677   2.720   2.977  12.589 -1.6182 -0.2475 -0.0029
  722MPD2     N10678   2.500   3.229  12.889 -0.4406 -0.1194 -0.5650
  722MPD2    H510679   2.524   3.282  12.972  1.4256 -1.1926 -0.4102
  722MPD2    N110680   2.970   3.184  12.893  0.7787  0.0455 -1.1676
  722MPD2    H710681   2.953   3.258  12.960  2.9471 -0.2648 -0.2664
  723TMC3    C110682   2.284   3.281  12.942  0.0775 -0.3374  0.3916
  723TMC3    C210683   2.170   3.211  12.950  0.9494  0.1389 -0.4493
  723TMC3    C310684   2.101   3.222  13.069  0.2660 -0.0460 -0.6915
  723TMC3    C410685   2.344   3.351  13.041 -0.5796 -1.2642  0.3635
  723TMC3    C510686   2.283   3.332  13.163 -0.0747 -0.4264 -0.2592
  723TMC3    C610687   2.161   3.273  13.175 -0.2823 -0.3478 -0.2834
  723TMC3     C10688   2.374   3.223  12.850  0.9759 -0.2639 -0.2084
  723TMC3     O10689   2.325   3.166  12.756 -0.2327  0.2498 -1.0798
  723TMC3     H10690   2.132   3.174  12.855 -0.5458  1.9753 -0.5729
  723TMC3    H110691   2.424   3.420  13.020  1.0843 -3.4166 -0.3973
  723TMC3    H210692   2.103   3.271  13.267  0.6983  2.6328  0.4164
  723TMC3    C710693   2.352   3.389  13.284  0.0802  0.4206 -0.5661
  723TMC3    C810694   1.986   3.141  13.086 -0.8382 -0.3939  0.0533
  723TMC3    O110695   2.436   3.474  13.248 -0.2395 -0.3069 -0.0683
  723TMC3    O210696   1.940   3.140  13.194 -0.3743  0.1857  0.0312
  724TMC3    C110697   3.469   0.592   9.892 -0.3330 -0.4660 -0.6242
  724TMC3    C210698   3.376   0.682   9.892  0.2752  0.3867  0.8385
  724TMC3    C310699   3.399   0.805   9.838  0.4285  0.4053  0.2604
  724TMC3    C410700   3.597   0.616   9.840 -0.3112 -0.0807  0.8140
  724TMC3    C510701   3.620   0.743   9.788 -1.0968 -0.3046 -0.8078
  724TMC3    C610702   3.520   0.839   9.791 -0.4590  0.1888  0.0868
  724TMC3     C10703   3.424   0.457   9.911 -0.5967 -0.1285 -0.6089
  724TMC3     O10704   3.313   0.422   9.871 -0.3081 -0.4509 -0.3957
  724TMC3     H10705   3.271   0.658   9.905 -0.0011  0.2687 -1.6527
  724TMC3    H110706   3.686   0.555   9.848 -0.1273 -0.1151 -1.5399
  724TMC3    H210707   3.545   0.932   9.740  2.5974 -1.0577 -0.6892
  724TMC3    C710708   3.711   0.769   9.679  0.4201 -0.0312 -0.0372
  724TMC3    C810709   3.293   0.904   9.846 -0.1728 -0.4673 -0.1277
  724TMC3    O110710   3.758   0.880   9.672 -0.1766  0.7156 -0.2646
  724TMC3    O210711   3.182   0.853   9.865 -0.0450  0.6088 -0.2269
  725TMC3    C110712   4.114   0.216  13.010  0.2047  0.2609  0.1426
  725TMC3    C210713   4.109   0.261  12.875 -0.5781  0.2438  0.1825
  725TMC3    C310714   3.990   0.240  12.805 -0.1111  0.1548 -0.1447
  725TMC3    C410715   4.007   0.156  13.074  0.6087 -0.3849 -0.4919
  725TMC3    C510716   3.902   0.126  12.990  0.2307  0.0767  0.3032
  725TMC3    C610717   3.883   0.168  12.861 -0.2110  0.5097  0.0546
  725TMC3     C10718   4.225   0.266  13.094 -0.2421  0.4965 -0.4318
  725TMC3     O10719   4.322   0.316  13.034 -0.3622  0.4963 -0.1781
  725TMC3     H10720   4.189   0.323  12.838  0.5336 -1.3158 -0.0296
  725TMC3    H110721   4.007   0.124  13.178  2.3863 -1.6224 -0.8797
  725TMC3    H210722   3.804   0.132  12.795 -0.9733 -0.1596  1.3459
  725TMC3    C710723   3.806   0.037  13.056 -0.2094  0.4222 -0.0197
  725TMC3    C810724   3.979   0.289  12.667 -0.1280  0.3861  0.7327
  725TMC3    O110725   3.798   0.067  13.171 -0.2567 -0.1169  0.5972
  725TMC3    O210726   4.089   0.319  12.620  0.1764  0.5174  0.2453
  726MPD2     C10727   3.329   1.793  10.857 -0.0236 -0.7186 -0.3006
  726MPD2    C110728   3.254   1.899  10.801  0.1679 -0.2225 -0.0554
  726MPD2    C210729   3.124   1.876  10.758 -0.7163 -0.5690 -0.4596
  726MPD2    C310730   3.086   1.742  10.762  0.1619  0.2033 -0.8440
  726MPD2    C410731   3.162   1.638  10.813 -0.1772 -0.2510 -0.5807
  726MPD2    C510732   3.280   1.666  10.865 -0.4534  0.2337 -0.2319
  726MPD2     H10733   3.059   1.951  10.714  1.3352  1.3876 -0.1075
  726MPD2    H110734   3.128   1.535  10.809 -1.0694  0.0705 -1.1702
  726MPD2    H210735   3.430   1.800  10.895 -0.6903  1.0693  1.1345
  726MPD2    H310736   3.353   1.597  10.907  0.5091  1.3558 -0.0721
  726MPD2     N10737   2.951   1.702  10.740  0.0106  0.4567 -0.1010
  726MPD2    H510738   2.915   1.612  10.771 -1.1616  1.3658  1.1650
  726MPD2    N110739   3.301   2.031  10.784 -0.1603  0.0759  0.5859
  726MPD2    H710740   3.243   2.093  10.729 -0.2384  0.7895  1.4796
  727TMC3    C110741   3.451   2.210  10.795 -0.5262 -0.2399 -0.5494
  727TMC3    C210742   3.576   2.235  10.746 -0.4591 -1.2545  0.6681
  727TMC3    C310743   3.610   2.354  10.691 -0.3843  0.1088 -0.3912
  727TMC3    C410744   3.358   2.306  10.794 -0.2066  0.4832  0.1910
  727TMC3    C510745   3.387   2.416  10.715 -0.9356  0.0425  0.8381
  727TMC3    C610746   3.513   2.452  10.675 -0.1399 -0.3707 -0.1207
  727TMC3     C10747   3.426   2.072  10.824  0.1411 -0.1042  0.0414
  727TMC3     O10748   3.521   2.008  10.868  0.5037  0.4661  0.1425
  727TMC3     H10749   3.644   2.151  10.737 -1.1451 -2.0352  2.6889
  727TMC3    H110750   3.255   2.288  10.821 -1.2707 -2.2906 -5.7954
  727TMC3    H210751   3.532   2.536  10.609 -1.6118 -1.2344 -1.6380
  727TMC3    C710752   3.284   2.509  10.690 -0.1273  0.2661  0.6374
  727TMC3    C810753   3.745   2.369  10.639 -0.1647  0.5932 -0.0924
  727TMC3    O110754   3.320   2.626  10.671 -0.2012  0.1849 -0.3758
  727TMC3    O210755   3.810   2.268  10.627  0.4905 -0.3769 -0.0607
  728TMC3    C110756   1.624   4.651  15.636  0.1856  0.8745  0.9272
  728TMC3    C210757   1.607   4.556  15.738 -0.1640 -0.1879  0.5275
  728TMC3    C310758   1.706   4.548  15.835  0.3287  0.2021  0.0498
  728TMC3    C410759   1.746   4.715  15.616  0.2162  0.1421 -0.0161
  728TMC3    C510760   1.842   4.700  15.712 -0.6046  0.0094 -0.5683
  728TMC3    C610761   1.818   4.625  15.819  0.4697 -0.1910 -0.0239
  728TMC3     C10762   1.516   4.685  15.543  0.4728  0.3471  0.5917
  728TMC3     O10763   1.537   0.024  15.442  0.2149  0.0167  0.0486
  728TMC3     H10764   1.513   4.506  15.756 -0.9647  0.8929 -0.6851
  728TMC3    H110765   1.770   0.016  15.514 -0.1153  1.2475  0.2085
  728TMC3    H210766   1.905   4.607  15.882  2.1854 -0.9734 -2.6225
  728TMC3    C710767   1.968   0.053  15.716 -0.3672 -0.2311  0.3406
  728TMC3    C810768   1.709   4.452  15.949 -0.1319 -0.4652  0.1259
  728TMC3    O110769   2.063   0.014  15.780  0.5345 -0.0180 -0.2086
  728TMC3    O210770   1.618   4.370  15.954 -1.1851  0.0611 -0.8296
  729MPD2     C10771   3.707   1.670  17.252 -0.4391 -0.2680 -0.5042
  729MPD2    C110772   3.702   1.535  17.221  0.7107  1.6704  0.4675
  729MPD2    C210773   3.718   1.443  17.330  0.3448  0.0817 -0.8413
  729MPD2    C310774   3.712   1.491  17.459 -0.0496 -0.4089  0.2909
  729MPD2    C410775   3.716   1.621  17.482  0.0056  0.3222 -0.5353
  729MPD2    C510776   3.719   1.710  17.379 -0.0894 -0.3285 -0.0784
  729MPD2     H10777   3.740   1.338  17.313  3.7839  0.4895  1.0515
  729MPD2    H110778   3.716   1.668  17.580  1.3179 -1.2947  0.2397
  729MPD2    H210779   3.706   1.749  17.177  0.4946 -0.5578 -0.8159
  729MPD2    H310780   3.729   1.817  17.395 -1.1664 -0.2465  0.0617
  729MPD2     N10781   3.739   1.408  17.571 -0.6578  0.4925 -0.2194
  729MPD2    H510782   3.748   1.452  17.662  0.8533  2.5766 -1.3939
  729MPD2    N110783   3.713   1.501  17.087 -0.9978  0.0644  0.3640
  729MPD2    H710784   3.740   1.576  17.024  0.5668 -2.2701 -1.7360
  730TMC3    C110785   3.857   1.239  17.662  0.1468  0.6106  0.1389
  730TMC3    C210786   3.943   1.160  17.593 -0.2502  0.5236 -0.4925
  730TMC3    C310787   4.075   1.178  17.594 -0.3286 -0.4753 -0.0820
  730TMC3    C410788   3.905   1.343   0.028  0.6388  0.1073  0.2708
  730TMC3    C510789   4.042   1.354   0.032 -0.6946 -0.2886  0.1816
  730TMC3    C610790   4.130   1.270  17.670  0.3959 -0.2694  0.8037
  730TMC3     C10791   3.749   1.267  17.574 -0.4760  0.3520  0.0892
  730TMC3     O10792   3.698   1.186  17.502  0.2927  0.4345 -0.5614
  730TMC3     H10793   3.907   1.076  17.535 -1.7711  0.5610  0.4065
  730TMC3    H110794   3.849   1.404   0.098 -0.8666  0.8831 -1.6027
  730TMC3    H210795   4.236   1.291  17.668  0.4829 -0.8085 -0.3233
  730TMC3    C710796   4.087   1.489   0.011  0.8176  0.1935  0.7092
  730TMC3    C810797   4.141   1.141  17.467  0.6218 -0.8183  0.5910
  730TMC3    O110798   4.183   1.511  17.643  0.1807 -0.2113 -0.1279
  730TMC3    O210799   4.107   1.036  17.411 -0.7662 -0.4363  0.0792
  731MPD2     C10800   3.619   3.697  12.303  0.1237 -1.1777 -0.2903
  731MPD2    C110801   3.717   3.789  12.292 -1.2685  0.5772  0.9495
  731MPD2    C210802   3.781   3.838  12.403 -0.2617 -0.3974  0.7559
  731MPD2    C310803   3.747   3.795  12.531 -0.2598 -0.1290  0.3256
  731MPD2    C410804   3.637   3.711  12.541  0.1069  0.6609  1.0182
  731MPD2    C510805   3.578   3.661  12.425 -0.1071  0.3916 -0.1218
  731MPD2     H10806   3.863   3.909  12.398 -0.4822 -0.1303  0.8840
  731MPD2    H110807   3.589   3.682  12.634 -1.4574 -1.2578 -0.3913
  731MPD2    H210808   3.564   3.664  12.216 -0.6881  1.4678 -0.7940
  731MPD2    H310809   3.493   3.593  12.427 -1.5351  2.1565 -2.3932
  731MPD2     N10810   3.827   3.856  12.633  0.3841 -0.2579  0.1853
  731MPD2    H510811   3.909   3.902  12.596  0.1002  0.9746  1.0892
  731MPD2    N110812   3.758   3.818  12.159  0.6284 -0.3885 -0.1929
  731MPD2    H710813   3.705   3.783  12.080 -0.7854  0.4516  0.3883
  732TMC3    C110814   3.872   3.918  11.983 -0.4219 -0.6836 -0.7041
  732TMC3    C210815   3.759   3.974  11.916  0.3463 -0.1256  0.1547
  732TMC3    C310816   3.770   4.050  11.804 -0.4247 -0.2474 -0.3243
  732TMC3    C410817   3.989   3.926  11.922  0.6783  0.0764 -0.0270
  732TMC3    C510818   3.994   3.991  11.798  0.1613 -0.1394  0.3414
  732TMC3    C610819   3.888   4.058  11.741 -0.1999 -0.4382 -0.3449
  732TMC3     C10820   3.872   3.882  12.124 -0.6188  0.0227  0.0481
  732TMC3     O10821   3.971   3.909  12.188  0.8623 -0.2772 -0.3138
  732TMC3     H10822   3.660   3.969  11.961  0.8524  0.6471  1.3581
  732TMC3    H110823   4.077   3.875  11.959  0.5496  0.7599  1.2432
  732TMC3    H210824   3.914   4.125  11.660 -0.5600  0.2191  0.0853
  732TMC3    C710825   4.123   4.050  11.773 -0.1442  0.0935  0.3565
  732TMC3    C810826   3.692   4.165  11.783  0.1203  0.0466 -0.1198
  732TMC3    O110827   4.172   4.049  11.661  0.6426 -0.1625  0.0431
  732TMC3    O210828   3.696   4.204  11.666 -0.2069  0.0641  0.1572
  733TMC3    C110829   0.825   2.194  13.014  0.3514  0.7768  0.3171
  733TMC3    C210830   0.904   2.285  13.083 -0.1970 -0.8783 -0.2121
  733TMC3    C310831   0.995   2.348  13.011  0.0656  0.1042 -0.4840
  733TMC3    C410832   0.840   2.160  12.882  0.3204 -0.2172 -0.0620
  733TMC3    C510833   0.940   2.227  12.813 -0.8526 -0.6208 -0.4647
  733TMC3    C610834   1.010   2.328  12.877 -0.4285 -0.3470  0.2456
  733TMC3     C10835   0.686   2.196  13.050 -0.4686 -0.0335  0.2408
  733TMC3     O10836   0.652   2.301  13.104  0.0016  0.1221  0.0836
  733TMC3     H10837   0.879   2.310  13.186  1.4607  0.1488 -0.0612
  733TMC3    H110838   0.774   2.098  12.823  0.2465  0.6624 -0.8941
  733TMC3    H210839   1.089   2.381  12.825 -0.6168 -0.7618 -0.4724
  733TMC3    C710840   0.890   2.285  12.686  0.6740 -0.5028  0.2619
  733TMC3    C810841   0.995   2.492  13.030 -0.0791 -0.4698  0.8614
  733TMC3    O110842   0.833   2.214  12.604 -0.4165 -0.0760 -0.5147
  733TMC3    O210843   0.986   2.557  12.929 -0.1066 -0.5201  0.1008
  734MPD2     C10844   2.199   0.359  12.567  0.2735 -0.2985 -0.0076
  734MPD2    C110845   2.258   0.299  12.460  0.5155 -0.3981 -0.3357
  734MPD2    C210846   2.291   0.375  12.351  0.0608 -0.3896  0.2075
  734MPD2    C310847   2.278   0.512  12.349  0.1089  0.3540 -0.1513
  734MPD2    C410848   2.211   0.574  12.454 -0.3671 -0.0330  0.7310
  734MPD2    C510849   2.165   0.496  12.555 -0.1728  0.3608  0.8916
  734MPD2     H10850   2.327   0.323  12.263 -0.1379 -1.9074  1.0201
  734MPD2    H110851   2.182   0.678  12.448  0.1013  0.0143 -0.6321
  734MPD2    H210852   2.161   0.296  12.647  0.3554  2.1645  1.9656
  734MPD2    H310853   2.108   0.550  12.630 -0.4217 -0.2720  1.1619
  734MPD2     N10854   2.303   0.581  12.229  0.3526  0.1245  0.9214
  734MPD2    H510855   2.337   0.527  12.150  1.9941  0.9342  1.0727
  734MPD2    N110856   2.269   0.162  12.451 -0.2128  0.3195  0.6487
  734MPD2    H710857   2.301   0.117  12.365  1.8285  0.1614  1.4868
  735TMC3    C110858   2.261   4.668  12.500  0.6645 -0.2737 -0.3200
  735TMC3    C210859   2.172   4.671  12.390 -0.6745  0.1628 -0.7040
  735TMC3    C310860   2.169   4.564  12.308 -0.1064 -0.8455 -0.0963
  735TMC3    C410861   2.367   4.579  12.503 -0.0462  0.0600  0.0254
  735TMC3    C510862   2.355   4.468  12.422  0.2490  0.3721  0.1380
  735TMC3    C610863   2.266   4.461  12.319  0.0412 -0.2748 -0.3575
  735TMC3     C10864   2.279   0.072  12.553  0.3898  0.5666 -0.3987
  735TMC3     O10865   2.278   0.084  12.672 -0.1479 -0.1270  0.4350
  735TMC3     H10866   2.086   0.009  12.401 -0.9511 -0.4041  0.4384
  735TMC3    H110867   2.435   4.577  12.587  0.5960 -0.8790 -0.5251
  735TMC3    H210868   2.261   4.377  12.251  2.5883 -0.1511 -0.6777
  735TMC3    C710869   2.464   4.382  12.397  0.0729 -0.4124 -0.7382
  735TMC3    C810870   2.127   4.585  12.171 -0.7733  0.5012  0.3235
  735TMC3    O110871   2.467   4.337  12.284 -0.2360 -0.3380 -0.1006
  735TMC3    O210872   2.135   4.491  12.088  0.0198  0.1039 -0.1267
  736MPD2     C10873   2.698   4.174  12.588 -0.2697 -0.0169  0.5154
  736MPD2    C110874   2.659   4.256  12.485 -0.7579 -0.0761  0.0312
  736MPD2    C210875   2.724   4.243  12.368 -0.4427  0.4225 -0.4301
  736MPD2    C310876   2.827   4.153  12.340  0.3950 -0.7573 -0.2343
  736MPD2    C410877   2.861   4.061  12.445  0.2183  0.3321  0.3226
  736MPD2    C510878   2.789   4.069  12.567  0.2413  0.1853 -0.7139
  736MPD2     H10879   2.699   4.302  12.280 -0.8955 -1.7227 -1.7274
  736MPD2    H110880   2.917   3.969  12.433  0.2594  0.3117  0.6517
  736MPD2    H210881   2.650   4.179  12.685 -2.2986  1.9525 -0.5763
  736MPD2    H310882   2.814   4.004  12.649  1.0812 -1.1307 -2.0286
  736MPD2     N10883   2.886   4.135  12.208 -0.1839  0.6782 -0.1534
  736MPD2    H510884   2.970   4.077  12.206 -0.1486  0.7133  0.2769
  736MPD2    N110885   2.543   4.343  12.503 -0.4149 -0.0827 -0.4698
  736MPD2    H710886   2.515   4.364  12.598 -2.4856 -4.0504 -0.2277
  737TMC3    C110887   2.950   4.212  11.995  0.1910 -0.3698  0.6562
  737TMC3    C210888   2.909   4.265  11.883 -0.3193 -0.5015  0.2124
  737TMC3    C310889   2.991   4.274  11.783 -0.1123  0.1989 -0.1141
  737TMC3    C410890   3.068   4.148  12.002 -0.0463 -0.2035  0.3782
  737TMC3    C510891   3.159   4.176  11.907 -0.2725  0.7197  0.6291
  737TMC3    C610892   3.126   4.233  11.792  1.1306 -0.3572  0.0217
  737TMC3     C10893   2.848   4.206  12.097  0.0104 -0.9904  0.6424
  737TMC3     O10894   2.748   4.270  12.075 -0.2477 -0.3036  0.0308
  737TMC3     H10895   2.807   4.302  11.871  0.7820  2.3395 -0.4754
  737TMC3    H110896   3.097   4.104  12.097  1.9183  1.2975  0.4659
  737TMC3    H210897   3.194   4.261  11.712  0.9254 -0.0910 -0.0603
  737TMC3    C710898   3.253   4.069  11.896  0.4588  0.2808  0.2449
  737TMC3    C810899   2.931   4.347  11.678 -0.5238 -0.0795 -0.1541
  737TMC3    O110900   3.258   3.984  11.986 -0.5063 -0.2781 -0.3117
  737TMC3    O210901   2.863   4.442  11.713  0.0252  0.6019  0.7421
  738MPD2     C10902   3.202   3.635  15.682 -0.1267  0.5180  0.3838
  738MPD2    C110903   3.152   3.586  15.561  0.1256  0.3698  0.2480
  738MPD2    C210904   3.205   3.646  15.444  0.6683  0.3338 -0.1361
  738MPD2    C310905   3.286   3.758  15.458 -0.6242 -0.6030  0.0539
  738MPD2    C410906   3.326   3.809  15.585 -0.3203  0.2367  0.2257
  738MPD2    C510907   3.289   3.741  15.694 -0.2179  0.1592 -1.5035
  738MPD2     H10908   3.172   3.599  15.352 -1.5092  1.2094  0.2044
  738MPD2    H110909   3.385   3.898  15.599  1.2344 -0.7009 -0.3827
  738MPD2    H210910   3.177   3.589  15.777  0.7136  0.9417  0.8113
  738MPD2    H310911   3.326   3.769  15.792 -0.6457 -0.5455 -1.1386
  738MPD2     N10912   3.333   3.825  15.343 -0.0716 -0.6535 -0.0611
  738MPD2    H510913   3.386   3.909  15.362  0.9994 -1.2164 -0.5878
  738MPD2    N110914   3.083   3.461  15.550 -0.1102 -0.2875  0.3847
  738MPD2    H710915   3.074   3.420  15.457  1.4030  1.3011 -0.4897
  739TMC3    C110916   3.419   3.859  15.129  1.0964 -0.0610  0.2002
  739TMC3    C210917   3.392   3.850  14.991  0.2704 -0.8959  0.1825
  739TMC3    C310918   3.498   3.888  14.914 -0.2370 -0.4314  0.3511
  739TMC3    C410919   3.535   3.903  15.180 -0.0332  0.6781 -0.3091
  739TMC3    C510920   3.638   3.934  15.097 -0.1460 -0.1208 -0.3172
  739TMC3    C610921   3.625   3.931  14.957  0.4644  1.0222  0.3515
  739TMC3     C10922   3.321   3.792  15.212 -0.2345  0.0731  0.1041
  739TMC3     O10923   3.228   3.734  15.151 -0.3301  0.0856 -0.0165
  739TMC3     H10924   3.288   3.840  14.960  0.8697 -0.0052 -2.0817
  739TMC3    H110925   3.562   3.898  15.284 -4.2043 -3.1368  0.6147
  739TMC3    H210926   3.699   3.970  14.889 -1.0526 -1.0241 -2.4553
  739TMC3    C710927   3.769   3.953  15.158 -0.3540  0.3753  0.1719
  739TMC3    C810928   3.463   3.908  14.771 -0.1022  0.3801 -0.9219
  739TMC3    O110929   3.771   3.938  15.278 -0.1966 -0.7651  0.2950
  739TMC3    O210930   3.342   3.897  14.753 -0.1028  0.0692 -0.0590
  740TMC3    C110931   3.457   0.398  14.388 -0.0285  0.7406  0.1077
  740TMC3    C210932   3.541   0.418  14.498  0.2545 -0.7512 -0.0883
  740TMC3    C310933   3.674   0.389  14.490  0.8744 -0.1186  0.0855
  740TMC3    C410934   3.517   0.375  14.267 -0.4153 -0.3373  0.3074
  740TMC3    C510935   3.650   0.361  14.256  0.0344 -0.3243  0.1023
  740TMC3    C610936   3.724   0.352  14.371  0.5614  0.1232  0.1354
  740TMC3     C10937   3.316   0.425  14.402 -0.2556 -0.2541 -0.3588
  740TMC3     O10938   3.269   0.497  14.316 -0.0457 -0.3079  0.6397
  740TMC3     H10939   3.509   0.431  14.600  2.0223  0.8648  0.2632
  740TMC3    H110940   3.446   0.346  14.190 -0.6246  1.2763 -0.1004
  740TMC3    H210941   3.826   0.314  14.367  1.3615  2.2987  0.0559
  740TMC3    C710942   3.706   0.285  14.142  0.0359 -0.2235  1.0138
  740TMC3    C810943   3.753   0.336  14.601  0.2131  0.1105 -0.4924
  740TMC3    O110944   3.797   0.208  14.161  0.4900  0.2721 -0.2326
  740TMC3    O210945   3.847   0.261  14.582 -0.4842 -0.3248  0.4150
  741TMC3    C110946   3.302   4.257  14.359 -0.4457 -0.1779 -0.0754
  741TMC3    C210947   3.193   4.248  14.433 -0.0919  0.1782  0.4891
  741TMC3    C310948   3.203   4.210  14.563  0.3622  0.4145 -0.4596
  741TMC3    C410949   3.426   4.235  14.411  0.5928  0.4875  0.4491
  741TMC3    C510950   3.431   4.214  14.545  0.4970 -0.0333 -0.1636
  741TMC3    C610951   3.325   4.205  14.625  0.2347 -0.6107  0.1598
  741TMC3     C10952   3.278   4.213  14.224 -0.7498 -0.1131  0.2974
  741TMC3     O10953   3.168   4.245  14.173  0.4328 -0.4009  1.1704
  741TMC3     H10954   3.095   4.272  14.394 -1.2016 -0.3363  2.9790
  741TMC3    H110955   3.516   4.261  14.358  1.1237 -1.2469  0.4874
  741TMC3    H210956   3.332   4.200  14.733 -2.6802  0.6369  0.4096
  741TMC3    C710957   3.555   4.219  14.618 -0.7020 -0.1396  0.4942
  741TMC3    C810958   3.085   4.166  14.627  0.2436  0.3863 -0.1304
  741TMC3    O110959   3.545   4.247  14.738 -0.2328 -0.0433 -0.2118
  741TMC3    O210960   2.984   4.236  14.620  0.2895 -0.2206  0.0643
  742TMC3    C110961   3.196   2.765  15.432 -0.1447 -0.2754  0.2977
  742TMC3    C210962   3.117   2.763  15.321 -0.0375 -0.6640 -0.9950
  742TMC3    C310963   3.175   2.717  15.205  0.0521 -0.3523 -0.5965
  742TMC3    C410964   3.332   2.749  15.424 -0.0534 -0.0728 -0.6257
  742TMC3    C510965   3.385   2.728  15.303  0.1811  0.5847  0.3306
  742TMC3    C610966   3.306   2.717  15.194 -0.3298  0.5965  0.2866
  742TMC3     C10967   3.154   2.829  15.555  0.1192  0.5430 -0.0078
  742TMC3     O10968   3.037   2.802  15.592  0.7408  0.2567  0.3633
  742TMC3     H10969   3.009   2.764  15.337 -0.1809  1.7733 -2.1874
  742TMC3    H110970   3.395   2.748  15.512  0.1536  2.1868 -0.7533
  742TMC3    H210971   3.343   2.693  15.095 -0.5198 -0.5794  0.4955
  742TMC3    C710972   3.523   2.695  15.288  0.3415  0.0273  0.7746
  742TMC3    C810973   3.091   2.653  15.104  0.5301 -0.5841 -0.1119
  742TMC3    O110974   3.554   2.624  15.193  0.4978  0.5503  0.0292
  742TMC3    O210975   3.161   2.610  15.012  0.3336 -0.7886  0.1833
  743MPD2     C10976   0.657   4.564   2.267  0.2319 -0.5797  0.3218
  743MPD2    C110977   0.707   4.482   2.166  0.1579  0.0974  0.2683
  743MPD2    C210978   0.843   4.462   2.165 -0.0690  1.0936  0.7108
  743MPD2    C310979   0.922   4.507   2.266 -0.6115  0.5807  0.1168
  743MPD2    C410980   0.868   4.590   2.370 -0.0759  0.0230  0.1452
  743MPD2    C510981   0.734   4.618   2.367 -0.1684  0.3892 -0.1296
  743MPD2     H10982   0.889   4.405   2.085  1.1987  2.9314  0.1341
  743MPD2    H110983   0.922   4.634   2.453  0.0407  1.4563 -0.6974
  743MPD2    H210984   0.556   4.602   2.271  1.2211  1.8863  1.4429
  743MPD2    H310985   0.691   4.688   2.437  2.5670  2.8402 -0.9074
  743MPD2     N10986   1.061   4.483   2.249  0.1412 -0.2193 -0.3890
  743MPD2    H510987   1.089   4.427   2.168  1.9464  1.1765 -0.7288
  743MPD2    N110988   0.621   4.424   2.067 -0.1841 -1.0390  0.2485
  743MPD2    H710989   0.522   4.439   2.086 -0.1255  1.9366 -1.8770
  744TMC3    C110990   0.560   4.264   1.900  0.2467 -0.0072  0.1372
  744TMC3    C210991   0.439   4.327   1.885 -0.4573 -0.2758  0.5464
  744TMC3    C310992   0.389   4.304   1.760 -0.2679 -0.5370  0.5335
  744TMC3    C410993   0.620   4.184   1.805 -0.1367 -0.2691  0.0853
  744TMC3    C510994   0.566   4.173   1.684  0.1215  0.6496  0.3974
  744TMC3    C610995   0.450   4.241   1.659 -0.2966 -0.1440  0.1961
  744TMC3     C10996   0.662   4.326   1.978  0.7005 -0.6882 -0.7072
  744TMC3     O10997   0.772   4.269   1.970 -0.4747  0.3404  0.4069
  744TMC3     H10998   0.403   4.405   1.952 -0.4804  1.5081 -1.5413
  744TMC3    H110999   0.699   4.115   1.832 -1.3409 -2.1525 -1.2407
  744TMC3    H211000   0.396   4.215   1.568 -1.2341  1.0318  0.4172
  744TMC3    C711001   0.625   4.101   1.573  0.5112  1.0016  0.2824
  744TMC3    C811002   0.291   4.402   1.710  0.0848  0.4943  0.5447
  744TMC3    O111003   0.565   4.103   1.466 -1.1339  1.0089  0.0467
  744TMC3    O211004   0.308   4.440   1.598 -0.6082 -0.0902 -0.3591
  745TMC3    C111005   4.188   2.236  13.933  0.0389  0.4316  0.4226
  745TMC3    C211006   4.093   2.212  14.026  0.0475  0.7842  0.6827
  745TMC3    C311007   3.965   2.225  13.987  0.7295 -0.4149 -0.0282
  745TMC3    C411008   4.157   2.232  13.797  0.1324  0.5297 -0.0687
  745TMC3    C511009   4.026   2.230  13.755  0.3237 -0.2000  0.1780
  745TMC3    C611010   3.933   2.237  13.857  0.1305  0.1947  0.1050
  745TMC3     C11011   4.268   2.352  13.965 -0.1012 -0.2554 -0.3750
  745TMC3     O11012   4.316   2.370  14.076 -0.1644  0.5204  0.4279
  745TMC3     H11013   4.119   2.199  14.131  0.8639 -0.4709  0.3223
  745TMC3    H111014   4.233   2.222  13.720 -0.3313  1.6223 -0.6530
  745TMC3    H211015   3.828   2.226  13.834  0.9378 -0.3301 -3.2385
  745TMC3    C711016   3.983   2.278  13.625  0.6888  0.0496 -0.1469
  745TMC3    C811017   3.885   2.311  14.069 -0.9334  0.4422  0.0437
  745TMC3    O111018   3.867   2.317  13.619 -0.1120 -0.6197 -0.2132
  745TMC3    O211019   3.768   2.312  14.034 -0.2414 -0.4122  0.5339
  746TMC3    C111020   1.343   4.426  11.263 -0.1392 -0.0924 -0.1612
  746TMC3    C211021   1.442   4.330  11.274  0.0643 -0.4207  0.9856
  746TMC3    C311022   1.410   4.199  11.242 -1.0426  0.2454  0.9048
  746TMC3    C411023   1.208   4.396  11.246  0.2904 -0.3665  0.3163
  746TMC3    C511024   1.183   4.268  11.220 -0.6789 -0.0588  0.0285
  746TMC3    C611025   1.282   4.174  11.230  0.0930  0.6189 -0.3142
  746TMC3     C11026   1.371   4.566  11.238 -0.3927 -0.0317 -0.7886
  746TMC3     O11027   1.274   4.645  11.232 -0.3677  0.3494 -0.1547
  746TMC3     H11028   1.544   4.359  11.296 -0.1858  0.8828  0.4041
  746TMC3    H111029   1.130   4.471  11.246  0.7617  0.1278 -0.5120
  746TMC3    H211030   1.248   4.075  11.203 -1.1792  0.8047  0.6329
  746TMC3    C711031   1.093   4.250  11.111  0.2377 -1.0478  0.1058
  746TMC3    C811032   1.485   4.136  11.135 -0.0159 -0.1668  0.0825
  746TMC3    O111033   1.108   4.173  11.020 -0.5032 -0.4765 -0.1734
  746TMC3    O211034   1.440   4.040  11.075 -0.3590 -0.6772  1.1076
  747TMC3    C111035   3.899   4.071  11.112  0.5426  0.1791  0.4295
  747TMC3    C211036   3.863   3.967  11.191  0.0805 -0.1665 -0.1375
  747TMC3    C311037   3.793   4.002  11.307  0.5643  0.0556 -0.1843
  747TMC3    C411038   3.865   4.200  11.133  0.3692  0.1695 -0.0551
  747TMC3    C511039   3.800   4.227  11.247 -0.3712  0.0480 -1.0396
  747TMC3    C611040   3.760   4.129  11.334  0.8332 -0.1593 -0.3217
  747TMC3     C11041   3.979   4.053  10.994  0.4922 -0.3090 -0.0419
  747TMC3     O11042   4.061   4.142  10.981  0.2822  0.4468 -0.2792
  747TMC3     H11043   3.893   3.867  11.161  2.1571  0.6192 -0.6451
  747TMC3    H111044   3.886   4.272  11.055 -0.4439  0.5093  0.0449
  747TMC3    H211045   3.716   4.169  11.424  0.4012 -0.4280 -0.4089
  747TMC3    C711046   3.734   4.359  11.253 -0.1244 -0.2700  0.2881
  747TMC3    C811047   3.745   3.895  11.389  0.1226 -0.0305  0.8258
  747TMC3    O111048   3.799   4.459  11.225  0.5247 -0.2147 -0.0308
  747TMC3    O211049   3.811   3.791  11.403 -0.2472 -0.0807 -0.6963
  748MPD2     C11050   0.042   0.501   1.539  0.2890  0.3069 -0.9116
  748MPD2    C111051   0.120   0.442   1.633  0.6413  0.0069  0.7135
  748MPD2    C211052   0.256   0.463   1.639  0.0979 -0.7022 -0.6790
  748MPD2    C311053   0.309   0.560   1.556  0.7907 -0.2022 -0.1765
  748MPD2    C411054   0.234   0.617   1.459  0.0626  0.2791  0.5810
  748MPD2    C511055   0.097   0.591   1.450  0.2291 -0.5442  0.2284
  748MPD2     H11056   0.315   0.427   1.723 -1.7293 -2.9281 -0.3603
  748MPD2    H111057   0.273   0.673   1.375 -2.7376  2.5971  0.8098
  748MPD2    H211058   4.660   0.490   1.542  0.4174 -1.1468 -1.4007
  748MPD2    H311059   0.036   0.642   1.377 -2.4526 -2.6311  1.0079
  748MPD2     N11060   0.445   0.589   1.584 -0.6941 -0.1648  0.4177
  748MPD2    H511061   0.491   0.533   1.656  1.7391 -1.1271 -1.9051
  748MPD2    N111062   0.052   0.354   1.722  0.5816 -0.6917  0.6256
  748MPD2    H711063   4.677   0.349   1.715  0.3809  2.7924  1.0480
  749TMC3    C111064   0.663   0.657   1.527  0.3895 -0.0523 -0.0405
  749TMC3    C211065   0.718   0.608   1.640 -0.3988  0.0365 -0.0216
  749TMC3    C311066   0.853   0.595   1.644  0.4222  0.3406 -0.1490
  749TMC3    C411067   0.739   0.708   1.426 -0.1373  0.4665  0.2190
  749TMC3    C511068   0.877   0.706   1.444 -0.1819  0.4948 -0.3132
  749TMC3    C611069   0.934   0.647   1.553 -0.1010 -0.5919 -0.5622
  749TMC3     C11070   0.521   0.675   1.508 -0.3378 -0.2745 -0.4231
  749TMC3     O11071   0.487   0.753   1.419 -0.0359  0.2844 -0.0181
  749TMC3     H11072   0.662   0.590   1.731  1.0354 -0.4744  0.7675
  749TMC3    H111073   0.700   0.753   1.335  0.5605  1.8679  0.6230
  749TMC3    H211074   1.039   0.658   1.575  0.3078  0.8026 -3.0700
  749TMC3    C711075   0.961   0.760   1.342  0.6611  0.2969 -0.9506
  749TMC3    C811076   0.913   0.514   1.750 -0.1381  0.0443 -0.1889
  749TMC3    O111077   0.911   0.835   1.259  0.3172 -0.7647  0.5615
  749TMC3    O211078   0.849   0.492   1.849  0.3547 -0.0335 -0.4597
  750MPD2     C11079   1.875   1.712  11.411  0.2088 -0.6155 -0.8124
  750MPD2    C111080   1.750   1.654  11.420 -0.0494 -0.0172 -0.4687
  750MPD2    C211081   1.725   1.544  11.344 -0.2855  0.4259 -0.1618
  750MPD2    C311082   1.824   1.488  11.266 -0.1645  0.6271 -0.5466
  750MPD2    C411083   1.951   1.537  11.281  0.7464 -0.5696 -0.6758
  750MPD2    C511084   1.973   1.658  11.339 -0.4598 -0.1789  0.0733
  750MPD2     H11085   1.628   1.500  11.358 -0.6701  0.2325 -3.5427
  750MPD2    H111086   2.032   1.483  11.232  0.3008 -3.6355  2.0154
  750MPD2    H211087   1.901   1.806  11.459 -0.9100 -1.4709  1.4398
  750MPD2    H311088   2.075   1.695  11.335  0.0418 -1.2756  2.8594
  750MPD2     N11089   1.797   1.368  11.188 -0.1858 -0.5191 -0.5345
  750MPD2    H511090   1.882   1.313  11.177  0.9132  1.2856 -0.9214
  750MPD2    N111091   1.657   1.710  11.505  0.3849 -0.4298 -0.2959
  750MPD2    H711092   1.686   1.775  11.578 -1.5954 -1.0453  1.0358
  751TMC3    C111093   1.662   1.179  11.099 -0.6736 -0.8387 -0.0710
  751TMC3    C211094   1.537   1.122  11.074  0.3513  0.1370  0.6656
  751TMC3    C311095   1.529   0.996  11.026 -0.0458 -0.5063  0.0228
  751TMC3    C411096   1.771   1.097  11.081 -0.1204 -0.6140 -0.0301
  751TMC3    C511097   1.752   0.966  11.037 -0.1341  0.8309  1.0657
  751TMC3    C611098   1.633   0.912  11.006  0.7311  0.1784 -0.0300
  751TMC3     C11099   1.671   1.312  11.162  0.8910  0.7824  0.3134
  751TMC3     O11100   1.564   1.372  11.172 -0.0285  0.1752 -0.3131
  751TMC3     H11101   1.452   1.187  11.092  0.6438  1.1884 -1.7271
  751TMC3    H111102   1.874   1.132  11.084 -0.3963  0.1980 -0.2516
  751TMC3    H211103   1.627   0.809  10.975  0.3309  0.4245 -0.7710
  751TMC3    C711104   1.867   0.895  10.985  0.6816  0.3671 -0.0949
  751TMC3    C811105   1.402   0.933  11.002  0.2218  0.6992 -0.8315
  751TMC3    O111106   1.945   0.942  10.902  0.2200  0.0174  1.0801
  751TMC3    O211107   1.404   0.812  10.974  0.5298 -0.3140 -0.1151
  752TMC3    C111108   4.217   0.693  17.480  0.3755  0.9713  0.0809
  752TMC3    C211109   4.323   0.641  17.548  0.1909  0.0693  0.3813
  752TMC3    C311110   4.349   0.685  17.674 -0.5769 -0.3396  0.0128
  752TMC3    C411111   4.117   0.764  17.550  0.0126 -0.3744  0.6983
  752TMC3    C511112   4.142   0.798  17.681  0.3731 -0.4371 -0.9996
  752TMC3    C611113   4.263   0.768   0.036 -0.2438  0.1578  0.0009
  752TMC3     C11114   4.215   0.669  17.338  0.0289 -0.0978  0.2711
  752TMC3     O11115   4.281   0.578  17.294  0.2518  0.9446 -0.2258
  752TMC3     H11116   4.389   0.578  17.492  0.9220  2.3053 -1.2754
  752TMC3    H111117   4.032   0.805  17.497  0.9637  1.4599  0.5868
  752TMC3    H211118   4.285   0.806   0.135 -0.9036  0.8151 -0.1110
  752TMC3    C711119   4.026   0.852   0.044  0.8648  0.7356  0.0213
  752TMC3    C811120   4.479   0.649   0.019  0.1885  0.5932 -0.0616
  752TMC3    O111121   3.914   0.813   0.015 -0.1169  0.0604 -0.3185
  752TMC3    O211122   4.538   0.549  17.685  0.0485  0.2646  0.5457
  753TMC3    C111123   2.083   2.746  13.693 -0.1284  1.0781 -0.6312
  753TMC3    C211124   2.138   2.679  13.803 -0.1247  0.4048 -0.6859
  753TMC3    C311125   2.164   2.549  13.784  0.4661  0.2525  0.3180
  753TMC3    C411126   2.085   2.685  13.565  0.4488 -0.5864  0.1882
  753TMC3    C511127   2.136   2.558  13.544 -0.4164  0.2376 -0.1539
  753TMC3    C611128   2.165   2.486  13.661 -0.3608 -0.4764  0.1899
  753TMC3     C11129   2.061   2.888  13.693  0.0865 -0.1258 -0.0926
  753TMC3     O11130   2.026   2.947  13.586  0.7469  0.4440 -0.1059
  753TMC3     H11131   2.156   2.728  13.898 -1.9528  1.0615 -0.6956
  753TMC3    H111132   2.055   2.744  13.479  2.7744  0.6461  0.2301
  753TMC3    H211133   2.194   2.382  13.652 -2.2848 -1.0241  0.2983
  753TMC3    C711134   2.204   2.538  13.417 -0.1074  0.2821  0.3784
  753TMC3    C811135   2.219   2.467  13.896 -0.0505 -0.0356 -1.0631
  753TMC3    O111136   2.199   2.637  13.340 -0.2361 -0.3884  0.0062
  753TMC3    O211137   2.192   2.348  13.890  0.1221  0.2441  0.2900
  754MPD2     C11138   0.616   0.211  13.184  0.2870  0.1499  0.5790
  754MPD2    C111139   0.642   0.348  13.167  0.2911  0.2749  0.1869
  754MPD2    C211140   0.542   0.441  13.139  0.2833  0.4371 -0.6083
  754MPD2    C311141   0.411   0.392  13.132 -0.0826 -0.0318 -0.0878
  754MPD2    C411142   0.386   0.252  13.150 -0.2930  0.2063 -0.0711
  754MPD2    C511143   0.488   0.164  13.170 -0.4432  0.4336  0.1915
  754MPD2     H11144   0.563   0.547  13.133  0.1488  0.4191 -1.4011
  754MPD2    H111145   0.282   0.224  13.145 -0.3668  0.2104  1.6807
  754MPD2    H211146   0.689   0.137  13.213  0.5972  0.9221  1.7453
  754MPD2    H311147   0.469   0.058  13.180  1.5313  0.0342 -0.3403
  754MPD2     N11148   0.299   0.483  13.134 -0.5634  0.3919 -0.1971
  754MPD2    H511149   0.204   0.456  13.158 -0.4568 -0.2101 -0.4562
  754MPD2    N111150   0.773   0.396  13.188  0.3468  0.0106 -0.2246
  754MPD2    H711151   0.844   0.324  13.186 -0.2817 -0.6339  0.7504
  755MPD2     C11152   0.504   1.105  13.796  0.5702  0.2599 -0.2029
  755MPD2    C111153   0.370   1.129  13.767 -0.2702 -0.0962 -0.5935
  755MPD2    C211154   0.306   1.056  13.668 -0.0473 -0.6274  0.7391
  755MPD2    C311155   0.373   0.963  13.589  0.6260  0.6018  0.6023
  755MPD2    C411156   0.502   0.942  13.620  0.2747  0.1852  0.1980
  755MPD2    C511157   0.567   1.009  13.719  1.3352 -0.6639 -0.9139
  755MPD2     H11158   0.200   1.066  13.650  0.1966 -1.3406 -1.0845
  755MPD2    H111159   0.563   0.870  13.566 -1.0111 -1.2417  0.6547
  755MPD2    H211160   0.570   1.149  13.870  0.0733 -0.3989  0.6271
  755MPD2    H311161   0.670   0.984  13.740  2.0212  3.6221  0.7211
  755MPD2     N11162   0.308   0.885  13.488 -0.3644 -0.5871  0.6987
  755MPD2    H511163   0.360   0.829  13.422  0.5297  0.2255  0.7063
  755MPD2    N111164   0.302   1.236  13.827  0.0624  0.0900 -0.3242
  755MPD2    H711165   0.212   1.254  13.784 -0.9134 -0.8636  1.3075
  756MPD2     C11166   1.528   2.207   9.563  0.8263 -0.1076  0.0189
  756MPD2    C111167   1.469   2.183   9.684 -0.5712 -0.6875 -0.3105
  756MPD2    C211168   1.364   2.093   9.690 -0.5201  0.6714 -0.0297
  756MPD2    C311169   1.320   2.029   9.577 -0.0774  0.3651  0.2473
  756MPD2    C411170   1.381   2.053   9.456 -0.8894 -0.2003  0.3362
  756MPD2    C511171   1.484   2.139   9.449  1.0105 -0.2815  0.1337
  756MPD2     H11172   1.303   2.088   9.779 -0.9169 -0.1512 -0.3507
  756MPD2    H111173   1.349   1.995   9.370  2.1589  0.9078 -1.5547
  756MPD2    H211174   1.607   2.280   9.552 -1.0618  1.7771 -0.8820
  756MPD2    H311175   1.546   2.151   9.361  0.1594 -2.3728 -0.7651
  756MPD2     N11176   1.208   1.949   9.586  0.2402 -0.1024 -0.2446
  756MPD2    H511177   1.167   1.949   9.679  0.1307 -0.0021 -0.2924
  756MPD2    N111178   1.505   2.240   9.806  0.6036  0.1383 -0.2749
  756MPD2    H711179   1.442   2.214   9.882  2.2536  1.7485  1.6338
  757MPD2     C11180   0.644   1.012   9.502 -0.7357  0.4424 -0.8209
  757MPD2    C111181   0.616   1.080   9.619 -0.0639 -0.0847 -0.3618
  757MPD2    C211182   0.671   1.205   9.641  0.4136  0.6091 -0.0943
  757MPD2    C311183   0.741   1.268   9.536 -0.5386 -0.2025  0.0290
  757MPD2    C411184   0.768   1.203   9.420  1.0715  0.3507 -0.5625
  757MPD2    C511185   0.720   1.074   9.399  0.5920 -0.6096 -0.1667
  757MPD2     H11186   0.672   1.254   9.737 -2.0741 -0.4142  0.4498
  757MPD2    H111187   0.833   1.240   9.341 -0.8710 -0.9680 -2.7729
  757MPD2    H211188   0.611   0.911   9.481 -0.8868  0.0119  1.5451
  757MPD2    H311189   0.747   1.020   9.309 -1.8002 -1.5267 -0.3279
  757MPD2     N11190   0.783   1.400   9.562  0.1248  0.0795  0.0775
  757MPD2    H511191   0.754   1.444   9.648 -0.4706 -0.6360  0.2376
  757MPD2    N111192   0.537   1.016   9.712 -0.1968  0.2596 -0.1035
  757MPD2    H711193   0.514   0.919   9.692  0.1703  0.9310 -3.8191
  758MPD2     C11194   0.808   0.550  16.652  0.4386  0.2353  0.4501
  758MPD2    C111195   0.893   0.469  16.727 -0.7870 -0.0330 -0.2662
  758MPD2    C211196   0.855   0.444  16.857 -0.2512 -0.0098  0.8064
  758MPD2    C311197   0.739   0.498  16.913 -0.0462 -0.9599  0.2733
  758MPD2    C411198   0.658   0.583  16.838 -0.4028  0.2211 -0.4868
  758MPD2    C511199   0.689   0.606  16.705 -0.4132 -0.2561 -0.4183
  758MPD2     H11200   0.924   0.389  16.920 -1.0921 -0.2200  1.5495
  758MPD2    H111201   0.569   0.620  16.889  0.3516  1.5720 -0.1530
  758MPD2    H211202   0.836   0.580  16.552  0.5326  2.0024  1.0073
  758MPD2    H311203   0.626   0.671  16.645 -1.2652  0.9333  1.7931
  758MPD2     N11204   0.698   0.472  17.044 -0.3888  0.6599  0.3071
  758MPD2    H511205   0.632   0.531  17.094  0.8396  4.8928 -3.0591
  758MPD2    N111206   1.013   0.418  16.666 -0.7436  0.0613 -0.2172
  758MPD2    H711207   1.031   0.451  16.571  0.6548  1.8446  0.6454
  759MPD2     C11208   4.513   3.916  10.405  0.3122  0.2164  0.9890
  759MPD2    C111209   4.583   3.799  10.413 -0.3119 -0.5120  0.4705
  759MPD2    C211210   4.689   3.783  10.327 -0.4728 -0.0074  0.1287
  759MPD2    C311211   0.007   3.883  10.241 -0.4020  0.9112  0.0998
  759MPD2    C411212   4.658   3.993  10.242  0.3447  0.0339 -0.2806
  759MPD2    C511213   4.544   4.002  10.312  0.0456 -0.1208 -0.2552
  759MPD2     H11214   0.011   3.686  10.323 -1.8628 -0.7094 -0.0335
  759MPD2    H111215   4.686   4.079  10.182 -0.7312  2.7646  3.1257
  759MPD2    H211216   4.420   3.930  10.459 -1.1527  0.3259 -1.5411
  759MPD2    H311217   4.492   4.097  10.301  0.7967  0.2698 -0.4138
  759MPD2     N11218   0.118   3.853  10.152  0.3757 -0.0610  0.2995
  759MPD2    H511219   0.160   3.761  10.162  1.4520  0.5390  1.1835
  759MPD2    N111220   4.546   3.691  10.493  0.2851  0.0576  0.6592
  759MPD2    H711221   4.587   3.605  10.458 -1.8892 -1.1367  1.0798
  760MPD2     C11222   4.422   1.323  11.604 -0.6985 -0.1182  0.1342
  760MPD2    C111223   4.379   1.357  11.726  0.9443  0.0555 -0.5876
  760MPD2    C211224   4.320   1.263  11.810 -0.4985 -0.7348  0.0515
  760MPD2    C311225   4.314   1.133  11.768  0.1853  0.3008  0.1848
  760MPD2    C411226   4.364   1.096  11.642  0.5391 -0.3164 -0.3178
  760MPD2    C511227   4.422   1.195  11.564 -0.4632 -0.1589 -0.4743
  760MPD2     H11228   4.300   1.289  11.913 -3.2745  1.2361 -0.9605
  760MPD2    H111229   4.360   0.990  11.620  0.6237 -0.4325  0.2257
  760MPD2    H211230   4.478   1.392  11.542  1.9557 -1.2988  1.1971
  760MPD2    H311231   4.475   1.167  11.473  2.6345 -2.4044  2.0066
  760MPD2     N11232   4.257   1.035  11.852  0.4124  0.2291  0.4204
  760MPD2    H511233   4.294   0.943  11.830 -0.6622 -0.0447 -0.2666
  760MPD2    N111234   4.396   1.494  11.761 -0.4509 -0.2741  0.2232
  760MPD2    H711235   4.460   1.546  11.701  1.0900 -1.0304  1.2018
  761MPD2     C11236   0.887   0.884  11.084  0.8640  0.0419 -0.2051
  761MPD2    C111237   0.971   0.804  11.017 -0.7201  0.1107  0.3407
  761MPD2    C211238   1.109   0.837  11.008 -0.5448 -0.0702  0.3350
  761MPD2    C311239   1.157   0.951  11.066 -0.1266 -0.6229 -0.5047
  761MPD2    C411240   1.066   1.033  11.126  0.9322 -0.0687  0.3860
  761MPD2    C511241   0.927   1.006  11.131 -0.0401  0.2003 -0.6164
  761MPD2     H11242   1.184   0.773  10.963 -0.2585  0.9929 -0.7111
  761MPD2    H111243   1.093   1.132  11.161  1.7008  0.1250 -0.7422
  761MPD2    H211244   0.789   0.850  11.118 -0.3928  0.9642 -2.9603
  761MPD2    H311245   0.862   1.080  11.176 -0.3382 -0.9242  0.8188
  761MPD2     N11246   1.289   1.006  11.053 -0.3611  0.6140  0.3798
  761MPD2    H511247   1.300   1.100  11.090  1.9072  1.0365 -1.3786
  761MPD2    N111248   0.916   0.681  10.974 -0.4176 -0.4159 -0.0296
  761MPD2    H711249   0.823   0.664  11.010  0.0130 -0.8185  0.8801
  762MPD2     C11250   1.458   0.527  10.806  0.5040  0.2216 -0.7307
  762MPD2    C111251   1.428   0.398  10.828 -1.2322  0.3746  0.5803
  762MPD2    C211252   1.519   0.299  10.832  0.2196  0.4238 -0.5512
  762MPD2    C311253   1.647   0.335  10.798  0.2254 -0.0094  0.3258
  762MPD2    C411254   1.680   0.472  10.774  0.0782 -0.2758 -0.4364
  762MPD2    C511255   1.588   0.566  10.782  0.0176  0.1528  0.3640
  762MPD2     H11256   1.485   0.197  10.842 -0.0713  0.4498 -1.2811
  762MPD2    H111257   1.783   0.503  10.767  0.2191 -0.8723 -1.0993
  762MPD2    H211258   1.381   0.602  10.824 -0.0415 -0.7606  1.0288
  762MPD2    H311259   1.622   0.669  10.784 -1.0247  0.4540  3.1286
  762MPD2     N11260   1.744   0.236  10.786  0.1567  0.2619 -0.7109
  762MPD2    H511261   1.711   0.149  10.826 -3.6851  1.0373 -2.1448
  762MPD2    N111262   1.288   0.374  10.844  0.1543 -1.0721 -1.1492
  762MPD2    H711263   1.225   0.452  10.832 -0.6756 -1.8086 -1.5389
  763MPD2     C11264   2.546   0.823  16.554  0.4987 -0.6216  0.2135
  763MPD2    C111265   2.603   0.897  16.451 -0.5442  0.3634 -0.0532
  763MPD2    C211266   2.677   1.011  16.487  0.2679 -0.2298  0.2523
  763MPD2    C311267   2.683   1.050  16.616 -0.6826 -0.4141 -0.2410
  763MPD2    C411268   2.614   0.985  16.716  0.4220 -0.0652  0.1111
  763MPD2    C511269   2.557   0.864  16.688  0.1432  0.2793  0.0904
  763MPD2     H11270   2.725   1.068  16.409 -1.2221  1.3760  0.4881
  763MPD2    H111271   2.602   1.038  16.810 -0.9734  1.1692 -0.7774
  763MPD2    H211272   2.495   0.728  16.539 -0.0072 -0.2301 -0.5682
  763MPD2    H311273   2.492   0.814  16.759  1.2597 -1.4141 -0.0988
  763MPD2     N11274   2.751   1.173  16.657  0.1781 -0.1857 -0.4612
  763MPD2    H511275   2.735   1.194  16.755 -0.2795 -2.6049 -0.0367
  763MPD2    N111276   2.596   0.858  16.311 -0.0816 -0.0856 -0.0576
  763MPD2    H711277   2.647   0.914  16.245  2.6580 -2.8488 -0.2903
  764MPD2     C11278   1.226   2.280  17.706  0.2917  0.5173 -0.0603
  764MPD2    C111279   1.141   2.208  17.627 -0.3619  0.0950  0.3828
  764MPD2    C211280   1.053   2.119  17.686  0.2463 -0.0679 -0.5942
  764MPD2    C311281   1.039   2.106   0.116 -0.2460 -0.4721  0.2149
  764MPD2    C411282   1.137   2.167   0.188  0.5212  0.4315 -0.3628
  764MPD2    C511283   1.228   2.251   0.133  0.0703  0.9352 -0.3602
  764MPD2     H11284   0.982   2.060  17.629  1.0823 -0.1573 -1.5576
  764MPD2    H111285   1.140   2.148   0.295 -0.2389  0.9582 -0.2514
  764MPD2    H211286   1.287   2.360  17.666 -1.9698  2.5930  0.6643
  764MPD2    H311287   1.308   2.292   0.193 -0.6595  2.0041 -0.1091
  764MPD2     N11288   0.940   2.025   0.168 -0.0286 -1.0460  0.5970
  764MPD2    H511289   0.865   2.001   0.103  0.2239 -0.1707 -0.0216
  764MPD2    N111290   1.137   2.213  17.476 -0.5764 -0.4310 -0.1553
  764MPD2    H711291   1.056   2.173  17.430 -0.6868  1.4064 -1.5425
  765MPD2     C11292   4.643   4.532  15.717  0.1969  0.5462  0.1667
  765MPD2    C111293   4.687   4.609  15.820  0.0747  0.8127  0.5015
  765MPD2    C211294   0.094   4.622  15.843  0.1983 -0.1555  0.0246
  765MPD2    C311295   0.187   4.551  15.766 -0.0396  0.5459 -0.4790
  765MPD2    C411296   0.133   4.473  15.669  0.3257  0.0236 -0.1569
  765MPD2    C511297   0.001   4.461  15.645  0.3018  0.8244  0.6747
  765MPD2     H11298   0.128   4.682  15.927 -2.1500 -2.8503  2.8804
  765MPD2    H111299   0.192   4.415  15.598 -0.5316 -2.7760  1.4266
  765MPD2    H211300   4.539   4.521  15.690  0.0831  1.2641  0.3154
  765MPD2    H311301   4.701   4.408  15.554  1.8976 -1.7767  1.7032
  765MPD2     N11302   0.324   4.549  15.801  0.2553  0.1131 -0.2823
  765MPD2    H511303   0.353   4.593  15.888  1.8261  0.6416 -1.0746
  765MPD2    N111304   4.583   4.663  15.901 -0.2227  0.6002  0.5273
  765MPD2    H711305   4.491   4.620  15.896  0.2950 -0.0842 -3.2557
  766MPD2     C11306   4.162   0.190  15.529 -0.3769  0.3060  0.0282
  766MPD2    C111307   4.290   0.214  15.575 -0.0148  0.4508 -0.4556
  766MPD2    C211308   4.401   0.206  15.485 -0.3804  0.2283 -0.2192
  766MPD2    C311309   4.388   0.161  15.354  0.0059  0.4648  0.1021
  766MPD2    C411310   4.258   0.132  15.312 -0.1227  0.1077 -0.6213
  766MPD2    C511311   4.153   0.147  15.399 -0.2909  0.2899  0.4303
  766MPD2     H11312   4.496   0.218  15.535  0.4588 -0.8269 -1.5547
  766MPD2    H111313   4.242   0.097  15.210  0.9515  1.6272 -1.3014
  766MPD2    H211314   4.073   0.192  15.591 -0.7423 -1.2085 -0.4645
  766MPD2    H311315   4.056   0.108  15.368 -0.5452  0.0864  1.4800
  766MPD2     N11316   4.501   0.161  15.260 -0.5279  0.9017  0.4435
  766MPD2    H511317   4.475   0.137  15.165 -1.7723  0.4677  0.8894
  766MPD2    N111318   4.308   0.243  15.711  0.0812 -0.1290  0.3129
  766MPD2    H711319   4.404   0.239  15.743 -0.5728 -1.3073  2.1527
  767MPD2     C11320   4.266   0.446  15.143  0.7666 -0.5231 -0.3858
  767MPD2    C111321   4.394   0.443  15.094 -0.9029  0.3219  0.2984
  767MPD2    C211322   4.430   0.375  14.979 -0.8676 -0.6572  0.1382
  767MPD2    C311323   4.335   0.302  14.909 -0.0568 -0.1864  0.6556
  767MPD2    C411324   4.199   0.306  14.953  0.0566 -0.1332  0.0241
  767MPD2    C511325   4.172   0.372  15.069  0.3652  0.1715  0.1043
  767MPD2     H11326   4.530   0.382  14.938 -0.7041  1.5137  0.9261
  767MPD2    H111327   4.116   0.264  14.897  0.3639  0.6861 -1.0478
  767MPD2    H211328   4.237   0.493  15.237 -0.7319  1.1743 -1.6959
  767MPD2    H311329   4.065   0.379  15.085  0.2530 -2.3995  0.5310
  767MPD2     N11330   4.374   0.232  14.794 -0.6049  0.2220  0.1826
  767MPD2    H511331   4.474   0.234  14.778 -0.7799  1.4973 -0.7535
  767MPD2    N111332   4.498   0.507  15.166  0.2326  0.1409 -0.1988
  767MPD2    H711333   4.464   0.540  15.255 -0.8488 -0.2269 -0.4705
  768MPD2     C11334   1.357   4.004  10.369 -0.7342 -0.8183  0.5760
  768MPD2    C111335   1.277   4.048  10.471  0.3520 -0.3109 -0.2357
  768MPD2    C211336   1.311   4.010  10.603 -0.4421  1.0579  0.0453
  768MPD2    C311337   1.406   3.910  10.623  0.1870  0.2603 -0.5438
  768MPD2    C411338   1.489   3.870  10.526 -0.4649 -0.3306  0.8529
  768MPD2    C511339   1.466   3.921  10.398 -0.2300  0.1528 -0.2044
  768MPD2     H11340   1.254   4.060  10.680 -2.6815 -0.1389 -0.8484
  768MPD2    H111341   1.561   3.790  10.537  0.2861  0.3965  1.3105
  768MPD2    H211342   1.342   4.036  10.266 -0.2977  2.1685  1.4420
  768MPD2    H311343   1.538   3.886  10.325  3.2036  1.5307  2.5227
  768MPD2     N11344   1.425   3.847  10.743 -0.5779 -0.1366 -0.7945
  768MPD2    H511345   1.505   3.787  10.758 -1.3676 -0.5537  1.7152
  768MPD2    N111346   1.162   4.130  10.452  0.3435 -0.4561 -0.0357
  768MPD2    H711347   1.123   4.153  10.543 -0.7897  4.1518 -1.7373
  769MPD2     C11348   1.827   1.343  15.084 -0.0237  0.9000  0.0063
  769MPD2    C111349   1.724   1.366  15.176 -0.1184 -0.2108 -0.0645
  769MPD2    C211350   1.745   1.443  15.290  0.7545 -0.2599 -0.6246
  769MPD2    C311351   1.867   1.497  15.319  0.3491  0.8673 -0.1999
  769MPD2    C411352   1.965   1.480  15.229 -0.4119  0.6297  0.8386
  769MPD2    C511353   1.947   1.404  15.111  0.9679 -0.0655  0.4118
  769MPD2     H11354   1.659   1.458  15.355  3.2372  0.7532  2.3947
  769MPD2    H111355   2.058   1.535  15.237  0.5698 -1.2165  2.0412
  769MPD2    H211356   1.810   1.279  14.998 -0.3786  3.6031 -1.9387
  769MPD2    H311357   2.031   1.382  15.045  0.8319  1.4977 -0.2932
  769MPD2     N11358   1.878   1.578  15.438 -0.1132  0.3206 -0.5810
  769MPD2    H511359   1.801   1.566  15.504  0.5863  1.1749  0.3927
  769MPD2    N111360   1.593   1.327  15.129  0.3253 -0.6248  0.0897
  769MPD2    H711361   1.591   1.293  15.034 -0.2302  0.8092 -0.4092
  770MPD2     C11362   0.803   0.913  15.552  0.4579  0.8385  0.2000
  770MPD2    C111363   0.920   0.857  15.499 -0.0224 -0.7342 -0.9914
  770MPD2    C211364   0.988   0.924  15.398  0.5094 -0.1765  0.5107
  770MPD2    C311365   0.954   1.050  15.357 -0.5782  0.1875 -0.3159
  770MPD2    C411366   0.842   1.107  15.407  0.4902 -0.0275  0.4535
  770MPD2    C511367   0.773   1.040  15.506  0.4478  0.5757 -0.6026
  770MPD2     H11368   1.073   0.875  15.350  1.1923 -1.4532  3.0433
  770MPD2    H111369   0.818   1.209  15.382  1.4024 -0.1482 -0.9429
  770MPD2    H211370   0.739   0.862  15.623  4.3927 -1.2976  2.1682
  770MPD2    H311371   0.693   1.098  15.550 -1.7155 -0.5690 -3.0365
  770MPD2     N11372   1.037   1.110  15.261 -0.9125  0.2455 -0.2733
  770MPD2    H511373   1.120   1.060  15.229 -1.0639  0.9235 -1.7032
  770MPD2    N111374   0.961   0.735  15.553  0.4605  0.0522  0.2331
  770MPD2    H711375   0.897   0.701  15.624 -1.6404  1.0769 -1.1583
  771MPD2     C11376   2.783   4.441  14.289 -0.0406 -0.1179  0.2491
  771MPD2    C111377   2.696   4.457  14.183 -0.7250 -0.0603 -0.1251
  771MPD2    C211378   2.618   4.346  14.160 -0.1460 -0.9241  0.3051
  771MPD2    C311379   2.628   4.230  14.225 -0.3986 -0.2880 -0.3673
  771MPD2    C411380   2.713   4.221  14.334 -0.5248  0.3715  0.3877
  771MPD2    C511381   2.789   4.327  14.365  0.3665  0.4414  0.9934
  771MPD2     H11382   2.560   4.355  14.069  1.0047  0.6520 -0.2667
  771MPD2    H111383   2.730   4.127  14.385  1.0213  0.7745  0.6384
  771MPD2    H211384   2.853   4.520  14.316 -1.9154  1.8702 -0.6800
  771MPD2    H311385   2.873   4.319  14.434 -0.8768 -1.3037  2.2893
  771MPD2     N11386   2.549   4.126  14.170  0.0782 -0.5280 -0.4387
  771MPD2    H511387   2.496   4.160  14.091 -1.5205 -1.3179  0.2987
  771MPD2    N111388   2.676   4.571  14.102 -0.1369  0.3600  0.0775
  771MPD2    H711389   2.602   4.567  14.032 -2.5716 -0.3313  2.7134
  772MPD2     C11390   2.138   0.074  13.691  0.2960 -0.5557  0.5987
  772MPD2    C111391   2.189   0.100  13.819  0.0857  0.6487 -0.4687
  772MPD2    C211392   2.088   0.104  13.924 -0.1617 -0.1722  0.6445
  772MPD2    C311393   1.955   0.068  13.898  0.1844 -0.4151  0.4931
  772MPD2    C411394   1.918   0.043  13.768 -0.2643  0.7405  0.3053
  772MPD2    C511395   2.009   0.049  13.666  0.0647  0.0053  0.1463
  772MPD2     H11396   2.106   0.136  14.026  1.1173 -1.5028  0.8298
  772MPD2    H111397   1.820   0.012  13.733 -0.5039 -0.7427  2.2878
  772MPD2    H211398   2.205   0.063  13.606 -1.0801  0.6550 -0.6372
  772MPD2    H311399   1.976   0.044  13.563 -0.0454 -1.2078  0.2372
  772MPD2     N11400   1.846   0.075  13.993 -0.4656 -0.0703  0.6962
  772MPD2    H511401   1.752   0.056  13.959  0.0889 -0.3408 -0.7020
  772MPD2    N111402   2.328   0.104  13.854 -0.5784 -0.7628 -0.4093
  772MPD2    H711403   2.345   0.122  13.953 -1.4803  0.3087 -0.4383
  773MPD2     C11404   1.374   1.422   0.617 -0.6484 -0.3795 -0.5693
  773MPD2    C111405   1.314   1.300   0.644  0.3626 -0.9039 -0.2149
  773MPD2    C211406   1.391   1.207   0.704 -0.3026 -0.1071 -0.1247
  773MPD2    C311407   1.526   1.224   0.730  0.4022  0.2704 -0.7920
  773MPD2    C411408   1.578   1.346   0.704 -0.0134  0.5339  0.1801
  773MPD2    C511409   1.504   1.440   0.645  0.0787  0.5935  1.2767
  773MPD2     H11410   1.338   1.116   0.729 -1.8826  1.1144  0.9462
  773MPD2    H111411   1.673   1.389   0.732 -0.6386  1.9451  0.1358
  773MPD2    H211412   1.322   1.496   0.556  1.2874 -1.8472 -4.0134
  773MPD2    H311413   1.548   1.537   0.623 -0.7328  0.7862  0.5104
  773MPD2     N11414   1.606   1.113   0.770 -0.0929 -0.2698  0.2503
  773MPD2    H511415   1.558   1.023   0.768  0.0510 -0.3177 -1.7220
  773MPD2    N111416   1.181   1.261   0.612 -0.2959 -0.1620  0.7740
  773MPD2    H711417   1.160   1.167   0.643 -0.4666 -0.1857  0.5922
  774MPD2     C11418   1.132   0.161  13.897  0.3051 -0.5502 -0.5721
  774MPD2    C111419   1.011   0.221  13.856 -0.2185 -0.6468 -0.7734
  774MPD2    C211420   1.012   0.301  13.742  0.2148 -0.3419 -0.9247
  774MPD2    C311421   1.121   0.302  13.661 -0.5798  1.1047 -1.0939
  774MPD2    C411422   1.234   0.236  13.700 -0.0258 -0.0121 -0.0663
  774MPD2    C511423   1.238   0.164  13.813 -0.4230 -0.1630  0.1377
  774MPD2     H11424   0.918   0.345  13.711  0.9364  1.8507  0.0339
  774MPD2    H111425   1.323   0.230  13.638 -0.2737 -0.7038 -0.3516
  774MPD2    H211426   1.134   0.107  13.991  0.0870  0.7849  0.2003
  774MPD2    H311427   1.326   0.112  13.847  0.5636 -0.0424 -2.2477
  774MPD2     N11428   1.106   0.369  13.537  0.5774 -0.1520  0.2648
  774MPD2    H511429   1.009   0.396  13.522  0.8378  1.2973  1.1989
  774MPD2    N111430   0.901   0.198  13.940  0.1279 -0.0099 -0.0616
  774MPD2    H711431   0.906   0.141  14.023  2.7018 -0.6760 -0.6791
  775MPD2     C11432   2.411   1.397  15.988 -0.9191  0.4062  0.1252
  775MPD2    C111433   2.358   1.510  16.028 -0.6930 -0.6009  0.4140
  775MPD2    C211434   2.418   1.632  15.987  0.1982 -0.2555  0.4820
  775MPD2    C311435   2.535   1.635  15.918  0.8611  0.0917 -0.3374
  775MPD2    C411436   2.589   1.520  15.875  0.0288  0.1080 -0.1760
  775MPD2    C511437   2.529   1.400  15.910  0.0675  0.5183  0.0613
  775MPD2     H11438   2.380   1.728  16.020  0.5527 -0.4952  1.5981
  775MPD2    H111439   2.673   1.529  15.806  2.3702 -0.5376  2.6041
  775MPD2    H211440   2.360   1.304  16.009 -0.8845  0.3977  0.1715
  775MPD2    H311441   2.562   1.312  15.855 -1.5828  0.7930 -1.3640
  775MPD2     N11442   2.596   1.751  15.865 -0.6822 -0.1600 -0.3586
  775MPD2    H511443   2.660   1.733  15.789  1.4310 -1.8810  1.8619
  775MPD2    N111444   2.232   1.516  16.086 -0.1634 -0.1786  1.0147
  775MPD2    H711445   2.189   1.427  16.114  0.8435 -1.2510 -0.9116
  776MPD2     C11446   1.262   2.210  11.265  0.2370  0.7780  0.1426
  776MPD2    C111447   1.335   2.223  11.378 -0.8653  0.2048  0.6270
  776MPD2    C211448   1.434   2.319  11.387  0.1115  0.0392  0.7262
  776MPD2    C311449   1.469   2.397  11.281 -1.2213  0.3490  0.0657
  776MPD2    C411450   1.398   2.378  11.160  0.2101  0.4791 -0.8999
  776MPD2    C511451   1.294   2.287  11.159  0.4451  0.0438  0.8123
  776MPD2     H11452   1.495   2.339  11.474  0.7028 -0.7125  0.4853
  776MPD2    H111453   1.406   2.442  11.072  3.0750 -2.7036 -2.9405
  776MPD2    H211454   1.183   2.136  11.251 -1.3614  3.1823 -3.6185
  776MPD2    H311455   1.234   2.279  11.070 -0.0407  3.7017  0.8012
  776MPD2     N11456   1.544   2.504  11.311  0.0012 -0.1895  0.1685
  776MPD2    H511457   1.583   2.510  11.405  1.1696 -0.8069 -0.2821
  776MPD2    N111458   1.308   2.130  11.482  0.0909 -0.5749  0.1909
  776MPD2    H711459   1.237   2.058  11.479 -2.5707  2.0461  0.4605
  777MPD2     C11460   1.752   4.279   1.144 -0.3803 -0.0650 -0.1325
  777MPD2    C111461   1.637   4.341   1.183 -0.1974 -0.2497 -0.2559
  777MPD2    C211462   1.516   4.300   1.142  0.0973  0.5228  0.5643
  777MPD2    C311463   1.501   4.202   1.048 -0.4869 -0.7077  0.0011
  777MPD2    C411464   1.620   4.152   0.990  0.3420 -0.0247  0.1441
  777MPD2    C511465   1.744   4.185   1.047 -0.1587  0.1880  0.5057
  777MPD2     H11466   1.428   4.344   1.188 -0.3144  0.1154  0.1653
  777MPD2    H111467   1.624   4.078   0.911 -0.1313 -2.6855  2.6202
  777MPD2    H211468   1.844   4.315   1.187 -0.5394  0.6912 -0.4210
  777MPD2    H311469   1.836   4.142   1.009 -0.4992  2.1108 -2.5128
  777MPD2     N11470   1.369   4.163   1.009 -0.1525  0.1158 -0.1980
  777MPD2    H511471   1.296   4.200   1.068 -0.9440 -3.7415  1.2012
  777MPD2    N111472   1.658   4.443   1.283  0.2189 -0.0174  0.1164
  777MPD2    H711473   1.752   4.474   1.306  0.9541 -1.7586 -0.5588
  778MPD2     C11474   2.545   4.510  15.253 -0.1384 -0.3381 -0.2792
  778MPD2    C111475   2.618   4.408  15.192  0.1644  0.5636  0.1723
  778MPD2    C211476   2.679   4.439  15.071 -0.2309  0.0240 -0.4693
  778MPD2    C311477   2.663   4.562  15.007 -0.3084 -0.2795  0.4369
  778MPD2    C411478   2.593   4.670  15.078  0.0404 -0.6147 -0.0258
  778MPD2    C511479   2.533   4.639  15.199  0.4881  0.4097  0.9377
  778MPD2     H11480   2.745   4.361  15.035  0.5591  0.3615  0.2349
  778MPD2    H111481   2.577   0.043  15.039 -0.1404 -0.2051  1.0716
  778MPD2    H211482   2.482   4.490  15.339 -0.5295 -1.2226 -0.7633
  778MPD2    H311483   2.466   4.708  15.248  0.5513  0.5658  0.8046
  778MPD2     N11484   2.724   4.575  14.881  0.4253  0.1801 -0.6957
  778MPD2    H511485   2.761   4.489  14.844  0.9617 -0.3699  1.1062
  778MPD2    N111486   2.633   4.277  15.248  0.1183 -0.3467  0.2296
  778MPD2    H711487   2.670   4.210  15.182 -1.0649  0.2538 -1.0391
  779MPD2     C11488   2.121   3.245  14.497 -0.0064  0.7667  0.1085
  779MPD2    C111489   2.242   3.267  14.552  0.6728 -0.8115  1.2102
  779MPD2    C211490   2.290   3.399  14.548 -0.4931 -0.1515  0.3063
  779MPD2    C311491   2.206   3.507  14.508 -1.0223 -0.2189 -0.2468
  779MPD2    C411492   2.081   3.479  14.460  0.5345 -0.6314  0.4640
  779MPD2    C511493   2.046   3.347  14.455 -0.2412 -0.0451  0.2558
  779MPD2     H11494   2.390   3.428  14.581  0.3277 -2.4668 -0.1697
  779MPD2    H111495   2.013   3.555  14.422  0.8169 -1.5311 -1.7973
  779MPD2    H211496   2.075   3.148  14.507  0.3643  0.1193 -4.4394
  779MPD2    H311497   1.943   3.326  14.428 -0.7276  1.2006  1.1136
  779MPD2     N11498   2.264   3.640  14.513  0.5462 -0.4272  0.4075
  779MPD2    H511499   2.356   3.648  14.556  0.2668 -0.3244  0.9831
  779MPD2    N111500   2.309   3.153  14.586  0.1887  0.4253 -0.3053
  779MPD2    H711501   2.257   3.066  14.586  1.8931 -0.5970  0.1908
  780MPD2     C11502   1.462   3.404   1.342 -0.6477 -0.4768 -0.4261
  780MPD2    C111503   1.383   3.365   1.244  0.3061  0.4123  0.6516
  780MPD2    C211504   1.419   3.397   1.118  0.2913  0.2534 -0.5912
  780MPD2    C311505   1.545   3.449   1.092  0.7359 -0.3473  0.4062
  780MPD2    C411506   1.633   3.479   1.195 -0.0328 -0.2737 -0.4030
  780MPD2    C511507   1.582   3.467   1.319  0.0859 -0.0722 -0.0550
  780MPD2     H11508   1.358   3.379   1.031  0.6258 -2.8031 -0.2154
  780MPD2    H111509   1.733   3.517   1.176  0.3986 -1.2658 -0.1541
  780MPD2    H211510   1.433   3.386   1.445 -1.8024  0.4176 -0.5938
  780MPD2    H311511   1.650   3.482   1.402  1.6108  0.5163 -1.4026
  780MPD2     N11512   1.577   3.455   0.960  0.8145  0.2872  0.1584
  780MPD2    H511513   1.506   3.425   0.894 -0.1824  1.3864  0.7214
  780MPD2    N111514   1.267   3.293   1.279 -0.1923 -0.1569 -0.0198
  780MPD2    H711515   1.256   3.280   1.379 -1.8621 -0.7337 -0.2713
  781MPD2     C11516   3.258   0.891  12.111  0.0198 -0.0720 -0.1566
  781MPD2    C111517   3.313   0.774  12.169  0.1327  0.3016 -0.4188
  781MPD2    C211518   3.387   0.688  12.089 -0.2966 -0.0807 -0.1508
  781MPD2    C311519   3.397   0.713  11.949  0.1869 -0.5199 -0.8402
  781MPD2    C411520   3.338   0.828  11.898 -0.6768 -0.4867  0.0038
  781MPD2    C511521   3.278   0.922  11.977  1.1386  0.2603 -0.3481
  781MPD2     H11522   3.425   0.600  12.140  0.8648 -1.0418 -2.7110
  781MPD2    H111523   3.339   0.832  11.789  0.9210 -0.3690  0.0223
  781MPD2    H211524   3.197   0.957  12.171 -0.3240  0.5016 -1.1391
  781MPD2    H311525   3.230   1.006  11.929  1.2248  0.7600  0.4342
  781MPD2     N11526   3.479   0.630  11.864 -0.1741 -0.0670 -0.5480
  781MPD2    H511527   3.502   0.651  11.767 -1.6236  2.4451 -0.3229
  781MPD2    N111528   3.294   0.731  12.301 -0.1896 -0.2146  0.0385
  781MPD2    H711529   3.338   0.646  12.333  0.4008 -0.9578 -2.7529
  782MPD2     C11530   2.429   1.074  10.234  1.1138 -0.3108 -0.6769
  782MPD2    C111531   2.445   1.054  10.365  0.2411  0.3312 -0.8275
  782MPD2    C211532   2.468   1.158  10.450  0.4534  0.2991  0.3057
  782MPD2    C311533   2.461   1.288  10.403 -1.0272 -0.3655 -0.2260
  782MPD2    C411534   2.438   1.306  10.271  0.7989  0.0438  0.0747
  782MPD2    C511535   2.416   1.198  10.186 -0.6277 -0.2269  0.6417
  782MPD2     H11536   2.468   1.145  10.557  0.3656  1.9830  0.5078
  782MPD2    H111537   2.422   1.406  10.233  0.9623 -0.2876 -0.8745
  782MPD2    H211538   2.412   0.984  10.175 -1.3921 -0.4398  0.2308
  782MPD2    H311539   2.390   1.223  10.084 -1.5351  1.8569  1.3847
  782MPD2     N11540   2.479   1.391  10.502 -0.2016  0.7185 -0.1634
  782MPD2    H511541   2.489   1.353  10.596  1.0058  2.3222  0.3576
  782MPD2    N111542   2.442   0.923  10.424  0.1004 -0.2650 -0.0339
  782MPD2    H711543   2.468   0.926  10.522  0.7125 -1.9693 -0.1325
  783MPD2     C11544   1.946   0.536  11.056  0.2914  0.7960  0.9778
  783MPD2    C111545   1.955   0.654  10.989  0.2135 -0.7459 -0.4217
  783MPD2    C211546   2.035   0.655  10.877 -0.8363 -0.1869 -0.0018
  783MPD2    C311547   2.109   0.547  10.836  0.8293  0.3205 -0.2449
  783MPD2    C411548   2.098   0.426  10.911 -0.0921  0.0392  0.1520
  783MPD2    C511549   2.011   0.430  11.018 -0.6655  0.3859  0.2882
  783MPD2     H11550   2.032   0.742  10.812 -1.2339 -1.8797 -2.2718
  783MPD2    H111551   2.142   0.328  10.898  0.1615  0.3195 -1.1365
  783MPD2    H211552   1.889   0.521  11.147 -2.4865 -0.8568 -1.0670
  783MPD2    H311553   2.006   0.339  11.076 -0.5775  0.9091  1.1154
  783MPD2     N11554   2.191   0.552  10.723  0.7470  0.2864  0.6833
  783MPD2    H511555   2.188   0.641  10.675  0.1246  0.3574  0.8603
  783MPD2    N111556   1.879   0.762  11.043 -0.0703 -0.5047  0.3513
  783MPD2    H711557   1.810   0.735  11.112 -0.8469  0.3392 -0.0983
  784MPD2     C11558   4.297   1.496   1.564 -0.2657  0.0325  0.1775
  784MPD2    C111559   4.398   1.580   1.592  0.4528  0.5508  0.7312
  784MPD2    C211560   4.377   1.718   1.607  0.2822  0.1351 -0.0733
  784MPD2    C311561   4.255   1.761   1.569 -0.0097 -0.4086 -0.3172
  784MPD2    C411562   4.158   1.677   1.515  0.1105 -0.3420  0.3884
  784MPD2    C511563   4.176   1.547   1.529 -0.7100 -0.0750 -0.5965
  784MPD2     H11564   4.448   1.796   1.632  1.2844 -0.3924 -1.2983
  784MPD2    H111565   4.063   1.719   1.483  0.9909  1.6104  0.3611
  784MPD2    H211566   4.314   1.389   1.560  3.5328  0.6213  1.4877
  784MPD2    H311567   4.100   1.475   1.501 -0.5641 -0.0375 -1.0876
  784MPD2     N11568   4.244   1.903   1.564  0.0917  0.2520  0.0485
  784MPD2    H511569   4.317   1.948   1.618 -0.3943  0.5864  0.4283
  784MPD2    N111570   4.533   1.533   1.624  0.2582  0.1902 -0.0455
  784MPD2    H711571   4.588   1.615   1.646 -0.4344  0.4904  0.5847
  785MPD2     C11572   0.293   4.368  10.937 -0.4475  0.0642  0.3893
  785MPD2    C111573   0.201   4.336  11.033  0.4384  0.4756  0.1050
  785MPD2    C211574   0.084   4.272  10.983  0.3228 -0.3883 -0.1963
  785MPD2    C311575   0.066   4.226  10.854 -0.6161  0.2285  0.0674
  785MPD2    C411576   0.169   4.253  10.765  0.0899 -0.7343  0.0382
  785MPD2    C511577   0.281   4.328  10.802  0.5322  0.1098 -0.1947
  785MPD2     H11578   0.007   4.248  11.055  1.2732 -3.1234 -0.1084
  785MPD2    H111579   0.173   4.211  10.665 -1.8894  1.8895 -1.1364
  785MPD2    H211580   0.383   4.420  10.967  0.5134 -1.5115  0.2371
  785MPD2    H311581   0.365   4.341  10.734 -0.6078  1.6847 -1.3205
  785MPD2     N11582   4.661   4.179  10.816 -0.0684 -0.0306 -0.0681
  785MPD2    H511583   4.593   4.175  10.891 -0.6176  1.3247 -0.4915
  785MPD2    N111584   0.225   4.384  11.164  0.8464  0.3860  1.0037
  785MPD2    H711585   0.308   4.437  11.187  0.4128  2.2610 -1.7446
  786MPD2     C11586   2.668   2.564  14.821  0.7095 -0.4053 -0.6323
  786MPD2    C111587   2.802   2.534  14.800  0.3295 -0.3691 -0.5609
  786MPD2    C211588   2.895   2.571  14.896 -0.0526  0.4459 -0.1611
  786MPD2    C311589   2.861   2.634  15.012  0.1800  0.4101  0.9360
  786MPD2    C411590   2.723   2.651  15.039 -0.6294  0.2362 -0.3209
  786MPD2    C511591   2.632   2.637  14.934 -1.1630 -0.4102  0.0329
  786MPD2     H11592   2.997   2.542  14.871  0.3338  1.4583  0.2496
  786MPD2    H111593   2.696   2.691  15.136  1.8648  0.3302  0.3180
  786MPD2    H211594   2.590   2.542  14.749  0.6634 -1.0167 -0.3954
  786MPD2    H311595   2.528   2.667  14.945 -2.2242 -3.5761 -1.4131
  786MPD2     N11596   2.955   2.674  15.115  0.0447 -0.1192  0.2979
  786MPD2    H511597   2.915   2.709  15.202 -1.3959  0.9428 -0.7855
  786MPD2    N111598   2.844   2.454  14.692 -0.0205  0.0446 -0.4203
  786MPD2    H711599   2.944   2.433  14.691 -0.4818 -2.0041 -3.0343
  787MPD2     C11600   3.305   2.148  14.848  0.2995  0.0124  0.2670
  787MPD2    C111601   3.261   2.070  14.739  0.2520  0.8931  0.6751
  787MPD2    C211602   3.320   1.944  14.724 -0.3421 -0.4440 -0.6410
  787MPD2    C311603   3.405   1.895  14.820 -0.4196  0.1192  0.7349
  787MPD2    C411604   3.441   1.966  14.937 -0.0018 -0.3279  0.2388
  787MPD2    C511605   3.395   2.095  14.940 -0.2493 -0.3006  0.3376
  787MPD2     H11606   3.309   1.890  14.630  1.5827  0.9425 -1.6673
  787MPD2    H111607   3.516   1.926  15.004  1.2949  1.0279 -0.4030
  787MPD2    H211608   3.283   2.254  14.840  0.7629  0.1661  1.1093
  787MPD2    H311609   3.430   2.157  15.021 -0.6957 -0.4314  0.6304
  787MPD2     N11610   3.443   1.762  14.805 -0.1545 -0.1924  0.2189
  787MPD2    H511611   3.398   1.717  14.726 -0.7642 -2.1740  1.7047
  787MPD2    N111612   3.175   2.137  14.648 -0.1560  0.1403  0.7836
  787MPD2    H711613   3.146   2.232  14.670  1.0336  0.4660  0.9294
  788MPD2     C11614   0.640   0.365   0.980  0.1218  0.5582 -0.6672
  788MPD2    C111615   0.529   0.344   0.907 -0.5541  0.1829  0.8775
  788MPD2    C211616   0.437   0.452   0.902  0.4107 -0.3044  0.0713
  788MPD2    C311617   0.468   0.575   0.945  0.0685 -0.3073 -0.3936
  788MPD2    C411618   0.588   0.593   1.009 -0.4336 -0.5000  0.4132
  788MPD2    C511619   0.668   0.485   1.029 -0.1568 -0.4402  0.3992
  788MPD2     H11620   0.353   0.438   0.835  1.9259 -3.8096 -1.0760
  788MPD2    H111621   0.621   0.694   1.030  1.2530 -0.5526 -2.0623
  788MPD2    H211622   0.716   0.288   0.984  0.1701  0.6181 -0.4245
  788MPD2    H311623   0.763   0.497   1.079 -1.0456 -0.4404  2.0867
  788MPD2     N11624   0.396   0.693   0.909 -0.0627  0.4298  0.6558
  788MPD2    H511625   0.445   0.781   0.914  0.0084  0.4268  0.0019
  788MPD2    N111626   0.505   0.230   0.830  0.0489  0.4073  0.1308
  788MPD2    H711627   0.419   0.233   0.776 -0.5342  2.3847  1.1548
  789MPD2     C11628   0.253   0.003  16.446 -0.0606 -0.3949 -0.1523
  789MPD2    C111629   0.235   4.695  16.577  0.2206  0.7204 -0.2691
  789MPD2    C211630   0.130   0.024  16.648 -0.4024 -0.3068 -0.1737
  789MPD2    C311631   0.036   0.110  16.585 -0.3749  0.0837 -0.2807
  789MPD2    C411632   0.056   0.139  16.451 -0.3810 -0.1377  0.4190
  789MPD2    C511633   0.164   0.088  16.387  0.1199  0.2359 -0.4436
  789MPD2     H11634   0.123   0.003  16.754  2.1291  0.9443  0.2373
  789MPD2    H111635   4.709   0.196  16.395  2.1388  1.0443 -1.6866
  789MPD2    H211636   0.334   4.701  16.380  0.2201 -0.4755  0.2256
  789MPD2    H311637   0.189   0.126  16.289  0.7038 -1.8514 -1.0987
  789MPD2     N11638   4.663   0.176  16.659 -0.0268 -1.0236 -0.2064
  789MPD2    H511639   4.605   0.234  16.600  3.6741  1.3586 -1.5119
  789MPD2    N111640   0.315   4.602  16.647 -0.5135 -0.2864  0.1397
  789MPD2    H711641   0.298   4.578  16.744 -2.9079 -0.7055 -0.3815
  790MPD2     C11642   1.242   1.442  13.964  0.3692 -0.0432  0.2671
  790MPD2    C111643   1.360   1.500  13.930 -0.8625 -1.1368 -0.0081
  790MPD2    C211644   1.388   1.544  13.803  0.0710 -0.1867 -0.0494
  790MPD2    C311645   1.290   1.535  13.702  0.2477 -0.4144  0.2837
  790MPD2    C411646   1.167   1.475  13.736  0.1149  0.2282 -0.1729
  790MPD2    C511647   1.148   1.432  13.864 -0.5913 -0.0983  0.0686
  790MPD2     H11648   1.487   1.580  13.775 -0.1551 -0.0491 -0.6673
  790MPD2    H111649   1.092   1.452  13.661 -0.9666  2.3011  0.2696
  790MPD2    H211650   1.217   1.405  14.063 -0.3524  0.6675  0.3549
  790MPD2    H311651   1.058   1.376  13.885  0.3269 -1.4412  0.4656
  790MPD2     N11652   1.321   1.585  13.572 -0.1119 -0.2248 -0.1114
  790MPD2    H511653   1.410   1.630  13.559 -0.3626 -0.1317 -1.4565
  790MPD2    N111654   1.457   1.523  14.028 -0.0219 -0.1182  0.3876
  790MPD2    H711655   1.440   1.478  14.117  0.5343  1.6280  1.3993
  791MPD2     C11656   1.049   1.890  12.710 -0.0485  0.4560 -0.9779
  791MPD2    C111657   1.010   1.808  12.813 -0.4569  0.1244  0.8484
  791MPD2    C211658   0.879   1.753  12.809 -0.1238  0.1861 -0.0789
  791MPD2    C311659   0.776   1.790  12.723 -0.4777 -0.4293  0.3679
  791MPD2    C411660   0.809   1.883  12.628 -0.1652  0.4405  0.7848
  791MPD2    C511661   0.943   1.931  12.632  0.6127  0.3754 -0.1895
  791MPD2     H11662   0.856   1.667  12.870 -1.6294  0.4031 -0.3600
  791MPD2    H111663   0.730   1.927  12.568 -0.4026 -1.5789 -0.3657
  791MPD2    H211664   1.141   1.948  12.715 -0.8025  1.3808  2.3759
  791MPD2    H311665   0.969   2.019  12.575 -1.3445  0.1209 -1.4932
  791MPD2     N11666   0.649   1.734  12.739 -0.3143  0.3324 -0.4180
  791MPD2    H511667   0.641   1.661  12.810 -3.0632  0.0144 -1.0556
  791MPD2    N111668   1.104   1.785  12.916 -0.6251  0.7127 -0.2630
  791MPD2    H711669   1.199   1.818  12.901  0.4772 -2.0910  0.5324
  792MPD2     C11670   2.299   2.096  11.202 -0.0654 -0.2387  0.6495
  792MPD2    C111671   2.177   2.153  11.171 -0.0563  0.2211  0.8189
  792MPD2    C211672   2.080   2.070  11.123 -0.1091 -0.0831  0.1370
  792MPD2    C311673   2.101   1.933  11.118  0.0287 -0.0900  0.2329
  792MPD2    C411674   2.224   1.879  11.159 -0.3149  0.5681 -0.3875
  792MPD2    C511675   2.326   1.960  11.207 -0.2012 -0.3504  0.5189
  792MPD2     H11676   1.980   2.099  11.094  0.5169  1.1211 -0.8194
  792MPD2    H111677   2.230   1.773  11.177 -1.2250  0.6124  0.1854
  792MPD2    H211678   2.379   2.161  11.237  1.8415 -2.5206  0.5055
  792MPD2    H311679   2.421   1.929  11.249  0.6677  2.4656  0.6406
  792MPD2     N11680   2.003   1.838  11.070 -0.1904 -0.1934  0.2841
  792MPD2    H511681   2.037   1.744  11.049  0.1085  0.4799 -2.1496
  792MPD2    N111682   2.153   2.296  11.177  0.3987 -0.4510 -0.6939
  792MPD2    H711683   2.238   2.348  11.199  2.3178 -3.2761 -1.4196
  793MPD2     C11684   1.280   2.174  10.470 -1.0323  0.0972  0.3643
  793MPD2    C111685   1.415   2.189  10.465  0.4131  0.0857 -0.0622
  793MPD2    C211686   1.496   2.111  10.544  0.2685  0.4216  0.3709
  793MPD2    C311687   1.439   2.007  10.617 -0.3200 -0.1109 -0.4960
  793MPD2    C411688   1.304   1.988  10.611  0.1745  0.1344  0.0678
  793MPD2    C511689   1.227   2.072  10.542 -0.5950 -0.5925 -0.0728
  793MPD2     H11690   1.601   2.132  10.552  0.1891  1.2242 -0.7662
  793MPD2    H111691   1.262   1.903  10.663  1.4505  0.2670  1.3091
  793MPD2    H211692   1.205   2.230  10.413 -0.5202  1.1687  0.7425
  793MPD2    H311693   1.120   2.054  10.531 -1.0008  0.7930  1.7068
  793MPD2     N11694   1.523   1.927  10.703  0.2797 -0.1649 -0.4413
  793MPD2    H511695   1.615   1.967  10.716 -0.0838  0.1837  1.1218
  793MPD2    N111696   1.478   2.271  10.374 -0.2986  0.3042  0.0597
  793MPD2    H711697   1.579   2.273  10.377 -0.2067 -0.5225 -2.7455
  794MPD2     C11698   0.583   1.470   0.069 -0.4777  0.2135  0.1165
  794MPD2    C111699   0.697   1.382   0.083 -0.2171  0.3301  0.1029
  794MPD2    C211700   0.767   1.346  17.678  0.3149 -0.0252 -0.7304
  794MPD2    C311701   0.735   1.409  17.555  0.2453  0.0908  0.0290
  794MPD2    C411702   0.639   1.502  17.543  0.4187  0.3873  0.8717
  794MPD2    C511703   0.558   1.529  17.652 -0.8372 -0.0920 -0.3394
  794MPD2     H11704   0.849   1.276  17.671  0.7868  0.2660  1.6719
  794MPD2    H111705   0.616   1.543  17.445 -1.2435 -0.6874  0.8012
  794MPD2    H211706   0.521   1.497   0.154 -0.5811  0.0320  0.0993
  794MPD2    H311707   0.469   1.584  17.622 -0.4428  0.2651 -0.8615
  794MPD2     N11708   0.795   1.368  17.436  0.0789  0.6198 -0.1512
  794MPD2    H511709   0.764   1.416  17.352  1.1922  1.0600 -0.3175
  794MPD2    N111710   0.740   1.330   0.210  0.1675  0.7845 -0.4331
  794MPD2    H711711   0.825   1.275   0.204  0.2302  0.4899  2.8356
  795MPD2     C11712   3.430   3.218  13.500 -0.0600  0.3192  0.9662
  795MPD2    C111713   3.497   3.259  13.387 -0.5920 -0.5660  0.2468
  795MPD2    C211714   3.637   3.238  13.382  0.4810 -0.5241  0.6508
  795MPD2    C311715   3.703   3.186  13.490  0.5511  0.7162 -0.1638
  795MPD2    C411716   3.631   3.136  13.598 -0.5643  0.1875  0.4544
  795MPD2    C511717   3.499   3.161  13.609  0.0241 -0.1381  0.0837
  795MPD2     H11718   3.698   3.270  13.299  1.1504 -2.9804  0.1744
  795MPD2    H111719   3.677   3.084  13.681 -0.7973  0.4304  0.7311
  795MPD2    H211720   3.322   3.216  13.498  0.0103 -1.5282 -0.9781
  795MPD2    H311721   3.438   3.140  13.696  2.0666 -0.2352  1.4885
  795MPD2     N11722   3.844   3.166  13.495  0.7695 -0.0129 -0.0848
  795MPD2    H511723   3.887   3.132  13.580  2.9894  0.4403 -1.0222
  795MPD2    N111724   3.432   3.311  13.273  0.1239 -0.6695  0.1079
  795MPD2    H711725   3.491   3.345  13.198 -0.8445  0.7800  0.0150
  796MPD2     C11726   3.226   0.106  16.322 -0.5169  0.8186  0.5448
  796MPD2    C111727   3.238   0.175  16.438  0.3096  0.3112  0.4472
  796MPD2    C211728   3.228   0.317  16.424  0.7678 -0.0470  0.0550
  796MPD2    C311729   3.203   0.380  16.300 -0.5529  0.2783  0.4404
  796MPD2    C411730   3.196   0.301  16.190  0.6557 -0.0392  0.2338
  796MPD2    C511731   3.202   0.169  16.195  0.9899 -0.0175  0.4639
  796MPD2     H11732   3.246   0.378  16.512  1.4049 -0.9085  0.5312
  796MPD2    H111733   3.185   0.345  16.092 -2.2148 -0.0702  0.5219
  796MPD2    H211734   3.236   4.725  16.324  1.2639  0.9406 -2.3037
  796MPD2    H311735   3.187   0.115  16.102  1.1651  0.1678  0.3287
  796MPD2     N11736   3.183   0.523  16.302 -0.0700 -0.2360  0.4190
  796MPD2    H511737   3.211   0.582  16.380  0.8152 -1.2867  0.8784
  796MPD2    N111738   3.268   0.102  16.557  0.4774  0.3476  0.4486
  796MPD2    H711739   3.282   0.002  16.548 -1.7979 -0.1670  2.8135
  797MPD2     C11740   3.886   4.256   0.057 -0.2400 -1.1104 -0.1806
  797MPD2    C111741   3.984   4.339   0.114  0.1213  1.0487 -0.3161
  797MPD2    C211742   3.954   4.461   0.163  0.0722 -0.4655 -0.7736
  797MPD2    C311743   3.820   4.496   0.187  0.2415  0.3821  0.0183
  797MPD2    C411744   3.721   4.406   0.148 -0.9187 -0.1361 -0.1954
  797MPD2    C511745   3.756   4.292   0.079 -0.6761  0.0329 -0.1072
  797MPD2     H11746   4.038   4.524   0.191 -0.8123 -0.0613  0.9803
  797MPD2    H111747   3.619   4.431   0.177 -1.5885 -3.4080  0.2784
  797MPD2    H211748   3.900   4.163   0.002 -0.7363 -0.6601 -1.0616
  797MPD2    H311749   3.678   4.226   0.043  0.8707 -2.3036  0.8427
  797MPD2     N11750   3.792   4.625   0.232  0.6930 -0.4363 -0.5983
  797MPD2    H511751   3.878   4.679   0.242 -1.6673  3.0430  0.9509
  797MPD2    N111752   4.120   4.312   0.100 -0.2242 -0.0589  0.0399
  797MPD2    H711753   4.185   4.387   0.117  0.0224 -0.0292 -1.0128
  798MPD2     C11754   4.219   0.282  17.594  0.3039 -0.5336 -0.4935
  798MPD2    C111755   4.146   0.188  17.668  0.4988 -0.2968  0.9921
  798MPD2    C211756   4.186   0.054  17.661 -0.4075 -0.2331  0.5659
  798MPD2    C311757   4.289   0.015  17.586  0.5754 -0.2988 -0.4730
  798MPD2    C411758   4.361   0.108  17.509 -0.0911  0.6608 -0.0781
  798MPD2    C511759   4.326   0.238  17.517 -0.3489  0.3613  0.4956
  798MPD2     H11760   4.127   4.707   0.008 -1.4545  0.6525  0.6359
  798MPD2    H111761   4.458   0.091  17.464 -0.2541  0.6815 -0.4358
  798MPD2    H211762   4.197   0.388  17.595  0.5690 -0.4902  0.9091
  798MPD2    H311763   4.375   0.315  17.458 -2.4784  0.4056 -1.2024
  798MPD2     N11764   4.323   4.609  17.609 -0.0666  0.4334  0.5303
  798MPD2    H511765   4.257   4.554  17.662 -0.4186  0.6458  0.3121
  798MPD2    N111766   4.055   0.238   0.064  0.0823  0.1513  0.5440
  798MPD2    H711767   4.036   0.338   0.058  1.4150  0.4355  0.8816
  799MPD2     C11768   3.166   1.563  15.009  0.1379  0.1176 -0.0841
  799MPD2    C111769   3.084   1.470  14.941  0.4029  0.4286  0.4196
  799MPD2    C211770   2.999   1.522  14.845 -0.1149 -0.0983 -0.0153
  799MPD2    C311771   2.991   1.659  14.813 -0.7486 -1.0017 -0.3939
  799MPD2    C411772   3.076   1.739  14.879  0.5844  0.2655 -0.8545
  799MPD2    C511773   3.155   1.698  14.978  0.9447 -0.4251 -0.6346
  799MPD2     H11774   2.937   1.454  14.787 -2.5183  1.4322  0.7631
  799MPD2    H111775   3.091   1.846  14.868 -0.0515  0.5641  1.2685
  799MPD2    H211776   3.222   1.534  15.098  1.5355 -0.8681 -1.2932
  799MPD2    H311777   3.208   1.768  15.041  0.5588 -0.1297 -0.6419
  799MPD2     N11778   2.909   1.716  14.714 -0.2470  1.0087 -0.7164
  799MPD2    H511779   2.927   1.813  14.692 -0.3419  1.4032  0.9274
  799MPD2    N111780   3.084   1.331  14.971  0.7661  0.5900 -0.2659
  799MPD2    H711781   3.012   1.284  14.917 -0.2785  0.4203  1.2756
  800MPD2     C11782   3.894   2.822  14.148 -0.0691 -0.2862  0.4932
  800MPD2    C111783   4.021   2.771  14.167 -0.3648  0.6805  0.3012
  800MPD2    C211784   4.037   2.634  14.158  0.2140  0.1093  0.3820
  800MPD2    C311785   3.933   2.547  14.138 -0.3876 -0.1686  0.3109
  800MPD2    C411786   3.808   2.603  14.116 -1.3485  0.2116 -0.2584
  800MPD2    C511787   3.792   2.737  14.120 -0.7086 -0.1664 -0.4613
  800MPD2     H11788   4.140   2.598  14.157 -0.1552 -0.8471 -3.1236
  800MPD2    H111789   3.719   2.553  14.081 -2.4821  2.3936 -0.4802
  800MPD2    H211790   3.887   2.930  14.156  0.1708 -0.1404 -1.1177
  800MPD2    H311791   3.691   2.774  14.109 -0.0700  1.8264  0.4432
  800MPD2     N11792   3.962   2.406  14.128  0.0073  0.3979 -0.2596
  800MPD2    H511793   4.058   2.377  14.142 -0.3767  0.0949  1.7004
  800MPD2    N111794   4.130   2.862  14.163 -0.0118 -0.1349  0.0252
  800MPD2    H711795   4.102   2.959  14.154  0.6340  0.0349 -0.1521
  801MPD2     C11796   3.993   3.413  13.919 -0.1905  0.0391  0.0148
  801MPD2    C111797   4.054   3.388  14.040 -0.4514  1.0002 -0.2985
  801MPD2    C211798   3.986   3.433  14.155 -0.4436 -0.5742  0.5925
  801MPD2    C311799   3.848   3.462  14.145  0.3801  0.2011  0.1204
  801MPD2    C411800   3.782   3.469  14.023 -0.5056 -0.0479 -0.5872
  801MPD2    C511801   3.862   3.448  13.914  0.3357  0.2616 -0.5060
  801MPD2     H11802   4.027   3.410  14.253  4.5484  1.1892 -1.1225
  801MPD2    H111803   3.676   3.493  14.017 -0.3887  0.1588 -1.8440
  801MPD2    H211804   4.052   3.400  13.829 -1.6499 -0.0959 -0.9100
  801MPD2    H311805   3.817   3.454  13.815  2.1005 -0.7267 -1.3905
  801MPD2     N11806   3.768   3.448  14.256 -0.0239 -0.0509 -0.1654
  801MPD2    H511807   3.668   3.428  14.247 -0.1648  1.0955 -1.1557
  801MPD2    N111808   4.178   3.326  14.055 -0.4797 -0.0151 -0.3639
  801MPD2    H711809   4.220   3.333  14.147  0.8268 -1.0642 -0.8778
  802MPD2     C11810   2.668   4.581   0.597 -0.8176  0.4410  0.9881
  802MPD2    C111811   2.652   4.469   0.675  0.3377 -0.5566 -0.4260
  802MPD2    C211812   2.744   4.366   0.653 -0.3500 -0.2302  0.8610
  802MPD2    C311813   2.853   4.376   0.568  0.4529 -0.5392  0.1238
  802MPD2    C411814   2.863   4.487   0.485 -0.2298 -0.1640 -0.4065
  802MPD2    C511815   2.768   4.585   0.500 -0.0719  0.4473 -0.3330
  802MPD2     H11816   2.733   4.282   0.720  0.7633 -1.7802 -0.8878
  802MPD2    H111817   2.936   4.500   0.406  0.7533 -1.1743  0.3344
  802MPD2    H211818   2.590   4.655   0.608 -1.1835  0.2578 -0.4050
  802MPD2    H311819   2.764   4.670   0.432 -2.4244 -3.1763 -4.7056
  802MPD2     N11820   2.939   4.266   0.575 -0.6744  0.5661 -0.5005
  802MPD2    H511821   2.919   4.185   0.633 -0.2130  0.1492 -0.9239
  802MPD2    N111822   2.543   4.443   0.760 -0.5587 -0.5394 -0.7167
  802MPD2    H711823   2.534   4.347   0.791  1.0810 -0.0838  1.1624
  803MPD2     C11824   4.030   2.298  11.628 -0.1023 -0.1899  0.3842
  803MPD2    C111825   4.148   2.354  11.667  0.6580 -0.0834 -0.2908
  803MPD2    C211826   4.198   2.310  11.784 -0.7799 -0.5333  0.2868
  803MPD2    C311827   4.134   2.214  11.859  0.2867  0.6709 -0.1854
  803MPD2    C411828   4.008   2.175  11.826 -0.4132 -0.0165 -0.1385
  803MPD2    C511829   3.957   2.205  11.702 -0.4282  1.5340 -0.6267
  803MPD2     H11830   4.293   2.345  11.822 -0.5052 -0.2571 -0.6528
  803MPD2    H111831   3.952   2.108  11.891  1.8084 -1.8061 -0.0731
  803MPD2    H211832   3.997   2.316  11.526 -1.9095  0.2459  1.0308
  803MPD2    H311833   3.873   2.148  11.665  0.4297 -0.3396  0.3426
  803MPD2     N11834   4.186   2.155  11.980  0.0089  0.2326 -0.4629
  803MPD2    H511835   4.120   2.102  12.036  0.6281 -0.0131  0.0307
  803MPD2    N111836   4.222   2.455  11.598 -0.3704 -0.4404 -0.1857
  803MPD2    H711837   4.299   2.494  11.650  2.4204 -2.3544 -2.8589
  804MPD2     C11838   3.771   3.126  17.382  0.8300  0.0820 -0.3173
  804MPD2    C111839   3.829   3.108  17.503 -0.0934 -0.6492 -0.0361
  804MPD2    C211840   3.913   3.197  17.556  0.7381 -0.6094  0.9530
  804MPD2    C311841   3.943   3.310  17.480 -0.6144  0.1229  0.9819
  804MPD2    C411842   3.889   3.336  17.349  0.0079 -0.0333 -0.0532
  804MPD2    C511843   3.806   3.235  17.298 -0.1992 -0.3925 -0.1402
  804MPD2     H11844   3.951   3.170  17.654 -1.0669  0.0779  1.8457
  804MPD2    H111845   3.899   3.430  17.296 -2.9567  0.9972  1.2622
  804MPD2    H211846   3.703   3.049  17.346 -1.1750  1.9058 -0.3848
  804MPD2    H311847   3.760   3.245  17.200  0.3657  0.3861 -0.3261
  804MPD2     N11848   4.022   3.410  17.543 -0.3503 -0.3107  0.2572
  804MPD2    H511849   4.023   3.406  17.645  0.2908 -0.5306  0.2372
  804MPD2    N111850   3.803   3.000  17.578  0.2865  0.0094 -0.2515
  804MPD2    H711851   3.838   2.999  17.673 -0.7554  0.6484  0.1349
  805MPD2     C11852   2.953   1.704  15.793  0.1817 -0.1082  0.4121
  805MPD2    C111853   3.019   1.690  15.679  0.3550 -0.0571 -0.2081
  805MPD2    C211854   3.150   1.639  15.679  0.5898  0.5015 -0.5440
  805MPD2    C311855   3.213   1.604  15.796  0.0407 -0.6225  0.4044
  805MPD2    C411856   3.142   1.609  15.917 -0.4690  0.1110  0.6093
  805MPD2    C511857   3.011   1.656  15.913 -0.0473 -0.8047 -0.2634
  805MPD2     H11858   3.197   1.599  15.590 -0.6463 -0.3000 -0.8326
  805MPD2    H111859   3.188   1.587  16.012 -0.9888 -0.1562  0.7984
  805MPD2    H211860   2.849   1.735  15.796  0.0744 -0.4002 -0.2205
  805MPD2    H311861   2.961   1.672  16.008 -0.6785 -1.3246 -0.5119
  805MPD2     N11862   3.347   1.557  15.782  0.7331  0.3753 -0.3723
  805MPD2    H511863   3.401   1.579  15.698 -0.5332  0.3557 -1.1981
  805MPD2    N111864   2.966   1.713  15.549 -0.2326 -0.1620  0.2350
  805MPD2    H711865   3.026   1.717  15.468 -1.8123  0.8774 -0.9044
  806MPD2     C11866   3.034   1.091   1.169  0.6808  0.1503 -0.1706
  806MPD2    C111867   3.154   1.031   1.150  0.1836  0.3828 -0.3873
  806MPD2    C211868   3.184   0.974   1.033 -0.4876  0.6552  1.3637
  806MPD2    C311869   3.088   0.972   0.933  0.4602 -0.0047 -0.6286
  806MPD2    C411870   2.967   1.027   0.955 -0.3100 -0.0036  0.2873
  806MPD2    C511871   2.950   1.094   1.071  0.1387 -0.5908  0.4774
  806MPD2     H11872   3.279   0.923   1.023 -1.0415 -0.4231  1.5940
  806MPD2    H111873   2.883   1.045   0.888 -0.1721  2.6115  0.8495
  806MPD2    H211874   3.010   1.135   1.265  1.6265 -1.0475  0.6155
  806MPD2    H311875   2.867   1.164   1.079 -0.2836 -1.3022  2.1345
  806MPD2     N11876   3.122   0.910   0.815  0.5611  0.2206 -0.0817
  806MPD2    H511877   3.216   0.871   0.815  0.5583  0.2263 -2.1970
  806MPD2    N111878   3.250   1.022   1.256 -0.8714  0.2177 -0.4023
  806MPD2    H711879   3.215   1.059   1.344 -2.4200 -0.7273 -0.6293
  807MPD2     C11880   3.293   0.722   1.953  0.8044 -0.3689  0.1840
  807MPD2    C111881   3.373   0.656   1.858  0.7517 -0.2969  0.3307
  807MPD2    C211882   3.385   0.525   1.865 -0.0563  0.0045  0.2425
  807MPD2    C311883   3.330   0.457   1.969 -0.0374  0.2216 -0.0514
  807MPD2    C411884   3.250   0.525   2.065 -0.2307 -0.8514  0.0324
  807MPD2    C511885   3.228   0.657   2.054 -0.7137  0.6541  0.2477
  807MPD2     H11886   3.442   0.473   1.788  0.9814 -0.1555  1.1103
  807MPD2    H111887   3.203   0.477   2.150 -0.8121 -1.0500 -0.4001
  807MPD2    H211888   3.268   0.827   1.942  1.4857 -0.0811  1.4474
  807MPD2    H311889   3.173   0.719   2.124 -1.0802 -0.6165  1.0801
  807MPD2     N11890   3.355   0.314   1.996  0.1565  0.0804  0.4229
  807MPD2    H511891   3.430   0.274   1.939 -0.5448 -0.8308  0.1399
  807MPD2    N111892   3.417   0.713   1.740  0.5090 -0.1647 -0.1918
  807MPD2    H711893   3.473   0.653   1.681  0.1207 -0.3804 -0.3375
  808MPD2     C11894   4.092   1.996   9.704 -0.2296 -0.1710 -0.4066
  808MPD2    C111895   4.003   2.040   9.796  0.0465  0.4836  0.5535
  808MPD2    C211896   4.030   2.155   9.871  0.6455 -0.4676  0.0618
  808MPD2    C311897   4.138   2.235   9.844  0.3945  0.1965  0.5516
  808MPD2    C411898   4.230   2.191   9.745 -0.0605 -0.1495 -0.1420
  808MPD2    C511899   4.207   2.076   9.679 -0.0816 -0.2281 -0.3083
  808MPD2     H11900   3.956   2.179   9.946 -0.4693 -2.1416 -0.5141
  808MPD2    H111901   4.322   2.242   9.719  0.1885 -1.1920 -1.2739
  808MPD2    H211902   4.081   1.901   9.652 -0.9642 -0.0192 -0.5240
  808MPD2    H311903   4.284   2.047   9.608  1.4817  0.4984  1.1178
  808MPD2     N11904   4.154   2.369   9.897  0.1863 -0.0869 -0.0804
  808MPD2    H511905   4.235   2.417   9.859 -1.0725  2.1712  0.1258
  808MPD2    N111906   3.882   1.970   9.822  0.8944  0.5147 -0.0794
  808MPD2    H711907   3.843   1.997   9.912  0.7730  0.0012  0.0206
  809MPD2     C11908   4.531   3.285   9.714  0.4193  0.4772  0.9342
  809MPD2    C111909   4.579   3.156   9.726 -0.2622 -0.0215  0.5468
  809MPD2    C211910   4.494   3.058   9.776  0.1816  0.1459  0.7628
  809MPD2    C311911   4.365   3.083   9.804 -0.2672 -0.7379  0.1555
  809MPD2    C411912   4.323   3.212   9.802 -0.1769 -0.3242  0.0991
  809MPD2    C511913   4.404   3.313   9.756 -0.3636 -0.2362 -0.8104
  809MPD2     H11914   4.540   2.961   9.786  1.1983  0.6768  1.2258
  809MPD2    H111915   4.217   3.226   9.820  0.0823  1.6104  0.1169
  809MPD2    H211916   4.597   3.368   9.691 -0.2456  0.8964  0.5434
  809MPD2    H311917   4.362   3.413   9.754  2.4743  0.9970  1.7459
  809MPD2     N11918   4.273   2.983   9.847 -0.0464 -0.7793 -0.3917
  809MPD2    H511919   4.181   3.019   9.867  0.3728 -0.4929  0.9942
  809MPD2    N111920   4.706   3.112   9.689  0.5837  0.3487  0.1804
  809MPD2    H711921   0.018   3.021   9.714  2.5155  1.0256 -0.3484
  810MPD2     C11922   3.931   1.554   9.943  0.2015 -0.3435 -0.5114
  810MPD2    C111923   3.912   1.629  10.061  0.1935 -0.4653  0.3119
  810MPD2    C211924   4.007   1.734  10.088  0.1753 -0.1385 -1.6429
  810MPD2    C311925   4.113   1.760  10.002  0.5018 -0.1265  0.2013
  810MPD2    C411926   4.121   1.689   9.879  0.8003 -0.8186 -0.3054
  810MPD2    C511927   4.038   1.581   9.859  0.5161  0.3684 -0.6006
  810MPD2     H11928   3.995   1.789  10.181  1.0503 -0.6598 -1.2189
  810MPD2    H111929   4.210   1.699   9.818  1.5408  1.4554  1.1395
  810MPD2    H211930   3.872   1.466   9.919  1.0433 -0.8483 -0.7453
  810MPD2    H311931   4.061   1.512   9.779  0.8196 -0.5272  0.2615
  810MPD2     N11932   4.210   1.860  10.034  0.2726  0.3221 -0.1147
  810MPD2    H511933   4.284   1.876   9.967  0.8228  2.5932  1.0291
  810MPD2    N111934   3.818   1.585  10.154  0.5321 -0.0938  0.5127
  810MPD2    H711935   3.751   1.518  10.118 -0.8482  3.7419 -3.9811
  811MPD2     C11936   2.996   1.502  10.343 -0.3441 -0.1680 -0.2005
  811MPD2    C111937   3.092   1.587  10.300 -0.3088  0.6123  0.0760
  811MPD2    C211938   3.064   1.708  10.241 -0.2074 -0.4757  0.7225
  811MPD2    C311939   2.936   1.742  10.211 -0.1347 -0.1723  0.1629
  811MPD2    C411940   2.834   1.653  10.241  0.5122  0.2062  0.1741
  811MPD2    C511941   2.860   1.528  10.308 -0.1768 -0.4504  0.2258
  811MPD2     H11942   3.146   1.778  10.227  1.0017 -1.4968  2.7473
  811MPD2    H111943   2.733   1.677  10.212  0.2552 -1.0419  0.0381
  811MPD2    H211944   3.012   1.410  10.399 -0.8231  0.4271  0.9165
  811MPD2    H311945   2.777   1.465  10.339 -1.6586  1.9724  1.2597
  811MPD2     N11946   2.909   1.868  10.156 -0.4240  0.3436 -0.2778
  811MPD2    H511947   2.989   1.929  10.142  1.2246 -1.8736 -0.4981
  811MPD2    N111948   3.218   1.548  10.348  0.3019 -0.1373  0.3477
  811MPD2    H711949   3.224   1.461  10.400  0.0057  0.6528  1.7080
  812MPD2     C11950   2.022   2.063  12.520 -0.5729  0.2630 -0.8536
  812MPD2    C111951   1.923   2.128  12.589 -0.0707 -0.1239  0.1393
  812MPD2    C211952   1.865   2.070  12.698  0.2120 -0.5294  0.3944
  812MPD2    C311953   1.917   1.949  12.748  0.1579  0.0735  0.1378
  812MPD2    C411954   2.028   1.887  12.686  0.3199  0.7938  0.4745
  812MPD2    C511955   2.069   1.946  12.572  0.7099  0.4317 -0.2867
  812MPD2     H11956   1.785   2.117  12.753  1.5403 -0.4261  2.2155
  812MPD2    H111957   2.064   1.791  12.721 -1.7565 -0.0123  0.3965
  812MPD2    H211958   2.056   2.094  12.422 -0.9646 -0.3234 -1.1726
  812MPD2    H311959   2.157   1.904  12.525  0.5439 -1.2337  0.8908
  812MPD2     N11960   1.838   1.891  12.856 -0.2967  0.3345 -0.3773
  812MPD2    H511961   1.738   1.909  12.855 -0.1081  1.3642 -1.1795
  812MPD2    N111962   1.875   2.243  12.534 -0.6680  0.6313 -0.5897
  812MPD2    H711963   1.906   2.271  12.441  1.0592  0.1802 -0.1490
  813MPD2     C11964   1.374   3.558  12.987  0.3199  0.1212  0.7173
  813MPD2    C111965   1.283   3.651  12.944  0.0063 -0.5688 -0.9541
  813MPD2    C211966   1.184   3.699  13.036  0.3583  0.4836  0.5834
  813MPD2    C311967   1.180   3.654  13.164  0.0457  0.6322  0.1141
  813MPD2    C411968   1.277   3.559  13.205  0.0636  0.3775  0.5609
  813MPD2    C511969   1.378   3.518  13.118 -0.2077 -0.7390 -0.2629
  813MPD2     H11970   1.114   3.779  13.014  0.5813  0.1524 -1.3475
  813MPD2    H111971   1.269   3.502  13.297  0.0883 -0.7075 -0.1096
  813MPD2    H211972   1.445   3.526  12.911  0.1986 -1.9365  1.4759
  813MPD2    H311973   1.453   3.446  13.150 -0.1860 -0.3684  0.5296
  813MPD2     N11974   1.072   3.698  13.241 -0.0562 -0.1091  0.7082
  813MPD2    H511975   1.003   3.762  13.202 -1.5965 -1.5279  1.0990
  813MPD2    N111976   1.295   3.693  12.808  0.3429 -0.0350  0.2870
  813MPD2    H711977   1.364   3.641  12.755 -1.2844 -1.1230 -0.7404
  814MPD2     C11978   1.774   4.557  12.150  0.4030 -0.5387  0.4217
  814MPD2    C111979   1.770   4.692  12.118 -0.3904  0.0224  0.5047
  814MPD2    C211980   1.781   0.058  12.221 -0.2319  0.6409  0.5486
  814MPD2    C311981   1.796   0.028  12.351  0.4826 -0.7058  0.0215
  814MPD2    C411982   1.799   4.618  12.379  0.0335 -0.2786  0.0984
  814MPD2    C511983   1.794   4.522  12.281  0.0158  0.1606  0.1119
  814MPD2     H11984   1.762   0.161  12.192  0.3016  0.6325  0.1724
  814MPD2    H111985   1.813   4.583  12.480 -1.9660 -1.4332 -0.0074
  814MPD2    H211986   1.760   4.478  12.077  1.6192 -0.6353  0.2954
  814MPD2    H311987   1.783   4.417  12.308 -1.4861 -0.2061 -1.9080
  814MPD2     N11988   1.804   0.114  12.454  0.6013 -0.6166 -0.3726
  814MPD2    H511989   1.786   0.073  12.545  2.1738  0.1996  0.3080
  814MPD2    N111990   1.751   0.009  11.989 -0.0871 -0.3027 -0.3713
  814MPD2    H711991   1.728   0.107  11.977  3.4141  0.5728  0.0110
  815MPD2     C11992   1.890   4.028  12.035  0.7038  0.2836  0.4443
  815MPD2    C111993   1.884   3.887  12.034 -0.1465  0.1957  1.0175
  815MPD2    C211994   1.758   3.835  12.041  0.0137  0.0675 -0.6373
  815MPD2    C311995   1.643   3.909  12.024  0.3357 -0.4091 -0.2914
  815MPD2    C411996   1.657   4.043  12.023 -0.4978 -0.4390 -0.0980
  815MPD2    C511997   1.776   4.104  12.029  0.5953  0.0274  0.1407
  815MPD2     H11998   1.746   3.727  12.047 -1.4381  0.3502  1.5284
  815MPD2    H111999   1.578   4.116  12.037  0.2311  0.1597  0.9118
  815MPD2    H212000   1.988   4.075  12.030 -0.1709  2.1226  0.4158
  815MPD2    H312001   1.795   4.210  12.014  1.0128 -0.0017  0.4524
  815MPD2     N12002   1.521   3.843  12.005 -0.0483  0.2619 -0.7882
  815MPD2    H512003   1.514   3.742  12.004  0.4217  0.2519 -3.8713
  815MPD2    N112004   2.006   3.815  12.039  0.2489  0.1909 -0.4350
  815MPD2    H712005   2.093   3.865  12.026  0.0014  0.3416 -1.5579
  816MPD2     C12006   1.628   2.482  17.539  0.3407 -0.2511 -1.2243
  816MPD2    C112007   1.702   2.600  17.527  0.2343 -0.8232  1.2294
  816MPD2    C212008   1.840   2.595  17.513  0.1725  0.0139  0.0136
  816MPD2    C312009   1.903   2.478  17.503 -0.1413 -0.2764 -0.0124
  816MPD2    C412010   1.833   2.356  17.503  0.4848 -0.2802  0.0241
  816MPD2    C512011   1.694   2.363  17.520 -0.4681 -0.4855 -0.1710
  816MPD2     H12012   1.891   2.687  17.486 -0.0547  0.1894  0.1765
  816MPD2    H112013   1.876   2.257  17.505  1.4120  0.1002 -0.8113
  816MPD2    H212014   1.526   2.477  17.577  0.3691 -1.3488 -1.2676
  816MPD2    H312015   1.644   2.267  17.532 -0.7518 -0.3791 -0.5296
  816MPD2     N12016   2.045   2.491  17.477 -0.4639  0.0777 -0.0374
  816MPD2    H512017   2.080   2.585  17.458  1.8888 -0.6447  0.7560
  816MPD2    N112018   1.633   2.727  17.543  0.3391  0.3601  0.4023
  816MPD2    H712019   1.533   2.718  17.528  0.3473  1.6601 -0.4272
  817MPD2     C12020   1.718   4.564  10.524  0.1484 -0.2026  0.2018
  817MPD2    C112021   1.802   4.640  10.441 -0.2244 -1.1274  0.1787
  817MPD2    C212022   1.765   0.047  10.430 -0.3296  0.0281  0.1528
  817MPD2    C312023   1.642   0.100  10.473  0.7944  0.0295 -0.1374
  817MPD2    C412024   1.562   0.016  10.553 -0.5246  0.9386 -0.1001
  817MPD2    C512025   1.597   4.615  10.576 -0.0030  0.3623  0.4184
  817MPD2     H12026   1.829   0.112  10.372  2.0216 -3.2090 -0.9058
  817MPD2    H112027   1.470   0.056  10.595 -0.3402  0.0300  1.1470
  817MPD2    H212028   1.734   4.458  10.541  1.9686  0.1372  0.5962
  817MPD2    H312029   1.541   4.541  10.633  1.4265 -1.5557 -0.6415
  817MPD2     N12030   1.607   0.233  10.454 -0.0470  0.5949  0.3180
  817MPD2    H512031   1.673   0.301  10.419 -0.5993  0.9999  0.0609
  817MPD2    N112032   1.918   4.587  10.376  0.6677 -0.2816 -0.6715
  817MPD2    H712033   1.958   4.635  10.296  2.7307  0.0514  0.5571
  818MPD2     C12034   4.627   4.591  10.331 -0.3747 -0.2397 -0.2487
  818MPD2    C112035   0.035   4.612  10.319 -0.1861  0.4084 -0.1165
  818MPD2    C212036   0.113   4.500  10.325  0.0321  0.1764  0.5640
  818MPD2    C312037   0.066   4.376  10.356 -0.4543  0.0878  0.0318
  818MPD2    C412038   4.661   4.354  10.371  0.7286  0.1647  0.2980
  818MPD2    C512039   4.578   4.468  10.359 -0.0643  0.2836 -0.5600
  818MPD2     H12040   0.219   4.514  10.307  0.2940 -0.2525  1.8096
  818MPD2    H112041   4.619   4.256  10.391  0.4127  0.1745 -0.2911
  818MPD2    H212042   4.558   4.674  10.316 -0.7724 -0.6853 -0.8383
  818MPD2    H312043   4.471   4.456  10.372 -0.0143 -0.7308 -1.0045
  818MPD2     N12044   0.136   4.258  10.360 -0.2193  0.1347 -0.3098
  818MPD2    H512045   0.082   4.177  10.388  0.4864 -0.5029 -0.8114
  818MPD2    N112046   0.100   0.008  10.293  0.0972  0.0860 -0.4115
  818MPD2    H712047   0.201   0.003  10.285  0.0566 -2.2136  0.4932
  819MPD2     C12048   3.442   1.039  15.696  0.3759 -0.7739  0.1638
  819MPD2    C112049   3.419   0.935  15.784 -0.6183  0.2581  0.7395
  819MPD2    C212050   3.520   0.879  15.858  0.5093  0.2559 -0.3533
  819MPD2    C312051   3.646   0.928  15.833 -0.0355 -1.3031 -0.0825
  819MPD2    C412052   3.670   1.042  15.760 -0.0371  0.0254 -0.0428
  819MPD2    C512053   3.563   1.104  15.695 -0.1591  0.0735 -0.0469
  819MPD2     H12054   3.503   0.799  15.929 -0.1453  0.5630 -0.1605
  819MPD2    H112055   3.766   1.093  15.754  0.3905 -0.7778 -0.0387
  819MPD2    H212056   3.354   1.086  15.652 -0.5123 -1.8468  0.7879
  819MPD2    H312057   3.574   1.199  15.644 -0.5481  0.2488  0.1927
  819MPD2     N12058   3.740   0.857  15.905  0.3622  0.5633  0.1292
  819MPD2    H512059   3.708   0.781  15.965 -1.7847  0.1087 -1.6096
  819MPD2    N112060   3.286   0.896  15.790  0.6888  0.1236 -0.1429
  819MPD2    H712061   3.224   0.949  15.730  1.8354  2.3229  0.6108
  820MPD2     C12062   2.742   1.113  15.088 -0.5338  0.5782  0.2755
  820MPD2    C112063   2.818   1.176  15.175 -0.1441 -0.1381  0.3494
  820MPD2    C212064   2.885   1.104  15.270  0.1938 -0.2084  0.1076
  820MPD2    C312065   2.843   0.979  15.308  0.2878 -0.0235  0.3293
  820MPD2    C412066   2.746   0.917  15.228  0.4672  0.0418 -0.3598
  820MPD2    C512067   2.710   0.979  15.108  0.1811  0.2412  0.3851
  820MPD2     H12068   2.967   1.160  15.312  0.6008 -2.7727  2.7374
  820MPD2    H112069   2.701   0.818  15.235 -1.0874  0.7248 -0.7519
  820MPD2    H212070   2.716   1.162  14.995  1.2875 -0.1847 -0.6321
  820MPD2    H312071   2.679   0.913  15.028  0.1615 -1.4791  1.8035
  820MPD2     N12072   2.885   0.899  15.413 -0.3932 -0.2741 -0.5672
  820MPD2    H512073   2.825   0.821  15.438  3.1292 -2.7007  0.1960
  820MPD2    N112074   2.829   1.313  15.150  0.2605 -0.0994  0.0175
  820MPD2    H712075   2.770   1.338  15.072  1.4109 -0.3767 -0.9365
  821MPD2     C12076   3.975   2.416  13.360  0.2791 -0.5703 -0.0199
  821MPD2    C112077   4.086   2.358  13.414  0.1813  0.2758  0.1982
  821MPD2    C212078   4.208   2.373  13.359  0.1827 -1.5803  0.3026
  821MPD2    C312079   4.221   2.443  13.241 -0.2984 -0.5987  0.0995
  821MPD2    C412080   4.107   2.502  13.188 -0.3359  0.3230 -0.6671
  821MPD2    C512081   3.986   2.491  13.250  0.1458  0.7413  0.3403
  821MPD2     H12082   4.294   2.334  13.412 -0.4480 -2.4824  0.6626
  821MPD2    H112083   4.113   2.561  13.098  1.4637  1.6108  0.2909
  821MPD2    H212084   3.874   2.409  13.399  0.4625  0.7145  0.7021
  821MPD2    H312085   3.901   2.543  13.207  0.1575 -0.3815 -1.0481
  821MPD2     N12086   4.348   2.473  13.179 -0.2347  0.4112  0.5034
  821MPD2    H512087   4.351   2.545  13.108 -0.9017 -1.1157 -1.0916
  821MPD2    N112088   4.090   2.289  13.540 -0.1199 -0.3878 -0.4107
  821MPD2    H712089   4.179   2.240  13.546 -0.6893 -0.9664  3.0010
  822MPD2     C12090   4.034   2.405  16.164  0.4763 -0.2231 -0.8895
  822MPD2    C112091   4.160   2.407  16.227  0.0752 -0.7224  0.2854
  822MPD2    C212092   4.187   2.527  16.288 -0.2795 -0.7670  0.3328
  822MPD2    C312093   4.098   2.628  16.301  0.6042  0.3680 -0.0952
  822MPD2    C412094   3.973   2.619  16.244 -0.5448 -0.4560  0.3579
  822MPD2    C512095   3.944   2.507  16.178 -0.2917  0.0623 -0.0900
  822MPD2     H12096   4.288   2.541  16.326 -0.4582 -2.4367  1.4330
  822MPD2    H112097   3.906   2.704  16.246 -1.5058 -1.2411  1.9126
  822MPD2    H212098   4.002   2.310  16.124  1.2371  0.3706 -2.8930
  822MPD2    H312099   3.842   2.493  16.142  0.4659 -1.5419 -1.6058
  822MPD2     N12100   4.129   2.753  16.370  0.3324 -0.6876  0.8824
  822MPD2    H512101   4.046   2.802  16.401  0.7757  0.8428 -0.3413
  822MPD2    N112102   4.252   2.295  16.243  0.1005  0.1503  0.2686
  822MPD2    H712103   4.334   2.302  16.303 -1.0247  2.7873  1.5129
  823MPD2     C12104   4.034   2.937  17.190 -0.1961  0.1214 -0.0275
  823MPD2    C112105   4.070   2.856  17.084  0.8857  0.1028 -0.1074
  823MPD2    C212106   4.083   2.725  17.105  0.7192 -0.1713 -0.5453
  823MPD2    C312107   4.084   2.669  17.232  0.2645 -0.0936 -0.1569
  823MPD2    C412108   4.033   2.740  17.336  0.5157  0.2701 -0.5415
  823MPD2    C512109   4.005   2.875  17.308 -0.1146  0.5432 -0.3513
  823MPD2     H12110   4.123   2.666  17.022 -0.2599 -1.1393 -0.3325
  823MPD2    H112111   4.010   2.699  17.433 -0.7289  2.1657 -0.0342
  823MPD2    H212112   4.013   3.043  17.180  0.9568  0.1949 -1.7339
  823MPD2    H312113   3.962   2.935  17.388  1.8434  2.0298 -0.4357
  823MPD2     N12114   4.129   2.538  17.260  0.1127 -0.1223  0.1609
  823MPD2    H512115   4.149   2.520  17.358  0.7829 -1.7914 -0.2744
  823MPD2    N112116   4.114   2.908  16.960 -0.0009 -0.0602 -0.1651
  823MPD2    H712117   4.115   3.009  16.948 -2.5977  0.4393  4.0020
  824MPD2     C12118   4.209   1.538  15.930  0.1907  0.8154  0.0106
  824MPD2    C112119   4.324   1.574  15.993  0.3662  0.3581 -0.3365
  824MPD2    C212120   4.434   1.494  15.975 -0.3218  0.0497  0.1935
  824MPD2    C312121   4.421   1.379  15.903  0.3786 -0.1206  0.7356
  824MPD2    C412122   4.311   1.334  15.844 -0.1753  0.4845  0.7013
  824MPD2    C512123   4.204   1.416  15.860  0.5460 -0.1708 -0.4615
  824MPD2     H12124   4.534   1.503  16.015  0.8411  0.7565 -2.8793
  824MPD2    H112125   4.289   1.244  15.789 -1.1621  0.5372  1.0114
  824MPD2    H212126   4.115   1.590  15.944 -0.6208 -0.7380  0.3408
  824MPD2    H312127   4.109   1.373  15.829 -0.4564  1.5223  0.2462
  824MPD2     N12128   4.547   1.317  15.877 -0.2622  0.5457  0.0870
  824MPD2    H512129   4.634   1.358  15.910  0.1464 -0.6875  0.5468
  824MPD2    N112130   4.314   1.691  16.074  0.0698 -0.1717 -0.3944
  824MPD2    H712131   4.226   1.742  16.079 -0.3640 -0.8030 -1.5140
  825MPD2     C12132   0.657   1.269  15.758  0.0504  0.0301 -0.0278
  825MPD2    C112133   0.539   1.340  15.759  0.0660 -0.3049  0.2124
  825MPD2    C212134   0.533   1.464  15.704 -0.5462  0.1390  0.7296
  825MPD2    C312135   0.650   1.528  15.655 -0.0228 -0.2513  0.0705
  825MPD2    C412136   0.770   1.454  15.647 -0.2604  0.5240 -0.0303
  825MPD2    C512137   0.772   1.327  15.702  0.7402 -0.5129 -0.4949
  825MPD2     H12138   0.441   1.519  15.689  0.5272  1.2189 -2.0063
  825MPD2    H112139   0.866   1.497  15.618 -1.1081  0.4925 -2.9260
  825MPD2    H212140   0.673   1.170  15.799 -0.4265  0.2987  0.8090
  825MPD2    H312141   0.868   1.277  15.708  1.4505  0.7122 -1.4717
  825MPD2     N12142   0.654   1.663  15.606 -0.1976 -0.5149 -0.1513
  825MPD2    H512143   0.740   1.695  15.563  0.6822  0.6492  2.4811
  825MPD2    N112144   0.424   1.272  15.802 -0.0558 -0.2063  0.2667
  825MPD2    H712145   0.443   1.174  15.821 -1.0249 -0.5170 -0.4192
  826MPD2     C12146   0.473   1.612  13.719 -0.1280 -0.6404 -0.1212
  826MPD2    C112147   0.359   1.611  13.645 -0.0668  0.3206 -0.4044
  826MPD2    C212148   0.250   1.702  13.671  1.1276 -0.5788 -1.0841
  826MPD2    C312149   0.258   1.789  13.777  0.1574 -0.0717  0.0895
  826MPD2    C412150   0.372   1.783  13.849 -0.4522 -0.5584 -0.1064
  826MPD2    C512151   0.481   1.694  13.821 -0.1050  0.3713  0.1930
  826MPD2     H12152   0.173   1.697  13.595 -0.4630 -1.6495  0.5757
  826MPD2    H112153   0.390   1.851  13.932 -0.3374 -2.0578  1.1146
  826MPD2    H212154   0.552   1.539  13.706  0.5707  0.3495 -1.4653
  826MPD2    H312155   0.573   1.693  13.879 -1.1466  0.4673  1.8555
  826MPD2     N12156   0.154   1.881  13.814  0.5754  0.0111 -0.6580
  826MPD2    H512157   0.163   1.925  13.905 -2.9540 -0.3281 -0.1286
  826MPD2    N112158   0.360   1.502  13.553  0.4238  0.4656  0.9612
  826MPD2    H712159   0.450   1.465  13.526  0.4369  0.4537  1.0198
  827MPD2     C12160   1.578   2.822  10.103  0.1118  0.0837  0.1632
  827MPD2    C112161   1.471   2.840  10.185 -0.4867  0.4158 -0.2495
  827MPD2    C212162   1.360   2.757  10.165 -0.7133 -0.4038  0.4584
  827MPD2    C312163   1.350   2.676  10.057 -0.0758 -1.0845  0.2362
  827MPD2    C412164   1.456   2.656   9.979  0.1608 -0.1201  0.1890
  827MPD2    C512165   1.567   2.731  10.006 -0.8109  0.0374 -0.0384
  827MPD2     H12166   1.283   2.756  10.241  1.7762  3.5058  3.0216
  827MPD2    H112167   1.449   2.597   9.888 -2.1691 -0.0211  0.3130
  827MPD2    H212168   1.663   2.888  10.100 -0.0431  0.3512  2.2169
  827MPD2    H312169   1.653   2.726   9.939 -0.3475  2.3337  0.3596
  827MPD2     N12170   1.232   2.597  10.044 -0.3845 -0.4673  0.3094
  827MPD2    H512171   1.170   2.605  10.124 -0.8151  1.0474 -0.1884
  827MPD2    N112172   1.488   2.937  10.284 -0.9084  0.4931  0.3233
  827MPD2    H712173   1.582   2.973  10.300 -1.5198  1.3843  1.9575
  828MPD2     C12174   4.369   2.928  12.617  0.6309  0.2027  0.2949
  828MPD2    C112175   4.311   2.910  12.491  0.1118  0.2272 -0.1725
  828MPD2    C212176   4.368   2.971  12.379  0.3268  0.0835 -0.3429
  828MPD2    C312177   4.484   3.046  12.392 -0.2168  0.7067 -0.3493
  828MPD2    C412178   4.550   3.042  12.512 -0.0485 -0.4404 -0.4340
  828MPD2    C512179   4.494   2.980  12.618 -1.0195  0.3083 -0.1459
  828MPD2     H12180   4.317   2.968  12.284 -1.2546 -0.3924  0.5298
  828MPD2    H112181   4.653   3.073  12.512  0.3430 -1.6980  2.0912
  828MPD2    H212182   4.336   2.873  12.704 -0.9033  1.9546  0.8141
  828MPD2    H312183   4.555   2.964  12.706 -1.1354  1.0061  0.0606
  828MPD2     N12184   4.548   3.109  12.284 -0.0560 -0.6555  0.0972
  828MPD2    H512185   4.649   3.119  12.285  0.0277 -1.4401 -0.4345
  828MPD2    N112186   4.189   2.846  12.474 -0.4748 -0.2791  0.2606
  828MPD2    H712187   4.146   2.861  12.383  1.4519  0.6667 -0.5094
  829MPD2     C12188   3.640   3.017  11.837  0.3851  0.3124  0.0993
  829MPD2    C112189   3.555   2.984  11.942 -0.3552  0.6390 -0.0129
  829MPD2    C212190   3.614   2.931  12.057  0.0838 -0.2085  0.1578
  829MPD2    C312191   3.749   2.911  12.072  0.2642  0.0586  0.4812
  829MPD2    C412192   3.838   2.949  11.969 -0.0302  0.2477  0.8696
  829MPD2    C512193   3.779   3.002  11.853 -0.7898 -0.3915 -0.2378
  829MPD2     H12194   3.552   2.903  12.142  0.0376 -0.8730 -0.0939
  829MPD2    H112195   3.946   2.937  11.968 -0.0205  0.2648  2.3485
  829MPD2    H212196   3.612   3.064  11.743 -0.9986 -0.3906  0.1605
  829MPD2    H312197   3.839   3.040  11.771 -1.9351 -0.9786 -1.3624
  829MPD2     N12198   3.807   2.852  12.187 -0.1602 -0.2664  0.7965
  829MPD2    H512199   3.905   2.870  12.209 -0.2638 -0.8464  1.7555
  829MPD2    N112200   3.411   3.012  11.943  0.7554  0.5906  0.4009
  829MPD2    H712201   3.385   3.085  11.877 -2.7439 -1.7741 -0.8692
  830MPD2     C12202   4.639   0.662  15.779 -0.8785 -0.2382 -1.3757
  830MPD2    C112203   4.522   0.719  15.732  0.3844  0.0284 -0.0395
  830MPD2    C212204   4.530   0.818  15.639 -0.1271 -0.1750  0.5745
  830MPD2    C312205   4.651   0.867  15.595 -0.1108 -0.3606 -0.7024
  830MPD2    C412206   0.040   0.814  15.639  0.3127  0.5352 -0.0641
  830MPD2    C512207   0.035   0.716  15.728 -0.1957 -0.4715 -0.1514
  830MPD2     H12208   4.441   0.871  15.605  1.0368  1.6617  0.3908
  830MPD2    H112209   0.137   0.846  15.606 -0.7478  2.3730 -1.4075
  830MPD2    H212210   4.638   0.572  15.839  1.1293 -0.3346 -1.4733
  830MPD2    H312211   0.127   0.671  15.763  2.1671  2.4054 -2.6428
  830MPD2     N12212   4.659   0.972  15.502  0.4176  0.4744  0.3750
  830MPD2    H512213   0.024   1.011  15.479  0.5662 -0.5232 -0.7252
  830MPD2    N112214   4.401   0.674  15.782 -0.0778  0.6450  0.3610
  830MPD2    H712215   4.402   0.618  15.866  2.1713  0.4361  0.1745
  831MPD2     C12216   4.510   2.660  16.707  0.2683  0.0192 -0.8197
  831MPD2    C112217   4.472   2.574  16.607 -0.3276 -0.5287 -0.7910
  831MPD2    C212218   4.357   2.498  16.618 -0.5096 -0.1202  0.6929
  831MPD2    C312219   4.282   2.501  16.734  0.3143 -0.0161  0.1740
  831MPD2    C412220   4.328   2.580  16.838 -0.0037 -0.4589 -0.6015
  831MPD2    C512221   4.441   2.651  16.822  0.1872 -0.0591 -0.7083
  831MPD2     H12222   4.312   2.448  16.532 -0.1106 -0.1283  0.4839
  831MPD2    H112223   4.274   2.606  16.929  1.3983  0.9474 -0.1674
  831MPD2    H212224   4.599   2.722  16.707 -1.1589  2.0737 -0.1006
  831MPD2    H312225   4.469   2.725  16.895 -0.8233 -1.3304  0.9636
  831MPD2     N12226   4.151   2.438  16.745  0.5709 -0.1061 -0.2677
  831MPD2    H512227   4.097   2.456  16.829 -0.3760 -2.2759 -0.4193
  831MPD2    N112228   4.565   2.579  16.499 -0.2197 -0.1345  0.6509
  831MPD2    H712229   4.645   2.638  16.520  0.2212 -0.1834 -0.9439
  832MPD2     C12230   2.532   3.657  17.671  0.4783  0.7334  0.0284
  832MPD2    C112231   2.546   3.776  17.601 -0.2662 -0.6211  0.4130
  832MPD2    C212232   2.453   3.800  17.497  0.0850  0.2381 -0.0179
  832MPD2    C312233   2.341   3.710  17.477  0.0224 -0.2583  0.0066
  832MPD2    C412234   2.338   3.600  17.555  0.0661 -0.0685 -0.0235
  832MPD2    C512235   2.432   3.572  17.652 -0.4924 -0.2468 -0.3668
  832MPD2     H12236   2.464   3.888  17.436 -0.0846  0.3181  0.0655
  832MPD2    H112237   2.256   3.531  17.541  0.6156 -0.5845 -0.6789
  832MPD2    H212238   2.600   3.629   0.043 -1.1759 -0.5334  1.0170
  832MPD2    H312239   2.431   3.478   0.000  1.0320 -0.2023 -0.2617
  832MPD2     N12240   2.231   3.740  17.398 -0.4094  0.3197  0.4601
  832MPD2    H512241   2.156   3.674  17.381  0.4038 -0.4597 -0.0939
  832MPD2    N112242   2.659   3.864  17.632 -0.0165  1.3065  0.6636
  832MPD2    H712243   2.716   3.833   0.003 -1.3015  1.4827  1.6808
  833MPD2     C12244   4.657   0.442  12.675 -0.1728 -0.6620 -0.3397
  833MPD2    C112245   0.015   0.548  12.692 -0.5687  0.3577 -0.4274
  833MPD2    C212246   0.134   0.560  12.622 -0.1391  0.8293 -0.1281
  833MPD2    C312247   0.172   0.469  12.526 -0.2136  0.0514 -0.1015
  833MPD2    C412248   0.089   0.366  12.499  0.2133 -0.0633 -0.2602
  833MPD2    C512249   4.697   0.356  12.573  0.1649 -0.0453 -0.0424
  833MPD2     H12250   0.208   0.639  12.628  1.1330 -0.2398 -1.5668
  833MPD2    H112251   0.108   0.292  12.422  0.7241 -0.5888  0.3655
  833MPD2    H212252   4.560   0.428  12.723  1.0789 -1.9880  1.7962
  833MPD2    H312253   4.633   0.271  12.550 -0.1956  0.2719 -0.2279
  833MPD2     N12254   0.293   0.486  12.462  0.4696  0.4986  0.2818
  833MPD2    H512255   0.356   0.555  12.503  2.9644 -2.0784  0.7449
  833MPD2    N112256   4.690   0.655  12.765  0.4817  0.7018 -0.0110
  833MPD2    H712257   4.595   0.639  12.798  0.8713  1.0807  1.3135
  834MPD2     C12258   0.572   0.621  11.571 -0.1537 -0.2698 -0.4861
  834MPD2    C112259   0.583   0.496  11.616  0.5490 -0.0260 -0.2477
  834MPD2    C212260   0.589   0.475  11.758 -0.1124  0.1393  0.7402
  834MPD2    C312261   0.600   0.586  11.839 -0.3245  0.0410 -0.1859
  834MPD2    C412262   0.596   0.717  11.791 -0.0406  0.7143  0.2875
  834MPD2    C512263   0.572   0.729  11.654 -0.2247  0.2209  0.7956
  834MPD2     H12264   0.612   0.376  11.796  1.4058  1.0732  2.2350
  834MPD2    H112265   0.609   0.805  11.853  0.6033 -0.3154  1.6067
  834MPD2    H212266   0.566   0.640  11.464 -0.5625  1.1208 -0.2279
  834MPD2    H312267   0.564   0.826  11.607  2.9473 -1.1157 -2.4447
  834MPD2     N12268   0.627   0.553  11.972 -0.3123 -0.1039 -0.0010
  834MPD2    H512269   0.609   0.455  11.988  0.0358 -0.1627  0.0339
  834MPD2    N112270   0.577   0.395  11.515 -0.6847  0.3692  0.6619
  834MPD2    H712271   0.577   0.428  11.419 -0.3353  0.8974  0.8363
  835MPD2     C12272   0.770   2.934  11.393 -0.2096  0.2793 -0.1765
  835MPD2    C112273   0.682   3.033  11.423 -0.4291 -0.7671 -1.1373
  835MPD2    C212274   0.669   3.073  11.555 -0.2484 -0.6343 -0.8394
  835MPD2    C312275   0.741   3.014  11.656 -0.4325  0.8455  0.4990
  835MPD2    C412276   0.831   2.908  11.619 -0.4907 -0.1195 -0.8003
  835MPD2    C512277   0.844   2.874  11.485  0.3345 -0.0872  0.4357
  835MPD2     H12278   0.612   3.163  11.575 -1.4516 -1.3274 -1.1867
  835MPD2    H112279   0.886   2.855  11.696  1.3916  0.8654 -1.4582
  835MPD2    H212280   0.776   2.892  11.294 -0.2262 -0.2430  0.0431
  835MPD2    H312281   0.908   2.791  11.458  0.9098  0.8938 -1.1795
  835MPD2     N12282   0.726   3.047  11.795 -0.6780 -0.2558 -0.1093
  835MPD2    H512283   0.779   2.987  11.859 -0.4678 -0.5067 -0.5193
  835MPD2    N112284   0.594   3.089  11.326  0.2323 -0.6024  0.2156
  835MPD2    H712285   0.534   3.167  11.350  0.7016 -0.0516 -0.4137
  836MPD2     C12286   0.130   3.455  11.995  0.0523 -0.0424 -0.6670
  836MPD2    C112287   0.173   3.417  12.120 -0.1042 -0.8432  0.5514
  836MPD2    C212288   0.082   3.412  12.223 -0.0021 -0.5262  0.5013
  836MPD2    C312289   4.677   3.455  12.206 -0.0010 -0.4209 -0.6397
  836MPD2    C412290   4.637   3.493  12.077  0.7157  0.4111  0.1382
  836MPD2    C512291   0.003   3.497  11.980 -0.3994 -0.7110 -0.5107
  836MPD2     H12292   0.114   3.376  12.321 -0.4590 -2.5282 -0.0922
  836MPD2    H112293   4.533   3.518  12.055  0.5914  0.9284  1.3209
  836MPD2    H212294   0.194   3.456  11.908  0.0032 -0.6254 -0.7049
  836MPD2    H312295   4.699   3.527  11.881  1.6719  1.0440 -0.6153
  836MPD2     N12296   4.583   3.448  12.314  0.0559  0.2142  0.8717
  836MPD2    H512297   4.488   3.478  12.298  0.5900  0.8854 -1.0342
  836MPD2    N112298   0.306   3.373  12.119  0.1706  0.7258  0.0758
  836MPD2    H712299   0.345   3.359  12.027 -0.6542  2.8727 -0.5997
  837MPD2     C12300   3.223   2.565  10.317  0.4615 -0.1251 -0.0994
  837MPD2    C112301   3.158   2.550  10.200 -0.5147  0.2853  0.1175
  837MPD2    C212302   3.184   2.633  10.094 -0.0018 -0.3862 -0.5072
  837MPD2    C312303   3.260   2.747  10.113 -0.6283  0.7633 -0.0819
  837MPD2    C412304   3.331   2.760  10.233  0.2310  0.1972  0.1178
  837MPD2    C512305   3.310   2.669  10.331  0.1164  0.0704 -0.3630
  837MPD2     H12306   3.134   2.629   9.998  0.6786 -0.3853 -0.8690
  837MPD2    H112307   3.398   2.845  10.234 -0.7550  0.9954 -0.5387
  837MPD2    H212308   3.203   2.506  10.405  1.5783  3.3144  2.4462
  837MPD2    H312309   3.349   2.688  10.431  0.8206  2.8758 -1.1614
  837MPD2     N12310   3.240   2.850  10.013 -0.2808 -0.1287 -1.1405
  837MPD2    H512311   3.183   2.827   9.933 -2.4090 -2.1827  0.9574
  837MPD2    N112312   3.057   2.453  10.175  0.3580 -0.2504  0.3380
  837MPD2    H712313   3.014   2.456  10.083  1.2789  0.0886 -0.0827
  838MPD2     C12314   2.067   1.615  12.157 -0.1810  0.2060 -0.6793
  838MPD2    C112315   1.994   1.514  12.096  0.7298 -0.3769 -0.3828
  838MPD2    C212316   1.905   1.445  12.176  0.0979  0.1756 -0.1491
  838MPD2    C312317   1.885   1.485  12.312  0.3007  0.0694 -0.3012
  838MPD2    C412318   1.958   1.594  12.371 -0.2840 -0.4805  0.1324
  838MPD2    C512319   2.052   1.653  12.288 -0.3689 -0.2738  0.6944
  838MPD2     H12320   1.844   1.363  12.141  1.3866 -1.1027  0.5760
  838MPD2    H112321   1.954   1.611  12.478 -0.1021 -1.7126  0.3362
  838MPD2    H212322   2.140   1.668  12.095  0.6222  0.1933  0.2582
  838MPD2    H312323   2.121   1.727  12.327 -3.0827  0.3720  4.2112
  838MPD2     N12324   1.785   1.419  12.387  0.5597 -0.5314 -0.0514
  838MPD2    H512325   1.759   1.471  12.470  0.2538 -0.5183 -0.1590
  838MPD2    N112326   2.001   1.469  11.964 -0.8236 -0.1491 -0.3602
  838MPD2    H712327   1.947   1.385  11.947  0.3729 -1.0303  0.1589
  839MPD2     C12328   1.390   1.151  11.428  0.4165 -0.4853 -0.4093
  839MPD2    C112329   1.487   1.053  11.416 -0.3056 -0.0852 -0.0722
  839MPD2    C212330   1.622   1.089  11.455  0.3759 -0.5086  0.1248
  839MPD2    C312331   1.647   1.216  11.509  0.7575  0.2672 -0.8244
  839MPD2    C412332   1.544   1.302  11.537  0.3712 -0.2603 -0.3021
  839MPD2    C512333   1.424   1.273  11.488  0.2190 -0.1046  0.1438
  839MPD2     H12334   1.699   1.013  11.447 -0.4956 -1.3309 -0.5631
  839MPD2    H112335   1.565   1.401  11.575 -1.3255  1.0087 -2.6486
  839MPD2    H212336   1.290   1.141  11.388 -0.4519  0.8438  1.4025
  839MPD2    H312337   1.344   1.347  11.488  0.5710  0.2778 -0.3965
  839MPD2     N12338   1.769   1.254  11.562  0.1322 -0.9975 -0.3279
  839MPD2    H512339   1.767   1.346  11.605 -1.4179 -0.5384 -1.4200
  839MPD2    N112340   1.464   0.920  11.378 -0.5354 -0.9665 -1.0131
  839MPD2    H712341   1.543   0.857  11.390  0.4648  0.6510  0.9023
  840MPD2     C12342   1.898   3.410  10.393 -0.0635  0.2494 -0.5443
  840MPD2    C112343   1.869   3.359  10.514  0.1884 -0.2813  0.1876
  840MPD2    C212344   1.935   3.414  10.626 -0.0843 -1.6840  0.3266
  840MPD2    C312345   2.025   3.518  10.614  0.1443 -0.6147  0.1419
  840MPD2    C412346   2.061   3.560  10.484  0.1166  0.0786 -0.5589
  840MPD2    C512347   2.001   3.505  10.378 -0.2271 -1.3072 -0.6337
  840MPD2     H12348   1.914   3.386  10.728  1.8010 -0.2874  1.1062
  840MPD2    H112349   2.135   3.637  10.470  1.1896 -0.4767  2.0730
  840MPD2    H212350   1.866   3.363  10.301 -1.6462  0.0032  0.1404
  840MPD2    H312351   2.016   3.540  10.277 -2.6068 -1.0482 -0.8998
  840MPD2     N12352   2.101   3.577  10.720 -0.4783 -0.8193  0.4281
  840MPD2    H512353   2.154   3.659  10.694 -1.8387 -0.1362 -0.1633
  840MPD2    N112354   1.783   3.247  10.527  0.0355 -0.2678  0.3070
  840MPD2    H712355   1.733   3.218  10.444  1.3412 -0.5646 -0.3709
  841MPD2     C12356   1.272   3.837  14.770 -0.2683 -0.0265 -0.2584
  841MPD2    C112357   1.269   3.702  14.757  0.4201  0.2238  0.0004
  841MPD2    C212358   1.383   3.644  14.721  0.1424  0.9212  0.5338
  841MPD2    C312359   1.503   3.708  14.703  0.7792 -0.1171 -0.0403
  841MPD2    C412360   1.499   3.843  14.719 -0.7868  1.3191 -0.8517
  841MPD2    C512361   1.383   3.905  14.755  0.0040  0.0870 -0.0664
  841MPD2     H12362   1.393   3.536  14.712 -0.5683  0.8829  0.2235
  841MPD2    H112363   1.590   3.902  14.709 -0.0697  0.5299  1.1028
  841MPD2    H212364   1.178   3.886  14.791 -1.7788 -2.2316 -1.8517
  841MPD2    H312365   1.370   4.013  14.756 -1.1483 -0.0657  1.8327
  841MPD2     N12366   1.621   3.631  14.675  0.1785  0.0247  0.1271
  841MPD2    H512367   1.609   3.530  14.672  2.2575 -0.1697 -1.2238
  841MPD2    N112368   1.159   3.616  14.775  0.0465 -0.1791 -0.3209
  841MPD2    H712369   1.171   3.520  14.746 -2.1494 -1.3704  2.6782
  842MPD2     C12370   1.758   4.102  16.929  0.7898  0.6505 -0.8826
  842MPD2    C112371   1.640   4.021  16.919  0.4177 -0.0804 -0.1363
  842MPD2    C212372   1.585   3.969  17.038 -0.1931 -0.0054 -0.0657
  842MPD2    C312373   1.641   4.006  17.159  0.0737 -0.5976 -0.6191
  842MPD2    C412374   1.762   4.074  17.164 -0.2758 -0.7776 -0.6764
  842MPD2    C512375   1.819   4.121  17.051  0.3563 -0.6109 -0.0969
  842MPD2     H12376   1.492   3.914  17.037  1.0573 -1.9928 -3.9400
  842MPD2    H112377   1.823   4.083  17.253 -0.2211  1.9557 -0.9776
  842MPD2    H212378   1.803   4.130  16.834  2.0288 -0.2290 -0.5404
  842MPD2    H312379   1.915   4.171  17.055  0.0012  0.1844 -1.3616
  842MPD2     N12380   1.587   3.951  17.278 -0.2130  0.4406 -0.4727
  842MPD2    H512381   1.645   3.968  17.359  0.0468 -1.3052 -0.2959
  842MPD2    N112382   1.585   4.004  16.790  0.4992 -0.3346 -0.5699
  842MPD2    H712383   1.620   4.065  16.716  0.6079 -1.2431 -1.2661
  843MPD2     C12384   4.026   4.398   0.565 -0.1565 -0.6591 -0.3248
  843MPD2    C112385   4.141   4.345   0.503  0.1221  0.1603 -0.0965
  843MPD2    C212386   4.222   4.429   0.437 -0.6188  0.1486 -0.2447
  843MPD2    C312387   4.195   4.561   0.430  0.4447 -0.1244 -0.0634
  843MPD2    C412388   4.081   4.613   0.484 -0.4214 -0.8629  0.3584
  843MPD2    C512389   4.000   4.533   0.560  0.0053  0.3743 -0.9921
  843MPD2     H12390   4.315   4.397   0.391 -1.2041 -1.2293 -0.4925
  843MPD2    H112391   4.073   4.721   0.483 -2.6533 -1.0477 -0.0021
  843MPD2    H212392   3.957   4.330   0.613 -0.0618 -0.7219 -0.2782
  843MPD2    H312393   3.913   4.576   0.607  0.2571  1.5074 -1.5573
  843MPD2     N12394   4.271   4.657   0.355  0.1147 -0.4732  0.3877
  843MPD2    H512395   4.250   0.029   0.369  3.4303  0.4338 -0.9693
  843MPD2    N112396   4.156   4.205   0.520 -0.0299 -0.2835 -0.0450
  843MPD2    H712397   4.089   4.148   0.571 -0.9635  1.5541  0.7648
  844MPD2     C12398   2.278   3.346  17.083 -0.1996  0.3013  0.4782
  844MPD2    C112399   2.347   3.412  16.981  0.1677  0.3114 -0.5669
  844MPD2    C212400   2.431   3.518  17.010  0.3955 -0.5678 -0.8798
  844MPD2    C312401   2.446   3.552  17.139  0.3728 -0.0501 -0.1031
  844MPD2    C412402   2.375   3.489  17.240  0.3561 -0.2140 -0.0430
  844MPD2    C512403   2.282   3.390  17.211 -0.3617  0.4305  1.0418
  844MPD2     H12404   2.486   3.569  16.931 -0.1373 -1.9946 -2.1751
  844MPD2    H112405   2.408   3.506  17.342 -0.4970 -1.4092  0.4253
  844MPD2    H212406   2.218   3.256  17.067 -0.7540  0.3676  2.1920
  844MPD2    H312407   2.230   3.342  17.293 -0.3609  2.6067  2.3206
  844MPD2     N12408   2.544   3.649  17.174  0.0178  0.0908 -0.2453
  844MPD2    H512409   2.552   3.668  17.274 -0.9145  0.2126 -0.1938
  844MPD2    N112410   2.331   3.364  16.846  0.5076  0.2090  0.5267
  844MPD2    H712411   2.389   3.415  16.779 -0.6823  1.0069  0.1020
  845MPD2     C12412   2.658   4.591  17.037  0.0814  0.6400 -0.3256
  845MPD2    C112413   2.693   4.542  17.165  0.4201  0.1409 -0.5118
  845MPD2    C212414   2.732   4.409  17.174 -0.5737 -0.1987 -0.0850
  845MPD2    C312415   2.763   4.330  17.061  0.6404  0.6686  0.8212
  845MPD2    C412416   2.727   4.383  16.935 -0.4380 -0.1192  0.4452
  845MPD2    C512417   2.683   4.514  16.922  0.1374  0.1118  0.1812
  845MPD2     H12418   2.754   4.369  17.273  1.4754 -0.7961 -0.7826
  845MPD2    H112419   2.733   4.332  16.840 -0.6328  2.9025 -1.1889
  845MPD2    H212420   2.631   4.696  17.036 -0.2600  0.5590  0.8255
  845MPD2    H312421   2.662   4.564  16.829 -0.9741 -0.5893  0.0518
  845MPD2     N12422   2.801   4.192  17.068  0.8657 -0.3218 -0.2208
  845MPD2    H512423   2.797   4.137  16.983  0.1867 -0.6864  0.0507
  845MPD2    N112424   2.678   4.632  17.274 -0.1677 -0.4439  0.8044
  845MPD2    H712425   2.653   0.002  17.255 -3.5351 -1.8049 -1.8210
  846MPD2     C12426   3.858   0.206  13.687  0.6058 -1.0595  0.3479
  846MPD2    C112427   3.814   0.333  13.697  0.3410  0.1579 -0.0521
  846MPD2    C212428   3.746   0.376  13.812  0.4725 -0.1359  0.1128
  846MPD2    C312429   3.719   0.278  13.915  0.4088  0.4536  0.0442
  846MPD2    C412430   3.756   0.143  13.895  0.1031 -0.4444 -0.2342
  846MPD2    C512431   3.831   0.113  13.782  0.0953  0.5716  0.4602
  846MPD2     H12432   3.717   0.479  13.834 -2.5717 -0.7258 -1.2708
  846MPD2    H112433   3.743   0.071  13.975 -1.7054  0.3654  0.2195
  846MPD2    H212434   3.922   0.178  13.605 -2.2802  2.7383 -3.1730
  846MPD2    H312435   3.871   0.013  13.777 -1.3535 -0.0740  1.5793
  846MPD2     N12436   3.653   0.321  14.025  0.8936  0.7397 -0.3016
  846MPD2    H512437   3.581   0.392  14.020 -0.3846 -0.3999  2.0282
  846MPD2    N112438   3.839   0.429  13.601 -0.9618 -0.3856 -0.7844
  846MPD2    H712439   3.822   0.524  13.633  0.5604 -0.1504 -0.6863
  847MPD2     C12440   4.323   0.769  14.051 -0.2314  0.5746  0.3412
  847MPD2    C112441   4.361   0.884  14.111  0.8383 -0.1076 -0.2061
  847MPD2    C212442   4.435   0.877  14.223  0.7951  0.2589  0.2079
  847MPD2    C312443   4.452   0.756  14.291 -0.1161  0.3030 -0.0919
  847MPD2    C412444   4.411   0.641  14.231 -0.6468 -0.0679 -0.1067
  847MPD2    C512445   4.340   0.650  14.117 -0.2045 -0.3193 -0.2096
  847MPD2     H12446   4.461   0.965  14.280 -0.0893  0.7418 -0.1263
  847MPD2    H112447   4.426   0.545  14.278 -0.0094  0.8568  1.5852
  847MPD2    H212448   4.273   0.764  13.955 -1.0068  1.7160  0.6959
  847MPD2    H312449   4.296   0.562  14.071 -0.2771 -0.4091  0.0298
  847MPD2     N12450   4.522   0.767  14.411  0.2969 -0.1327  0.3964
  847MPD2    H512451   4.565   0.856  14.434  1.5938 -0.7054  0.1706
  847MPD2    N112452   4.336   0.999  14.041  0.2985  0.4758  0.0138
  847MPD2    H712453   4.271   0.997  13.963  0.6313 -3.5021 -0.1515
  848MPD2     C12454   2.197   4.047  16.652  0.2598 -0.1380  0.2612
  848MPD2    C112455   2.136   4.101  16.765 -0.1867  0.2182 -0.1828
  848MPD2    C212456   2.125   4.237  16.778 -0.1769  0.2338  0.7059
  848MPD2    C312457   2.180   4.321  16.684 -0.0412 -0.2697  0.5882
  848MPD2    C412458   2.233   4.275  16.573 -0.1593  0.2614 -0.4656
  848MPD2    C512459   2.241   4.140  16.556 -0.6916  0.0046 -0.2357
  848MPD2     H12460   2.074   4.275  16.866 -0.0720 -0.3246  1.0051
  848MPD2    H112461   2.266   4.348  16.500 -3.0372  2.2521  0.2447
  848MPD2    H212462   2.213   3.940  16.639  0.5924 -0.0149 -0.3705
  848MPD2    H312463   2.286   4.104  16.464  0.7975 -2.3048  1.4083
  848MPD2     N12464   2.177   4.463  16.698 -0.7007 -0.2419 -0.2404
  848MPD2    H512465   2.212   4.522  16.623 -1.1938 -0.2061 -0.4425
  848MPD2    N112466   2.101   4.022  16.873 -0.1085  0.1716 -0.1429
  848MPD2    H712467   2.100   4.076  16.959 -1.5683 -1.4660  0.8642
  849MPD2     C12468   1.396   4.146  13.760  0.0770  0.2562 -0.3620
  849MPD2    C112469   1.527   4.132  13.795 -0.0277 -0.2741 -1.1938
  849MPD2    C212470   1.558   4.119  13.926  0.6453  0.5692  0.1434
  849MPD2    C312471   1.460   4.098  14.017  0.2748 -0.0973 -0.1011
  849MPD2    C412472   1.326   4.102  13.983  0.2279 -0.0711 -0.0635
  849MPD2    C512473   1.300   4.140  13.855 -0.0398  0.1187 -0.3241
  849MPD2     H12474   1.665   4.124  13.946  0.8005 -2.7609  0.2497
  849MPD2    H112475   1.247   4.083  14.055  0.7578  0.8971  0.7837
  849MPD2    H212476   1.369   4.166  13.657  1.0241  0.6295 -0.5334
  849MPD2    H312477   1.197   4.165  13.834 -0.3021 -0.5209  0.1576
  849MPD2     N12478   1.508   4.080  14.154  0.3111 -0.0069  0.4388
  849MPD2    H512479   1.609   4.078  14.156  0.3124 -0.9611 -0.4127
  849MPD2    N112480   1.632   4.140  13.702  0.2331 -0.6846 -0.5666
  849MPD2    H712481   1.721   4.111  13.743  1.6367  2.0806 -1.6692
  850MPD2     C12482   4.232   1.970  14.650 -0.2721 -0.4582 -0.3085
  850MPD2    C112483   4.217   2.053  14.756  0.2002 -0.2674 -0.1877
  850MPD2    C212484   4.322   2.064  14.842  0.1824 -0.5191 -0.2357
  850MPD2    C312485   4.437   1.994  14.827 -0.0448 -0.1597 -0.1836
  850MPD2    C412486   4.448   1.908  14.717 -0.2639 -0.4165  0.0074
  850MPD2    C512487   4.349   1.897  14.632  0.0024 -0.4512 -0.0524
  850MPD2     H12488   4.313   2.136  14.922 -0.7008  0.3086 -1.0819
  850MPD2    H112489   4.538   1.850  14.704 -0.4436  0.0337 -3.1814
  850MPD2    H212490   4.146   1.950  14.587  1.7496 -0.9153 -2.9287
  850MPD2    H312491   4.344   1.827  14.550  0.7466 -1.5482  0.8398
  850MPD2     N12492   4.545   2.000  14.922 -0.1177 -0.2104 -0.1522
  850MPD2    H512493   4.622   1.936  14.902  0.4550  1.1042 -2.1642
  850MPD2    N112494   4.080   2.099  14.779  0.3598 -0.0151  0.6428
  850MPD2    H712495   4.025   2.089  14.695  1.2602 -0.7545  0.1425
  851MPD2     C12496   4.353   1.824  15.570 -0.1242 -0.1962 -0.8603
  851MPD2    C112497   4.344   1.822  15.428 -0.0584 -0.1346 -0.0306
  851MPD2    C212498   4.411   1.726  15.366 -1.1303 -0.4400 -0.5270
  851MPD2    C312499   4.482   1.636  15.438 -0.0092  0.6771  0.3217
  851MPD2    C412500   4.493   1.641  15.575  0.9227  0.7931  0.4126
  851MPD2    C512501   4.434   1.738  15.639 -0.8862 -0.0831  0.4782
  851MPD2     H12502   4.424   1.718  15.259  1.6856  0.9540 -0.2734
  851MPD2    H112503   4.537   1.566  15.640  0.0796 -0.0403  0.0063
  851MPD2    H212504   4.299   1.900  15.626  0.6466 -0.7565  0.6580
  851MPD2    H312505   4.446   1.731  15.746  1.6949 -2.4247  0.0179
  851MPD2     N12506   4.553   1.537  15.367 -0.8510  0.9818 -0.3197
  851MPD2    H512507   4.533   1.528  15.268 -3.0856  0.8570  0.1432
  851MPD2    N112508   4.272   1.919  15.358  0.1073 -0.2522 -0.4549
  851MPD2    H712509   4.238   2.003  15.404 -1.1659  0.7689 -3.2156
  852MPD2     C12510   4.266   4.655  10.496  0.2117 -0.1946 -0.7550
  852MPD2    C112511   4.340   4.626  10.609 -0.8523 -0.7470  0.6792
  852MPD2    C212512   4.422   0.003  10.665 -0.2094  0.7538  0.6317
  852MPD2    C312513   4.428   0.126  10.611  0.1596 -0.3438 -0.1807
  852MPD2    C412514   4.366   0.144  10.492 -0.5679 -0.8006 -1.1542
  852MPD2    C512515   4.278   0.049  10.442 -1.2523 -0.8079  0.8178
  852MPD2     H12516   4.479   4.708  10.755 -1.2262 -1.3101  0.7938
  852MPD2    H112517   4.374   0.235  10.433 -1.3613  0.1810  0.2413
  852MPD2    H212518   4.198   4.582  10.453 -0.5885 -0.6836  1.3102
  852MPD2    H312519   4.237   0.074  10.345  0.0709  0.9649  0.7100
  852MPD2     N12520   4.519   0.220  10.668  0.2516 -0.8430  0.4752
  852MPD2    H512521   4.557   0.193  10.759 -0.3134  2.0160  1.5568
  852MPD2    N112522   4.338   4.498  10.671 -0.6925 -0.4803 -0.2671
  852MPD2    H712523   4.388   4.493  10.760  0.4229 -1.9983 -0.9810
  853MPD2     C12524   0.914   3.896  12.370  0.2419 -0.2424  0.6441
  853MPD2    C112525   0.926   4.029  12.350  0.2234  0.4733  0.4896
  853MPD2    C212526   0.937   4.072  12.210  0.1047 -0.4206  0.0274
  853MPD2    C312527   0.929   3.987  12.110 -0.0371 -0.6973 -0.1051
  853MPD2    C412528   0.912   3.851  12.133  0.9148  0.3326 -0.4552
  853MPD2    C512529   0.906   3.814  12.263 -0.1097  0.4747  1.0138
  853MPD2     H12530   0.946   4.178  12.190  0.3954 -0.4234  0.1379
  853MPD2    H112531   0.905   3.777  12.054  1.8071 -0.9602  0.6935
  853MPD2    H212532   0.889   3.865  12.471 -0.5279 -0.0352  0.5150
  853MPD2    H312533   0.880   3.711  12.286 -4.0639  1.5124  1.3015
  853MPD2     N12534   0.933   4.022  11.970 -0.3495 -0.2538 -0.0717
  853MPD2    H512535   0.917   3.949  11.901 -1.4195 -0.1899  0.1019
  853MPD2    N112536   0.920   4.127  12.461  0.8818  0.1105  0.5476
  853MPD2    H712537   0.879   4.095  12.548  1.4578  0.1965  0.8447
  854MPD2     C12538   2.315   0.192  13.233 -0.2023  0.0653  0.0445
  854MPD2    C112539   2.412   0.149  13.145  0.4805  0.1082 -0.6502
  854MPD2    C212540   2.468   0.027  13.165  0.0671  0.0574  0.3457
  854MPD2    C312541   2.423   4.671  13.266  0.0450  0.2246  0.1322
  854MPD2    C412542   2.328   4.713  13.352  0.2011  0.3963  0.5789
  854MPD2    C512543   2.275   0.112  13.332  1.0060  0.4444 -0.2412
  854MPD2     H12544   2.546   4.715  13.100  0.2577 -0.8186  1.0958
  854MPD2    H112545   2.290   4.649  13.430  0.3718 -1.7395 -1.1034
  854MPD2    H212546   2.262   0.285  13.215 -0.2754  0.1136  0.5199
  854MPD2    H312547   2.195   0.138  13.400 -0.6481  0.8889 -2.3658
  854MPD2     N12548   2.469   4.544  13.289  0.9230  0.5614 -0.4815
  854MPD2    H512549   2.436   4.500  13.374  2.3810  1.8978  0.8021
  854MPD2    N112550   2.445   0.234  13.030 -0.4909  0.1496 -0.5599
  854MPD2    H712551   2.385   0.315  13.019 -1.8298 -0.9510 -1.4690
  855MPD2     C12552   2.925   4.342  13.967  0.1344 -0.5848  0.1635
  855MPD2    C112553   2.882   4.218  13.936  0.1746 -0.8378  0.3818
  855MPD2    C212554   2.803   4.198  13.824 -0.5332  0.5384 -0.6908
  855MPD2    C312555   2.784   4.300  13.737  0.1795 -0.3578  0.8235
  855MPD2    C412556   2.844   4.425  13.765 -0.2139  0.0220 -0.8616
  855MPD2    C512557   2.906   4.441  13.882  0.1753  0.0472  0.1989
  855MPD2     H12558   2.764   4.103  13.789  0.1811  0.4878 -1.3496
  855MPD2    H112559   2.828   4.498  13.687 -0.0996  0.6010 -0.3428
  855MPD2    H212560   2.969   4.353  14.066 -0.2639 -0.2657  0.3080
  855MPD2    H312561   2.933   4.541  13.917 -1.4792  0.3347  0.6588
  855MPD2     N12562   2.707   4.282  13.619 -0.1024 -0.2390 -0.0411
  855MPD2    H512563   2.699   4.366  13.562 -0.7634 -0.8799 -0.8965
  855MPD2    N112564   2.919   4.109  14.019  0.1917 -0.0982 -0.4953
  855MPD2    H712565   2.985   4.135  14.092 -1.1063  1.3912  0.1496
  856MPD2     C12566   0.028   0.284  14.093 -0.5550 -0.1331 -0.6775
  856MPD2    C112567   0.137   0.368  14.135 -0.2038 -0.4412  0.5937
  856MPD2    C212568   0.126   0.506  14.111  0.1862  0.2292 -1.0132
  856MPD2    C312569   0.009   0.563  14.063 -0.1138  1.0540 -0.3195
  856MPD2    C412570   4.632   0.481  14.025 -0.1026  0.5265 -0.4384
  856MPD2    C512571   4.639   0.344  14.038  0.3964 -1.2750  0.0209
  856MPD2     H12572   0.212   0.563  14.145 -0.0718  0.5750 -0.9381
  856MPD2    H112573   4.545   0.520  13.974 -2.1350  1.8785  4.0652
  856MPD2    H212574   0.023   0.177  14.103  1.5806 -0.2815 -1.3261
  856MPD2    H312575   4.566   0.277  13.995 -1.0284  0.4174 -0.2196
  856MPD2     N12576   4.723   0.703  14.049  0.3353 -0.4228  0.1141
  856MPD2    H512577   4.652   0.736  13.984  1.1861 -0.2784 -0.7442
  856MPD2    N112578   0.251   0.316  14.198  0.3296 -0.1562  0.3976
  856MPD2    H712579   0.328   0.382  14.198 -0.0490  0.2838 -0.0180
  857MPD2     C12580   1.740   2.693  13.013  0.0096 -0.3797  0.3698
  857MPD2    C112581   1.858   2.699  12.941  0.2911  0.4499  0.5043
  857MPD2    C212582   1.933   2.816  12.939  0.4732  0.4779  0.2031
  857MPD2    C312583   1.899   2.923  13.009  0.0713 -0.0449  0.2970
  857MPD2    C412584   1.776   2.919  13.066  0.0086 -0.0479 -0.0284
  857MPD2    C512585   1.697   2.809  13.072 -0.4790 -0.0527 -0.8386
  857MPD2     H12586   2.022   2.828  12.878  0.5930  1.4474  0.5653
  857MPD2    H112587   1.737   3.007  13.117 -1.4595 -0.0518 -1.1409
  857MPD2    H212588   1.675   2.606  13.013 -1.2999  0.6123 -0.9989
  857MPD2    H312589   1.598   2.804  13.116  0.4193 -0.5586  1.0935
  857MPD2     N12590   1.985   3.038  12.997  0.2267 -0.2217 -0.1884
  857MPD2    H512591   2.064   3.034  12.933 -0.2245 -0.7786 -0.7232
  857MPD2    N112592   1.894   2.577  12.878  0.1617 -0.2163  0.2161
  857MPD2    H712593   1.854   2.489  12.909 -2.5175 -0.8266 -4.8502
  858MPD2     C12594   2.522   1.741  16.923  0.0730  0.1573 -0.2286
  858MPD2    C112595   2.653   1.722  16.974  0.0500  0.2829  0.1308
  858MPD2    C212596   2.691   1.767  17.107  0.5491  0.0541  0.6524
  858MPD2    C312597   2.599   1.846  17.180 -0.1436 -0.5421 -0.3461
  858MPD2    C412598   2.478   1.878  17.114  0.2388  0.6214 -0.0040
  858MPD2    C512599   2.440   1.820  16.998  0.4880 -0.0921  0.0796
  858MPD2     H12600   2.787   1.742  17.149  0.5872 -0.3126  0.3423
  858MPD2    H112601   2.410   1.946  17.164 -1.3071 -0.3119 -0.8228
  858MPD2    H212602   2.487   1.696  16.831 -0.2932  1.4768 -0.7296
  858MPD2    H312603   2.333   1.823  16.980  0.1368  0.3093  2.2541
  858MPD2     N12604   2.627   1.907  17.310 -0.3351  0.2494  0.3511
  858MPD2    H512605   2.554   1.966  17.349 -0.7242  1.0293 -1.5806
  858MPD2    N112606   2.731   1.632  16.900  0.0891 -0.8543 -0.1654
  858MPD2    H712607   2.699   1.608  16.807 -0.0077 -1.4113  0.0103
  859MPD2     C12608   0.877   3.688  15.170  0.3306 -0.2162  0.4246
  859MPD2    C112609   1.007   3.656  15.171  0.2233 -0.3639 -0.0564
  859MPD2    C212610   1.040   3.524  15.170 -0.1363  1.1228  0.3998
  859MPD2    C312611   0.943   3.423  15.179  0.1851 -0.4473  0.1624
  859MPD2    C412612   0.811   3.457  15.182 -0.4000 -0.8938 -0.4245
  859MPD2    C512613   0.785   3.585  15.169  0.2477 -0.3024 -0.2240
  859MPD2     H12614   1.142   3.489  15.154 -0.1419  1.4922 -0.4591
  859MPD2    H112615   0.734   3.383  15.200 -1.7322  0.4904 -0.4313
  859MPD2    H212616   0.835   3.787  15.180 -0.7761 -1.0689  4.0516
  859MPD2    H312617   0.680   3.608  15.179  0.9777  0.9485  4.8450
  859MPD2     N12618   0.978   3.283  15.191 -0.0309  0.3653 -0.1940
  859MPD2    H512619   0.904   3.214  15.200 -0.4079  0.7012 -0.7718
  859MPD2    N112620   1.099   3.768  15.181  0.3994  0.1435 -0.1816
  859MPD2    H712621   1.055   3.859  15.190 -0.3193 -0.1529 -0.5882
  860MPD2     C12622   3.492   4.376  11.763 -0.0378  0.2806  0.1446
  860MPD2    C112623   3.516   4.307  11.877  0.1459  0.4526  0.4822
  860MPD2    C212624   3.438   4.322  11.984 -0.4813  0.2133 -0.5188
  860MPD2    C312625   3.334   4.410  11.984  0.8408  0.1499  0.4353
  860MPD2    C412626   3.312   4.485  11.874  0.8540 -0.0696  0.1458
  860MPD2    C512627   3.392   4.467  11.764 -0.6206  0.3820  0.5651
  860MPD2     H12628   3.450   4.252  12.066  3.0009 -1.0206 -2.0837
  860MPD2    H112629   3.258   4.579  11.878 -3.0653 -2.2158 -1.9729
  860MPD2    H212630   3.538   4.352  11.668 -1.7768 -0.7794 -0.4271
  860MPD2    H312631   3.385   4.516  11.668  0.3620  1.5429  1.0881
  860MPD2     N12632   3.266   4.438  12.103  0.2643  0.2515  0.4670
  860MPD2    H512633   3.315   4.400  12.183  0.5888  1.2495  0.7448
  860MPD2    N112634   3.612   4.204  11.884  0.7321  0.4163 -0.0774
  860MPD2    H712635   3.623   4.147  11.967  0.2263 -0.6921 -0.7816
  861MPD2     C12636   2.967   2.724  11.179  0.6799  0.3551  0.1291
  861MPD2    C112637   2.876   2.791  11.254  0.0093  0.0673 -0.3003
  861MPD2    C212638   2.798   2.883  11.191  0.1730  0.0463 -0.3171
  861MPD2    C312639   2.810   2.906  11.053 -0.6994 -0.1497 -0.6190
  861MPD2    C412640   2.895   2.822  10.979  0.5988 -0.5347 -0.9429
  861MPD2    C512641   2.979   2.746  11.046 -0.1869  0.7272  0.1285
  861MPD2     H12642   2.728   2.942  11.249 -0.6020  1.3848 -2.6264
  861MPD2    H112643   2.913   2.828  10.872 -1.2143 -2.1478 -1.3558
  861MPD2    H212644   3.037   2.650  11.217  0.0166  0.4764  1.5935
  861MPD2    H312645   3.042   2.678  10.989 -0.8544 -2.3345  2.9919
  861MPD2     N12646   2.724   2.995  10.980 -0.1049  0.4395 -0.2940
  861MPD2    H512647   2.743   3.009  10.881  1.1130  0.4617 -0.0617
  861MPD2    N112648   2.863   2.747  11.389 -0.0789  0.2209  0.6789
  861MPD2    H712649   2.927   2.673  11.415 -0.6853 -0.8338 -0.8214
  862MPD2     C12650   2.151   2.829  10.629  0.1811 -0.6939  0.4426
  862MPD2    C112651   2.234   2.812  10.741  0.2111  0.2477  0.1157
  862MPD2    C212652   2.262   2.680  10.783 -0.5436  0.2629  0.0114
  862MPD2    C312653   2.205   2.568  10.719 -0.6044 -0.4273 -0.5734
  862MPD2    C412654   2.110   2.592  10.619 -0.6843  0.2799  0.1620
  862MPD2    C512655   2.094   2.717  10.567  0.6038 -0.4526  0.2755
  862MPD2     H12656   2.332   2.666  10.864  0.3896 -1.5983 -1.1366
  862MPD2    H112657   2.048   2.518  10.570 -3.6710  1.3124  2.4085
  862MPD2    H212658   2.114   2.925  10.593 -0.1434 -0.9488  0.0910
  862MPD2    H312659   2.021   2.736  10.489 -1.4369 -1.9574  1.8204
  862MPD2     N12660   2.227   2.433  10.762 -0.2524 -0.8270 -0.2317
  862MPD2    H512661   2.200   2.357  10.700  1.6901 -2.2287  0.6154
  862MPD2    N112662   2.296   2.915  10.814  0.0444 -0.4969  0.6241
  862MPD2    H712663   2.367   2.887  10.880  1.9429 -0.4192 -1.3936
  863MPD2     C12664   1.254   0.034  17.362  0.0129 -0.2585 -0.2068
  863MPD2    C112665   1.246   0.163  17.418  0.1072  0.0623  0.0068
  863MPD2    C212666   1.351   0.218  17.489 -0.0404  0.3246 -0.3152
  863MPD2    C312667   1.469   0.150  17.502 -0.1910 -0.0163  0.2910
  863MPD2    C412668   1.472   0.017  17.456  0.1347  0.3776 -0.4991
  863MPD2    C512669   1.369   4.688  17.386 -0.0351  0.5081 -0.5209
  863MPD2     H12670   1.343   0.313  17.539  1.1839 -0.4791  1.3947
  863MPD2    H112671   1.564   4.687  17.457 -1.0319 -1.4965  1.3825
  863MPD2    H212672   1.178   4.714  17.300  0.1510 -1.5819  0.6123
  863MPD2    H312673   1.384   4.586  17.351 -0.3462  0.2003  0.2486
  863MPD2     N12674   1.580   0.200  17.586  0.6461  0.3823 -0.2637
  863MPD2    H512675   1.653   0.132  17.610  0.0025 -0.7492 -1.5144
  863MPD2    N112676   1.118   0.226  17.402 -0.7211  0.1929  0.2909
  863MPD2    H712677   1.046   0.168  17.361 -0.2104  0.1235 -0.5204
  864MPD2     C12678   1.420   1.891  17.442  0.4072 -0.2892 -0.6474
  864MPD2    C112679   1.527   1.821  17.384 -0.1381  0.1725 -0.2966
  864MPD2    C212680   1.633   1.881  17.324  0.4595  0.8174  0.2202
  864MPD2    C312681   1.625   2.021  17.304  0.2624 -0.0322 -0.7106
  864MPD2    C412682   1.518   2.087  17.354 -0.3188  0.4259 -0.0087
  864MPD2    C512683   1.420   2.023  17.425 -0.4839  0.5551 -0.5389
  864MPD2     H12684   1.718   1.825  17.289 -1.4335 -0.8397 -1.7300
  864MPD2    H112685   1.501   2.194  17.354  0.7738  0.5707 -4.1462
  864MPD2    H212686   1.345   1.832  17.492 -0.7870  0.0738 -2.0025
  864MPD2    H312687   1.341   2.080  17.473 -0.0607 -0.0002  0.8233
  864MPD2     N12688   1.718   2.103  17.238 -0.4669 -0.3520 -0.1066
  864MPD2    H512689   1.691   2.198  17.215  1.2364  0.3548  0.8043
  864MPD2    N112690   1.514   1.678  17.381  0.0572 -0.0489  0.4256
  864MPD2    H712691   1.429   1.643  17.424 -0.6449  3.5378  2.0280
  865MPD2     C12692   2.005   2.190  16.337 -0.2337  0.9453 -0.0198
  865MPD2    C112693   1.980   2.098  16.438  0.1501  0.8006 -0.1263
  865MPD2    C212694   1.941   2.156  16.560 -0.3361  0.5992  0.2523
  865MPD2    C312695   1.957   2.289  16.588  0.0090  0.1659 -0.0328
  865MPD2    C412696   2.002   2.377  16.488 -0.5982 -0.3752 -0.0315
  865MPD2    C512697   2.024   2.324  16.366 -0.9079  0.3811  0.4721
  865MPD2     H12698   1.923   2.087  16.641  1.4364 -1.0246 -0.7425
  865MPD2    H112699   2.018   2.483  16.506 -4.9818 -0.0506  1.9270
  865MPD2    H212700   2.021   2.158  16.235 -0.3148  2.7396 -0.5955
  865MPD2    H312701   2.046   2.390  16.283 -1.1034 -2.2546 -1.6502
  865MPD2     N12702   1.925   2.346  16.717 -0.1758  0.3648 -0.2158
  865MPD2    H512703   1.953   2.441  16.739 -0.8047 -0.0719  2.4841
  865MPD2    N112704   1.989   1.959  16.409  0.3799 -0.3040 -0.4988
  865MPD2    H712705   2.019   1.936  16.315  1.8223 -0.5247  0.0168
  866MPD2     C12706   3.211   2.752  11.761 -0.1932  0.4568 -0.3944
  866MPD2    C112707   3.268   2.813  11.656  0.2198 -0.1175  0.3557
  866MPD2    C212708   3.192   2.907  11.592  0.5591  0.6370  0.1134
  866MPD2    C312709   3.064   2.946  11.634  0.0674 -0.2784 -0.1444
  866MPD2    C412710   3.014   2.884  11.745  0.4401  0.6485  0.4577
  866MPD2    C512711   3.088   2.787  11.809  0.4551  0.6883  0.2518
  866MPD2     H12712   3.240   2.953  11.506 -0.0831 -1.0753 -1.1636
  866MPD2    H112713   2.919   2.903  11.793 -0.2249 -1.1479 -0.1533
  866MPD2    H212714   3.257   2.659  11.795 -1.2984 -0.7904 -2.2973
  866MPD2    H312715   3.038   2.734  11.889  0.6874 -0.3823 -0.3148
  866MPD2     N12716   2.986   3.044  11.569 -0.4226 -0.2966 -0.1410
  866MPD2    H512717   2.893   3.054  11.608 -0.8375 -0.6320 -1.0416
  866MPD2    N112718   3.395   2.772  11.609 -0.5648 -0.2664  1.0544
  866MPD2    H712719   3.438   2.696  11.661  1.0032 -0.3217 -0.3341
  867MPD2     C12720   1.110   1.618  16.715 -0.3184 -0.2188 -0.1358
  867MPD2    C112721   1.060   1.636  16.838 -0.3499 -0.0456  0.4353
  867MPD2    C212722   1.072   1.758  16.890 -0.2527 -0.5003 -0.3086
  867MPD2    C312723   1.147   1.861  16.839 -0.0452  0.1381 -0.6235
  867MPD2    C412724   1.208   1.843  16.720  0.1948 -0.1120  0.5869
  867MPD2    C512725   1.185   1.720  16.660  0.1495  0.5694  0.2330
  867MPD2     H12726   1.012   1.787  16.975  0.9492  1.1397 -0.0353
  867MPD2    H112727   1.273   1.913  16.669  1.1953 -0.1601  1.7962
  867MPD2    H212728   1.096   1.523  16.665 -0.7407  0.1423 -0.7110
  867MPD2    H312729   1.226   1.696  16.563  0.9699 -0.5737  0.8628
  867MPD2     N12730   1.167   1.986  16.901 -0.9506  0.2289  0.7724
  867MPD2    H512731   1.220   2.056  16.849 -1.8357  0.4719  0.2002
  867MPD2    N112732   0.993   1.525  16.907 -0.3195  0.1823  0.8325
  867MPD2    H712733   0.989   1.434  16.861 -2.2175  0.3666  0.6358
  868MPD2     C12734   1.960   1.029  13.120  0.5737 -0.5342 -0.0622
  868MPD2    C112735   2.007   1.084  13.236  0.1052 -0.3950 -0.8767
  868MPD2    C212736   1.924   1.137  13.334 -0.5166 -0.6033  0.2660
  868MPD2    C312737   1.788   1.151  13.304  0.5110  0.5549  0.2824
  868MPD2    C412738   1.743   1.112  13.181 -0.4260 -0.1150  0.2605
  868MPD2    C512739   1.828   1.049  13.086  0.4769 -0.3671 -0.3834
  868MPD2     H12740   1.963   1.176  13.427 -2.1945 -0.9522  1.1242
  868MPD2    H112741   1.642   1.118  13.143 -0.1949 -2.7157 -0.7937
  868MPD2    H212742   2.030   0.994  13.046  0.3532 -0.7054 -0.1883
  868MPD2    H312743   1.781   1.023  12.992  0.4239 -1.6683  0.0127
  868MPD2     N12744   1.704   1.198  13.405 -0.0617  0.5586 -0.2644
  868MPD2    H512745   1.743   1.230  13.493  1.2044 -0.7960 -0.3312
  868MPD2    N112746   2.143   1.081  13.258 -0.4009 -0.5486 -0.0096
  868MPD2    H712747   2.208   1.079  13.180  0.5717 -1.1703  0.8216
  869MPD2     C12748   3.713   3.474   1.950 -0.4749 -0.1364  0.8512
  869MPD2    C112749   3.577   3.516   1.950  0.4818 -0.2283  0.1183
  869MPD2    C212750   3.534   3.585   1.837  0.8974  0.4558  0.0233
  869MPD2    C312751   3.631   3.633   1.749 -0.4100 -0.2158  0.7329
  869MPD2    C412752   3.763   3.597   1.758  0.0890 -0.9097 -0.3046
  869MPD2    C512753   3.803   3.515   1.859  0.4774  0.3138 -0.0091
  869MPD2     H12754   3.438   3.635   1.833 -0.2955 -1.9605 -1.5257
  869MPD2    H112755   3.842   3.624   1.689 -0.0489 -0.9628 -0.4817
  869MPD2    H212756   3.744   3.397   2.020  1.6954  0.8763  1.0175
  869MPD2    H312757   3.909   3.495   1.854  0.0875 -2.1061  1.6906
  869MPD2     N12758   3.597   3.707   1.630 -0.3345 -0.2531 -0.2957
  869MPD2    H512759   3.676   3.721   1.568  0.0645  3.6108  1.0372
  869MPD2    N112760   3.502   3.494   2.062 -0.6607 -0.2764 -0.1307
  869MPD2    H712761   3.540   3.431   2.132 -1.9572  1.4811  2.1833
  870MPD2     C12762   3.104   3.119   2.023  0.2694  0.0144 -0.4887
  870MPD2    C112763   3.212   3.158   1.950  0.3600  0.1787  0.5249
  870MPD2    C212764   3.207   3.277   1.880 -0.0370 -0.0420 -0.3011
  870MPD2    C312765   3.100   3.357   1.877 -0.2787 -0.3387  0.4322
  870MPD2    C412766   2.992   3.319   1.961  0.4816  0.1034 -0.1366
  870MPD2    C512767   2.993   3.196   2.024 -0.1329  0.6350  0.4641
  870MPD2     H12768   3.295   3.312   1.829  0.7291  0.7237  1.5324
  870MPD2    H112769   2.909   3.388   1.972  0.3260 -0.4551  2.2446
  870MPD2    H212770   3.100   3.032   2.086 -1.0922 -1.5599 -2.7326
  870MPD2    H312771   2.907   3.165   2.083  0.7797 -4.3054 -0.8113
  870MPD2     N12772   3.100   3.478   1.800  1.0650 -0.2093  0.0008
  870MPD2    H512773   3.189   3.500   1.757  0.9624  0.5974  0.2107
  870MPD2    N112774   3.318   3.065   1.931 -0.4263  0.5922 -0.2374
  870MPD2    H712775   3.297   2.972   1.965  3.6164 -0.9135 -1.8987
  871MPD2     C12776   4.172   1.970  16.702 -1.1956  0.9608  0.1218
  871MPD2    C112777   4.128   1.931  16.823  0.3709 -0.6094  0.0430
  871MPD2    C212778   4.055   1.818  16.843 -0.7346 -0.1975  0.2974
  871MPD2    C312779   4.024   1.740  16.729 -0.8532  0.8745  0.0215
  871MPD2    C412780   4.075   1.776  16.603  0.0875 -0.0780  0.0352
  871MPD2    C512781   4.146   1.891  16.591  0.0270 -1.3699  0.1009
  871MPD2     H12782   4.031   1.771  16.937  1.5093 -1.0752  0.4383
  871MPD2    H112783   4.059   1.716  16.514 -0.8477  1.0993 -0.5990
  871MPD2    H212784   4.227   2.063  16.686  0.5029  0.0489  0.5986
  871MPD2    H312785   4.181   1.923  16.493 -1.2523 -2.3226 -0.6597
  871MPD2     N12786   3.960   1.617  16.752 -0.7916  0.3982  0.4436
  871MPD2    H512787   3.930   1.623  16.849 -1.2359 -0.8430  0.3925
  871MPD2    N112788   4.177   2.014  16.929  0.0284  0.0313  0.1792
  871MPD2    H712789   4.240   2.085  16.892 -0.2623  0.8326  1.2038
  872MPD2     C12790   0.135   4.659  13.810  0.7689  0.2020  0.8797
  872MPD2    C112791   0.151   4.672  13.950  0.0899 -0.0420 -0.3107
  872MPD2    C212792   0.037   4.653  14.015 -0.8520 -0.1720 -0.8500
  872MPD2    C312793   4.641   4.611  13.958 -0.1573 -0.1740 -0.4374
  872MPD2    C412794   4.622   4.607  13.818  0.4486 -0.9565 -0.4113
  872MPD2    C512795   0.012   4.620  13.751 -0.1684 -0.5812 -0.0585
  872MPD2     H12796   0.042   4.663  14.123 -0.0904 -0.1643 -0.8868
  872MPD2    H112797   4.525   4.582  13.777 -1.4242  2.5266  1.8304
  872MPD2    H212798   0.214   4.678  13.737  0.5785  1.0369  0.8869
  872MPD2    H312799   0.000   4.616  13.643  0.4250  1.2903 -0.2012
  872MPD2     N12800   4.539   4.580  14.051 -0.9601 -0.0730  0.5245
  872MPD2    H512801   4.562   4.589  14.149  0.4514  2.7137 -0.0495
  872MPD2    N112802   0.273   4.704  14.024 -0.0054  0.4967 -0.1917
  872MPD2    H712803   0.266   4.719  14.124 -0.8575  1.8660 -0.4636
  873MPD2     C12804   2.325   4.303   1.272 -0.1276  1.0116 -0.4992
  873MPD2    C112805   2.209   4.358   1.311  0.1309 -0.1894  0.0574
  873MPD2    C212806   2.097   4.281   1.334 -0.2427 -0.3996  0.0216
  873MPD2    C312807   2.096   4.147   1.286  0.1161 -0.2447 -0.3816
  873MPD2    C412808   2.212   4.099   1.214 -0.3249  0.3962 -0.4861
  873MPD2    C512809   2.327   4.174   1.220  0.7454  0.0045  0.4265
  873MPD2     H12810   2.004   4.324   1.370  0.1963  0.1166  0.5296
  873MPD2    H112811   2.216   3.994   1.187  0.7817  0.9587 -2.5041
  873MPD2    H212812   2.416   4.361   1.271  0.6209 -0.1683 -0.1546
  873MPD2    H312813   2.415   4.120   1.189 -0.1408 -0.2736 -1.6311
  873MPD2     N12814   1.985   4.059   1.290  0.0952 -0.5815  0.6398
  873MPD2    H512815   2.000   3.969   1.246 -1.3186  0.2418 -1.5339
  873MPD2    N112816   2.217   4.492   1.347  0.1021  0.3363 -0.3789
  873MPD2    H712817   2.303   4.545   1.334  1.1550 -1.3611 -0.2518
  874MPD2     C12818   1.457   4.509  16.259 -0.3806 -0.2554 -0.5442
  874MPD2    C112819   1.504   4.429  16.364  0.4171 -0.6467  0.6212
  874MPD2    C212820   1.610   4.479  16.436 -0.0991 -0.3091 -0.1451
  874MPD2    C312821   1.673   4.598  16.412 -0.5073 -0.9349  0.2351
  874MPD2    C412822   1.618   4.670  16.308  0.4997  0.3037 -1.3231
  874MPD2    C512823   1.516   4.627  16.226  0.8314  0.6729 -0.1977
  874MPD2     H12824   1.643   4.418  16.519 -0.1417 -0.3995 -0.1943
  874MPD2    H112825   1.663   0.039  16.281  1.1178  0.5626  0.6061
  874MPD2    H212826   1.369   4.472  16.208 -0.5486 -0.1866 -0.3031
  874MPD2    H312827   1.477   4.688  16.145 -4.0444 -1.7615  0.2735
  874MPD2     N12828   1.768   4.641  16.506 -0.1234 -0.3806  0.5731
  874MPD2    H512829   1.799   4.572  16.573 -3.4597 -1.1267  1.3538
  874MPD2    N112830   1.445   4.303  16.391  0.1969  0.2040 -0.0364
  874MPD2    H712831   1.373   4.274  16.325  3.4414 -1.9537 -2.6501
  875MPD2     C12832   3.065   3.012  14.852 -0.3091  0.1975  0.2825
  875MPD2    C112833   2.943   2.985  14.916  0.3762  0.5686  0.4580
  875MPD2    C212834   2.931   3.006  15.052  0.6766 -0.2768 -0.2860
  875MPD2    C312835   3.034   3.065  15.125  0.2957 -0.4210  0.4938
  875MPD2    C412836   3.152   3.099  15.058  0.0802  0.8080  0.5992
  875MPD2    C512837   3.169   3.060  14.929  0.8964 -0.2661  0.8769
  875MPD2     H12838   2.830   3.009  15.093  0.6938 -1.4193 -0.1627
  875MPD2    H112839   3.240   3.141  15.106  0.7936  2.2753 -1.9709
  875MPD2    H212840   3.086   2.994  14.747 -0.0616 -2.1616  0.7280
  875MPD2    H312841   3.261   3.088  14.879  0.3066  0.1407  0.0327
  875MPD2     N12842   3.012   3.099  15.258  0.0549  0.5401 -0.3261
  875MPD2    H512843   3.094   3.148  15.293  0.2991  0.5971 -0.9845
  875MPD2    N112844   2.830   2.943  14.855 -0.2169 -0.3589 -0.7659
  875MPD2    H712845   2.747   2.943  14.914  1.4754 -0.6080  1.5952
  876MPD2     C12846   1.466   3.885  16.129 -0.1064 -0.3914 -0.0295
  876MPD2    C112847   1.607   3.884  16.120  0.6751 -0.4371 -0.0683
  876MPD2    C212848   1.679   3.811  16.213 -0.0133  0.3607 -0.0934
  876MPD2    C312849   1.618   3.707  16.282  0.3313  0.5553  0.1780
  876MPD2    C412850   1.476   3.701  16.281 -0.8969  0.3721  0.8230
  876MPD2    C512851   1.406   3.796  16.211  0.0021 -0.3828 -0.4707
  876MPD2     H12852   1.787   3.824  16.222 -0.2211  1.3134  1.0649
  876MPD2    H112853   1.417   3.624  16.331 -1.8491  0.1688 -0.6046
  876MPD2    H212854   1.413   3.954  16.064 -2.8792 -1.2069  1.3637
  876MPD2    H312855   1.298   3.790  16.220  0.2520 -4.2761 -0.1403
  876MPD2     N12856   1.693   3.621  16.365 -0.3938  0.4663 -0.3238
  876MPD2    H512857   1.793   3.638  16.359 -0.0788 -1.0554  0.4484
  876MPD2    N112858   1.665   3.979  16.032  0.5596  0.1456 -0.4229
  876MPD2    H712859   1.602   4.038  15.979  0.2291  0.3581  0.2030
  877MPD2     C12860   1.475   4.345  15.397 -0.0922  1.6446  0.5147
  877MPD2    C112861   1.615   4.366  15.414  0.9631  0.9274 -0.0911
  877MPD2    C212862   1.683   4.431  15.310  0.1587  0.1193  0.5325
  877MPD2    C312863   1.624   4.493  15.203  0.5176  0.4140  0.1958
  877MPD2    C412864   1.489   4.484  15.197 -0.0130 -0.5855 -0.4115
  877MPD2    C512865   1.417   4.395  15.284 -0.3583  0.7706  0.7243
  877MPD2     H12866   1.791   4.434  15.318  0.2977 -0.9110 -1.0841
  877MPD2    H112867   1.440   4.534  15.114  1.2950  0.5298 -0.5017
  877MPD2    H212868   1.409   4.284  15.458  0.0184 -0.8335 -1.8457
  877MPD2    H312869   1.310   4.385  15.279 -0.2137  0.0619 -0.8377
  877MPD2     N12870   1.693   4.557  15.092 -0.1473  0.0193  0.3727
  877MPD2    H512871   1.637   4.578  15.010 -0.6038 -0.1137  0.6449
  877MPD2    N112872   1.695   4.322  15.524 -0.1339 -0.1279  0.4541
  877MPD2    H712873   1.790   4.356  15.534 -0.1155 -0.4599  1.4015
  878MPD2     C12874   1.915   4.108  12.763  0.1875 -0.0653  0.1634
  878MPD2    C112875   1.810   4.026  12.779 -0.0946  0.6911 -0.9726
  878MPD2    C212876   1.795   3.975  12.912 -0.6416 -0.6780  0.3468
  878MPD2    C312877   1.888   3.999  13.011  0.3512 -0.9554  1.1203
  878MPD2    C412878   2.009   4.049  12.976  0.1638  0.3734 -0.3741
  878MPD2    C512879   2.008   4.120  12.861  0.1943 -0.4960  0.4400
  878MPD2     H12880   1.705   3.924  12.945 -0.0063 -1.6635  0.5482
  878MPD2    H112881   2.097   4.060  13.039  0.9290 -1.1120 -1.1683
  878MPD2    H212882   1.940   4.156  12.669  1.2308 -1.0242 -0.0533
  878MPD2    H312883   2.092   4.181  12.830  0.2255 -0.7475  0.0211
  878MPD2     N12884   1.855   3.963  13.145  0.4356  0.3356  0.2963
  878MPD2    H512885   1.756   3.945  13.161  0.2015  1.5801  0.1939
  878MPD2    N112886   1.718   4.001  12.681  0.3645 -0.7165 -0.4079
  878MPD2    H712887   1.705   4.070  12.608 -0.0948 -1.2250 -0.8101
  879MPD2     C12888   1.897   0.780  17.378  0.1125 -0.0992 -0.0547
  879MPD2    C112889   1.993   0.732  17.455  0.2736  0.4766 -0.4773
  879MPD2    C212890   2.012   0.596  17.461 -0.3406 -0.3424  0.0169
  879MPD2    C312891   1.937   0.507  17.386  0.2502 -0.2359  0.2453
  879MPD2    C412892   1.834   0.562  17.312 -0.6913 -1.3039 -0.0517
  879MPD2    C512893   1.817   0.699  17.312 -0.2458 -0.1953 -0.0927
  879MPD2     H12894   2.102   0.554  17.505 -0.1134 -0.0025 -0.1180
  879MPD2    H112895   1.792   0.506  17.229 -0.0374 -2.4838  0.4133
  879MPD2    H212896   1.888   0.888  17.375 -2.0134 -0.3360 -2.1333
  879MPD2    H312897   1.748   0.744  17.241  0.4651 -1.8476 -1.8465
  879MPD2     N12898   1.959   0.365  17.374  0.7907 -0.1496 -0.6537
  879MPD2    H512899   1.911   0.319  17.297 -0.4696 -0.6658  0.4301
  879MPD2    N112900   2.083   0.817  17.517 -0.0207  0.0598 -0.4211
  879MPD2    H712901   2.055   0.913  17.535  1.8157  0.6234 -0.5691
  880MPD2     C12902   3.551   2.729   1.462 -0.1620  0.5060 -0.0778
  880MPD2    C112903   3.673   2.748   1.397 -0.0843  0.2581 -0.0306
  880MPD2    C212904   3.782   2.669   1.433  0.1844 -0.2837  0.3711
  880MPD2    C312905   3.767   2.559   1.516  0.4780 -0.1735 -0.3869
  880MPD2    C412906   3.643   2.545   1.581 -0.4909  0.7241 -0.5842
  880MPD2    C512907   3.541   2.625   1.555  0.1637  0.0350 -0.6922
  880MPD2     H12908   3.880   2.696   1.395 -1.0256 -1.2754 -3.4727
  880MPD2    H112909   3.633   2.470   1.659  1.1732  1.0439 -0.0519
  880MPD2    H212910   3.459   2.782   1.438 -1.2424 -0.5232  1.7698
  880MPD2    H312911   3.441   2.601   1.590  0.4597  0.7085  0.5706
  880MPD2     N12912   3.886   2.482   1.537 -0.4367  0.1170  0.0341
  880MPD2    H512913   3.959   2.499   1.469  0.3836 -0.3293  0.8082
  880MPD2    N112914   3.676   2.853   1.303 -0.0991 -0.0317  0.1294
  880MPD2    H712915   3.595   2.909   1.278 -0.9578 -1.3437  0.0319
  881MPD2     C12916   3.574   2.540   0.550  0.0487 -0.4225  0.4305
  881MPD2    C112917   3.638   2.648   0.496 -0.3362 -0.5034  0.2749
  881MPD2    C212918   3.684   2.747   0.586  0.0389  0.3052 -0.6679
  881MPD2    C312919   3.666   2.730   0.716  0.7148  0.2085 -0.2290
  881MPD2    C412920   3.598   2.624   0.771 -0.4336  0.3707  1.1186
  881MPD2    C512921   3.544   2.528   0.682 -0.3976  0.2521  0.4373
  881MPD2     H12922   3.741   2.826   0.539  0.4254  0.5306  0.1753
  881MPD2    H112923   3.581   2.621   0.878  2.7526  0.5230  1.6338
  881MPD2    H212924   3.522   2.462   0.495 -0.2348  0.5801 -0.7185
  881MPD2    H312925   3.484   2.446   0.719 -0.6059 -0.1771 -0.8235
  881MPD2     N12926   3.708   2.827   0.814  0.8635 -1.1956 -0.5583
  881MPD2    H512927   3.687   2.808   0.912 -0.4290  3.0821  0.0181
  881MPD2    N112928   3.670   2.640   0.358  0.0684 -0.2175 -0.0922
  881MPD2    H712929   3.621   2.565   0.310 -0.0915 -0.5262  0.5566
  882MPD2     C12930   1.686   4.455  14.415 -0.8742 -0.0847 -0.5544
  882MPD2    C112931   1.629   4.548  14.496 -0.0953  0.1054 -0.2803
  882MPD2    C212932   1.493   4.558  14.503 -0.3415 -0.4236 -0.9782
  882MPD2    C312933   1.406   4.485  14.423 -0.3119 -0.4820 -1.0073
  882MPD2    C412934   1.464   4.388  14.344 -1.0720  0.5617 -0.7216
  882MPD2    C512935   1.603   4.379  14.334 -0.5007  0.0816 -0.2713
  882MPD2     H12936   1.449   4.619  14.582 -1.1696 -1.0619 -0.9421
  882MPD2    H112937   1.401   4.326  14.281 -0.3212  0.1853 -1.0911
  882MPD2    H212938   1.790   4.425  14.409 -0.8670  0.1924 -1.6393
  882MPD2    H312939   1.648   4.300  14.274 -1.2186 -0.3502 -0.2358
  882MPD2     N12940   1.263   4.483  14.441 -0.0966 -0.8202  0.2889
  882MPD2    H512941   1.212   4.398  14.420 -0.1404 -1.3709  2.6172
  882MPD2    N112942   1.717   4.612  14.586  0.1506 -0.0970  0.0507
  882MPD2    H712943   1.812   4.579  14.581  0.2565  0.1022  0.7193
  883MPD2     C12944   3.502   4.547  16.366  0.0691  0.1588 -0.8283
  883MPD2    C112945   3.529   4.430  16.309  0.1623 -0.0224  0.7796
  883MPD2    C212946   3.637   4.358  16.347  0.7585  0.4989 -0.1671
  883MPD2    C312947   3.718   4.400  16.451  0.1878 -0.1662  0.1826
  883MPD2    C412948   3.696   4.522  16.512 -0.1129 -0.3271 -0.0214
  883MPD2    C512949   3.583   4.592  16.474 -0.6260  0.4453 -0.9290
  883MPD2     H12950   3.667   4.271  16.289 -1.9013 -0.4769 -0.0859
  883MPD2    H112951   3.769   4.556  16.585 -1.1533 -1.7045  1.6747
  883MPD2    H212952   3.419   4.614  16.345  0.0961  0.8561  1.2331
  883MPD2    H312953   3.554   4.684  16.524  2.5560  0.5935  0.6498
  883MPD2     N12954   3.846   4.333  16.467  0.5992  0.2796 -0.3997
  883MPD2    H512955   3.869   4.269  16.392  0.0799 -0.3279 -0.0458
  883MPD2    N112956   3.456   4.387  16.198  0.5906 -0.2165 -0.7887
  883MPD2    H712957   3.492   4.310  16.142  0.7140 -0.8040  0.1001
  884MPD2     C12958   0.528   0.253  15.745 -0.0664 -0.5681  0.6709
  884MPD2    C112959   0.575   0.333  15.650  0.5151 -0.1186  0.4337
  884MPD2    C212960   0.487   0.414  15.583 -0.3659 -0.2387 -0.0656
  884MPD2    C312961   0.350   0.408  15.607  0.4415 -1.2640  0.0707
  884MPD2    C412962   0.298   0.323  15.697 -0.2952 -1.1959  0.0507
  884MPD2    C512963   0.391   0.250  15.773 -0.9679 -0.3925  0.5161
  884MPD2     H12964   0.524   0.482  15.507  0.3987 -1.2728 -0.6205
  884MPD2    H112965   0.191   0.318  15.713 -0.7666  2.3962 -2.0838
  884MPD2    H212966   0.582   0.183  15.808  2.1844 -2.2417 -3.1521
  884MPD2    H312967   0.353   0.183  15.849 -1.3200  1.1173  1.6694
  884MPD2     N12968   0.276   0.491  15.524 -0.4466  0.2319 -0.2417
  884MPD2    H512969   0.329   0.555  15.466 -0.6229 -0.1599 -0.8346
  884MPD2    N112970   0.702   0.337  15.606  0.4333 -0.3276  0.0914
  884MPD2    H712971   0.723   0.393  15.524  1.5738 -0.0673  0.5546
  885MPD2     C12972   3.632   0.560   0.451  0.1670 -0.6311 -0.3570
  885MPD2    C112973   3.753   0.590   0.400  0.3691 -0.5515  0.4318
  885MPD2    C212974   3.757   0.659   0.276  0.1738  0.4568  0.1929
  885MPD2    C312975   3.644   0.673   0.197  0.2837 -0.9958  1.0878
  885MPD2    C412976   3.520   0.625   0.248 -0.4053  0.2808  0.5672
  885MPD2    C512977   3.522   0.578   0.375 -0.2721  0.1887 -0.0385
  885MPD2     H12978   3.851   0.705   0.250 -0.3774  2.0153  0.9747
  885MPD2    H112979   3.431   0.637   0.187 -1.1791 -2.8042  1.1260
  885MPD2    H212980   3.614   0.529   0.554 -1.4419 -1.8946 -1.0150
  885MPD2    H312981   3.430   0.535   0.413  0.8039 -2.4682 -0.4017
  885MPD2     N12982   3.657   0.738   0.076  0.4407  0.4907 -0.4926
  885MPD2    H512983   3.750   0.759   0.039  0.6338 -0.1345 -0.3595
  885MPD2    N112984   3.864   0.558   0.482 -1.2424 -0.7586 -0.4239
  885MPD2    H712985   3.843   0.519   0.573 -2.6938  0.2420 -0.3317
  886MPD2     C12986   0.421   3.672  15.206 -0.8205 -0.6019 -0.1069
  886MPD2    C112987   0.426   3.729  15.332  0.2041 -0.2378 -0.2289
  886MPD2    C212988   0.413   3.869  15.335 -0.3395 -0.3669  0.1559
  886MPD2    C312989   0.396   3.941  15.213  0.3913  0.6071  0.0125
  886MPD2    C412990   0.395   3.877  15.095 -0.0073  0.5864  0.2187
  886MPD2    C512991   0.404   3.743  15.097 -1.2493 -0.1205 -0.2272
  886MPD2     H12992   0.422   3.937  15.420 -0.5016 -2.1105  1.5542
  886MPD2    H112993   0.376   3.928  15.001  3.1263 -0.6374 -1.0621
  886MPD2    H212994   0.420   3.565  15.186  0.4617 -0.4828 -0.8543
  886MPD2    H312995   0.400   3.694  15.001  0.2519 -0.5381 -0.0870
  886MPD2     N12996   0.374   4.076  15.202 -0.6418 -0.2906 -0.9183
  886MPD2    H512997   0.370   4.112  15.107 -0.3939  0.0951 -0.7788
  886MPD2    N112998   0.456   3.667  15.453 -0.2086  0.1364  0.1069
  886MPD2    H712999   0.448   3.727  15.534 -0.8132 -0.8845  0.7996
  887MPD2     C13000   0.709   3.801  16.092  0.0465 -0.4448 -0.3391
  887MPD2    C113001   0.617   3.842  15.996  0.1537 -0.5937  0.1365
  887MPD2    C213002   0.594   3.975  15.966  1.2974  0.4347 -0.5183
  887MPD2    C313003   0.661   4.071  16.033  0.9552 -0.7554  0.0353
  887MPD2    C413004   0.737   4.026  16.139  0.1474 -0.1210 -0.6738
  887MPD2    C513005   0.768   3.896  16.163 -0.3996  0.2782  0.0232
  887MPD2     H13006   0.510   4.002  15.903  1.3130  2.7200  0.4435
  887MPD2    H113007   0.777   4.098  16.209 -1.6352  0.4038 -0.1908
  887MPD2    H213008   0.740   3.697  16.101 -0.3785 -0.5837 -0.4665
  887MPD2    H313009   0.827   3.866  16.249 -0.9140 -1.9909 -0.4171
  887MPD2     N13010   0.644   4.206  15.997 -0.1306 -0.6026 -0.0491
  887MPD2    H513011   0.602   4.219  15.905  2.6333  0.1387 -1.1975
  887MPD2    N113012   0.548   3.747  15.907 -0.5098 -0.6717 -0.0754
  887MPD2    H713013   0.501   3.786  15.826 -2.0699 -0.2377  1.0309
  888MPD2     C13014   3.042   4.035  15.353 -0.4259  0.5355 -0.0408
  888MPD2    C113015   3.004   4.117  15.456  0.6543 -0.3755  0.9832
  888MPD2    C213016   2.989   4.252  15.428 -0.2563  0.0172  0.1203
  888MPD2    C313017   3.010   4.306  15.299 -0.2239  0.2604  0.2292
  888MPD2    C413018   3.061   4.219  15.194  0.4792  0.4851 -0.3144
  888MPD2    C513019   3.081   4.088  15.231 -0.0895 -0.6851 -0.4620
  888MPD2     H13020   2.949   4.325  15.497 -0.2142  0.3765 -0.2340
  888MPD2    H113021   3.061   4.250  15.090 -0.9025  1.4288 -0.0265
  888MPD2    H213022   3.069   3.931  15.367  1.1841  0.9719  0.0748
  888MPD2    H313023   3.122   4.020  15.157 -2.1141  1.3704 -3.4723
  888MPD2     N13024   2.982   4.441  15.282 -0.0191  0.3473  0.1165
  888MPD2    H513025   2.952   4.488  15.367 -1.6494  0.0660 -0.3074
  888MPD2    N113026   2.965   4.063  15.583 -0.4843  0.3656  0.7936
  888MPD2    H713027   2.945   4.135  15.651 -4.5321 -0.4019  0.3750
  889MPD2     C13028   2.363   3.259  13.626 -0.0952  0.4195  0.0542
  889MPD2    C113029   2.395   3.343  13.526  0.2309  0.0617  0.3334
  889MPD2    C213030   2.444   3.473  13.558 -0.2694  0.0646  0.4196
  889MPD2    C313031   2.462   3.506  13.694  0.1416 -0.0118 -0.0511
  889MPD2    C413032   2.457   3.404  13.788 -0.7733 -0.3880  0.2814
  889MPD2    C513033   2.409   3.280  13.749  0.0596 -0.5354  0.2480
  889MPD2     H13034   2.447   3.552  13.484 -1.5678 -2.1373 -1.9721
  889MPD2    H113035   2.482   3.403  13.894  0.2292  0.6652  0.0542
  889MPD2    H213036   2.329   3.161  13.598 -1.2298  1.2125 -1.3036
  889MPD2    H313037   2.383   3.202  13.820  0.2945  1.0709  2.1026
  889MPD2     N13038   2.476   3.639  13.741  0.0985 -0.1952  0.0952
  889MPD2    H513039   2.460   3.713  13.673  1.4682  1.3408  1.4521
  889MPD2    N113040   2.334   3.315  13.396  0.1941 -0.3552  0.0117
  889MPD2    H713041   2.284   3.228  13.384 -1.4471  0.5902  0.1172
  890MPD2     C13042   2.185   0.515  15.730  1.1600  0.2302 -0.2653
  890MPD2    C113043   2.065   0.527  15.658  0.2646 -0.3018  0.1198
  890MPD2    C213044   1.988   0.414  15.635 -0.3382  0.1997  0.5382
  890MPD2    C313045   2.026   0.286  15.685 -0.3647 -0.2340  0.5535
  890MPD2    C413046   2.152   0.285  15.753 -0.2087 -0.0294  0.7504
  890MPD2    C513047   2.224   0.395  15.772 -1.1660 -0.1641  0.1950
  890MPD2     H13048   1.891   0.422  15.588 -0.2576 -0.3805  0.2781
  890MPD2    H113049   2.202   0.200  15.798 -0.2747  0.0489  0.9756
  890MPD2    H213050   2.250   0.599  15.752  2.1608 -0.7940  0.6828
  890MPD2    H313051   2.318   0.393  15.826 -0.9035 -0.9749 -0.2885
  890MPD2     N13052   1.947   0.173  15.658  0.2806 -1.0246  0.3173
  890MPD2    H513053   1.856   0.179  15.613  1.4119 -0.6654 -1.9479
  890MPD2    N113054   2.030   0.657  15.607 -0.0792  0.1180  0.2473
  890MPD2    H713055   2.080   0.740  15.636  1.7707 -1.2207  0.8739
  891MPD2     C13056   0.045   3.143  17.072  0.5438 -0.5516 -0.6481
  891MPD2    C113057   4.722   3.269  17.096  0.0338 -0.1839 -0.1876
  891MPD2    C213058   0.071   3.353  17.172  0.3007  0.4481 -0.0817
  891MPD2    C313059   0.191   3.308  17.228  0.2429  0.1010  0.0381
  891MPD2    C413060   0.228   3.175  17.213 -0.3521  0.4253  0.1406
  891MPD2    C513061   0.159   3.097  17.130  0.3338  0.1327  0.1201
  891MPD2     H13062   0.039   3.457  17.182 -2.1747 -0.3321  0.0179
  891MPD2    H113063   0.315   3.127  17.255 -1.2199 -0.6229  0.7112
  891MPD2    H213064   4.724   3.078  17.000 -1.2843  0.1368 -0.0752
  891MPD2    H313065   0.201   3.000  17.108 -2.9373 -0.8213 -1.8475
  891MPD2     N13066   0.266   3.393  17.311 -0.2972 -0.5809 -0.1455
  891MPD2    H513067   0.225   3.486  17.312  1.2742  0.0945  0.5995
  891MPD2    N113068   4.607   3.304  17.024  0.2160 -0.4921 -0.0610
  891MPD2    H713069   4.585   3.247  16.942  1.1668 -1.2834  0.2324
  892MPD2     C13070   0.627   0.288  15.041 -0.2092  0.0971  0.2016
  892MPD2    C113071   0.576   0.166  15.018 -0.6066 -0.7719  0.5293
  892MPD2    C213072   0.633   0.072  14.938 -0.3509 -0.1711 -0.3863
  892MPD2    C313073   0.748   0.104  14.869 -0.5625 -0.0380  0.6726
  892MPD2    C413074   0.803   0.227  14.885 -0.4960 -0.6888  0.4637
  892MPD2    C513075   0.739   0.319  14.967  0.1950 -0.1226 -0.0888
  892MPD2     H13076   0.585   4.701  14.931  1.2325 -1.0350  0.8079
  892MPD2    H113077   0.892   0.254  14.829 -0.2746 -0.1031  1.0967
  892MPD2    H213078   0.595   0.357  15.119 -1.6250 -2.0584  1.5070
  892MPD2    H313079   0.791   0.411  14.991  1.0684 -1.2760  2.4701
  892MPD2     N13080   0.803   0.009  14.775 -0.1507  0.5211  0.2477
  892MPD2    H513081   0.883   0.035  14.717  0.1450 -0.0161  0.4158
  892MPD2    N113082   0.441   0.143  15.056 -0.2692 -0.0445 -0.1176
  892MPD2    H713083   0.384   0.074  15.008  0.2833 -1.2685  1.0096
  893MPD2     C13084   4.232   2.458   2.245 -0.0606 -0.5810  0.4164
  893MPD2    C113085   4.299   2.544   2.162  0.1591 -0.7811 -0.1178
  893MPD2    C213086   4.422   2.496   2.118 -0.6028  0.1356 -0.1029
  893MPD2    C313087   4.476   2.375   2.156 -0.2487 -0.2480 -0.2707
  893MPD2    C413088   4.407   2.298   2.237 -0.3744 -0.1301  0.2204
  893MPD2    C513089   4.281   2.336   2.276 -0.1588  0.7565  0.1064
  893MPD2     H13090   4.482   2.568   2.063  0.8567 -2.0307 -1.3266
  893MPD2    H113091   4.445   2.205   2.277  1.7246  0.9875  0.7950
  893MPD2    H213092   4.138   2.474   2.295 -0.7078 -0.8567 -0.6975
  893MPD2    H313093   4.222   2.271   2.340  0.3496  0.4494  0.2640
  893MPD2     N13094   4.611   2.338   2.128  0.2384  0.1664  0.0514
  893MPD2    H513095   4.636   2.243   2.154 -1.4878  0.6036  3.2324
  893MPD2    N113096   4.246   2.673   2.132  0.1768 -0.4207 -0.2385
  893MPD2    H713097   4.149   2.683   2.160  0.7480 -1.1387  2.0252
  894MPD2     C13098   1.171   0.765   1.830  0.2892  0.4346  0.2547
  894MPD2    C113099   1.042   0.818   1.833 -0.1467 -0.4730 -0.2128
  894MPD2    C213100   1.002   0.910   1.738  0.1016 -0.2634 -0.1427
  894MPD2    C313101   1.093   0.946   1.637 -0.1149 -0.0896 -0.0149
  894MPD2    C413102   1.224   0.896   1.636 -0.3617 -0.1787 -0.6160
  894MPD2    C513103   1.263   0.813   1.736 -0.0216  0.4067  0.0985
  894MPD2     H13104   0.897   0.939   1.730 -0.1087 -0.9564  0.0872
  894MPD2    H113105   1.291   0.936   1.561  1.6610  0.0332  1.3103
  894MPD2    H213106   1.208   0.689   1.898  1.9644  0.3662 -0.7248
  894MPD2    H313107   1.364   0.778   1.723  0.3043  0.3953  2.7682
  894MPD2     N13108   1.059   1.042   1.538 -0.2627 -0.2250  0.2062
  894MPD2    H513109   1.135   1.074   1.480  0.3489 -0.6405  0.7777
  894MPD2    N113110   0.952   0.788   1.934 -0.1420 -0.1542 -0.2373
  894MPD2    H713111   0.864   0.840   1.928 -0.3558 -0.7479 -2.2617
  895MPD2     C13112   4.450   4.015  13.922 -0.7886 -0.0173  0.1784
  895MPD2    C113113   4.400   4.081  13.812 -0.3888  0.5144 -0.6023
  895MPD2    C213114   4.477   4.074  13.700 -0.0429 -0.5623 -0.5702
  895MPD2    C313115   4.585   3.995  13.685 -0.9605 -1.0470 -0.1735
  895MPD2    C413116   4.631   3.925  13.793  0.2653  0.4578 -0.6704
  895MPD2    C513117   4.566   3.940  13.913  0.8643  0.2486  0.7912
  895MPD2     H13118   4.436   4.117  13.609 -3.5309  1.0228  1.7521
  895MPD2    H113119   4.715   3.856  13.790  0.5507  0.8174 -0.9752
  895MPD2    H213120   4.401   4.014  14.019  0.1890 -1.9627  0.6650
  895MPD2    H313121   4.607   3.881  13.995  0.3373 -1.2619 -0.0390
  895MPD2     N13122   4.645   3.975  13.566  0.0447 -0.1679 -0.5124
  895MPD2    H513123   4.711   3.897  13.563 -0.4972 -0.6357 -0.2279
  895MPD2    N113124   4.276   4.152  13.802  0.4318  0.3003 -0.2124
  895MPD2    H713125   4.253   4.195  13.713 -2.4573  0.1665  0.4633
  896MPD2     C13126   2.407   2.721   1.683 -0.1957  0.0850  0.3885
  896MPD2    C113127   2.404   2.606   1.604 -0.1122  0.2767 -0.7794
  896MPD2    C213128   2.280   2.536   1.596 -0.1857  0.1845  0.8318
  896MPD2    C313129   2.170   2.571   1.666 -0.0625  0.2009 -0.1767
  896MPD2    C413130   2.173   2.690   1.745  0.6903 -0.0329  0.1271
  896MPD2    C513131   2.288   2.759   1.744  0.0918 -0.7160  0.2707
  896MPD2     H13132   2.275   2.452   1.528  1.9715  0.0466  0.8494
  896MPD2    H113133   2.090   2.732   1.800 -0.3405 -1.4976 -0.3230
  896MPD2    H213134   2.493   2.786   1.695 -1.0421  1.6390 -2.0329
  896MPD2    H313135   2.285   2.854   1.795  0.4701 -0.5222 -0.0686
  896MPD2     N13136   2.056   2.485   1.650  0.7499  0.6118  0.1811
  896MPD2    H513137   2.069   2.406   1.587 -2.7184  0.3348 -0.1754
  896MPD2    N113138   2.522   2.571   1.534  0.8567 -0.6031 -0.0835
  896MPD2    H713139   2.593   2.644   1.539 -0.0400  0.3274 -0.7854
  897MPD2     C13140   3.383   3.246  10.613  0.3471  0.5171 -0.2369
  897MPD2    C113141   3.401   3.382  10.587  0.1560 -0.4848 -0.5386
  897MPD2    C213142   3.352   3.477  10.668  1.1083  0.1920 -0.1240
  897MPD2    C313143   3.287   3.446  10.789 -0.1215  0.8119 -0.0364
  897MPD2    C413144   3.297   3.315  10.834  0.1878  0.0866 -0.0972
  897MPD2    C513145   3.343   3.215  10.741 -0.3318  0.4375 -0.4493
  897MPD2     H13146   3.353   3.579  10.631  0.4980 -0.1482 -1.0460
  897MPD2    H113147   3.249   3.286  10.927  3.5280  0.0003  1.5985
  897MPD2    H213148   3.415   3.162  10.553  1.2364  0.6701  0.0215
  897MPD2    H313149   3.332   3.110  10.766  0.8586  0.1547 -1.1327
  897MPD2     N13150   3.251   3.555  10.868 -0.1313 -0.0447 -0.9637
  897MPD2    H513151   3.248   3.646  10.824 -0.8928 -0.0549 -0.9340
  897MPD2    N113152   3.470   3.411  10.467 -0.4584 -0.2860 -0.1422
  897MPD2    H713153   3.482   3.332  10.405 -1.3924 -0.3605 -0.2204
  898MPD2     C13154   0.465   4.270  17.298  0.0917  0.1300  0.1743
  898MPD2    C113155   0.594   4.324  17.299  0.0451 -0.0279 -0.4395
  898MPD2    C213156   0.616   4.413  17.197 -0.6232  0.9073  0.2152
  898MPD2    C313157   0.517   4.458  17.112 -0.8639  1.1180 -0.0135
  898MPD2    C413158   0.393   4.401  17.118  0.1533  0.9414  0.6273
  898MPD2    C513159   0.365   4.307  17.215  0.2082  0.4211 -0.8260
  898MPD2     H13160   0.717   4.452  17.187 -0.4565  0.3266 -0.3219
  898MPD2    H113161   0.307   4.438  17.064 -1.5630 -2.8691  0.7838
  898MPD2    H213162   0.436   4.198  17.374 -1.4500 -0.9155 -1.4266
  898MPD2    H313163   0.268   4.259  17.221  1.1972 -1.5616 -0.7601
  898MPD2     N13164   0.538   4.573  17.029  0.1790  0.1751  0.2245
  898MPD2    H513165   0.629   4.617  17.038  0.0265  0.8851 -1.8427
  898MPD2    N113166   0.702   4.278  17.378 -0.0488  0.9975  0.2255
  898MPD2    H713167   0.795   4.319  17.369  0.3269  0.1203  0.1219
  899MPD2     C13168   2.081   0.220   0.613 -0.1231 -0.5229 -0.3952
  899MPD2    C113169   1.959   0.225   0.542 -0.8794 -0.2958 -0.1976
  899MPD2    C213170   1.841   0.228   0.621 -0.3534 -0.5871  0.4293
  899MPD2    C313171   1.854   0.206   0.760 -0.4133 -0.2198  0.5320
  899MPD2    C413172   1.980   0.201   0.819 -1.0806  0.3455  0.0913
  899MPD2    C513173   2.093   0.224   0.742 -0.8997  0.4853  0.2180
  899MPD2     H13174   1.746   0.253   0.575 -0.6613  0.3025  1.5603
  899MPD2    H113175   1.993   0.195   0.927 -0.0448  1.0245 -0.0014
  899MPD2    H213176   2.175   0.227   0.559 -1.4787  1.7011 -2.4488
  899MPD2    H313177   2.194   0.226   0.783 -0.8797  1.7082  0.1192
  899MPD2     N13178   1.742   0.223   0.844  0.2495  0.2600 -0.3873
  899MPD2    H513179   1.760   0.239   0.942 -0.0118 -0.9754 -0.1290
  899MPD2    N113180   1.952   0.248   0.405  0.9850 -0.6388  0.2426
  899MPD2    H713181   2.035   0.288   0.362  1.0057 -0.6480  0.2735
  900MPD2     C13182   1.338   1.651  12.539  0.1688  0.1682  0.1445
  900MPD2    C113183   1.227   1.596  12.570  0.6432  0.5937 -0.0552
  900MPD2    C213184   1.115   1.639  12.494 -0.1290 -0.7854 -0.6843
  900MPD2    C313185   1.118   1.732  12.395 -0.2123 -0.4479 -1.0493
  900MPD2    C413186   1.235   1.799  12.374  0.0894  0.5874  0.6844
  900MPD2    C513187   1.346   1.753  12.444 -0.8154  0.7633 -0.2261
  900MPD2     H13188   1.016   1.597  12.509 -0.6652  1.6956  2.6932
  900MPD2    H113189   1.255   1.862  12.288  0.8678 -0.2899  0.2304
  900MPD2    H213190   1.433   1.633  12.587 -1.4987 -2.2787  2.5344
  900MPD2    H313191   1.446   1.791  12.425 -0.7965  1.3351  1.0206
  900MPD2     N13192   0.996   1.745  12.331  0.8517 -0.4080  0.1093
  900MPD2    H513193   0.925   1.679  12.361  0.1933  1.1084  1.8637
  900MPD2    N113194   1.221   1.498  12.674  0.1973  0.1083  0.1808
  900MPD2    H713195   1.308   1.486  12.725  2.0725  2.8978 -2.3295
  901MPD2     C13196   0.717   0.624  12.868  0.4591 -0.3174  0.3465
  901MPD2    C113197   0.854   0.624  12.848 -0.3646 -0.0821  0.6912
  901MPD2    C213198   0.921   0.742  12.865  0.0613 -0.4633 -0.1050
  901MPD2    C313199   0.853   0.856  12.888  0.1256  0.6474  0.1353
  901MPD2    C413200   0.716   0.860  12.897  0.5615  0.4912  1.0081
  901MPD2    C513201   0.648   0.742  12.881  1.1569  0.3906  0.2258
  901MPD2     H13202   1.028   0.735  12.881 -0.1503  0.8586  1.7876
  901MPD2    H113203   0.662   0.952  12.915  0.4575  0.4588  0.8688
  901MPD2    H213204   0.660   0.532  12.869 -0.0613 -0.0182 -1.4681
  901MPD2    H313205   0.542   0.747  12.906  1.1515  1.5527 -0.0254
  901MPD2     N13206   0.939   0.969  12.915 -0.0826 -0.0775 -0.6154
  901MPD2    H513207   1.038   0.956  12.895 -0.2275 -1.0544 -0.7141
  901MPD2    N113208   0.924   0.501  12.834 -0.3713 -0.0434 -0.3748
  901MPD2    H713209   0.860   0.421  12.834  1.6953 -1.6996 -1.6294
  902MPD2     C13210   3.680   4.535  12.796 -0.3165 -0.0118  0.1319
  902MPD2    C113211   3.785   4.591  12.872 -0.4811  0.1034 -0.6228
  902MPD2    C213212   3.916   4.587  12.825  0.1738 -0.4385 -0.0669
  902MPD2    C313213   3.939   4.533  12.695 -0.5175 -0.1170  0.4145
  902MPD2    C413214   3.831   4.488  12.618  0.4568  0.3514  0.0395
  902MPD2    C513215   3.705   4.477  12.672 -0.5312 -0.0007 -0.0702
  902MPD2     H13216   4.001   4.636  12.872  0.4948 -1.1302  0.0779
  902MPD2    H113217   3.845   4.455  12.516  1.5528 -0.8051  0.5799
  902MPD2    H213218   3.579   4.521  12.834  0.5747  0.5775  2.7356
  902MPD2    H313219   3.632   4.420  12.615  1.3601 -1.2237 -1.2662
  902MPD2     N13220   4.065   4.536  12.629 -0.7517  0.3292  0.2731
  902MPD2    H513221   4.067   4.505  12.532  1.5132 -0.7223  0.6469
  902MPD2    N113222   3.744   4.661  12.993 -0.4884 -0.0420 -0.0152
  902MPD2    H713223   3.654   4.633  13.031 -0.6373 -0.5106 -0.7071
  903MPD2     C13224   4.534   4.286  11.973  0.2864  0.7384  0.6638
  903MPD2    C113225   4.431   4.318  12.048  1.2121 -0.1228  0.2819
  903MPD2    C213226   4.310   4.284  12.001  0.7846 -0.0183 -0.1797
  903MPD2    C313227   4.291   4.196  11.896 -0.2147 -0.0471  0.5537
  903MPD2    C413228   4.405   4.156  11.824 -0.4655 -0.3996  0.4826
  903MPD2    C513229   4.523   4.206  11.866 -0.1341 -0.4955 -0.0972
  903MPD2     H13230   4.220   4.312  12.053  2.3620  1.5949  1.6438
  903MPD2    H113231   4.405   4.077  11.749 -1.3938  0.8644 -0.8501
  903MPD2    H213232   4.636   4.322  11.986  0.8750 -1.2875  1.7409
  903MPD2    H313233   4.615   4.172  11.819 -0.4894  0.1582 -1.2790
  903MPD2     N13234   4.160   4.135  11.874  0.4235  0.1003  0.1792
  903MPD2    H513235   4.096   4.164  11.947 -0.6217  0.9753 -1.0766
  903MPD2    N113236   4.447   4.390  12.170  0.2650 -0.2704 -0.5370
  903MPD2    H713237   4.542   4.400  12.205  0.2072  0.1222 -0.4912
  904MPD2     C13238   0.011   3.215  13.894 -0.3601 -0.2789  0.0832
  904MPD2    C113239   4.689   3.316  13.973 -0.0278 -0.5381 -0.5079
  904MPD2    C213240   0.042   3.352  14.078 -0.4563 -0.1314  0.0621
  904MPD2    C313241   0.163   3.281  14.107 -0.6129  0.1056 -0.0570
  904MPD2    C413242   0.211   3.186  14.024 -0.5503 -0.0838 -0.4337
  904MPD2    C513243   0.126   3.145  13.916  0.4570  0.1064  0.1259
  904MPD2     H13244   0.011   3.424  14.153  0.7428 -1.3993  1.7778
  904MPD2    H113245   0.306   3.135  14.030 -0.4373  0.2252  0.3923
  904MPD2    H213246   4.671   3.190  13.812  0.9754 -3.8833  0.1049
  904MPD2    H313247   0.154   3.072  13.841 -0.0800 -1.2184  1.2119
  904MPD2     N13248   0.234   3.326  14.224 -0.5606  0.1778 -0.2711
  904MPD2    H513249   0.170   3.369  14.291  0.5140 -1.8187  2.0817
  904MPD2    N113250   4.592   3.408  13.921 -0.2485  0.1144 -0.1435
  904MPD2    H713251   4.581   3.483  13.987  0.0573  0.2875 -0.2876
  905MPD2     C13252   4.380   3.601  13.194  0.0706 -0.0374  0.8861
  905MPD2    C113253   4.349   3.705  13.277 -0.1446 -0.5229 -0.3641
  905MPD2    C213254   4.392   3.830  13.242 -0.3905 -0.2871  0.6489
  905MPD2    C313255   4.453   3.851  13.119  0.7132 -0.3962 -0.0722
  905MPD2    C413256   4.472   3.744  13.036 -0.1357  0.5200  0.6077
  905MPD2    C513257   4.444   3.618  13.074  0.0074  0.0638  0.6192
  905MPD2     H13258   4.384   3.916  13.307  1.4743  1.0876 -0.9277
  905MPD2    H113259   4.521   3.754  12.939  1.5921 -0.6859  1.3573
  905MPD2    H213260   4.350   3.501  13.224  1.7048  0.1756  3.2767
  905MPD2    H313261   4.452   3.541  12.998 -2.9086  0.1771  0.1780
  905MPD2     N13262   4.495   3.982  13.089  0.0488  0.1359 -0.3153
  905MPD2    H513263   4.469   4.055  13.155  1.6494 -0.7504  1.2951
  905MPD2    N113264   4.320   3.660  13.411  0.1308  0.4645 -0.3774
  905MPD2    H713265   4.312   3.559  13.423 -1.2868  0.5577 -0.4810
  906MPD2     C13266   1.946   3.826  11.535  0.6700 -0.3230  0.1203
  906MPD2    C113267   1.914   3.731  11.442  0.5845 -0.5411  0.0024
  906MPD2    C213268   1.829   3.625  11.475 -0.3530  0.4242  0.4021
  906MPD2    C313269   1.761   3.618  11.595  0.5688  0.1169 -0.1426
  906MPD2    C413270   1.783   3.720  11.681 -0.4948  0.6378 -0.2277
  906MPD2    C513271   1.876   3.819  11.652  0.1722 -0.1834 -0.0629
  906MPD2     H13272   1.805   3.551  11.399 -0.3880 -0.3363  1.1552
  906MPD2    H113273   1.730   3.745  11.772  0.2662  0.8153  0.1664
  906MPD2    H213274   2.012   3.910  11.517 -1.2700  1.3990  1.0824
  906MPD2    H313275   1.885   3.895  11.728 -0.0419 -0.2819  0.0604
  906MPD2     N13276   1.681   3.510  11.612 -0.5307  0.8903  0.1306
  906MPD2    H513277   1.667   3.452  11.530 -3.1672  0.5908  0.7655
  906MPD2    N113278   1.982   3.725  11.316 -0.0402  0.3102  0.0882
  906MPD2    H713279   1.957   3.642  11.263 -1.8676  0.8912  0.0489
  907MPD2     C13280   0.637   2.398  15.914 -0.1527  0.4820  0.0110
  907MPD2    C113281   0.715   2.292  15.870 -0.1414  0.2157 -0.1226
  907MPD2    C213282   0.832   2.270  15.933 -0.0686 -0.2385  0.2819
  907MPD2    C313283   0.878   2.350  16.034 -0.1072 -0.6148  0.0018
  907MPD2    C413284   0.799   2.454  16.070  0.4138  0.5128  0.4654
  907MPD2    C513285   0.687   2.482  16.007 -0.0763 -0.1757  1.0222
  907MPD2     H13286   0.896   2.186  15.906  2.5122  2.4021 -1.7512
  907MPD2    H113287   0.825   2.524  16.149 -1.1778  0.6887  0.8202
  907MPD2    H213288   0.532   2.408  15.892 -0.1122 -0.6878 -0.7024
  907MPD2    H313289   0.618   2.555  16.048 -1.8011 -0.5632 -1.1811
  907MPD2     N13290   0.994   2.313  16.104 -0.0110 -0.0325  0.7019
  907MPD2    H513291   1.048   2.230  16.083  1.6104  1.1926  0.0858
  907MPD2    N113292   0.671   2.201  15.767  0.6068 -0.6993 -0.8185
  907MPD2    H713293   0.721   2.114  15.758  1.3113 -0.0875 -2.9549
  908MPD2     C13294   3.544   2.915   9.831  0.4356  0.5787  0.4016
  908MPD2    C113295   3.494   3.037   9.806 -0.2568  0.2562 -1.4728
  908MPD2    C213296   3.541   3.146   9.878  0.6105  0.3244 -0.4296
  908MPD2    C313297   3.644   3.136   9.969  0.6773 -0.6981 -1.1558
  908MPD2    C413298   3.702   3.013   9.988 -0.4516 -0.4941  0.0883
  908MPD2    C513299   3.646   2.903   9.924 -0.0202 -0.0279  0.3850
  908MPD2     H13300   3.491   3.240   9.857 -1.0095 -0.6447 -0.8984
  908MPD2    H113301   3.776   2.993  10.064  1.2067  2.6222 -0.7011
  908MPD2    H213302   3.524   2.818   9.786 -0.2407  0.9855 -0.1844
  908MPD2    H313303   3.683   2.808   9.961  1.9673 -0.0715 -1.7690
  908MPD2     N13304   3.677   3.252  10.043  0.3886 -0.2649  0.1091
  908MPD2    H513305   3.607   3.327  10.045  1.9038  1.1394  0.5676
  908MPD2    N113306   3.408   3.048   9.698 -0.3575  0.0806 -0.0442
  908MPD2    H713307   3.388   2.963   9.647 -0.8106 -0.2743  0.7206
  909MPD2     C13308   3.862   1.263  11.933  0.4398 -0.6097  0.3938
  909MPD2    C113309   3.840   1.358  11.839  0.9322 -0.1274 -0.1388
  909MPD2    C213310   3.742   1.457  11.870 -0.3868 -0.2025  0.2260
  909MPD2    C313311   3.662   1.444  11.984  0.6902 -0.0889 -0.4718
  909MPD2    C413312   3.684   1.338  12.063  1.3920 -0.1533  0.1905
  909MPD2    C513313   3.781   1.254  12.040  0.0683 -0.1124 -0.5908
  909MPD2     H13314   3.728   1.536  11.797 -1.9249 -0.0804  0.6394
  909MPD2    H113315   3.621   1.322  12.151 -0.0891  0.3119 -0.7881
  909MPD2    H213316   3.935   1.183  11.920 -0.5862 -1.3336 -0.9260
  909MPD2    H313317   3.793   1.176  12.115  2.9103 -0.9682 -1.9370
  909MPD2     N13318   3.560   1.541  12.008 -0.1325  0.5791  0.4760
  909MPD2    H513319   3.536   1.609  11.937 -1.5556 -1.9447 -1.4591
  909MPD2    N113320   3.917   1.366  11.714  0.2093  0.1251  0.2835
  909MPD2    H713321   3.910   1.453  11.662  1.7238  0.9700  1.4870
  910MPD2     C13322   4.558   3.066  16.211 -0.6726 -0.0872 -0.0337
  910MPD2    C113323   4.623   3.017  16.098 -0.1004  0.2131 -0.1729
  910MPD2    C213324   4.571   3.061  15.978 -0.2539 -0.0396 -0.3017
  910MPD2    C313325   4.460   3.148  15.974 -0.7761 -1.1537  0.3604
  910MPD2    C413326   4.393   3.188  16.091  0.3211  0.3407  0.7212
  910MPD2    C513327   4.445   3.150  16.210 -0.3962  0.2335 -0.1850
  910MPD2     H13328   4.615   3.006  15.895  0.5202  1.6571 -1.0100
  910MPD2    H113329   4.306   3.252  16.085  0.9596  1.1798  0.4611
  910MPD2    H213330   4.595   3.044  16.310 -1.1055  0.9313  0.3570
  910MPD2    H313331   4.402   3.176  16.306  0.1448 -2.8971  0.9076
  910MPD2     N13332   4.412   3.187  15.847 -0.2033 -0.4146 -0.2214
  910MPD2    H513333   4.330   3.247  15.839 -0.3791 -0.3913  1.6640
  910MPD2    N113334   0.006   2.928  16.113 -0.4623 -0.3249  0.0182
  910MPD2    H713335   0.053   2.906  16.025 -2.8543  0.1529 -1.3962
  911MPD2     C13336   2.832   3.528  16.790 -0.1844  0.2910 -0.4907
  911MPD2    C113337   2.907   3.636  16.832  0.1820  0.2508 -0.1537
  911MPD2    C213338   2.873   3.762  16.801 -0.0648 -0.2625  0.0186
  911MPD2    C313339   2.749   3.777  16.730  0.0718 -0.7925 -0.8533
  911MPD2    C413340   2.681   3.666  16.684 -0.2027  0.2492  0.0552
  911MPD2    C513341   2.721   3.541  16.716  0.6396 -0.2704 -0.2371
  911MPD2     H13342   2.925   3.851  16.834 -3.3090  1.5333  0.3180
  911MPD2    H113343   2.588   3.673  16.629  0.1881 -1.4405 -0.8294
  911MPD2    H213344   2.865   3.426  16.809  0.4732  0.5616 -0.1512
  911MPD2    H313345   2.672   3.454  16.674 -1.1891 -0.1338  1.6335
  911MPD2     N13346   2.695   3.898  16.680  0.6624  0.0014 -0.2982
  911MPD2    H513347   2.624   3.891  16.608  0.9216  0.6654 -0.6196
  911MPD2    N113348   3.024   3.594  16.896  0.0636  0.2304 -0.0818
  911MPD2    H713349   3.036   3.495  16.916 -0.2557 -0.0277 -1.1622
  912MPD2     C13350   2.764   3.734  16.226  0.0729 -0.9334 -0.5509
  912MPD2    C113351   2.638   3.768  16.280 -0.6202  0.0244 -0.2377
  912MPD2    C213352   2.548   3.668  16.312  0.6734  0.7186  1.0381
  912MPD2    C313353   2.585   3.538  16.308  0.6173  0.3498 -0.5688
  912MPD2    C413354   2.710   3.509  16.272 -0.4497  0.5987  0.3409
  912MPD2    C513355   2.796   3.603  16.220 -0.2860  0.2944 -0.4186
  912MPD2     H13356   2.443   3.681  16.336  0.0640 -0.5878 -0.8583
  912MPD2    H113357   2.753   3.410  16.281 -1.8462 -0.1705 -1.3992
  912MPD2    H213358   2.835   3.808  16.193  0.6369 -0.8489  0.8477
  912MPD2    H313359   2.900   3.583  16.198 -0.7448  0.0439 -2.4372
  912MPD2     N13360   2.485   3.450  16.356 -0.5725  0.0803  0.3888
  912MPD2    H513361   2.400   3.489  16.395 -0.7228 -0.0176  0.1607
  912MPD2    N113362   2.620   3.897  16.313 -0.2373 -0.4199  0.8861
  912MPD2    H713363   2.688   3.966  16.283  0.7055 -0.8063  2.1062
  913MPD2     C13364   3.121   0.359  10.160  0.0629 -0.0424 -0.8227
  913MPD2    C113365   3.226   0.407  10.239 -0.1219 -0.2657 -0.1774
  913MPD2    C213366   3.249   0.544  10.244  0.1735 -0.7454  0.5010
  913MPD2    C313367   3.178   0.630  10.166 -0.0232 -0.6814  0.2632
  913MPD2    C413368   3.085   0.577  10.077 -0.4115 -0.3999 -0.6225
  913MPD2    C513369   3.056   0.448  10.077 -0.1560 -0.0705 -0.7141
  913MPD2     H13370   3.320   0.584  10.315 -1.0035  0.5899  0.9213
  913MPD2    H113371   3.027   0.642  10.012  1.1324  2.7848  1.1650
  913MPD2    H213372   3.093   0.254  10.161  0.5821 -0.1930 -1.7659
  913MPD2    H313373   2.982   0.416  10.005 -0.8635  2.1419 -0.9630
  913MPD2     N13374   3.198   0.769  10.179  0.1510  0.4410  0.2380
  913MPD2    H513375   3.133   0.838  10.144  1.2584  0.6607 -1.3960
  913MPD2    N113376   3.309   0.310  10.308 -0.3767 -0.1403  0.3076
  913MPD2    H713377   3.284   0.212  10.312  1.9221 -0.7747 -1.0245
  914MPD2     C13378   1.657   0.674  12.306 -0.8847  0.0310  0.7674
  914MPD2    C113379   1.567   0.733  12.390 -0.4147 -0.4917 -1.1055
  914MPD2    C213380   1.498   0.654  12.478  0.1983 -0.2347  0.1856
  914MPD2    C313381   1.499   0.516  12.470 -0.0391  0.2187 -0.1529
  914MPD2    C413382   1.581   0.454  12.383 -0.0247 -0.4306  0.0146
  914MPD2    C513383   1.663   0.535  12.308 -0.1955  0.2870  0.2093
  914MPD2     H13384   1.436   0.698  12.556  0.6225  0.2625  0.2513
  914MPD2    H113385   1.588   0.347  12.372 -0.8857 -0.6796  1.7780
  914MPD2    H213386   1.720   0.729  12.237 -2.2726  3.0360  1.8528
  914MPD2    H313387   1.718   0.482  12.231  0.6883  2.7279 -0.8262
  914MPD2     N13388   1.410   0.444  12.559 -0.0794  0.4237  0.2224
  914MPD2    H513389   1.356   0.503  12.621  1.2547  2.2307 -0.3456
  914MPD2    N113390   1.560   0.871  12.391 -0.7229 -0.7331 -0.6747
  914MPD2    H713391   1.625   0.933  12.343 -0.6617 -1.3740 -1.4128
  915MPD2     C13392   3.690   4.601  15.958 -0.5747  0.0283 -0.0529
  915MPD2    C113393   3.632   4.706  15.894 -0.0383  0.1443  0.7445
  915MPD2    C213394   3.598   0.096  15.961 -0.4324  0.1174  0.1504
  915MPD2    C313395   3.623   0.119  16.098 -0.2801  0.1189  0.3417
  915MPD2    C413396   3.671   0.004  16.162  1.2206  0.0378 -0.5316
  915MPD2    C513397   3.705   4.618  16.097 -0.2873  0.0163 -0.2067
  915MPD2     H13398   3.565   0.179  15.899 -1.8331 -1.4493 -1.2245
  915MPD2    H113399   3.680   4.716  16.269  1.9456 -3.9255 -1.1425
  915MPD2    H213400   3.746   4.529  15.900  1.9197  1.7259  0.2617
  915MPD2    H313401   3.751   4.535  16.148 -1.0650 -0.5232 -0.3762
  915MPD2     N13402   3.587   0.238  16.161 -0.3031 -1.0644  0.5928
  915MPD2    H513403   3.543   0.311  16.105  0.9582 -1.2296 -0.6251
  915MPD2    N113404   3.616   4.692  15.751 -0.1226 -0.1179 -0.5999
  915MPD2    H713405   3.651   4.605  15.714  1.3170  0.3050 -0.2486
  916MPD2     C13406   2.243   3.448  16.144  0.3096 -0.5731 -0.4481
  916MPD2    C113407   2.178   3.332  16.189  0.4106 -0.0079 -0.3370
  916MPD2    C213408   2.205   3.212  16.130 -0.8494  0.7176 -0.2382
  916MPD2    C313409   2.293   3.201  16.026 -0.0817  0.0293  0.1115
  916MPD2    C413410   2.365   3.318  15.988 -0.0964  1.1339  0.3563
  916MPD2    C513411   2.347   3.435  16.057 -0.1095 -0.1687  0.0546
  916MPD2     H13412   2.149   3.123  16.157  1.1752  0.1129  2.0309
  916MPD2    H113413   2.437   3.324  15.908 -0.8556 -0.6269 -0.4668
  916MPD2    H213414   2.232   3.546  16.189 -1.6992  0.1973 -2.5896
  916MPD2    H313415   2.418   3.514  16.035  2.8175 -2.4442  1.3523
  916MPD2     N13416   2.315   3.072  15.966 -0.1118 -0.0549 -0.2245
  916MPD2    H513417   2.263   2.994  16.005  2.4511 -0.4973  2.3248
  916MPD2    N113418   2.086   3.343  16.294  0.3146 -0.1274 -0.5962
  916MPD2    H713419   2.065   3.436  16.329 -0.0749 -0.8592  1.1063
  917MPD2     C13420   2.704   0.958  11.146  0.3853  0.5894  0.0168
  917MPD2    C113421   2.686   1.037  11.265  0.5354 -0.5551 -0.0247
  917MPD2    C213422   2.783   1.126  11.298 -0.1138  0.4408  0.6808
  917MPD2    C313423   2.885   1.155  11.205  0.0422  0.0758  0.0511
  917MPD2    C413424   2.893   1.084  11.079  0.7072 -0.1360 -0.3953
  917MPD2    C513425   2.803   0.983  11.057 -0.0190 -0.5994 -0.0293
  917MPD2     H13426   2.781   1.176  11.393 -1.1518 -2.9418  2.4652
  917MPD2    H113427   2.964   1.115  11.003  0.9510  2.8794  1.0848
  917MPD2    H213428   2.630   0.886  11.115 -1.1767  0.9118  3.0097
  917MPD2    H313429   2.809   0.913  10.975 -0.5381  0.0648 -0.6312
  917MPD2     N13430   2.981   1.254  11.223  0.1602  0.1256  0.6672
  917MPD2    H513431   3.036   1.284  11.144  1.3115 -0.7086  1.1470
  917MPD2    N113432   2.575   0.998  11.347  0.3597 -0.6243 -0.4030
  917MPD2    H713433   2.530   0.912  11.316  0.3334 -0.3943 -0.9955
  918MPD2     C13434   2.258   1.358  12.248  0.1787 -0.4257 -0.6402
  918MPD2    C113435   2.374   1.382  12.171 -0.4442 -0.8214 -0.0162
  918MPD2    C213436   2.392   1.309  12.051 -0.4557  0.7991  0.1950
  918MPD2    C313437   2.301   1.216  12.013  0.1316 -0.0089  0.0351
  918MPD2    C413438   2.183   1.194  12.088 -1.0756 -0.1985 -0.3919
  918MPD2    C513439   2.166   1.264  12.203  0.5550 -0.1717 -0.7862
  918MPD2     H13440   2.480   1.330  11.991 -2.2955  1.5922 -2.2556
  918MPD2    H113441   2.100   1.129  12.063 -1.4986  0.0549  0.3403
  918MPD2    H213442   2.237   1.426  12.330 -0.7795  0.9116 -2.0149
  918MPD2    H313443   2.070   1.254  12.252  0.0488  2.3020 -1.2545
  918MPD2     N13444   2.316   1.156  11.887 -0.4740  0.5586  0.0518
  918MPD2    H513445   2.395   1.191  11.833 -1.7222  0.7968 -1.6181
  918MPD2    N113446   2.484   1.460  12.230  0.4559 -0.0132 -0.2532
  918MPD2    H713447   2.560   1.481  12.166 -1.1347  2.1337 -1.4844
  919MPD2     C13448   2.843   4.460  11.415  0.3367  0.0607  0.3538
  919MPD2    C113449   2.945   4.371  11.433 -0.4902  0.5299 -0.9885
  919MPD2    C213450   3.022   4.340  11.315 -0.0414 -0.0437  0.2791
  919MPD2    C313451   3.011   4.421  11.207  0.3803  0.4593  0.2689
  919MPD2    C413452   2.921   4.523  11.200 -0.2266 -0.1017 -0.1155
  919MPD2    C513453   2.829   4.529  11.300 -0.1981 -0.6468  0.1513
  919MPD2     H13454   3.102   4.267  11.318  0.2716  0.3693  2.0920
  919MPD2    H113455   2.916   4.602  11.126  0.9962  0.9269  0.9118
  919MPD2    H213456   2.773   4.482  11.494 -1.3744  1.5275 -1.5465
  919MPD2    H313457   2.764   4.616  11.294 -0.5670 -1.0633 -1.8578
  919MPD2     N13458   3.107   4.415  11.101 -0.6089 -0.4694  0.0879
  919MPD2    H513459   3.119   4.502  11.049 -0.3247 -0.3485  0.3547
  919MPD2    N113460   2.984   4.306  11.556  0.3242  0.3297 -0.1694
  919MPD2    H713461   3.042   4.225  11.541  0.3525  0.0533  1.4889
  920MPD2     C13462   3.386   0.440  10.815  0.0611 -0.3611 -0.1269
  920MPD2    C113463   3.283   0.351  10.765  0.1993 -0.0707  0.3526
  920MPD2    C213464   3.279   0.217  10.805 -0.5314 -0.1058 -0.1335
  920MPD2    C313465   3.386   0.174  10.885  0.7154 -0.2228 -0.3779
  920MPD2    C413466   3.481   0.261  10.932 -0.5046 -0.1088 -0.5071
  920MPD2    C513467   3.489   0.391  10.886 -0.6069  0.4835 -0.3925
  920MPD2     H13468   3.204   0.146  10.771 -0.4420 -0.3585  0.1867
  920MPD2    H113469   3.568   0.224  10.985 -1.1598 -0.1115  0.5431
  920MPD2    H213470   3.388   0.547  10.796  1.2750 -0.5979 -1.3455
  920MPD2    H313471   3.564   0.464  10.916  0.0971 -0.5064  0.2669
  920MPD2     N13472   3.384   0.041  10.933  0.4691 -0.1751  0.0777
  920MPD2    H513473   3.300   4.711  10.926 -0.5987  1.4213  0.0827
  920MPD2    N113474   3.180   0.394  10.677 -0.2876 -0.3400  0.2059
  920MPD2    H713475   3.115   0.322  10.647 -1.3667  0.2294  1.1802
  921MPD2     C13476   3.984   3.811  17.306  0.2577  0.2262 -0.3028
  921MPD2    C113477   3.983   3.711  17.211  0.5890  0.2484  0.0702
  921MPD2    C213478   3.858   3.660  17.170 -0.7018  0.2650 -0.1605
  921MPD2    C313479   3.746   3.697  17.238 -0.2013 -0.0398  0.0692
  921MPD2    C413480   3.748   3.793  17.343 -0.0295 -0.2565 -0.0831
  921MPD2    C513481   3.870   3.843  17.366  0.7349  0.3450  0.3829
  921MPD2     H13482   3.849   3.580  17.097  1.0889  0.0202 -0.0908
  921MPD2    H113483   3.664   3.831  17.399  0.7825 -0.3143  1.1698
  921MPD2    H213484   4.080   3.862  17.312  1.1317 -1.5696  0.8045
  921MPD2    H313485   3.880   3.922  17.441  1.1209  0.0547  0.6400
  921MPD2     N13486   3.630   3.631  17.201  0.0077  0.3694  0.7505
  921MPD2    H513487   3.648   3.569  17.122  2.3989 -1.2784  2.6197
  921MPD2    N113488   4.095   3.680  17.127 -0.2238  0.6857  0.2848
  921MPD2    H713489   4.185   3.709  17.164 -0.6405  1.8656  0.3818
  922MPD2     C13490   4.488   1.258  17.100  0.3070  0.1070  0.4619
  922MPD2    C113491   4.495   1.348  17.201  0.2202 -0.2728 -0.6103
  922MPD2    C213492   4.398   1.347  17.301  0.7406  0.1225 -0.0524
  922MPD2    C313493   4.308   1.242  17.317  0.0146  0.3798 -0.4599
  922MPD2    C413494   4.305   1.147  17.218  0.4186 -0.2302  0.2779
  922MPD2    C513495   4.389   1.162  17.104  0.4825  0.1135 -0.3701
  922MPD2     H13496   4.403   1.424  17.377  0.9275  1.0062 -0.9549
  922MPD2    H113497   4.237   1.062  17.217  0.2353 -0.0657 -0.7840
  922MPD2    H213498   4.556   1.249  17.016 -1.1806  1.8055 -0.9333
  922MPD2    H313499   4.387   1.100  17.016 -0.4400  0.4487 -0.5828
  922MPD2     N13500   4.224   1.243  17.431 -0.6867  0.3182  0.3512
  922MPD2    H513501   4.228   1.331  17.482  1.1419  0.1744  0.4394
  922MPD2    N113502   4.590   1.458  17.200 -0.1788  0.6986  0.5235
  922MPD2    H713503   4.588   1.516  17.284 -2.1531 -0.4902  1.3152
  923MPD2     C13504   1.865   3.136   9.658  0.1258 -0.2214  0.0814
  923MPD2    C113505   1.800   3.238   9.723  0.1074 -0.5393 -0.5964
  923MPD2    C213506   1.876   3.330   9.793  0.6816  0.1194  0.3839
  923MPD2    C313507   2.018   3.330   9.807 -0.2024 -0.1676  0.0340
  923MPD2    C413508   2.079   3.216   9.760 -0.3076 -0.1859 -0.0105
  923MPD2    C513509   2.005   3.127   9.682  0.4376 -0.7574  0.8581
  923MPD2     H13510   1.825   3.416   9.836  1.7524  0.8899  0.0953
  923MPD2    H113511   2.186   3.206   9.773  0.0043 -0.6496 -2.9342
  923MPD2    H213512   1.819   3.055   9.602 -0.1217 -0.3711  0.5003
  923MPD2    H313513   2.055   3.045   9.632  1.2927  0.8592 -0.9531
  923MPD2     N13514   2.092   3.421   9.881 -0.6089  0.0338  0.1003
  923MPD2    H513515   2.193   3.409   9.882 -0.7767 -1.4509 -0.2445
  923MPD2    N113516   1.663   3.254   9.706  0.7657  0.3380  0.7217
  923MPD2    H713517   1.619   3.201   9.631 -3.9562  2.2834  2.1957
  924MPD2     C13518   1.129   1.567  16.171 -0.7418  0.0184 -0.6300
  924MPD2    C113519   1.071   1.640  16.278  0.6286  0.3833 -0.4508
  924MPD2    C213520   1.132   1.761  16.307 -0.3276  0.1161  0.0602
  924MPD2    C313521   1.212   1.821  16.216 -0.2238 -0.3634  0.5420
  924MPD2    C413522   1.248   1.751  16.105  0.0952  0.3011  0.2606
  924MPD2    C513523   1.210   1.623  16.083  0.1140  0.2502 -0.2427
  924MPD2     H13524   1.109   1.824  16.392 -0.0475  1.0135 -0.5269
  924MPD2    H113525   1.307   1.797  16.027  1.6608 -1.1883  0.5566
  924MPD2    H213526   1.089   1.468  16.155  0.1764 -0.2590 -1.2161
  924MPD2    H313527   1.248   1.578  15.992 -1.2506 -0.8715 -0.2629
  924MPD2     N13528   1.269   1.953  16.219 -0.4938 -0.6133 -0.6755
  924MPD2    H513529   1.304   1.979  16.127  1.7637 -0.9172  0.1000
  924MPD2    N113530   0.956   1.594  16.347 -0.4408  0.0850  0.0410
  924MPD2    H713531   0.910   1.505  16.326 -1.3580  0.6205 -0.2237
  925MPD2     C13532   4.535   4.253  14.697 -0.1278 -0.2590  0.2017
  925MPD2    C113533   4.415   4.324  14.701 -0.2339  0.0453  0.0752
  925MPD2    C213534   4.365   4.371  14.823 -0.6807 -0.2700 -0.1444
  925MPD2    C313535   4.427   4.329  14.945 -0.1346  0.0081  0.7144
  925MPD2    C413536   4.538   4.248  14.933  0.4928  0.6119 -0.6825
  925MPD2    C513537   4.588   4.213  14.813 -0.2208  0.2873  0.1900
  925MPD2     H13538   4.273   4.429  14.830 -1.3099 -1.3606  0.7397
  925MPD2    H113539   4.578   4.202  15.022 -0.6316  0.8594 -0.0411
  925MPD2    H213540   4.588   4.235  14.604  2.1387  0.5165  1.3498
  925MPD2    H313541   4.672   4.144  14.812  0.5067  1.1933 -1.2993
  925MPD2     N13542   4.373   4.348  15.076 -0.2393  0.3069 -0.4159
  925MPD2    H513543   4.440   4.326  15.148 -3.2829 -0.3839  2.2158
  925MPD2    N113544   4.346   4.374  14.586 -0.3589  0.5346  0.0020
  925MPD2    H713545   4.265   4.434  14.597 -1.2602 -0.8287  0.7704
  926MPD2     C13546   3.765   2.805  13.352 -0.1877 -0.0191 -0.4727
  926MPD2    C113547   3.643   2.860  13.320 -0.4348 -0.0767 -0.7174
  926MPD2    C213548   3.624   2.954  13.210  0.0868  0.4817  0.5785
  926MPD2    C313549   3.736   3.001  13.147  0.5436  0.4383  0.3407
  926MPD2    C413550   3.855   2.948  13.184 -0.1331  0.8417 -0.5294
  926MPD2    C513551   3.872   2.856  13.283 -0.2757  0.6271  0.5843
  926MPD2     H13552   3.524   2.992  13.190  0.3816  2.4675  2.9267
  926MPD2    H113553   3.949   2.974  13.136 -0.9013 -0.9327 -2.9594
  926MPD2    H213554   3.781   2.728  13.426 -1.9142  0.7257  0.6846
  926MPD2    H313555   3.973   2.829  13.312  0.8029  1.8421 -2.0668
  926MPD2     N13556   3.734   3.094  13.040  0.1082 -0.2828 -0.1769
  926MPD2    H513557   3.823   3.119  12.999  0.2680  0.6890  0.7545
  926MPD2    N113558   3.527   2.844  13.405 -0.4344 -0.1938  0.3283
  926MPD2    H713559   3.446   2.899  13.378  0.8652  1.5031 -0.1958
  927MPD2     C13560   3.264   0.334   0.641 -0.6522 -0.6160 -0.3498
  927MPD2    C113561   3.166   0.424   0.615 -0.8313  0.4523  1.1134
  927MPD2    C213562   3.144   0.466   0.477 -0.2173  0.2406  0.4166
  927MPD2    C313563   3.219   0.408   0.373 -0.1012 -0.0549 -0.2238
  927MPD2    C413564   3.317   0.321   0.411  0.6201  0.1190  0.2941
  927MPD2    C513565   3.340   0.284   0.540  0.0536 -0.7175  0.0174
  927MPD2     H13566   3.071   0.542   0.455  2.4273  2.2011 -1.6093
  927MPD2    H113567   3.384   0.278   0.337 -0.3691 -0.3713 -0.3215
  927MPD2    H213568   3.280   0.302   0.743 -1.6107  1.2193  0.3759
  927MPD2    H313569   3.421   0.216   0.564 -0.8757 -1.9326 -0.3259
  927MPD2     N13570   3.192   0.448   0.241 -0.5903 -0.2193  0.2704
  927MPD2    H513571   3.130   0.527   0.224 -1.3843 -0.7122  0.8918
  927MPD2    N113572   3.103   0.483   0.729 -0.7661 -0.6615 -0.2395
  927MPD2    H713573   3.136   0.445   0.817 -1.2245  0.8221  0.5599
  928MPD2     C13574   0.900   3.870   1.629 -0.2088 -0.3734  0.7770
  928MPD2    C113575   0.813   3.940   1.553  0.7214  0.3877  0.0241
  928MPD2    C213576   0.839   3.970   1.422 -0.7621 -0.0248 -0.2027
  928MPD2    C313577   0.953   3.920   1.364 -0.5674  0.0374 -0.4074
  928MPD2    C413578   1.027   3.828   1.436  0.7821  0.2585 -0.1244
  928MPD2    C513579   1.007   3.812   1.568 -0.4556  0.1202 -0.4295
  928MPD2     H13580   0.774   4.043   1.374 -2.7630  0.5888  3.4670
  928MPD2    H113581   1.112   3.789   1.380  1.5004 -0.4639  1.4805
  928MPD2    H213582   0.875   3.852   1.733  0.7807  0.3321  1.1365
  928MPD2    H313583   1.071   3.744   1.624 -1.2949  0.9725  1.5630
  928MPD2     N13584   1.001   3.945   1.235  0.0075  0.4698  0.2174
  928MPD2    H513585   1.092   3.914   1.204  0.2422  0.0188  1.3772
  928MPD2    N113586   0.714   4.007   1.626 -0.2840  0.4847 -0.3677
  928MPD2    H713587   0.709   3.992   1.727  1.1085 -0.9962 -0.5154
  929MPD2     C13588   1.121   3.896  10.139  0.1579  0.1430 -0.5095
  929MPD2    C113589   1.067   3.859  10.264  0.1606 -0.4647  0.1210
  929MPD2    C213590   0.931   3.887  10.281 -0.4339 -0.4092 -0.1019
  929MPD2    C313591   0.855   3.950  10.184 -0.5023  0.4488  0.0441
  929MPD2    C413592   0.910   3.991  10.064  0.3817  0.6773  0.1497
  929MPD2    C513593   1.043   3.960  10.049  0.1192 -0.9152  0.2426
  929MPD2     H13594   0.885   3.844  10.369 -0.4713  1.1344  0.6289
  929MPD2    H113595   0.846   4.029   9.986  0.8777  1.8289  0.3042
  929MPD2    H213596   1.221   3.869  10.107 -0.0199  1.1179 -1.8731
  929MPD2    H313597   1.087   3.987   9.954  1.7561  1.6293  1.7367
  929MPD2     N13598   0.718   3.968  10.198 -0.5519  0.4237 -0.5131
  929MPD2    H513599   0.666   4.014  10.124  1.4002 -0.5597 -2.4907
  929MPD2    N113600   1.145   3.771  10.345  0.1653  0.6289 -0.5379
  929MPD2    H713601   1.230   3.736  10.304  1.0649  0.6866  1.2604
  930MPD2     C13602   2.929   0.929  14.228 -0.2708  0.0545 -0.2131
  930MPD2    C113603   2.822   0.995  14.174  0.1658  0.8040  0.3737
  930MPD2    C213604   2.708   0.921  14.143  0.0331  0.0591 -0.0551
  930MPD2    C313605   2.709   0.778  14.155 -0.1124 -0.7656  0.4893
  930MPD2    C413606   2.817   0.716  14.209  0.5296  0.0850 -0.0266
  930MPD2    C513607   2.928   0.792  14.245  0.7823  0.3264 -0.6740
  930MPD2     H13608   2.621   0.975  14.107 -0.8069 -0.2135  1.5812
  930MPD2    H113609   2.808   0.612  14.234 -0.0518  0.4312  1.1658
  930MPD2    H213610   3.017   0.988  14.254  0.8212 -1.5973 -0.1666
  930MPD2    H313611   3.012   0.739  14.287  0.7309 -0.0367 -1.0302
  930MPD2     N13612   2.591   0.696  14.124 -0.0707  0.4548 -0.2792
  930MPD2    H513613   2.588   0.601  14.160  0.3498  0.1604 -1.0230
  930MPD2    N113614   2.848   1.127  14.143  0.2069 -0.4079  0.1577
  930MPD2    H713615   2.935   1.163  14.181  0.9352 -2.5197  0.4956
  931MPD2     C13616   3.026   0.770   1.539  0.6531  0.0106 -0.0163
  931MPD2    C113617   3.055   0.672   1.444  0.3437  0.0180 -0.0228
  931MPD2    C213618   3.117   0.559   1.489  0.2989 -0.0767 -0.6469
  931MPD2    C313619   3.116   0.527   1.624 -0.5394 -0.6270 -0.3677
  931MPD2    C413620   3.070   0.620   1.713  0.6120  0.3544 -0.1081
  931MPD2    C513621   3.028   0.742   1.674 -0.3060  0.0135  0.1185
  931MPD2     H13622   3.110   0.469   1.428  0.5899 -0.1591 -0.5555
  931MPD2    H113623   3.071   0.602   1.820 -0.2988  1.0326  0.0140
  931MPD2    H213624   2.992   0.866   1.501  1.9072 -0.1180 -1.4701
  931MPD2    H313625   3.008   0.822   1.744  0.0742  0.1107  0.1189
  931MPD2     N13626   3.157   0.403   1.679  0.4973 -0.2518  0.1916
  931MPD2    H513627   3.130   0.400   1.777  0.2674  1.8138  0.1911
  931MPD2    N113628   3.022   0.693   1.313 -0.1515  0.3532  0.5639
  931MPD2    H713629   2.963   0.772   1.287  0.3193  0.5412  0.0596
  932MPD2     C13630   0.511   4.297  11.363 -0.1941 -0.4200 -0.6279
  932MPD2    C113631   0.546   4.394  11.454 -0.0049 -0.0843  0.8873
  932MPD2    C213632   0.558   4.354  11.585  0.8979  0.5622 -1.0830
  932MPD2    C313633   0.537   4.220  11.625 -0.5148  0.6415 -0.0500
  932MPD2    C413634   0.508   4.129  11.528 -0.4544  0.2057  0.4205
  932MPD2    C513635   0.493   4.167  11.398 -0.4027 -0.0955 -0.0555
  932MPD2     H13636   0.588   4.443  11.640  0.0301  1.5240 -2.1679
  932MPD2    H113637   0.482   4.025  11.547 -0.2901  0.5122  2.3526
  932MPD2    H213638   0.485   4.327  11.262 -1.9977 -0.6708 -0.2355
  932MPD2    H313639   0.453   4.103  11.320  3.1760 -0.5654 -1.5048
  932MPD2     N13640   0.548   4.171  11.760 -1.0164 -0.5130  0.3172
  932MPD2    H513641   0.538   4.072  11.777  3.7510 -1.3418 -1.7473
  932MPD2    N113642   0.549   4.530  11.431  0.6828 -0.0222  0.2651
  932MPD2    H713643   0.558   4.594  11.509  2.2556 -0.1814  0.2091
  933MPD2     C13644   4.693   4.489   1.856  0.4665  0.3106  0.2129
  933MPD2    C113645   0.075   4.509   1.777  0.1264  0.7780  0.4431
  933MPD2    C213646   0.069   4.600   1.669  0.6091  0.4699 -0.2467
  933MPD2    C313647   4.676   4.665   1.647  0.2164  0.5960  0.1898
  933MPD2    C413648   4.571   4.642   1.734  0.1501 -0.4606 -0.7357
  933MPD2    C513649   4.580   4.556   1.836  0.2316 -0.3097  0.3824
  933MPD2     H13650   0.158   4.624   1.611  1.0487 -0.2200  0.1440
  933MPD2    H113651   4.478   4.698   1.724  0.3309  0.1057  0.7987
  933MPD2    H213652   4.693   4.421   1.940 -0.7519 -0.7146 -0.6346
  933MPD2    H313653   4.497   4.547   1.905  1.8445 -1.5282  2.1372
  933MPD2     N13654   4.668   0.023   1.528 -0.1496  0.0357 -0.7760
  933MPD2    H513655   0.022   0.018   1.467  0.5189  0.7288  0.0359
  933MPD2    N113656   0.188   4.424   1.798  0.4532  0.0291  0.4650
  933MPD2    H713657   0.180   4.350   1.867  2.1248  1.0869  1.8082
  934MPD2     C13658   1.917   2.305   1.970  0.5374  0.3595 -0.2402
  934MPD2    C113659   2.041   2.244   1.942 -0.2461  1.5444 -0.2494
  934MPD2    C213660   2.040   2.110   1.906  0.3636 -0.2396  0.3041
  934MPD2    C313661   1.921   2.036   1.912 -0.0649  0.2777 -0.0449
  934MPD2    C413662   1.801   2.094   1.943 -0.4699 -0.2020  0.0534
  934MPD2    C513663   1.800   2.232   1.967 -0.3956 -0.8043  0.0506
  934MPD2     H13664   2.135   2.075   1.869  0.9231  0.0803  1.4301
  934MPD2    H113665   1.707   2.042   1.952 -1.7699  2.3445  1.1253
  934MPD2    H213666   1.900   2.411   1.984 -0.5446  0.2271 -0.5675
  934MPD2    H313667   1.703   2.275   1.988  0.2958  0.8811 -0.2398
  934MPD2     N13668   1.920   1.903   1.867 -0.3379 -0.3611 -0.5815
  934MPD2    H513669   1.833   1.853   1.883 -0.7384 -0.1498 -2.0999
  934MPD2    N113670   2.164   2.310   1.936  1.0548 -0.5005 -0.5242
  934MPD2    H713671   2.241   2.256   1.897  0.7077 -1.2573 -0.1519
  935MPD2     C13672   2.581   1.161   1.695  0.0038 -0.1945  0.5649
  935MPD2    C113673   2.463   1.138   1.629  0.0039  0.5397 -0.2104
  935MPD2    C213674   2.345   1.208   1.649 -0.0523  0.0759 -0.2796
  935MPD2    C313675   2.351   1.324   1.721  0.7335  0.5136 -0.4003
  935MPD2    C413676   2.474   1.363   1.765 -0.2206 -0.0983 -0.4078
  935MPD2    C513677   2.582   1.278   1.760  0.4243  0.6891 -0.0909
  935MPD2     H13678   2.256   1.174   1.596 -0.0667  0.5728 -0.5681
  935MPD2    H113679   2.488   1.452   1.824  0.7907 -0.1271 -0.5961
  935MPD2    H213680   2.666   1.094   1.689 -1.0668 -1.3271 -1.8164
  935MPD2    H313681   2.677   1.306   1.804  0.2345 -2.4094  2.2575
  935MPD2     N13682   2.242   1.409   1.739 -0.0957  0.5108  0.8211
  935MPD2    H513683   2.255   1.497   1.790 -1.9111  0.5970  1.1363
  935MPD2    N113684   2.447   1.030   1.541  0.7709  0.6297 -0.3902
  935MPD2    H713685   2.352   1.017   1.507  0.8615  0.3244 -0.5327
  936MPD2     C13686   0.771   2.475  12.503 -0.3615  0.2099  0.6486
  936MPD2    C113687   0.822   2.509  12.625  0.4382  0.2153  0.1925
  936MPD2    C213688   0.814   2.644  12.671  0.1669  0.1562  0.6749
  936MPD2    C313689   0.736   2.732  12.606  0.1562 -0.2176 -0.6064
  936MPD2    C413690   0.661   2.694  12.490  0.0806 -0.1408  0.4648
  936MPD2    C513691   0.689   2.565  12.439  0.3460  0.1968  0.0060
  936MPD2     H13692   0.869   2.677  12.758  1.0828 -1.0205  0.5427
  936MPD2    H113693   0.614   2.770  12.430  0.2634 -0.2019  0.2423
  936MPD2    H213694   0.793   2.375  12.467  0.7078  0.1674  1.3965
  936MPD2    H313695   0.643   2.533  12.346  0.2758 -2.7838  1.0641
  936MPD2     N13696   0.731   2.861  12.664  0.6092  0.2636  0.3986
  936MPD2    H513697   0.805   2.879  12.731  2.3561 -0.3313 -1.3837
  936MPD2    N113698   0.884   2.421  12.708  0.0762 -0.3428 -0.1916
  936MPD2    H713699   0.926   2.461  12.792  1.4788  0.1746 -1.1305
  937MPD2     C13700   3.446   3.858  11.808 -0.0834 -0.1227  0.0450
  937MPD2    C113701   3.395   3.960  11.720  0.0702  0.7464 -0.2415
  937MPD2    C213702   3.472   3.988  11.606 -0.1196 -0.6618 -0.3026
  937MPD2    C313703   3.574   3.900  11.567  0.4498 -0.1475 -0.0191
  937MPD2    C413704   3.612   3.795  11.649  0.7205 -0.4850 -0.1607
  937MPD2    C513705   3.544   3.773  11.765  0.6041  0.1846 -0.6886
  937MPD2     H13706   3.444   4.073  11.546  0.6395  0.5389  1.0586
  937MPD2    H113707   3.690   3.729  11.613  1.0955 -0.4407  0.5873
  937MPD2    H213708   3.407   3.845  11.908  0.7241 -2.8718 -0.0047
  937MPD2    H313709   3.576   3.700  11.839  0.0197  0.2187 -0.4078
  937MPD2     N13710   3.635   3.943  11.447 -0.2347  1.0230 -0.0979
  937MPD2    H513711   3.594   4.023  11.399  0.3159  0.6357 -1.1970
  937MPD2    N113712   3.314   4.064  11.768  0.8775 -0.2987  1.0128
  937MPD2    H713713   3.306   4.143  11.704  0.4859 -0.1054  1.2999
  938MPD2     C13714   1.436   0.932   1.278  1.0290 -0.5226  0.7186
  938MPD2    C113715   1.317   0.983   1.235  0.7964  0.2266 -0.5054
  938MPD2    C213716   1.206   0.901   1.241 -0.3410 -0.6703 -0.3676
  938MPD2    C313717   1.208   0.780   1.309  0.2331  0.8530 -0.2583
  938MPD2    C413718   1.329   0.731   1.360 -0.1764  0.2031  0.0349
  938MPD2    C513719   1.439   0.808   1.338  0.1822  0.0058  0.2879
  938MPD2     H13720   1.110   0.936   1.205  1.3952  1.9300 -2.4480
  938MPD2    H113721   1.348   0.635   1.407 -1.1609  0.8424  1.7350
  938MPD2    H213722   1.529   0.980   1.249 -1.4007  2.4032 -2.2691
  938MPD2    H313723   1.532   0.779   1.384  0.3230 -0.6259 -0.3927
  938MPD2     N13724   1.092   0.715   1.353 -0.2985 -0.3768  0.1249
  938MPD2    H513725   1.109   0.638   1.417 -3.6335 -2.4692 -1.5122
  938MPD2    N113726   1.308   1.102   1.164  0.1078 -0.4363 -0.3781
  938MPD2    H713727   1.225   1.124   1.111  0.4518  0.7447 -0.4221
  939MPD2     C13728   2.182   2.465   1.027 -0.2651 -0.0254  0.1549
  939MPD2    C113729   2.269   2.534   1.114 -0.6728 -0.3224  0.0811
  939MPD2    C213730   2.405   2.514   1.101 -0.1089  0.0509  0.1397
  939MPD2    C313731   2.453   2.416   1.014  0.2410 -0.0604 -0.0614
  939MPD2    C413732   2.361   2.336   0.939 -0.0866  0.4690  0.1604
  939MPD2    C513733   2.228   2.364   0.944  0.2134  0.0960 -0.5458
  939MPD2     H13734   2.476   2.574   1.157  0.4738  0.5856 -1.1834
  939MPD2    H113735   2.388   2.244   0.888 -1.8944  0.7688 -1.3263
  939MPD2    H213736   2.077   2.494   1.018 -0.2432 -1.1327 -3.6023
  939MPD2    H313737   2.158   2.309   0.882 -0.6782  0.1234  0.4377
  939MPD2     N13738   2.592   2.410   0.989  0.8201 -0.4033 -0.6989
  939MPD2    H513739   2.645   2.484   1.035 -1.4266  0.9141 -0.2175
  939MPD2    N113740   2.212   2.628   1.208  0.0074  0.6983  0.0972
  939MPD2    H713741   2.111   2.623   1.222 -0.2226  1.9109 -1.1657
  940MPD2     C13742   1.089   2.954  14.099  0.0412 -0.3669  0.0933
  940MPD2    C113743   1.200   2.871  14.071 -1.0745  0.4024 -1.0171
  940MPD2    C213744   1.246   2.866  13.938  0.2383  0.2176  1.1020
  940MPD2    C313745   1.181   2.932  13.839 -0.2101  0.4509 -0.3310
  940MPD2    C413746   1.077   3.016  13.868 -0.1848 -0.2519 -0.7692
  940MPD2    C513747   1.034   3.023  13.999  0.6036 -0.4707  0.4919
  940MPD2     H13748   1.331   2.800  13.921  0.0999  0.2864  0.1616
  940MPD2    H113749   1.039   3.096  13.807  2.7397  1.5351 -0.2882
  940MPD2    H213750   1.058   2.963  14.203 -1.7003  0.7058 -0.5237
  940MPD2    H313751   0.957   3.097  14.015  0.7665  0.0263 -1.0123
  940MPD2     N13752   1.222   2.927  13.704  0.8808  0.3837 -0.7835
  940MPD2    H513753   1.161   2.982  13.643 -0.9854 -0.5905  0.2063
  940MPD2    N113754   1.259   2.806  14.185 -0.1976  0.0714 -0.2286
  940MPD2    H713755   1.223   2.826  14.278 -0.4398 -0.1321 -0.2782
  941MPD2     C13756   0.455   1.537   9.571  1.3050  0.0072  0.5101
  941MPD2    C113757   0.426   1.613   9.683  0.3020  0.5402  0.3306
  941MPD2    C213758   0.353   1.555   9.788  0.7998  0.1307 -0.0345
  941MPD2    C313759   0.313   1.428   9.787  0.4252 -0.0730  0.4095
  941MPD2    C413760   0.350   1.348   9.680  1.0427  0.3508  0.1602
  941MPD2    C513761   0.421   1.404   9.577  0.0624 -0.1066 -0.2443
  941MPD2     H13762   0.340   1.617   9.876 -1.0590  1.5291 -1.2994
  941MPD2    H113763   0.330   1.242   9.687  0.0460  0.3065 -3.6646
  941MPD2    H213764   0.518   1.573   9.491 -0.6836  2.3601  0.0272
  941MPD2    H313765   0.455   1.330   9.506 -1.6140 -1.3100  0.2079
  941MPD2     N13766   0.241   1.356   9.888  0.0389  0.0500  0.1354
  941MPD2    H513767   0.229   1.255   9.883  0.2364  0.0275  0.1384
  941MPD2    N113768   0.451   1.748   9.689 -0.1888 -0.3868  0.2317
  941MPD2    H713769   0.416   1.794   9.772  2.5509  1.3016  0.4565
  942MPD2     C13770   4.626   3.385  10.054  0.1801  0.7949 -0.1329
  942MPD2    C113771   4.661   3.499   9.980 -0.5142 -0.4688  0.2178
  942MPD2    C213772   0.056   3.501   9.913 -1.3281  0.1611 -0.5222
  942MPD2    C313773   0.137   3.394   9.923  0.6652 -0.3172  0.7662
  942MPD2    C413774   0.104   3.281  10.000 -0.5602  0.5877 -0.4650
  942MPD2    C513775   4.708   3.276  10.059  0.5182 -0.6811  0.2564
  942MPD2     H13776   0.087   3.588   9.858  1.7359 -0.3776  0.3468
  942MPD2    H113777   0.168   3.195   9.994  0.8130  1.4888  1.3119
  942MPD2    H213778   4.537   3.380  10.116 -0.0942 -1.4261 -0.7177
  942MPD2    H313779   4.669   3.184  10.100  1.5587 -0.8532  0.8770
  942MPD2     N13780   0.269   3.386   9.878 -0.4509 -0.0227  1.0456
  942MPD2    H513781   0.320   3.305   9.911 -0.5198  0.5898  2.6758
  942MPD2    N113782   4.586   3.621   9.987  0.4552  0.2664  0.0945
  942MPD2    H713783   4.633   3.693   9.933 -0.0863  0.4919 -0.0715
  943MPD2     C13784   0.012   1.496   9.677 -0.0715  0.1945  0.7439
  943MPD2    C113785   4.629   1.424   9.714 -0.2225  1.0624  0.5252
  943MPD2    C213786   4.577   1.341   9.616 -0.5827  0.6202 -0.4607
  943MPD2    C313787   4.649   1.303   9.503  0.5601  0.7793  0.3791
  943MPD2    C413788   0.038   1.372   9.475 -0.4021  0.2637  0.1359
  943MPD2    C513789   0.073   1.476   9.557 -0.0544 -0.9203  0.0084
  943MPD2     H13790   4.481   1.294   9.630 -0.3059  0.8540  2.2397
  943MPD2    H113791   0.095   1.357   9.384 -1.9068 -2.3676 -0.3564
  943MPD2    H213792   0.064   1.564   9.743 -2.5287  2.7745  0.0544
  943MPD2    H313793   0.169   1.524   9.541 -1.8872  2.2511 -1.4490
  943MPD2     N13794   4.597   1.222   9.408 -0.4657 -0.3637  0.1839
  943MPD2    H513795   4.647   1.218   9.320  0.7422 -1.7503  0.9350
  943MPD2    N113796   4.571   1.449   9.841 -0.3675  0.6894  0.0987
  943MPD2    H713797   4.609   1.519   9.904 -0.3359  2.1509 -1.5379
  944MPD2     C13798   3.997   0.568  11.897 -0.3555  0.0216 -0.2222
  944MPD2    C113799   4.043   0.660  11.810 -0.2430  0.1933  0.2950
  944MPD2    C213800   3.982   0.782  11.794 -0.4369  0.1940  0.8536
  944MPD2    C313801   3.868   0.809  11.869  0.2450 -0.2282 -0.8742
  944MPD2    C413802   3.820   0.719  11.959  0.2681 -0.4319  0.3603
  944MPD2    C513803   3.889   0.601  11.979 -0.3864 -0.4093 -0.2347
  944MPD2     H13804   4.015   0.852  11.718  0.2659  0.6007  1.5328
  944MPD2    H113805   3.720   0.724  12.002 -0.3082  1.1657 -1.1780
  944MPD2    H213806   4.051   0.474  11.900 -3.0086 -1.4870  0.0037
  944MPD2    H313807   3.850   0.531  12.052 -0.5399  0.2725  0.3296
  944MPD2     N13808   3.790   0.917  11.824 -0.0614  0.4861  0.0620
  944MPD2    H513809   3.840   0.982  11.765 -1.2496  1.3971  0.0630
  944MPD2    N113810   4.144   0.608  11.732 -0.4090  0.5518 -0.2798
  944MPD2    H713811   4.148   0.507  11.743 -1.7530  0.3283 -1.7557
    1TCq1    O113812   1.631   1.361  14.774 -0.0681  0.1598  0.5955
    1TCq1    C113813   1.700   1.263  14.720  0.4141 -0.5796 -0.0207
    1TCq1    O213814   1.680   1.142  14.739  0.6902 -0.0453  0.0639
    1TCq1    C213815   1.821   1.322  14.656 -0.6035  0.9961  0.1407
    1TCq1    C313816   1.903   1.236  14.582 -0.2273  0.5396  0.5512
    1TCq1    C413817   2.037   1.245  14.584  0.7384 -1.0555  0.2292
    1TCq1    C513818   2.106   1.338  14.651  1.1128 -0.2510  0.5093
    1TCq1    C613819   2.027   1.426  14.720 -0.1124 -0.2224  1.3390
    1TCq1    C713820   1.892   1.424  14.724  0.3898 -0.0251  0.8091
    1TCq1    C813821   2.096   1.531  14.785  0.3095 -0.5380 -0.1951
    1TCq1    O413822   2.206   1.512  14.834 -0.1336  0.1066  0.2639
    1TCq1    C913823   2.109   1.149  14.513 -0.7505 -0.4307  0.7796
    1TCq1    O513824   2.041   1.061  14.453 -0.7977  0.4466 -0.4479
    1TCq1    O613825   2.234   1.151  14.513 -0.1435 -0.2595 -0.3923
    1TCq1    H113826   1.628   1.428  14.703 -0.5857 -2.0402 -1.4607
    1TCq1    H213827   1.865   1.148  14.532  0.8574 -0.7097  1.8913
    1TCq1    H313828   2.214   1.341  14.643  0.9439 -1.0852 -2.1461
    1TCq1    H413829   1.839   1.488  14.794 -0.0720 -0.5148  0.9080
    2MPD2     C13830   2.192   2.013  14.896  0.4237 -0.6605  0.0880
    2MPD2    C113831   2.119   2.001  14.781 -0.0299  0.3485 -0.6104
    2MPD2    C213832   2.070   1.883  14.746 -0.0626  0.1141  0.2589
    2MPD2    C313833   2.094   1.774  14.817  0.0097  0.1857 -0.4466
    2MPD2    C413834   2.180   1.778  14.923  0.0741 -0.2594 -0.4688
    2MPD2    C513835   2.228   1.898  14.961  0.0476 -0.3172 -0.0370
    2MPD2     H13836   2.034   1.871  14.644  2.8356  2.1218 -0.9831
    2MPD2    H113837   2.206   1.692  14.985 -3.1170 -1.2324 -0.5021
    2MPD2    H213838   2.215   2.107  14.944  0.3830 -0.9208  0.6186
    2MPD2    H313839   2.286   1.899  15.052 -0.2650  2.6085  0.1317
    2MPD2     N13840   2.037   1.651  14.772  0.0252  0.0082  0.1840
    2MPD2    H513841   1.971   1.652  14.695  0.0921 -3.9784  0.0311
    2MPD2    N113842   2.102   2.124  14.708  0.4738  0.0417 -0.7240
    2MPD2    H713843   2.152   2.208  14.738 -0.9190  0.2520  1.0236
    3TMC2    C113844   2.042   2.253  14.513 -0.0035  0.9772 -0.4799
    3TMC2    C213845   2.095   2.359  14.577  0.0747  0.7623 -0.2382
    3TMC2    C313846   2.117   2.479  14.507  0.4524 -0.4408  0.3314
    3TMC2    C413847   1.999   2.252  14.387 -0.6600 -0.7751 -0.3386
    3TMC2    C513848   2.006   2.374  14.327 -0.0134  0.0986 -0.4316
    3TMC2    C613849   2.069   2.484  14.377  0.3362  0.1559 -0.3822
    3TMC2     C13850   2.032   2.129  14.586  0.7446  0.2532 -0.3691
    3TMC2     O13851   1.958   2.048  14.541  0.2345 -0.6593 -0.4322
    3TMC2     H13852   2.103   2.375  14.684  1.2146 -0.3691 -0.1638
    3TMC2    H113853   1.972   2.159  14.338 -2.0714 -0.6927  0.2968
    3TMC2    H213854   2.061   2.580  14.328  1.4147  0.1338 -0.5924
    3TMC2    C713855   1.941   2.373  14.194 -0.2913 -0.5319 -0.1239
    3TMC2    C813856   2.187   2.592  14.562  1.0513  0.7864  0.6827
    3TMC2    O113857   1.907   2.268  14.143 -0.1523  0.1637 -0.1307
    3TMC2    O213858   2.188   2.703  14.507  0.4686 -0.5845  0.2499
    3TMC2    O513859   2.245   2.556  14.675 -0.1283 -0.1721  0.4005
    3TMC2    H513860   2.258   2.459  14.687  1.1873 -0.3295 -2.2761
    4MPD2     C13861   0.886   3.419  13.916 -0.0152  0.5501  0.5039
    4MPD2    C113862   0.917   3.410  13.786 -0.6562  0.0051 -0.7087
    4MPD2    C213863   1.042   3.368  13.753  0.0625 -1.1046 -0.2379
    4MPD2    C313864   1.132   3.346  13.851 -0.4059 -0.0196  0.0027
    4MPD2    C413865   1.110   3.367  13.988 -0.1594 -0.6170 -0.1667
    4MPD2    C513866   0.980   3.407  14.016 -0.0410  0.0713  0.3743
    4MPD2     H13867   1.077   3.365  13.650  2.1843 -2.3847  0.5206
    4MPD2    H113868   1.174   3.355  14.074 -0.3199 -1.1978 -0.1235
    4MPD2    H213869   0.780   3.437  13.933 -0.4895 -0.1905 -1.6665
    4MPD2    H313870   0.954   3.424  14.120 -1.4194 -2.3684  0.4186
    4MPD2     N13871   1.257   3.297  13.810 -0.1221 -0.0473  0.8280
    4MPD2    H513872   1.269   3.279  13.710 -1.4993 -0.3724  0.7100
    4MPD2    N113873   0.807   3.430  13.696  0.0692  0.2674  0.1941
    4MPD2    H713874   0.720   3.454  13.744 -0.2725 -1.5587  0.4824
    5TCq2    C113875   1.361   3.260  13.898  0.4197 -0.4768 -0.2333
    5TCq2    O213876   1.389   3.305  14.009 -0.4460 -0.4188 -0.1562
    5TCq2    C213877   1.463   3.186  13.828 -0.0532  0.1292  1.1191
    5TCq2    C313878   1.509   3.223  13.703  0.0292  0.9027 -0.5294
    5TCq2    C413879   1.607   3.151  13.646  0.2514 -0.2509  0.4948
    5TCq2    C513880   1.666   3.044  13.710 -0.4050 -0.1567  0.5901
    5TCq2    C613881   1.629   3.016  13.840  0.4656 -0.2258 -0.1817
    5TCq2    C713882   1.537   3.099  13.905 -0.0667 -0.0833 -0.2986
    5TCq2    C813883   1.664   2.895  13.910 -0.4205  0.0035 -0.1475
    5TCq2    O413884   1.635   2.892  14.030  0.1983  0.2264 -0.0825
    5TCq2    C913885   1.644   3.176  13.510 -0.0704  0.7962 -0.5699
    5TCq2    O513886   1.562   3.244  13.443  0.1750 -0.2530  0.3485
    5TCq2    O613887   1.732   3.097  13.468 -0.0481 -0.1517 -0.3428
    5TCq2    H213888   1.448   3.288  13.641 -0.0211  0.9128 -0.4694
    5TCq2    H313889   1.750   2.991  13.668  0.4054  1.1884  0.4913
    5TCq2    H413890   1.505   3.082  14.007  2.0558 -0.1669  0.3506
    6MPD1     C13891   0.762   4.622  12.219  0.0608  0.2116 -0.3535
    6MPD1    C113892   0.715   4.673  12.340  0.2631 -0.8752  0.0016
    6MPD1    C213893   0.668   4.590  12.432  0.9452 -0.4019  0.3386
    6MPD1    C313894   0.654   4.456  12.409 -0.2471 -0.2579  0.5434
    6MPD1    C413895   0.712   4.403  12.294  0.2115 -0.4404 -0.8372
    6MPD1    C513896   0.767   4.482  12.199 -0.0335  0.7246  0.4899
    6MPD1     H13897   0.641   4.626  12.530  0.5846 -0.6316  0.3259
    6MPD1    H113898   0.719   4.296  12.279  1.3197 -0.5507  0.4068
    6MPD1    H213899   0.767   4.682  12.129  1.2431  0.6268 -0.0046
    6MPD1    H313900   0.790   4.439  12.103 -0.1877 -1.1636  1.3027
    6MPD1     N13901   0.607   4.367  12.508  0.0076  0.7739 -0.3092
    6MPD1    H513902   0.600   4.271  12.475  0.1661  0.6510  0.0114
    6MPD1    N113903   0.689   0.087  12.342  0.3986  0.1513  0.5006
    6MPD1    H613904   0.771   0.131  12.301  0.3038 -0.0523  0.0878
    6MPD1    H713905   0.679   0.118  12.438 -0.7159  0.0152  0.4280
    7MPD2     C13906   0.328   4.113  13.335 -0.7112 -0.9334  0.4616
    7MPD2    C113907   0.354   4.032  13.227  0.6347 -0.2014 -0.4314
    7MPD2    C213908   0.375   3.899  13.255 -0.9473  0.3939 -0.3291
    7MPD2    C313909   0.366   3.846  13.379  0.9773 -0.3601  0.1002
    7MPD2    C413910   0.336   3.931  13.485  0.5668  1.1485  0.8449
    7MPD2    C513911   0.324   4.063  13.463 -0.5842 -0.5334 -0.1937
    7MPD2     H13912   0.396   3.830  13.175 -0.8991 -0.5516  0.4928
    7MPD2    H113913   0.322   3.889  13.584  1.5881 -1.0123  0.0582
    7MPD2    H213914   0.322   4.220  13.318  0.3581 -1.1958 -1.6757
    7MPD2    H313915   0.311   4.126  13.550  2.4030 -0.5857  0.2799
    7MPD2     N13916   0.389   3.707  13.397 -0.0772 -0.3424 -0.3817
    7MPD2    H513917   0.413   3.659  13.312 -2.0080 -1.0717 -0.5125
    7MPD2    N113918   0.379   4.073  13.095  0.1473  0.6808 -0.2878
    7MPD2    H713919   0.398   3.998  13.030 -0.0814  0.5435 -0.1967
    8TMC3    C113920   0.469   3.513  13.497  0.0066  0.2421  0.5338
    8TMC3    C213921   0.592   3.513  13.557 -0.0776 -0.4951 -0.1869
    8TMC3    C313922   0.686   3.443  13.485 -0.2823 -0.3534 -0.1056
    8TMC3    C413923   0.453   3.466  13.370  0.0574 -0.6876 -0.2001
    8TMC3    C513924   0.548   3.411  13.295 -0.1886  0.2313  0.9751
    8TMC3    C613925   0.667   3.398  13.359  0.6689 -0.1606  0.1484
    8TMC3     C13926   0.403   3.640  13.518 -0.3240  0.3801  0.0447
    8TMC3     O13927   0.413   3.683  13.632  0.1738 -0.3261  0.6626
    8TMC3     H13928   0.605   3.576  13.644 -0.7459 -1.3671  0.5412
    8TMC3    H113929   0.355   3.463  13.323 -0.5484 -0.1834  1.0264
    8TMC3    H213930   0.742   3.346  13.301 -0.9237 -1.2735 -0.9153
    8TMC3    C713931   0.569   3.500  13.179 -0.0564  0.5092 -0.6973
    8TMC3    C813932   0.811   3.409  13.559 -0.5586 -0.4008 -0.2964
    8TMC3    O113933   0.475   3.571  13.150  0.0180  0.0416  0.1306
    8TMC3    O213934   0.906   3.367  13.491  0.2617 -0.2315 -0.1872
    9TMC3    C113935   0.490   4.274  12.685  0.1010  0.2900  0.2464
    9TMC3    C213936   0.573   4.167  12.658 -0.1505 -0.6890 -0.0423
    9TMC3    C313937   0.587   4.081  12.761 -0.6725  0.2968  0.6285
    9TMC3    C413938   0.436   4.301  12.811  0.7417 -0.0505  0.1037
    9TMC3    C513939   0.455   4.203  12.907 -0.1484 -0.0622 -0.6460
    9TMC3    C613940   0.532   4.096  12.882 -0.3834 -0.0358 -0.0672
    9TMC3     C13941   0.544   4.395  12.624 -0.0402  0.4424 -0.1775
    9TMC3     O13942   0.507   4.505  12.663 -0.5354 -0.4561  0.3178
    9TMC3     H13943   0.610   4.140  12.560 -0.7605 -1.5499 -0.0455
    9TMC3    H113944   0.371   4.382  12.840 -0.4217 -1.0665  0.3269
    9TMC3    H213945   0.578   4.037  12.961 -1.2995  0.1921  0.6319
    9TMC3    C713946   0.388   4.201  13.040  0.1125  0.6675 -0.3597
    9TMC3    C813947   0.654   3.956  12.730 -0.4097  0.4222 -0.0489
    9TMC3    O113948   0.347   4.306  13.088  0.8009 -0.2493  0.3054
    9TMC3    O213949   0.733   3.960  12.638  0.1592  0.4330 -1.2458
   10MPD2     C13950   0.863   3.546  12.962 -0.7031  0.0089 -0.1380
   10MPD2    C113951   0.739   3.565  13.016  0.6409 -0.1358  0.7951
   10MPD2    C213952   0.660   3.661  12.954  0.3310  0.3188 -0.7464
   10MPD2    C313953   0.716   3.746  12.856 -0.3271  0.2083  0.6113
   10MPD2    C413954   0.849   3.731  12.813  0.3288  0.3066  0.4351
   10MPD2    C513955   0.912   3.615  12.857  0.0190  0.2430 -0.8086
   10MPD2     H13956   0.557   3.675  12.984  0.2816 -1.6328  0.0052
   10MPD2    H113957   0.902   3.805  12.754  0.8349 -0.3463  0.0723
   10MPD2    H213958   0.935   3.473  12.996 -1.1181 -0.0848  0.5308
   10MPD2    H313959   1.015   3.597  12.829 -0.0331 -0.5282 -0.5075
   10MPD2     N13960   0.632   3.856  12.823  0.3152  0.3018 -0.0074
   10MPD2    H513961   0.548   3.862  12.880 -2.2667  1.5982 -3.9653
   10MPD2    N113962   0.689   3.485  13.118 -0.2646 -0.4491  0.4057
   10MPD2    H713963   0.751   3.412  13.151  0.9714  0.3324 -0.2132
   11MPD2     C13964   1.843   2.424  13.917 -0.2681 -0.1948  0.6832
   11MPD2    C113965   1.852   2.525  14.016 -0.9130  0.5395  0.3224
   11MPD2    C213966   1.808   2.655  13.980  0.1483  0.0535  0.0832
   11MPD2    C313967   1.757   2.675  13.859 -0.5104 -0.1253  1.2467
   11MPD2    C413968   1.753   2.580  13.760  0.8209 -1.0611 -0.6379
   11MPD2    C513969   1.789   2.448  13.789  0.1470  0.5556 -0.9257
   11MPD2     H13970   1.814   2.737  14.051 -0.7178 -0.6782  1.0024
   11MPD2    H113971   1.715   2.596  13.660 -2.4348 -0.5646  0.6755
   11MPD2    H213972   1.877   2.323  13.936  0.8943 -0.1870 -1.3125
   11MPD2    H313973   1.805   2.371  13.714  0.3363 -0.3467  0.0503
   11MPD2     N13974   1.703   2.797  13.822 -0.1519  0.0250  0.2393
   11MPD2    H513975   1.709   2.823  13.724 -2.6812  1.5549  0.4702
   11MPD2    N113976   1.906   2.502  14.150 -0.5632  0.0484 -0.0753
   11MPD2    H713977   1.900   2.575  14.220  1.4855  1.8790 -1.8340
    1MPD1     C13978   3.660   0.113  16.890  0.0942  0.0350  0.1258
    1MPD1    C113979   3.759   0.124  16.981 -0.5650  0.3085  0.0584
    1MPD1    C213980   3.831   0.004  17.017 -0.7145  0.4528 -0.5814
    1MPD1    C313981   3.804   4.615  16.939  0.1166 -0.1772  0.4373
    1MPD1    C413982   3.717   4.618  16.835  0.1109 -0.5190 -0.3278
    1MPD1    C513983   3.644   4.726  16.813  0.7870 -0.4130  0.2368
    1MPD1     H13984   3.910   0.006  17.091 -2.8337 -0.5226  1.6725
    1MPD1    H113985   3.690   4.528  16.780  1.9535  0.3585 -2.6500
    1MPD1    H213986   3.599   0.199  16.865 -0.1142 -0.5714 -1.4089
    1MPD1    H313987   3.557   4.725  16.748  1.6892 -2.0314 -0.9236
    1MPD1     N13988   3.876   4.488  16.959  0.4880  0.2063 -0.0203
    1MPD1    H513989   3.855   4.421  16.886  3.2125  0.1116 -0.7016
    1MPD1    N113990   3.753   0.240  17.061  0.2297  0.6132  0.3128
    1MPD1    H613991   3.837   0.272  17.108  0.4009  1.0817 -0.3035
    1MPD1    H713992   3.702   0.313  17.012  0.5291  1.4879  1.3007
    2MPD1     C13993   4.701   4.218  17.485 -0.1453  0.0633  0.4490
    2MPD1    C113994   4.673   4.314  17.386  0.3840 -0.0284  0.6208
    2MPD1    C213995   4.562   4.309  17.315 -0.4045 -1.0374 -0.2641
    2MPD1    C313996   4.467   4.212  17.335  0.3672  0.1752 -0.2950
    2MPD1    C413997   4.494   4.104  17.415 -0.3003 -0.1737 -1.0789
    2MPD1    C513998   4.604   4.120  17.499  0.8211 -0.3536 -0.7505
    2MPD1     H13999   4.543   4.389  17.244 -2.1090 -0.8251  0.4387
    2MPD1    H114000   4.426   4.021  17.432  0.3761 -0.7288 -1.0807
    2MPD1    H214001   0.063   4.227  17.547  1.2666 -1.7449 -1.3040
    2MPD1    H314002   4.633   4.042  17.568  1.2043 -0.2547 -0.7972
    2MPD1     N14003   4.360   4.210  17.243 -0.7181 -0.0573 -0.1005
    2MPD1    H514004   4.354   4.290  17.180 -0.8330  0.0580  0.0559
    2MPD1    N114005   0.046   4.409  17.353  0.4045  0.1480  0.1697
    2MPD1    H614006   0.008   4.497  17.316  1.9188  0.2390 -1.2004
    2MPD1    H714007   0.127   4.423  17.412  0.1811 -0.5795  0.6377
    3TMC3    C114008   4.153   4.152  17.144 -0.3148  0.3417  0.5221
    3TMC3    C214009   4.095   4.064  17.064 -0.8143  0.3658  0.6819
    3TMC3    C314010   3.985   4.101  16.987 -0.4570  1.0529  0.3621
    3TMC3    C414011   4.097   4.275  17.154 -0.4063  0.5226 -0.5782
    3TMC3    C514012   3.992   4.315  17.078  0.8736  0.2662  0.5992
    3TMC3    C614013   3.933   4.225  16.991  0.2573  1.0950  0.1644
    3TMC3     C14014   4.258   4.114  17.237 -0.4215  0.1130  0.2958
    3TMC3     O14015   4.248   4.006  17.294 -0.8287  0.2769 -0.0837
    3TMC3     H14016   4.122   3.960  17.079 -0.2004  0.3624 -0.4247
    3TMC3    H114017   4.128   4.348  17.229  0.2116  0.4900 -0.8045
    3TMC3    H214018   3.848   4.250  16.928 -0.8261 -2.4388  0.2072
    3TMC3    C714019   3.946   4.450  17.075 -0.6520 -0.4221  0.4106
    3TMC3    C814020   3.950   4.021  16.871  0.5342  0.0287 -0.7772
    3TMC3    O114021   3.970   4.520  17.176  0.1175 -0.1260 -0.3506
    3TMC3    O214022   3.855   4.060  16.802  0.4543  0.5934  0.3067
    4MPD1     C14023   4.106   3.758  16.465  0.8986 -0.0759  0.0754
    4MPD1    C114024   4.216   3.775  16.546  0.6720  0.1091  0.1911
    4MPD1    C214025   4.185   3.831  16.670 -0.1978 -1.1637 -0.1561
    4MPD1    C314026   4.055   3.869  16.713 -0.3099  0.2509 -0.6618
    4MPD1    C414027   3.951   3.840  16.632  0.3803  0.0491  0.5533
    4MPD1    C514028   3.975   3.787  16.508 -0.4777  0.3931  0.1088
    4MPD1     H14029   4.258   3.850  16.749 -1.7645 -2.0463  1.4924
    4MPD1    H114030   3.847   3.864  16.651  0.6206  1.1970  0.4331
    4MPD1    H214031   4.112   3.733  16.360  0.1607  0.3641 -0.0754
    4MPD1    H314032   3.893   3.761  16.442 -0.0591  0.7708 -0.5649
    4MPD1     N14033   4.052   3.935  16.832  0.0421  0.2986  0.0038
    4MPD1    H514034   4.136   3.945  16.888  0.3613  0.5883 -0.5251
    4MPD1    N114035   4.348   3.766  16.498  0.4107  0.2199  0.4915
    4MPD1    H614036   4.411   3.749  16.576 -1.0648 -1.6514  1.2878
    4MPD1    H714037   4.359   3.693  16.428 -0.5728 -1.5879  2.2266
    1TCq1    O114038   0.494   0.796  10.382  0.4173 -0.3602 -0.4677
    1TCq1    C114039   0.550   0.863  10.479  0.3000 -0.0891  1.2113
    1TCq1    O214040   0.601   0.972  10.481  1.1107  0.1987 -0.3601
    1TCq1    C214041   0.568   0.764  10.585  0.4458 -0.0814 -0.4906
    1TCq1    C314042   0.566   0.805  10.719 -1.0018  0.3180 -0.5252
    1TCq1    C414043   0.607   0.709  10.812 -0.2014 -0.0234 -0.2597
    1TCq1    C514044   0.624   0.577  10.783  0.2288  0.4245  0.8020
    1TCq1    C614045   0.631   0.546  10.650 -0.7334  0.0526 -0.5270
    1TCq1    C714046   0.606   0.637  10.552  0.1963 -0.4136 -0.0275
    1TCq1    C814047   0.693   0.424  10.619 -0.4083 -0.1450  0.4725
    1TCq1    O414048   0.771   0.431  10.521 -0.0437 -0.0230 -0.2526
    1TCq1    C914049   0.581   0.744  10.953 -0.2099 -0.5971  0.7584
    1TCq1    O514050   0.518   0.850  10.981 -0.4238  0.4377  0.0564
    1TCq1    O614051   0.643   0.675  11.036  0.1989 -0.1587  0.2952
    1TCq1    H114052   0.447   0.717  10.418 -0.0332 -0.2740 -0.8572
    1TCq1    H214053   0.564   0.907  10.757 -0.0439 -0.3723  1.3595
    1TCq1    H314054   0.636   0.501  10.860 -0.2341 -0.1785  0.2711
    1TCq1    H414055   0.624   0.603  10.451  2.1853  1.9334 -0.4560
    2MPD1     C14056   0.837   4.671  10.716  0.4591 -0.3264 -0.8838
    2MPD1    C114057   0.727   4.701  10.792 -0.4611  0.4727 -0.0535
    2MPD1    C214058   0.680   0.101  10.793  0.2613 -0.5165  0.4929
    2MPD1    C314059   0.732   0.195  10.707 -0.5260 -0.8453 -0.7752
    2MPD1    C414060   0.846   0.173  10.631  0.0749 -0.4252 -0.0299
    2MPD1    C514061   0.895   0.046  10.651 -0.6137 -0.8388  0.1803
    2MPD1     H14062   0.596   0.131  10.855  1.6527  3.0135  0.6516
    2MPD1    H114063   0.894   0.247  10.568 -0.1508 -0.7649 -0.6032
    2MPD1    H214064   0.884   4.573  10.725 -0.7942 -0.7303  1.2318
    2MPD1    H314065   0.992   0.019  10.610 -0.2065 -0.9975  1.2641
    2MPD1     N14066   0.660   0.321  10.703 -0.2405  0.6791 -0.0911
    2MPD1    H514067   0.597   0.347  10.778 -1.0480 -0.7968 -0.2648
    2MPD1    N114068   0.676   4.611  10.886 -0.4669 -0.1872 -0.9577
    2MPD1    H614069   0.690   4.514  10.860 -1.3344 -0.3936 -0.6495
    2MPD1    H714070   0.578   4.639  10.893 -0.2222  0.5657 -0.5519
    1TCq1    O114071   2.606   1.106   2.149  0.3565  0.2118 -0.0134
    1TCq1    C114072   2.578   1.223   2.102 -1.0484  0.1744  0.0773
    1TCq1    O214073   2.631   1.325   2.147 -0.0473  0.6968 -0.0331
    1TCq1    C214074   2.438   1.212   2.059 -0.8835 -0.7145 -1.1816
    1TCq1    C314075   2.347   1.315   2.080 -0.3643  0.8402 -0.5701
    1TCq1    C414076   2.214   1.288   2.070 -0.5274 -0.5818  0.3191
    1TCq1    C514077   2.171   1.177   2.004 -0.0036  0.3763  0.3953
    1TCq1    C614078   2.264   1.081   1.968 -0.0160  0.6138  0.5971
    1TCq1    C714079   2.395   1.096   2.001  0.5617  0.1976 -0.2909
    1TCq1    C814080   2.232   0.974   1.867 -0.1505 -0.9176  0.0394
    1TCq1    O414081   2.310   0.877   1.861  0.2124 -0.3612  0.8812
    1TCq1    C914082   2.110   1.388   2.098 -0.2581  0.7346  0.0317
    1TCq1    O514083   1.993   1.357   2.069  0.4912  0.3666  0.3627
    1TCq1    O614084   2.155   1.513   2.104 -0.0124 -0.0865  0.0992
    1TCq1    H114085   2.540   1.034   2.158 -1.0661  1.3143 -1.7904
    1TCq1    H214086   2.375   1.405   2.135  1.5998  1.8858 -3.3042
    1TCq1    H314087   2.066   1.165   1.979  0.3652  0.6878 -1.3064
    1TCq1    H414088   2.464   1.022   1.962 -1.1613 -0.4336 -2.1945
    2MPD1     C14089   1.923   0.775   1.508 -0.0909 -0.3795 -0.4988
    2MPD1    C114090   1.889   0.909   1.526 -0.3451  0.4389 -0.1715
    2MPD1    C214091   1.950   0.975   1.634 -0.1067  1.0466 -0.5183
    2MPD1    C314092   2.059   0.921   1.701  0.3633 -0.7808 -0.4390
    2MPD1    C414093   2.096   0.786   1.673 -0.3274 -0.5152  0.1025
    2MPD1    C514094   2.024   0.717   1.575 -0.7134 -0.3838  0.3952
    2MPD1     H14095   1.920   1.073   1.670  0.1983  1.1869 -0.6529
    2MPD1    H114096   2.169   0.725   1.725  0.2141  0.7822  0.8708
    2MPD1    H214097   1.864   0.722   1.435  0.4471  1.4046 -2.2419
    2MPD1    H314098   2.047   0.616   1.545 -1.1231 -0.1457 -0.6952
    2MPD1     N14099   2.123   1.008   1.794 -0.0171 -0.2313  0.1740
    2MPD1    H514100   2.078   1.098   1.804 -0.2883 -0.4103  0.5511
    2MPD1    N114101   1.788   0.970   1.450 -0.0426 -0.5314  0.3898
    2MPD1    H614102   1.808   1.069   1.441  0.1344 -0.4310  1.8286
    2MPD1    H714103   1.777   0.934   1.355 -1.3224  0.6207  0.1045
    1MPD1     C14104   1.783   2.830  12.027 -0.7259  0.5594 -0.3399
    1MPD1    C114105   1.850   2.815  12.146 -0.2203  0.2164 -0.1031
    1MPD1    C214106   1.867   2.927  12.220  0.3904  0.1794  0.8284
    1MPD1    C314107   1.842   3.053  12.167 -0.3088  0.1944  0.2398
    1MPD1    C414108   1.812   3.067  12.035 -0.7020  0.2753  0.0577
    1MPD1    C514109   1.768   2.957  11.968 -0.2204 -0.4354 -0.4839
    1MPD1     H14110   1.894   2.927  12.325  2.7901  0.3450  0.2030
    1MPD1    H114111   1.808   3.159  11.978 -1.6903  0.8782  1.1147
    1MPD1    H214112   1.749   2.748  11.965  0.6013  0.6441 -1.1564
    1MPD1    H314113   1.723   2.964  11.870  0.0456 -0.1827 -0.5862
    1MPD1     N14114   1.872   3.168  12.249  0.6012 -0.7005 -0.1209
    1MPD1    H514115   1.899   3.160  12.347 -0.5269  1.7056  0.3986
    1MPD1    N114116   1.868   2.682  12.196  0.1402 -0.3131  0.0787
    1MPD1    H614117   1.948   2.673  12.259 -0.6103  0.0807  1.0770
    1MPD1    H714118   1.885   2.616  12.119 -0.0754  0.0724 -0.2972
    2MPD1     C14119   1.490   4.447  11.755  0.4015 -0.4282  0.4900
    2MPD1    C114120   1.514   4.503  11.626 -0.0791  0.0221 -0.0598
    2MPD1    C214121   1.615   4.471  11.546  0.0754  1.0408 -0.4032
    2MPD1    C314122   1.705   4.368  11.580  0.1543  0.3504 -0.2028
    2MPD1    C414123   1.682   4.310  11.707  0.2346 -1.1110 -0.1488
    2MPD1    C514124   1.574   4.345  11.793 -0.0121 -0.0914  0.2785
    2MPD1     H14125   1.635   4.525  11.454 -0.8562 -0.6708 -1.6197
    2MPD1    H114126   1.748   4.235  11.747  1.8197  0.6501  0.5173
    2MPD1    H214127   1.400   4.477  11.807 -0.6681  1.0098 -2.2038
    2MPD1    H314128   1.561   4.291  11.887  2.0279  0.9231  1.1516
    2MPD1     N14129   1.812   4.317  11.505 -0.4604  0.2549  0.5415
    2MPD1    H514130   1.871   4.245  11.547 -0.1575  0.7198  0.9065
    2MPD1    N114131   1.404   4.556  11.563 -0.0461  0.0818  0.4367
    2MPD1    H614132   1.430   4.628  11.496  0.9360  1.6352  2.4703
    2MPD1    H714133   1.345   4.604  11.631  0.2976  1.0528  0.0430
    3MPD1     C14134   1.893   3.823  10.653 -0.2833  0.2020 -0.1704
    3MPD1    C114135   1.823   3.799  10.770  0.8312  0.4960  0.2036
    3MPD1    C214136   1.860   3.878  10.881  0.4557  0.2117  0.0517
    3MPD1    C314137   1.962   3.974  10.874 -0.4572 -0.7309  0.0554
    3MPD1    C414138   2.028   3.996  10.759  0.6244  0.0325 -0.4745
    3MPD1    C514139   1.999   3.909  10.652 -0.0366  0.0803 -0.6576
    3MPD1     H14140   1.804   3.882  10.974 -2.0608  1.9965 -1.5224
    3MPD1    H114141   2.108   4.069  10.756  1.9419 -1.4434 -1.2535
    3MPD1    H214142   1.864   3.775  10.560  0.4386 -0.0290 -0.2762
    3MPD1    H314143   2.055   3.922  10.560  1.3412  2.7205  0.5278
    3MPD1     N14144   1.971   4.063  10.987 -0.3638  0.4077  0.2748
    3MPD1    H514145   1.915   4.034  11.067 -0.5124 -1.7360 -0.5829
    3MPD1    N114146   1.714   3.714  10.772  0.1968 -0.2843  0.3986
    3MPD1    H614147   1.724   3.635  10.709 -3.2306 -1.2688  1.0648
    3MPD1    H714148   1.714   3.671  10.865  2.0197  0.5699  0.7923
    4MPD2     C14149   1.937   3.994  12.407  0.2654  0.2681 -0.5034
    4MPD2    C114150   2.020   3.885  12.386 -0.3738 -0.2086 -0.9016
    4MPD2    C214151   2.149   3.904  12.351 -0.0485 -0.1818  0.0019
    4MPD2    C314152   2.196   4.035  12.333  0.0231  0.7461  0.4389
    4MPD2    C414153   2.108   4.137  12.330 -0.0919  0.1437 -0.4639
    4MPD2    C514154   1.983   4.116  12.362  0.3506  0.2108 -0.4322
    4MPD2     H14155   2.222   3.824  12.345 -0.6566 -0.8016  0.9565
    4MPD2    H114156   2.130   4.240  12.303 -0.1751  0.1257 -0.6051
    4MPD2    H214157   1.832   3.985  12.435  0.7822  0.9269  1.6655
    4MPD2    H314158   1.920   4.205  12.371 -0.1665 -0.3037  0.9350
    4MPD2     N14159   2.331   4.061  12.297  0.0984  1.0897 -0.0830
    4MPD2    H514160   2.354   4.154  12.265 -1.3938  1.2444 -0.7428
    4MPD2    N114161   1.981   3.756  12.416 -0.0807 -0.5447  0.0028
    4MPD2    H714162   2.057   3.689  12.412  2.0460  1.8396  0.3621
    5TMC3    C114163   1.862   3.564  12.475 -0.3252 -0.0633 -0.5516
    5TMC3    C214164   1.804   3.490  12.375 -0.2287  1.3436 -0.1303
    5TMC3    C314165   1.875   3.379  12.335 -0.0116 -0.1927 -0.3846
    5TMC3    C414166   1.981   3.537  12.533  0.8906  0.2234 -0.6193
    5TMC3    C514167   2.053   3.430  12.483  0.1548  1.0504 -0.7342
    5TMC3    C614168   2.004   3.359  12.378 -0.5512  0.2658 -0.1547
    5TMC3     C14169   1.858   3.706  12.451 -0.0989  0.1260  0.4388
    5TMC3     O14170   1.750   3.757  12.415  0.2439  0.3122  0.0460
    5TMC3     H14171   1.708   3.518  12.334  0.5376 -0.4436 -3.1722
    5TMC3    H114172   2.021   3.602  12.609 -2.8175 -0.8648  2.2410
    5TMC3    H214173   2.081   3.307  12.322  0.4201 -0.0138  1.4183
    5TMC3    C714174   2.190   3.469  12.457  0.2580  0.3816  0.0234
    5TMC3    C814175   1.826   3.297  12.232  0.0528 -0.2143 -0.2666
    5TMC3    O114176   2.208   3.591  12.453 -0.1380  0.0337  0.1593
    5TMC3    O214177   1.758   3.351  12.145 -0.4636  0.5116 -0.0597
    6TMC3    C114178   1.950   4.278  11.323 -0.5974 -0.2205 -0.3063
    6TMC3    C214179   1.957   4.250  11.189  0.9643  0.5204  0.4038
    6TMC3    C314180   2.075   4.213  11.134 -0.2709 -0.9826 -1.0735
    6TMC3    C414181   2.059   4.293  11.399  0.1662  0.6864 -0.3356
    6TMC3    C514182   2.178   4.262  11.341 -0.3641 -0.8553  0.4429
    6TMC3    C614183   2.189   4.224  11.208 -1.2244 -0.8564 -0.8328
    6TMC3     C14184   1.828   4.342  11.375 -0.6847  0.7841 -0.2427
    6TMC3     O14185   1.760   4.410  11.296 -0.6761  0.5191  0.0791
    6TMC3     H14186   1.867   4.225  11.135  0.9363  0.4318  0.4916
    6TMC3    H114187   2.061   4.329  11.501 -0.8900 -1.0307  0.2939
    6TMC3    H214188   2.282   4.190  11.164 -0.4630 -2.3287  1.8899
    6TMC3    C714189   2.286   4.251  11.438  0.7101 -0.3769 -0.7238
    6TMC3    C814190   2.067   4.160  10.998  0.2763  0.7562 -0.5953
    6TMC3    O114191   2.264   4.254  11.558  0.0925  0.1026  0.2356
    6TMC3    O214192   2.164   4.192  10.934  0.3719  0.0316  0.4094
    7MPD2     C14193   2.612   3.411  12.168 -0.1597 -0.5423 -0.1179
    7MPD2    C114194   2.552   3.521  12.217  0.7522 -0.0399  0.4213
    7MPD2    C214195   2.445   3.505  12.309  0.8595 -0.2030 -0.1703
    7MPD2    C314196   2.395   3.383  12.343 -0.1505 -0.4156  0.1744
    7MPD2    C414197   2.454   3.270  12.286  0.3060  0.2849  0.0182
    7MPD2    C514198   2.558   3.286  12.197 -0.0587  0.3472 -0.6889
    7MPD2     H14199   2.413   3.601  12.348 -0.7422 -0.4497 -0.9105
    7MPD2    H114200   2.409   3.171  12.287  1.6843 -0.3670 -1.7127
    7MPD2    H214201   2.685   3.419  12.087  1.6124 -0.5549  1.4754
    7MPD2    H314202   2.596   3.198  12.147  0.8616 -0.9873  2.3601
    7MPD2     N14203   2.272   3.370  12.419  0.5655  0.7471  0.2475
    7MPD2    H514204   2.235   3.275  12.423 -3.0766  2.0581 -1.7282
    7MPD2    N114205   2.588   3.658  12.189 -0.0864  0.5950  0.2079
    7MPD2    H714206   2.527   3.734  12.219  1.9245  2.0533  0.6190
    8TMC3    C114207   2.697   3.847  12.102 -0.1898 -0.2375 -0.0997
    8TMC3    C214208   2.663   3.909  11.983 -0.1049  0.2220 -0.1128
    8TMC3    C314209   2.598   4.029  11.978 -1.1141 -0.3189 -0.0309
    8TMC3    C414210   2.639   3.897  12.210  0.3297  0.0974  0.4804
    8TMC3    C514211   2.551   4.010  12.202  0.2879 -0.0562 -0.0044
    8TMC3    C614212   2.519   4.073  12.084 -0.1270  0.1869  1.0881
    8TMC3     C14213   2.694   3.700  12.111  0.2948  0.1869  0.4837
    8TMC3     O14214   2.772   3.635  12.050  0.3471 -0.3627 -0.1055
    8TMC3     H14215   2.708   3.856  11.900 -1.3503 -0.3424 -0.4262
    8TMC3    H114216   2.668   3.864  12.309 -3.0257  0.9813  1.7289
    8TMC3    H214217   2.471   4.170  12.082 -0.2343  0.1277  0.8281
    8TMC3    C714218   2.433   3.973  12.289  0.2767 -0.1293  0.1513
    8TMC3    C814219   2.567   4.093  11.857 -0.2237  0.7371  0.3717
    8TMC3    O114220   2.449   3.867  12.350  0.1667  0.4832 -0.3891
    8TMC3    O214221   2.474   4.172  11.851  0.2245  0.0229  0.2135
    9MPD2     C14222   2.759   4.064  11.540 -0.2517  0.1444 -0.0302
    9MPD2    C114223   2.651   4.092  11.622  0.0177  0.4158 -0.0633
    9MPD2    C214224   2.527   4.143  11.570 -0.2508  0.2505  0.1527
    9MPD2    C314225   2.522   4.174  11.437 -0.5016  0.2843 -0.0441
    9MPD2    C414226   2.632   4.157  11.358  0.4581  0.0851 -0.6511
    9MPD2    C514227   2.739   4.084  11.408  0.6246  0.4187 -0.2233
    9MPD2     H14228   2.438   4.162  11.628  1.0718 -0.9104  2.5677
    9MPD2    H114229   2.620   4.161  11.250  0.1394 -0.1657 -0.6258
    9MPD2    H214230   2.849   4.024  11.585 -0.5495  0.1197  0.5433
    9MPD2    H314231   2.828   4.064  11.349 -0.5945 -0.9642 -1.6324
    9MPD2     N14232   2.405   4.234  11.375 -0.4756 -0.0956  0.1909
    9MPD2    H514233   2.411   4.244  11.274 -1.1700  1.5497  0.3091
    9MPD2    N114234   2.662   4.064  11.756 -0.3756 -0.5951  0.0971
    9MPD2    H714235   2.746   4.013  11.782 -0.5699 -0.5619  0.7840
    1MPD1     C14236   2.790   3.075  16.542  0.4748 -0.0849  0.9808
    1MPD1    C114237   2.674   3.004  16.549  0.7343 -0.5664  0.2785
    1MPD1    C214238   2.611   2.995  16.671 -0.0097 -0.0900  0.2453
    1MPD1    C314239   2.663   3.052  16.784 -0.5603 -0.3640 -0.4051
    1MPD1    C414240   2.774   3.129  16.770  0.1901  0.0796  0.4515
    1MPD1    C514241   2.841   3.133  16.651 -0.7493 -0.4948  0.3973
    1MPD1     H14242   2.520   2.936  16.677  0.2418 -0.5147 -0.1952
    1MPD1    H114243   2.810   3.177  16.861 -1.1251  0.4996  0.7426
    1MPD1    H214244   2.846   3.080  16.449  2.0237 -0.6535  1.8794
    1MPD1    H314245   2.942   3.170  16.647 -1.4561  1.3198 -0.5513
    1MPD1     N14246   2.595   3.053  16.909 -0.4187 -0.1018 -0.5613
    1MPD1    H514247   2.641   3.096  16.989  1.7978 -1.4496 -1.1200
    1MPD1    N114248   2.628   2.926  16.442  0.5570 -0.4964 -0.1219
    1MPD1    H614249   2.643   2.969  16.351 -2.7551  1.4056  0.2080
    1MPD1    H714250   2.533   2.889  16.441  0.2643  0.2283  0.4687
    2MPD1     C14251   1.664   2.727  17.141  0.1055  0.1717  0.1937
    2MPD1    C114252   1.757   2.684  17.052  0.3845 -0.4882  0.5885
    2MPD1    C214253   1.886   2.730  17.064 -0.3393  0.1731  0.2124
    2MPD1    C314254   1.915   2.828  17.158  0.2295 -0.4838 -0.0774
    2MPD1    C414255   1.809   2.903  17.209 -0.3137 -0.2537 -0.5955
    2MPD1    C514256   1.685   2.842  17.207 -0.3710 -0.4563 -0.3418
    2MPD1     H14257   1.968   2.686  17.008 -0.3909 -0.6404  0.7745
    2MPD1    H114258   1.819   3.001  17.256 -1.7001  0.6551 -2.2008
    2MPD1    H214259   1.568   2.679  17.161 -0.8021  1.3462 -1.4026
    2MPD1    H314260   1.600   2.883  17.261 -0.0134  2.2732 -1.8603
    2MPD1     N14261   2.055   2.874  17.161 -0.3897 -0.1901 -0.4140
    2MPD1    H514262   2.112   2.830  17.091  0.0220 -0.0677 -0.1550
    2MPD1    N114263   1.723   2.585  16.956  0.6387  0.2648  0.1692
    2MPD1    H614264   1.777   2.586  16.870  1.3275  0.4576  0.6033
    2MPD1    H714265   1.625   2.596  16.930  0.6153  0.9466  0.5294
    3TCq2    C114266   2.107   2.959  17.255  0.3696  0.6828  0.3379
    3TCq2    O214267   2.063   2.989  17.364  0.6141 -0.3021  0.8393
    3TCq2    C214268   2.242   3.009  17.217 -0.1530  0.4491  0.1509
    3TCq2    C314269   2.320   3.058  17.320 -0.0996  0.2423  0.1460
    3TCq2    C414270   2.449   3.090  17.291  0.2534 -0.1668 -0.2464
    3TCq2    C514271   2.499   3.073  17.162 -0.0666 -0.0587 -0.6547
    3TCq2    C614272   2.424   3.021  17.065  0.6393 -0.3814 -0.1599
    3TCq2    C714273   2.287   2.996  17.086  0.1179 -0.2902 -0.2242
    3TCq2    C814274   2.467   3.004  16.930  0.2974  0.2485  0.3360
    3TCq2    O414275   2.393   2.949  16.848 -0.2097  0.0838  0.5221
    3TCq2    C914276   2.525   3.151  17.391 -0.5195  0.4286  0.1685
    3TCq2    O514277   2.624   3.213  17.352  0.1079 -0.0906 -0.0287
    3TCq2    O614278   2.475   3.156  17.505  0.0351  0.1729  0.2827
    3TCq2    H214279   2.274   3.062  17.418 -1.7643 -1.1852 -0.5648
    3TCq2    H314280   2.602   3.107  17.153  0.3394 -0.1013  3.6808
    3TCq2    H414281   2.215   2.981  17.007 -0.2666 -1.5525  0.3606
    1TCq1    O114282   0.520   2.094  13.402 -0.1276  0.5033 -0.3438
    1TCq1    C114283   0.506   1.975  13.464 -0.1314  0.1285  0.0152
    1TCq1    O214284   0.582   1.883  13.452 -0.7670 -0.6056 -0.5175
    1TCq1    C214285   0.482   2.027  13.592  0.0953 -0.0456 -0.5258
    1TCq1    C314286   0.374   2.108  13.616  0.3315 -0.2971 -0.4883
    1TCq1    C414287   0.364   2.153  13.748 -0.1119 -0.0292 -0.6648
    1TCq1    C514288   0.463   2.130  13.849  0.0656  0.1634  0.6856
    1TCq1    C614289   0.565   2.043  13.815 -0.5571  0.0656 -0.7798
    1TCq1    C714290   0.579   1.997  13.685 -0.2407 -0.3609 -0.2538
    1TCq1    C814291   0.657   1.989  13.912 -0.5669 -0.1389  0.4279
    1TCq1    O414292   0.751   1.918  13.875 -0.3902 -0.4242 -0.3222
    1TCq1    C914293   0.259   2.240  13.776  0.5270  0.0397  0.0037
    1TCq1    O514294   0.298   2.333  13.853 -0.6021  0.4718  0.2299
    1TCq1    O614295   0.154   2.246  13.707 -0.9524 -0.1742  0.2264
    1TCq1    H114296   0.458   2.162  13.435  1.4735  1.6824  0.2068
    1TCq1    H214297   0.299   2.129  13.540  0.1059  0.2772 -0.1098
    1TCq1    H314298   0.460   2.176  13.947  0.7829  1.9915 -0.1481
    1TCq1    H414299   0.667   1.942  13.653 -1.7781 -2.8313 -0.2662
    2MPD2     C14300   0.818   1.951  14.164  0.1774  0.5070 -0.2947
    2MPD2    C114301   0.680   1.980  14.160  0.2264 -0.4272  0.3753
    2MPD2    C214302   0.599   1.966  14.273 -0.2789 -0.2864  0.5670
    2MPD2    C314303   0.655   1.913  14.386  0.3227  1.0022  0.2964
    2MPD2    C414304   0.785   1.878  14.394  0.4752 -0.3765  0.5471
    2MPD2    C514305   0.867   1.903  14.284  0.6592  0.0873  0.2739
    2MPD2     H14306   0.492   1.985  14.271  0.2978  3.0233 -0.1023
    2MPD2    H114307   0.839   1.840  14.480  2.6787  0.7390 -0.3354
    2MPD2    H214308   0.883   1.964  14.079  1.1711 -0.0387  0.3877
    2MPD2    H314309   0.971   1.874  14.294  1.1217  1.3437 -0.8648
    2MPD2     N14310   0.566   1.879  14.492  0.3709  0.0906  0.3604
    2MPD2    H514311   0.472   1.916  14.477 -0.4338 -1.8387  0.6170
    2MPD2    N114312   0.618   2.017  14.042 -0.2956  0.0322  0.6246
    2MPD2    H714313   0.520   2.040  14.057 -0.8125 -2.5352  1.1991
    3TCq1    O114314   0.533   1.609  15.074  0.3479  0.1651 -0.8758
    3TCq1    C114315   0.413   1.606  15.008  0.7536  0.0368  0.4683
    3TCq1    O214316   0.315   1.561  15.065  0.8407 -0.2047 -0.0658
    3TCq1    C214317   0.404   1.698  14.894 -0.6299  0.3980 -0.3872
    3TCq1    C314318   0.284   1.749  14.869 -0.5961 -0.4599 -0.0004
    3TCq1    C414319   0.259   1.813  14.749 -0.0919 -0.4030  0.3204
    3TCq1    C514320   0.361   1.834  14.659 -0.0489  1.0862  0.1859
    3TCq1    C614321   0.486   1.778  14.689  0.5341 -0.3135  0.3845
    3TCq1    C714322   0.509   1.717  14.807 -0.1421 -0.2093  0.4059
    3TCq1    C814323   0.594   1.799  14.598  0.3123  0.1000  0.5167
    3TCq1    O414324   0.697   1.747  14.630  0.6848  0.2025 -0.7863
    3TCq1    C914325   0.127   1.862  14.719  1.0357  0.2895 -0.1159
    3TCq1    O514326   0.124   1.936  14.615  0.2615 -0.1661  1.2159
    3TCq1    O614327   0.039   1.852  14.805 -0.4773  0.5126 -0.3270
    3TCq1    H114328   0.606   1.657  15.030 -1.1704  0.9035 -2.5638
    3TCq1    H214329   0.206   1.741  14.944 -0.6195 -4.0051 -0.4014
    3TCq1    H314330   0.333   1.890  14.570  0.0487  0.8845  0.0290
    3TCq1    H414331   0.609   1.676  14.816  0.5531  1.1788 -0.8640
    1MPD2     C14332   4.172   2.815  15.284  0.6365  0.2663 -0.3802
    1MPD2    C114333   4.134   2.754  15.170 -0.0030  0.2081 -0.0357
    1MPD2    C214334   4.237   2.684  15.105 -0.5541 -0.3195  0.0662
    1MPD2    C314335   4.365   2.679  15.154  0.5106  0.0129  0.4960
    1MPD2    C414336   4.399   2.744  15.270  0.0162 -0.1098  0.1305
    1MPD2    C514337   4.302   2.808  15.338  0.5286  0.8029 -0.1030
    1MPD2     H14338   4.213   2.643  15.008 -0.2157 -0.3026 -0.0267
    1MPD2    H114339   4.494   2.734  15.321 -0.0415 -1.2177  0.0200
    1MPD2    H214340   4.093   2.863  15.342  0.2682 -1.3112  0.4223
    1MPD2    H314341   4.325   2.857  15.432 -2.1144 -1.2780  1.6347
    1MPD2     N14342   4.460   2.623  15.074  0.8551 -0.0205 -0.1637
    1MPD2    H514343   4.419   2.580  14.992  4.7178  1.0783 -2.6705
    1MPD2    N114344   3.998   2.760  15.120  0.3886  0.0645 -0.0216
    1MPD2    H714345   3.931   2.821  15.166 -1.3633 -2.4074  0.7096
    2TMC3    C114346   3.833   2.748  14.954 -0.8980 -0.1989 -0.0829
    2TMC3    C214347   3.790   2.654  14.869 -0.6074  0.0372 -0.1487
    2TMC3    C314348   3.747   2.691  14.745 -0.0351 -0.0454  1.0887
    2TMC3    C414349   3.849   2.877  14.907  0.1373  0.1041 -0.7782
    2TMC3    C514350   3.795   2.913  14.787  0.2669  0.5570  0.1969
    2TMC3    C614351   3.740   2.819  14.699 -0.3350  0.4246  0.0620
    2TMC3     C14352   3.951   2.686  15.013  0.9169 -0.3502  0.9989
    2TMC3     O14353   3.994   2.591  14.953  0.4764  0.1934  0.3496
    2TMC3     H14354   3.773   2.551  14.898  3.2115 -0.5026  0.1351
    2TMC3    H114355   3.909   2.943  14.969  0.9307  0.7869 -2.2839
    2TMC3    H214356   3.700   2.836  14.600  0.0537 -0.7769 -0.2905
    2TMC3    C714357   3.823   3.045  14.727  0.2716  0.3196  0.0624
    2TMC3    C814358   3.803   2.604  14.645 -0.9423  0.2264 -0.0694
    2TMC3    O114359   3.829   3.050  14.606  0.1847 -0.3267  0.1433
    2TMC3    O214360   3.745   2.596  14.534 -0.1417  0.0369 -0.4987
    3TCq1    O114361   4.506   3.719  15.341  0.2986  0.1918  0.2880
    3TCq1    C114362   4.410   3.726  15.439  0.6376  0.1569 -0.5513
    3TCq1    O214363   4.420   3.775  15.548  0.5091 -0.5926  0.3911
    3TCq1    C214364   4.290   3.668  15.386  0.0804 -0.0672 -0.7268
    3TCq1    C314365   4.210   3.606  15.480 -0.9009 -0.1818 -0.4412
    3TCq1    C414366   4.089   3.562  15.439  0.4075 -0.4074 -0.0506
    3TCq1    C514367   4.045   3.578  15.312 -0.5744 -0.7003 -0.1044
    3TCq1    C614368   4.124   3.635  15.218  0.1035  0.2949 -0.1372
    3TCq1    C714369   4.249   3.679  15.258  0.2193  0.7112  0.1068
    3TCq1    C814370   4.104   3.626  15.081 -0.6691 -0.1568  0.5317
    3TCq1    O414371   4.151   3.703  14.996 -0.4616 -0.0013  0.0318
    3TCq1    C914372   3.994   3.504  15.538  1.2351 -0.0633  0.0881
    3TCq1    O514373   3.878   3.467  15.495  0.5868 -0.2143  0.6196
    3TCq1    O614374   4.053   3.470  15.647  0.6509 -0.1129  0.2786
    3TCq1    H114375   4.483   3.641  15.285  0.2434 -0.5867  1.3843
    3TCq1    H214376   4.239   3.606  15.584 -1.9154 -1.4553 -0.1527
    3TCq1    H314377   3.943   3.551  15.286  0.0063 -2.2164 -0.8013
    3TCq1    H414378   4.307   3.732  15.183  1.3389  1.4775  1.5176
    4MPD2     C14379   4.055   3.492  14.804 -0.8988 -0.2097  0.5480
    4MPD2    C114380   4.007   3.453  14.930  0.2613 -0.0560  0.1088
    4MPD2    C214381   3.931   3.339  14.930  0.3372 -0.6232  0.4925
    4MPD2    C314382   3.913   3.264  14.813  0.8247 -0.9529  0.2112
    4MPD2    C414383   3.968   3.306  14.688 -0.0304  0.1175  0.3518
    4MPD2    C514384   4.047   3.419  14.694 -0.3563 -0.1456  0.5495
    4MPD2     H14385   3.898   3.297  15.024 -1.6966 -0.7046 -0.2600
    4MPD2    H114386   3.949   3.261  14.592 -0.4578 -1.0326  0.9756
    4MPD2    H214387   4.109   3.584  14.785  1.0527 -1.6294 -0.7496
    4MPD2    H314388   4.080   3.465  14.601  3.2187  0.3269  2.0741
    4MPD2     N14389   3.847   3.136  14.828  0.0699 -0.5229 -0.4135
    4MPD2    H514390   3.821   3.106  14.922  0.7756 -0.7428 -0.2839
    4MPD2    N114391   4.030   3.516  15.059  0.0042 -0.2990 -0.2411
    4MPD2    H714392   3.980   3.472  15.135 -0.1524  2.4648  1.2466
    5TMC2    C114393   4.526   2.405  14.837 -1.0167 -0.1782  0.0518
    5TMC2    C214394   4.610   2.472  14.752 -0.0507  0.2835 -0.3913
    5TMC2    C314395   4.718   2.532  14.808 -0.3223 -0.5919  0.6175
    5TMC2    C414396   4.540   2.424  14.973 -0.6282 -0.0185  0.2693
    5TMC2    C514397   4.643   2.501  15.013 -0.1304 -0.5005  0.3205
    5TMC2    C614398   0.026   2.533  14.938 -0.2304 -0.0949 -0.1545
    5TMC2     C14399   4.391   2.413  14.798 -0.1925  0.8953  0.1788
    5TMC2     O14400   4.324   2.468  14.882 -0.1694 -0.1357  0.2663
    5TMC2     H14401   4.605   2.479  14.644  0.0005  2.5899 -0.2560
    5TMC2    H114402   4.460   2.390  15.039 -0.0868 -0.0452  0.9162
    5TMC2    H214403   0.112   2.589  14.973 -0.0959 -0.4286  0.0445
    5TMC2    C714404   4.593   2.604  15.099 -0.0578 -0.2662  0.3276
    5TMC2    C814405   0.096   2.564  14.715  0.7569  0.2346 -0.0802
    5TMC2    O114406   4.657   2.644  15.190  0.6555 -0.0748  0.1437
    5TMC2    O214407   0.204   2.505  14.733  0.1909  0.5464 -0.4201
    5TMC2    O514408   0.088   2.697  14.692 -0.0524 -0.5915  0.4087
    5TMC2    H514409   4.723   2.729  14.704 -0.2078 -0.2792 -1.5118
    6MPD2     C14410   4.002   2.423  14.474 -0.5344 -0.2374  0.3124
    6MPD2    C114411   4.012   2.468  14.606  0.3664  0.0406  0.1990
    6MPD2    C214412   4.134   2.455  14.669 -0.4029  0.5497  0.5635
    6MPD2    C314413   4.239   2.390  14.607  0.3824 -0.6408 -0.1207
    6MPD2    C414414   4.228   2.338  14.475  0.2482 -0.0023  0.4714
    6MPD2    C514415   4.109   2.358  14.414  0.2339  0.5285  0.8420
    6MPD2     H14416   4.140   2.492  14.770 -0.2428 -0.9208  1.0965
    6MPD2    H114417   4.316   2.300  14.426  0.0027  1.9007 -1.4063
    6MPD2    H214418   3.913   2.447  14.416  0.7242  3.1474 -0.2259
    6MPD2    H314419   4.087   2.325  14.313 -1.1391 -0.6828  1.5433
    6MPD2     N14420   4.362   2.375  14.668  0.2890  0.3417 -0.0249
    6MPD2    H514421   4.438   2.330  14.618 -2.0281 -2.1212 -1.3280
    6MPD2    N114422   3.922   2.548  14.682 -0.1776  0.1726 -0.0802
    6MPD2    H714423   3.951   2.566  14.778  0.3981 -3.6936  0.4786
  945NH4     N114424   3.895   1.697  10.911 -0.0599  0.1045  0.1584
  945NH4     H214425   3.970   1.733  10.849  0.4880 -1.3620 -0.0469
  945NH4     H314426   3.926   1.702  11.010 -1.4284 -1.4767  0.6807
  945NH4     H414427   3.870   1.599  10.884 -2.5301  0.6278  0.5330
  945NH4     H514428   3.814   1.762  10.908 -0.4817 -0.3772  1.0438
  946SOD     NA14429   0.204   3.886  11.221  0.1191 -0.0815 -0.2731
  947SOD     NA14430   2.063   1.026  13.706 -0.2691  0.0938  0.3657
  948SOD     NA14431   4.004   2.897  11.026  0.0032 -0.1075  0.4208
  949SOD     NA14432   1.386   0.529  17.483 -0.4017  0.2103  0.0117
  950SOD     NA14433   0.383   2.569  11.296 -0.5200  0.0238 -0.3477
  951SOD     NA14434   1.527   2.677   8.069  0.4254 -0.2236 -0.3458
  952SOD     NA14435   2.517   3.566   2.046 -0.2119  0.5792  0.1400
  953SOD     NA14436   0.619   3.126  17.316 -0.0305  0.2612 -0.2940
  954SOD     NA14437   0.479   2.193  12.312 -0.1745 -0.3666  0.1644
  955SOD     NA14438   1.829   3.285   1.996 -0.5762 -0.7769 -0.3851
  956SOD     NA14439   2.174   0.575  14.091 -0.2623 -0.2932  0.2337
  957SOD     NA14440   3.612   0.660  10.318  0.1534  0.1694 -0.0287
  958SOD     NA14441   3.925   3.296  15.703  0.0006  0.3387 -0.3538
  959SOD     NA14442   4.686   2.202  10.572  0.2965 -0.4188  0.0779
  960SOD     NA14443   3.615   2.460   8.342 -0.4130 -0.0814 -0.3725
  961SOD     NA14444   3.906   4.493   2.176 -0.3589  0.5735  0.1799
  962SOD     NA14445   0.845   0.387   8.856 -0.3581  0.4080  0.1651
  963SOD     NA14446   1.377   2.949   1.709 -0.4733 -0.0136 -0.4208
  964SOD     NA14447   2.450   4.555  11.839  0.6302  0.2691 -0.1677
  965SOD     NA14448   0.392   1.842  11.743  0.2672 -0.2595 -0.0692
  966SOD     NA14449   4.490   3.116  11.097  0.2229 -0.4306  0.2641
  967SOD     NA14450   4.709   0.427   2.783 -0.4988 -0.0764  0.2821
  968SOD     NA14451   2.155   0.501   2.014 -0.2419  0.1603 -0.1957
  969SOD     NA14452   4.093   2.140  13.004 -0.0804  0.4246 -0.5643
  970SOD     NA14453   2.074   0.255   4.112 -0.5496  0.1874 -0.0352
  971SOD     NA14454   3.604   2.269  14.193  0.0013  0.3582 -0.1808
  972SOD     NA14455   1.363   0.121  14.696  0.3512  0.3515 -0.3906
  973SOD     NA14456   0.894   1.526  15.231 -0.2598 -0.1558 -0.0212
  974SOD     NA14457   1.084   0.957  11.580 -0.2269  0.1094  0.0772
  975SOD     NA14458   4.493   1.912   2.410 -0.2174 -0.0700 -0.4442
  976SOD     NA14459   3.563   1.369  15.303  0.5327 -0.5253  0.1345
  977SOD     NA14460   2.086   0.617  14.995  0.4383  0.0860 -0.3825
  978SOD     NA14461   1.356   1.555  14.725  0.3614 -0.0957  0.0287
  979SOD     NA14462   1.097   0.371   8.231 -0.3612  0.3115  0.0668
  980SOD     NA14463   1.941   3.088  13.414  0.2657  0.2784 -0.0253
  981SOD     NA14464   4.315   1.131   9.723  0.2984  0.0252  0.3976
  982SOD     NA14465   4.447   4.717  11.662 -0.2450  0.1616 -0.0348
  983SOD     NA14466   0.870   1.728  11.664  0.2871  0.3126  0.1199
  984SOD     NA14467   2.144   1.975   1.583 -0.0259  0.1036 -0.0613
  985SOD     NA14468   3.413   2.025   7.683  0.4261  0.3134  0.2920
  986SOD     NA14469   3.681   0.925  15.011  0.2160  0.2889 -0.2134
  987SOD     NA14470   3.044   2.109  17.048 -0.1527 -0.2235 -0.7664
  988SOD     NA14471   0.035   4.608  16.949  0.2660  0.5461  0.0180
  989SOD     NA14472   0.056   4.244   9.925  0.0156  0.0808  0.3794
  990SOD     NA14473   0.525   1.368   3.062  0.1750  0.7510 -0.0094
  991SOD     NA14474   0.888   2.705  15.616  0.1255 -0.1127  0.3004
  992SOD     NA14475   2.220   1.838  13.015  0.3244  0.2871  0.3504
  993SOD     NA14476   0.639   1.307  12.963  0.0368  0.1236 -0.1725
  994SOD     NA14477   3.716   2.500  13.604  0.1967  0.2594  0.5847
  995SOD     NA14478   0.635   3.257   9.223 -0.1745 -0.5533 -0.0117
  996SOD     NA14479   4.377   0.468  12.392  0.1450  0.1767  0.2471
  997SOD     NA14480   0.705   2.899  15.504 -0.3581  0.2044 -0.6914
  998SOD     NA14481   4.051   1.864  12.865 -0.0203  0.4455  0.2884
  999SOD     NA14482   0.152   1.549  10.597  0.0877 -0.4180  0.1514
 1000SOD     NA14483   2.870   4.452   5.363 -0.1782 -0.2345  0.2734
 1001SOD     NA14484   4.381   2.404  15.482  0.1252  0.0281  0.0347
 1002SOD     NA14485   1.071   1.631   0.639  0.1274  0.2979  0.3924
 1003SOD     NA14486   1.392   3.153   3.754  0.2963  0.2018  0.2510
 1004SOD     NA14487   1.970   2.452  15.103 -0.8053 -0.0283 -0.4747
 1005SOD     NA14488   1.423   0.851  17.594 -0.0880  0.5916  0.2775
 1006SOD     NA14489   0.968   3.800  11.257 -0.1538 -0.1352 -0.1879
 1007SOD     NA14490   4.188   1.252   3.489 -0.2016 -0.0227  0.2095
 1008SOD     NA14491   3.362   4.593   0.150  0.0288  0.5011 -0.2576
 1009SOD     NA14492   1.921   3.081  10.905 -0.2867  0.0350 -0.2185
 1010SOD     NA14493   4.445   2.131   0.056  0.4799 -0.0595  0.2936
 1011SOL     OW14494   1.662   0.072   4.096  0.3072 -0.5460  0.5147
 1011SOL    HW114495   1.582   0.025   4.121 -0.6753  0.8889  0.0312
 1011SOL    HW214496   1.612   0.143   4.055  0.4115 -1.5625 -1.3940
 1012SOL     OW14497   1.638   3.669  14.984  0.2292 -0.0022 -0.2031
 1012SOL    HW114498   1.657   3.760  14.962 -0.1645  0.2072  0.3070
 1012SOL    HW214499   1.704   3.662  15.052 -1.5967 -0.6773  1.4872
 1013SOL     OW14500   3.381   4.482   9.828 -0.0767 -0.2589 -0.6141
 1013SOL    HW114501   3.325   4.532   9.887 -2.6105 -2.7906 -0.8661
 1013SOL    HW214502   3.456   4.473   9.886 -1.2568  1.2981  1.1578
 1014SOL     OW14503   0.502   3.558   0.042  0.2368  0.2970 -0.0257
 1014SOL    HW114504   0.532   3.467   0.040 -0.2451  0.1528 -0.9092
 1014SOL    HW214505   0.407   3.543   0.049  0.5236 -2.3401 -1.6909
 1015SOL     OW14506   4.104   4.217   3.530 -0.0598 -0.1228 -0.1836
 1015SOL    HW114507   4.033   4.273   3.501 -2.1354 -2.9005 -0.4158
 1015SOL    HW214508   4.074   4.193   3.618  0.7145  2.9108  0.9160
 1016SOL     OW14509   0.158   2.402   8.005  0.2520  0.0876  0.3157
 1016SOL    HW114510   0.234   2.443   8.046  0.2586  0.1506  0.2420
 1016SOL    HW214511   0.087   2.453   8.046 -1.2306 -2.2781  0.6703
 1017SOL     OW14512   2.762   3.958   8.555  0.0237  0.1136 -0.0765
 1017SOL    HW114513   2.818   3.985   8.627  1.7408 -3.7076  0.0077
 1017SOL    HW214514   2.734   4.040   8.514 -1.4616  0.7298  2.1940
 1018SOL     OW14515   3.220   4.135   5.571 -0.0994 -0.0581 -0.0990
 1018SOL    HW114516   3.283   4.094   5.631 -0.1711 -2.0956 -1.4398
 1018SOL    HW214517   3.137   4.090   5.582 -0.9427  1.4014 -0.5007
 1019SOL     OW14518   0.013   4.020   2.207  0.5186  0.3185 -0.1496
 1019SOL    HW114519   4.679   4.082   2.248  0.3620 -1.4597  2.3205
 1019SOL    HW214520   0.086   4.054   2.258  1.4475  0.5552 -1.6565
 1020SOL     OW14521   0.867   4.623  17.415  0.0503 -0.7126 -0.2543
 1020SOL    HW114522   0.926   4.640  17.488 -0.4597 -2.9047  0.6581
 1020SOL    HW214523   0.780   4.631  17.455  0.6962 -2.1650  1.4321
 1021SOL     OW14524   2.902   2.396  13.011 -0.1990 -0.0787  0.1553
 1021SOL    HW114525   2.936   2.459  12.947  2.4721 -0.3144  1.3173
 1021SOL    HW214526   2.843   2.455  13.059 -0.8908 -1.7427  1.3511
 1022SOL     OW14527   4.086   1.441   7.531 -0.5111 -0.0855  0.5105
 1022SOL    HW114528   4.130   1.357   7.541  1.7479  1.2986  2.3238
 1022SOL    HW214529   4.158   1.495   7.563  0.1437  0.2875 -1.6031
 1023SOL     OW14530   3.320   2.275   3.456 -0.4605 -0.2021 -0.3040
 1023SOL    HW114531   3.230   2.295   3.431  0.1341  1.5843 -0.9920
 1023SOL    HW214532   3.353   2.358   3.491 -0.4072 -0.7328  0.9071
 1024SOL     OW14533   3.351   1.423  15.348 -0.1182  0.0883  0.2418
 1024SOL    HW114534   3.306   1.355  15.399  0.3211 -0.4388 -0.0671
 1024SOL    HW214535   3.314   1.423  15.260  1.0271 -0.4268 -0.2315
 1025SOL     OW14536   4.717   1.439   7.676  0.4889  0.1798  0.0986
 1025SOL    HW114537   0.005   1.438   7.581 -0.4321  1.2355 -0.0474
 1025SOL    HW214538   4.638   1.386   7.688  0.4332  0.9791  3.2776
 1026SOL     OW14539   3.155   2.593   4.446  0.0216 -0.8436  0.3054
 1026SOL    HW114540   3.224   2.554   4.393  0.8726 -1.4197  1.8185
 1026SOL    HW214541   3.132   2.675   4.402  1.3187  0.0474  1.3024
 1027SOL     OW14542   3.145   1.146   5.190  0.0946 -0.4273 -0.2391
 1027SOL    HW114543   3.171   1.238   5.186  0.0598 -0.3869  0.6589
 1027SOL    HW214544   3.148   1.134   5.284  0.5107 -0.0435 -0.2022
 1028SOL     OW14545   4.114   1.907   4.882  0.2795  0.7391  0.1804
 1028SOL    HW114546   4.164   1.951   4.950  2.3554 -1.6881  0.1993
 1028SOL    HW214547   4.040   1.967   4.871  0.5909  1.0623 -0.1352
 1029SOL     OW14548   1.578   2.918   6.501  0.5462  0.0940  0.7254
 1029SOL    HW114549   1.499   2.878   6.465  0.7477  0.3395  0.0097
 1029SOL    HW214550   1.557   2.931   6.594 -0.5322  1.9514  0.2234
 1030SOL     OW14551   3.671   1.278   7.516  0.0886 -0.0788  0.0207
 1030SOL    HW114552   3.753   1.303   7.560  1.4312 -3.0098 -0.8171
 1030SOL    HW214553   3.700   1.196   7.477 -1.2609 -0.0656 -1.0209
 1031SOL     OW14554   1.850   1.885  13.990  0.4545 -0.0799  0.2743
 1031SOL    HW114555   1.794   1.841  13.925 -0.7155 -0.9601  1.8746
 1031SOL    HW214556   1.891   1.946  13.930  2.1368 -0.3224  1.1944
 1032SOL     OW14557   0.824   4.294   7.903 -0.0937 -0.9934  0.5454
 1032SOL    HW114558   0.879   4.312   7.980 -1.2492 -4.6827  2.2106
 1032SOL    HW214559   0.745   4.335   7.941 -0.6064  0.2509 -1.8872
 1033SOL     OW14560   1.538   4.001   5.346 -0.0567  0.0382  0.2491
 1033SOL    HW114561   1.509   3.990   5.437  0.3132 -1.5187  0.1703
 1033SOL    HW214562   1.505   3.917   5.315  2.2056 -1.3650  1.6156
 1034SOL     OW14563   0.161   1.296   4.291  0.1834 -0.3318  0.6517
 1034SOL    HW114564   0.147   1.263   4.379  0.7694  0.0911  0.9091
 1034SOL    HW214565   0.082   1.270   4.244 -0.0199  1.6971 -0.1385
 1035SOL     OW14566   4.235   2.774  14.775  0.4765 -0.3249 -0.0905
 1035SOL    HW114567   4.204   2.750  14.688  0.6623  0.0394 -0.2580
 1035SOL    HW214568   4.252   2.688  14.812  1.0810  0.9804  2.6329
 1036SOL     OW14569   2.147   2.390  14.973 -0.0802 -0.7190  0.7921
 1036SOL    HW114570   2.217   2.427  15.026 -0.1578  0.3314  0.1591
 1036SOL    HW214571   2.192   2.349  14.899 -1.9513 -1.4178  0.0479
 1037SOL     OW14572   2.495   3.489   8.589  0.4075  0.1468  0.0012
 1037SOL    HW114573   2.445   3.424   8.638 -1.4712  0.4983 -1.4311
 1037SOL    HW214574   2.429   3.497   8.520  2.5813  0.0253 -2.1136
 1038SOL     OW14575   1.620   2.574   8.902 -0.6533 -0.1977 -0.0156
 1038SOL    HW114576   1.537   2.543   8.937 -0.2664 -0.0054  1.0806
 1038SOL    HW214577   1.619   2.553   8.809  0.4568 -3.0651  0.6320
 1039SOL     OW14578   3.289   3.694  11.547  0.3414  0.2806 -0.2141
 1039SOL    HW114579   3.321   3.605  11.532 -1.2144 -0.5277  1.2148
 1039SOL    HW214580   3.353   3.743  11.496  1.0233 -1.3293 -0.9111
 1040SOL     OW14581   0.628   2.318  10.134 -0.2306 -0.0904  0.5481
 1040SOL    HW114582   0.600   2.306  10.043 -1.9502 -0.6611  1.1474
 1040SOL    HW214583   0.536   2.334  10.157  0.1190  0.7768  1.3446
 1041SOL     OW14584   3.457   2.505  16.369 -0.2013 -0.3897 -0.2911
 1041SOL    HW114585   3.449   2.562  16.292  3.5861 -1.3408 -1.3832
 1041SOL    HW214586   3.417   2.561  16.436 -0.5214 -1.8138  0.7038
 1042SOL     OW14587   2.444   4.047   9.423 -0.1391 -0.5258  0.3570
 1042SOL    HW114588   2.519   3.988   9.408 -0.1103 -0.0982 -1.2293
 1042SOL    HW214589   2.379   4.014   9.361  0.7251 -3.2888  0.9027
 1043SOL     OW14590   0.196   0.057  12.705 -0.0788 -0.5038 -0.5096
 1043SOL    HW114591   0.270   0.064  12.644 -0.2049 -1.4337 -0.7825
 1043SOL    HW214592   0.120   0.047  12.647 -0.4870  0.9469 -0.2218
 1044SOL     OW14593   1.463   2.508   3.043  0.2979  0.2596  0.0258
 1044SOL    HW114594   1.548   2.551   3.050  0.1222  0.6171 -0.0539
 1044SOL    HW214595   1.448   2.482   2.952 -0.5306 -1.0563  0.5321
 1045SOL     OW14596   0.289   3.966   5.034  0.0630  0.0362  0.3654
 1045SOL    HW114597   0.304   4.048   4.987  2.2517  0.1344  1.2580
 1045SOL    HW214598   0.202   3.980   5.073  1.1379  2.0532  2.0852
 1046SOL     OW14599   1.165   1.904  15.150 -0.0922  0.0756 -0.0558
 1046SOL    HW114600   1.156   1.928  15.058  0.7993  0.2306 -0.0964
 1046SOL    HW214601   1.224   1.830  15.148 -0.1333  0.0676 -1.0333
 1047SOL     OW14602   3.450   1.500   5.643  0.1250 -0.5863  0.8196
 1047SOL    HW114603   3.482   1.584   5.609  1.1332 -2.1550 -2.1038
 1047SOL    HW214604   3.523   1.440   5.626  0.6669 -0.0618  1.2936
 1048SOL     OW14605   0.953   4.676  11.977 -0.1647 -0.3564 -0.3167
 1048SOL    HW114606   0.885   4.623  11.936 -2.6231 -1.5104  5.1188
 1048SOL    HW214607   0.999   4.613  12.032  0.3723  0.8496  0.6129
 1049SOL     OW14608   0.380   3.770   4.862  0.0778 -0.2355  0.1642
 1049SOL    HW114609   0.319   3.791   4.791  0.1026 -0.8865 -0.0578
 1049SOL    HW214610   0.374   3.846   4.919 -1.2093  0.0584 -0.3818
 1050SOL     OW14611   4.385   1.463   9.354  0.1593  0.5752 -0.1184
 1050SOL    HW114612   4.374   1.458   9.449 -3.1247  2.0178 -0.4239
 1050SOL    HW214613   4.317   1.528   9.336 -0.4431  0.6575  2.4241
 1051SOL     OW14614   4.271   3.653   1.893  0.6066  0.3973  0.1846
 1051SOL    HW114615   4.348   3.692   1.850  1.0550 -0.4393  0.2189
 1051SOL    HW214616   4.305   3.629   1.979 -0.1114  1.5534  0.7934
 1052SOL     OW14617   2.037   1.969  13.720  0.0787 -0.4042  0.3054
 1052SOL    HW114618   2.043   2.027  13.796  0.9338  1.1987 -0.9873
 1052SOL    HW214619   1.946   1.987  13.695 -0.7858 -1.0800  2.9332
 1053SOL     OW14620   1.187   4.624  10.648  0.5178  0.0617  0.4218
 1053SOL    HW114621   1.162   4.716  10.641  1.4062  0.0950 -2.2964
 1053SOL    HW214622   1.260   4.632  10.709 -0.9242  2.7480  1.7722
 1054SOL     OW14623   3.484   4.064   3.129 -0.7631  0.7488  0.8271
 1054SOL    HW114624   3.572   4.072   3.092 -0.9130  0.6668  0.4547
 1054SOL    HW214625   3.450   4.153   3.120  0.7274  1.3769  1.2627
 1055SOL     OW14626   1.472   2.779   4.813  0.1562 -0.4517  0.4321
 1055SOL    HW114627   1.377   2.787   4.820 -0.0416 -0.7553 -1.9176
 1055SOL    HW214628   1.494   2.843   4.745 -0.7821 -3.4792 -2.7439
 1056SOL     OW14629   4.426   4.080  12.711 -0.3373  0.4172 -0.3467
 1056SOL    HW114630   4.471   3.997  12.692 -1.2029  0.0401 -0.7886
 1056SOL    HW214631   4.503   4.125  12.744  1.4138 -1.7156 -1.5589
 1057SOL     OW14632   1.423   2.087   2.060  0.1726 -0.1031  0.6120
 1057SOL    HW114633   1.482   2.012   2.074 -1.9707 -1.5219  1.9923
 1057SOL    HW214634   1.358   2.086   2.130 -0.3320 -0.3496  0.1338
 1058SOL     OW14635   0.892   0.381   3.456  0.9753 -0.2074 -0.0658
 1058SOL    HW114636   0.910   0.382   3.362  1.9889  1.4025  0.1553
 1058SOL    HW214637   0.972   0.334   3.478  1.1037 -0.5493 -1.2451
 1059SOL     OW14638   0.029   0.607   5.371 -0.0828 -0.0845  0.5416
 1059SOL    HW114639   0.052   0.699   5.354 -0.3152 -0.2420 -0.6498
 1059SOL    HW214640   4.686   0.603   5.305  2.3296  1.4534 -2.1316
 1060SOL     OW14641   3.834   4.174  16.169  0.3286  0.5909  0.6600
 1060SOL    HW114642   3.871   4.088  16.150 -1.5595 -0.4105  1.4557
 1060SOL    HW214643   3.749   4.176  16.124  1.2818 -0.4283 -1.1801
 1061SOL     OW14644   0.493   1.831   8.763 -0.1689  0.3782  0.2812
 1061SOL    HW114645   0.497   1.778   8.684  1.3460  0.6284  0.1991
 1061SOL    HW214646   0.541   1.781   8.830 -1.0954 -0.2488  0.4843
 1062SOL     OW14647   3.995   3.154   7.974  0.4336  0.1039  0.3216
 1062SOL    HW114648   4.017   3.074   7.926  1.6832  0.7286 -0.1474
 1062SOL    HW214649   4.027   3.217   7.909 -2.7662  2.2460  0.8341
 1063SOL     OW14650   2.912   3.284  14.777  0.4312 -0.2935 -0.0643
 1063SOL    HW114651   2.989   3.338  14.760  0.9362 -0.8564  0.4126
 1063SOL    HW214652   2.945   3.196  14.792  1.1570 -0.0957 -0.4946
 1064SOL     OW14653   0.643   3.742   6.285 -0.1004 -0.4070  0.3749
 1064SOL    HW114654   0.729   3.737   6.244 -0.7636  1.7436 -1.3156
 1064SOL    HW214655   0.660   3.707   6.372  0.7693  1.4441  0.9600
 1065SOL     OW14656   3.085   1.763   7.377 -0.7689  0.3533 -0.1178
 1065SOL    HW114657   3.017   1.802   7.433 -0.6141  0.8774 -0.2944
 1065SOL    HW214658   3.064   1.671   7.393 -0.9457  0.6256  1.2746
 1066SOL     OW14659   4.138   2.337   3.744  0.4049  0.2708  0.0372
 1066SOL    HW114660   4.108   2.373   3.661 -0.8857  2.1183  1.2999
 1066SOL    HW214661   4.067   2.352   3.806 -0.1439 -0.3017 -0.4570
 1067SOL     OW14662   1.344   1.539  15.501 -0.4088  0.6490 -0.9299
 1067SOL    HW114663   1.310   1.503  15.583 -0.3347 -2.6286 -2.3139
 1067SOL    HW214664   1.408   1.471  15.480  2.1152  2.2209  1.7217
 1068SOL     OW14665   0.346   4.488   8.158  0.0057  0.1076 -0.0219
 1068SOL    HW114666   0.375   4.484   8.249 -0.0951  1.1420  0.0583
 1068SOL    HW214667   0.285   4.415   8.149 -2.2628  1.8961  0.7224
 1069SOL     OW14668   0.141   0.331   5.805  0.9562  0.2538 -0.3139
 1069SOL    HW114669   0.177   0.347   5.892  1.4972 -1.2462 -0.2571
 1069SOL    HW214670   0.076   0.266   5.831  1.6292 -1.1849 -2.1702
 1070SOL     OW14671   0.936   1.777   5.658 -0.3512  0.2310  0.3189
 1070SOL    HW114672   0.844   1.792   5.677 -0.3169  0.0386  0.6292
 1070SOL    HW214673   0.945   1.682   5.655 -0.3543  0.2150  0.8686
 1071SOL     OW14674   4.663   0.155   5.313  0.5394 -0.5102 -0.5617
 1071SOL    HW114675   4.648   0.107   5.394  0.3764 -0.4701 -0.5689
 1071SOL    HW214676   0.029   0.167   5.333  0.3959 -0.5268  0.0940
 1072SOL     OW14677   2.871   1.022   6.408  0.1895 -0.4258  0.5376
 1072SOL    HW114678   2.797   0.981   6.453 -1.8334  1.5110 -1.0990
 1072SOL    HW214679   2.845   1.112   6.388  1.0609 -0.6582 -1.6039
 1073SOL     OW14680   2.732   0.145   5.136  0.5382 -0.0229 -0.1423
 1073SOL    HW114681   2.786   0.193   5.199  0.7032  0.9819 -1.0550
 1073SOL    HW214682   2.642   0.144   5.168  1.0495 -0.4369  1.2621
 1074SOL     OW14683   3.119   3.500   6.974 -0.4273 -0.3572 -0.2945
 1074SOL    HW114684   3.026   3.519   6.962 -0.2746  0.2175 -0.5775
 1074SOL    HW214685   3.140   3.428   6.914 -1.1047  0.5012 -1.5764
 1075SOL     OW14686   4.435   3.047   5.133 -0.5011  0.1243 -0.1756
 1075SOL    HW114687   4.441   3.125   5.188  0.4726  0.3575 -0.6103
 1075SOL    HW214688   4.343   3.020   5.138 -1.1781  2.5581  0.8477
 1076SOL     OW14689   0.319   3.795   7.100  0.0715 -0.3181  0.0806
 1076SOL    HW114690   0.267   3.810   7.021 -2.0642 -3.3246  0.9257
 1076SOL    HW214691   0.274   3.714   7.123 -0.4201  0.4068  1.6046
 1077SOL     OW14692   2.611   2.408  15.351  0.1023  0.1871  0.5561
 1077SOL    HW114693   2.578   2.481  15.403 -1.4165 -0.5014  0.5605
 1077SOL    HW214694   2.574   2.435  15.266 -0.7943  1.1349  1.2460
 1078SOL     OW14695   1.731   4.289   7.226  0.1680  0.1619  0.3665
 1078SOL    HW114696   1.826   4.288   7.243  0.1977  0.3543  0.1976
 1078SOL    HW214697   1.704   4.266   7.315 -2.4734  1.2196 -0.1963
 1079SOL     OW14698   2.070   4.630   8.164  0.1917 -0.1785 -0.7103
 1079SOL    HW114699   2.144   4.673   8.207 -2.9952  3.8426  0.7297
 1079SOL    HW214700   2.020   4.619   8.245  2.4201 -0.3671  0.6450
 1080SOL     OW14701   2.004   3.113   4.285 -0.2080 -0.4996  0.2577
 1080SOL    HW114702   2.031   3.168   4.211  3.1578  1.1760  2.7118
 1080SOL    HW214703   2.059   3.036   4.271 -2.0494 -1.3946 -1.9582
 1081SOL     OW14704   4.229   3.869   5.126  0.4440  0.4676  0.6226
 1081SOL    HW114705   4.233   3.900   5.216 -0.0931  1.4911  0.3034
 1081SOL    HW214706   4.231   3.774   5.140  2.9004  0.4644  0.1790
 1082SOL     OW14707   2.287   3.194   4.117 -0.4598  0.1978 -0.2328
 1082SOL    HW114708   2.251   3.259   4.177 -0.0889 -0.2483  0.4693
 1082SOL    HW214709   2.343   3.243   4.057  0.6436  1.6493  1.9982
 1083SOL     OW14710   0.664   2.624  17.001 -0.0124  0.2431 -0.3984
 1083SOL    HW114711   0.661   2.667  17.086 -1.6203 -1.0623  0.1904
 1083SOL    HW214712   0.724   2.680  16.951  0.6841  0.4421  0.6686
 1084SOL     OW14713   1.197   1.207  15.996  0.2197  0.2810 -0.2027
 1084SOL    HW114714   1.288   1.234  16.006 -0.1128  0.6506  1.8431
 1084SOL    HW214715   1.209   1.128  16.048  2.5408  2.1590  2.1426
 1085SOL     OW14716   2.497   2.362   5.582 -0.6633  0.3772 -0.2356
 1085SOL    HW114717   2.565   2.422   5.612 -1.4094  1.5846 -0.9394
 1085SOL    HW214718   2.518   2.357   5.488  0.6831 -1.0903  0.1477
 1086SOL     OW14719   3.655   3.505  17.561  0.0503 -0.9558 -0.0131
 1086SOL    HW114720   3.728   3.502  17.499 -0.4990 -0.4448 -0.6734
 1086SOL    HW214721   3.612   3.590  17.552  0.5061 -0.8815 -1.4133
 1087SOL     OW14722   3.720   0.024  17.619  0.3858  0.3952  0.0775
 1087SOL    HW114723   3.745   4.689  17.550 -0.2367  0.1314  0.0882
 1087SOL    HW214724   3.796   0.022  17.678 -0.3825  0.5989  1.0776
 1088SOL     OW14725   3.115   3.899   2.392 -0.2802 -0.2903 -0.0314
 1088SOL    HW114726   3.208   3.888   2.414 -0.0019 -0.1879 -1.1310
 1088SOL    HW214727   3.084   3.811   2.411 -1.8544 -0.2452 -2.5019
 1089SOL     OW14728   2.578   0.546   2.465  0.2440 -0.2746  0.3239
 1089SOL    HW114729   2.605   0.462   2.504 -0.6882 -0.7551 -0.0771
 1089SOL    HW214730   2.552   0.524   2.376  0.0368  0.4084  0.2177
 1090SOL     OW14731   4.722   1.101   2.035  0.3184 -0.5844  0.5213
 1090SOL    HW114732   4.685   1.102   1.946 -1.2807  0.8894  1.1905
 1090SOL    HW214733   0.040   1.185   2.026 -0.3867 -0.1418  1.1413
 1091SOL     OW14734   1.745   1.182   4.544  0.4130  0.8048 -0.3671
 1091SOL    HW114735   1.693   1.204   4.622  3.9335  0.0274  2.2204
 1091SOL    HW214736   1.705   1.102   4.512  1.1012  0.0174  0.7109
 1092SOL     OW14737   2.336   1.234   3.365  0.0891  0.3585  0.0294
 1092SOL    HW114738   2.354   1.246   3.458  2.1159 -0.0106 -0.3135
 1092SOL    HW214739   2.263   1.295   3.358 -2.2744 -2.5756 -1.0250
 1093SOL     OW14740   2.568   1.439   6.899 -0.0569 -0.4769  0.0434
 1093SOL    HW114741   2.608   1.480   6.976 -0.5157  0.8607 -0.4132
 1093SOL    HW214742   2.624   1.469   6.827 -2.1129  1.4313 -0.7930
 1094SOL     OW14743   0.558   0.036   6.731  0.4377  0.8134  0.2908
 1094SOL    HW114744   0.504   4.697   6.687  1.0183  1.2712 -1.1073
 1094SOL    HW214745   0.630   4.706   6.760  0.8842  0.4884 -1.4259
 1095SOL     OW14746   3.800   2.943  12.699  0.2200 -0.1788 -0.1501
 1095SOL    HW114747   3.752   2.896  12.768 -2.5510  0.4336 -1.6503
 1095SOL    HW214748   3.875   2.975  12.749  1.6835  2.7996 -4.1929
 1096SOL     OW14749   2.849   2.746   6.402 -0.3685  0.0403 -0.5680
 1096SOL    HW114750   2.767   2.797   6.397  0.6160  1.9411  2.7340
 1096SOL    HW214751   2.868   2.738   6.496 -2.1865 -1.2215 -0.3077
 1097SOL     OW14752   0.679   1.675   5.704 -0.0066 -0.0439 -0.2150
 1097SOL    HW114753   0.651   1.662   5.613 -0.0891  0.1289 -0.2150
 1097SOL    HW214754   0.653   1.592   5.743 -0.4017  1.5243  2.8015
 1098SOL     OW14755   0.111   1.286   8.073  0.4433  0.0669 -0.1215
 1098SOL    HW114756   0.195   1.241   8.068 -0.8835 -2.4219 -0.0004
 1098SOL    HW214757   0.096   1.277   8.167  0.1726 -0.6100 -0.2344
 1099SOL     OW14758   1.105   4.165   6.310  0.2544  0.0214  0.1594
 1099SOL    HW114759   1.015   4.164   6.342  0.7735  2.8411  1.6653
 1099SOL    HW214760   1.152   4.170   6.393 -1.3348 -0.5440  1.0846
 1100SOL     OW14761   1.710   3.810   4.287  0.1191  0.4248 -0.6322
 1100SOL    HW114762   1.684   3.761   4.210  0.3663  0.6416 -0.8540
 1100SOL    HW214763   1.795   3.768   4.293 -0.0706 -0.0276 -1.1438
 1101SOL     OW14764   4.009   0.195   1.432 -0.3376 -0.2442 -0.8322
 1101SOL    HW114765   4.007   0.099   1.421 -2.5333 -0.4744  1.6704
 1101SOL    HW214766   4.089   0.224   1.388  1.1485 -1.1220  1.2784
 1102SOL     OW14767   3.494   1.811  12.951 -0.9242 -0.2420  0.8522
 1102SOL    HW114768   3.421   1.754  12.929 -0.9162 -0.4094  1.2466
 1102SOL    HW214769   3.515   1.774  13.037  0.8691 -1.3240 -0.0509
 1103SOL     OW14770   1.467   3.195  16.454 -0.3664 -0.2522 -0.3437
 1103SOL    HW114771   1.376   3.206  16.484 -0.6879  0.2116 -1.5108
 1103SOL    HW214772   1.495   3.285  16.443 -3.3142  0.6744 -0.4753
 1104SOL     OW14773   1.033   2.225  15.410  0.0438 -0.1883 -0.3576
 1104SOL    HW114774   0.961   2.162  15.417 -0.9074  0.8969 -0.3527
 1104SOL    HW214775   0.982   2.304  15.392 -1.1927 -0.5613  1.4903
 1105SOL     OW14776   3.589   0.176   8.397 -0.2624 -0.2504 -0.0155
 1105SOL    HW114777   3.631   0.208   8.477 -1.0375  0.5678  0.0533
 1105SOL    HW214778   3.659   0.126   8.354 -0.8075 -0.3853 -0.7545
 1106SOL     OW14779   1.605   2.922   1.741  0.2238 -0.2133 -0.2337
 1106SOL    HW114780   1.688   2.904   1.784  2.2473  1.7145 -3.3609
 1106SOL    HW214781   1.633   2.896   1.653  1.3528 -1.3755  0.4758
 1107SOL     OW14782   1.352   3.379   0.668  0.5523 -0.2969  0.1727
 1107SOL    HW114783   1.270   3.356   0.624 -0.5629  2.7027  0.6839
 1107SOL    HW214784   1.348   3.474   0.663 -0.1973 -0.3476 -0.3592
 1108SOL     OW14785   3.307   0.203   9.701  0.5542 -0.7935 -0.2234
 1108SOL    HW114786   3.316   0.280   9.758  1.1812  0.4484 -1.9922
 1108SOL    HW214787   3.298   0.246   9.616  1.1768 -2.1325 -0.9553
 1109SOL     OW14788   2.046   3.714   2.176  0.2997  0.6355 -0.2848
 1109SOL    HW114789   1.963   3.760   2.169 -0.5011 -0.8264 -0.4799
 1109SOL    HW214790   2.026   3.667   2.258 -1.0220 -1.0602 -1.5910
 1110SOL     OW14791   3.580   3.796   2.185 -0.4560 -0.6525  0.2914
 1110SOL    HW114792   3.661   3.839   2.160  0.0622 -1.3850  0.7270
 1110SOL    HW214793   3.592   3.739   2.261  3.5674 -1.5282 -1.0350
 1111SOL     OW14794   1.842   3.747   4.583 -0.2275 -0.2478 -0.3731
 1111SOL    HW114795   1.929   3.730   4.619 -0.5464  0.1954  0.6141
 1111SOL    HW214796   1.790   3.699   4.648 -0.6888 -0.0079 -0.5711
 1112SOL     OW14797   2.204   0.607  13.549  0.2548  0.4186 -0.1367
 1112SOL    HW114798   2.166   0.525  13.579 -0.7907  0.3642 -1.5924
 1112SOL    HW214799   2.244   0.590  13.464 -0.4236 -0.9538 -0.1753
 1113SOL     OW14800   1.075   3.469   8.317  0.0586  0.5671  0.8585
 1113SOL    HW114801   1.139   3.527   8.358  1.4962 -1.3275  1.3089
 1113SOL    HW214802   1.121   3.410   8.257 -4.3000 -2.1593  0.1305
 1114SOL     OW14803   4.301   1.572   5.311 -0.6154 -0.5206  0.1609
 1114SOL    HW114804   4.373   1.630   5.336  0.6153 -2.2821  0.6404
 1114SOL    HW214805   4.228   1.609   5.361 -0.3649 -0.2184  0.3042
 1115SOL     OW14806   0.974   0.153   6.245  0.5776 -0.0033  0.1473
 1115SOL    HW114807   0.943   0.099   6.172 -0.6919 -1.5607  1.8508
 1115SOL    HW214808   1.030   0.213   6.194 -3.4981  3.3847 -0.4078
 1116SOL     OW14809   3.057   2.367   2.637  0.4579 -0.6973 -0.3778
 1116SOL    HW114810   3.095   2.280   2.625  1.2480 -0.2216 -1.2980
 1116SOL    HW214811   3.038   2.364   2.731 -1.6376  0.2191 -0.7871
 1117SOL     OW14812   1.871   1.540  17.063  0.3529 -0.1317 -0.0684
 1117SOL    HW114813   1.800   1.588  17.105 -0.1225 -1.3562  0.5311
 1117SOL    HW214814   1.947   1.549  17.121  0.1353  2.3601 -0.1608
 1118SOL     OW14815   4.292   1.898   4.386  0.2260  0.1422 -0.4699
 1118SOL    HW114816   4.217   1.905   4.445 -0.2716 -2.7225 -0.7654
 1118SOL    HW214817   4.367   1.935   4.432 -0.6504 -0.0189  1.0965
 1119SOL     OW14818   1.443   0.657   4.726 -0.0085  0.0240  0.1299
 1119SOL    HW114819   1.445   0.587   4.792  0.0582  0.1895  0.3039
 1119SOL    HW214820   1.483   0.725   4.781  1.3915 -1.5717  1.1046
 1120SOL     OW14821   0.304   2.305  16.884  0.1552  0.3125  0.1349
 1120SOL    HW114822   0.306   2.366  16.958 -5.4235  1.3017 -0.5379
 1120SOL    HW214823   0.386   2.258  16.901 -0.2578 -0.3748  0.2195
 1121SOL     OW14824   0.616   1.475  13.462 -0.0974  0.2025  0.0460
 1121SOL    HW114825   0.699   1.513  13.491 -1.6430  4.2659 -0.8798
 1121SOL    HW214826   0.602   1.513  13.375 -2.4101  1.9987  1.2395
 1122SOL     OW14827   4.331   0.414   7.402 -0.0124  0.1963  0.0012
 1122SOL    HW114828   4.333   0.391   7.495 -0.3886 -0.8850 -0.2571
 1122SOL    HW214829   4.372   0.500   7.401  0.4392 -0.0207 -0.2250
 1123SOL     OW14830   4.609   2.606   5.915  0.2609 -0.4707 -0.3473
 1123SOL    HW114831   4.549   2.589   5.842 -0.8310 -0.7371  0.6081
 1123SOL    HW214832   4.621   2.701   5.908 -1.0749 -0.2767 -0.1071
 1124SOL     OW14833   0.960   2.580   6.335  0.5384  0.2892  0.3366
 1124SOL    HW114834   0.926   2.547   6.418 -0.8894 -0.4576 -0.5545
 1124SOL    HW214835   1.046   2.614   6.362 -0.0791  0.9051  1.5419
 1125SOL     OW14836   1.085   3.235  17.352  0.3399  0.3408 -0.1246
 1125SOL    HW114837   1.116   3.321  17.324  3.7942 -0.8872 -0.0806
 1125SOL    HW214838   1.092   3.181  17.273 -2.2279 -0.7052  0.3735
 1126SOL     OW14839   3.365   0.983   6.363 -0.1130 -0.4974  0.0725
 1126SOL    HW114840   3.416   1.044   6.310 -2.0007  1.7306  0.8173
 1126SOL    HW214841   3.429   0.943   6.421  0.5598 -1.4803 -1.3476
 1127SOL     OW14842   1.836   2.045   3.268  0.0261 -0.1000  0.5387
 1127SOL    HW114843   1.788   2.125   3.247 -0.7091 -0.2693  1.6144
 1127SOL    HW214844   1.766   1.985   3.292 -2.2334  2.2785 -0.1217
 1128SOL     OW14845   3.432   0.579   3.558  0.0285 -0.0703 -0.2847
 1128SOL    HW114846   3.375   0.523   3.505 -0.5621 -1.1304  1.4626
 1128SOL    HW214847   3.510   0.558   3.507 -0.3517  2.9112 -2.0809
 1129SOL     OW14848   4.653   0.232   8.678  0.6467 -0.1892  0.3364
 1129SOL    HW114849   4.594   0.254   8.750  0.7439 -1.2665  0.7483
 1129SOL    HW214850   4.712   0.164   8.711 -0.3030  0.0175  2.4586
 1130SOL     OW14851   0.308   1.364  11.621  0.0390  0.3449 -0.4384
 1130SOL    HW114852   0.281   1.434  11.681  0.7439  1.7052 -1.6909
 1130SOL    HW214853   0.259   1.390  11.542 -0.1039  2.3460  0.2989
 1131SOL     OW14854   3.914   1.306   5.139  0.1102  0.3270 -0.5036
 1131SOL    HW114855   3.983   1.359   5.100  0.0483  1.2857  0.6999
 1131SOL    HW214856   3.892   1.253   5.062  0.2823 -1.0580  0.3900
 1132SOL     OW14857   0.438   3.661   3.213 -0.5442  0.3382  0.7240
 1132SOL    HW114858   0.485   3.583   3.182 -0.6275  0.5254  0.1382
 1132SOL    HW214859   0.348   3.637   3.194 -0.5735  1.0923 -0.0599
 1133SOL     OW14860   0.072   3.301  11.631  0.6099  0.5307  0.2050
 1133SOL    HW114861   0.089   3.237  11.562  0.7954 -1.8188  2.4354
 1133SOL    HW214862   0.130   3.369  11.598  1.4348 -0.6845 -0.8773
 1134SOL     OW14863   1.825   1.074   9.177  0.1995  0.7561  0.6527
 1134SOL    HW114864   1.890   1.037   9.118  1.2796  2.7353  0.5650
 1134SOL    HW214865   1.835   1.165   9.147  1.7057  0.0375 -1.0338
 1135SOL     OW14866   2.935   2.665   1.855  0.2486  0.8749 -0.0977
 1135SOL    HW114867   2.855   2.614   1.867  1.2116 -0.5502  0.2115
 1135SOL    HW214868   2.963   2.644   1.766 -0.5494  0.6348 -0.2883
 1136SOL     OW14869   2.579   2.351   4.050  0.6771  0.4296  0.0326
 1136SOL    HW114870   2.598   2.328   4.141 -2.2090  1.6283  0.9188
 1136SOL    HW214871   2.592   2.269   4.002  0.6244  1.1563 -1.2446
 1137SOL     OW14872   0.676   1.456   5.996  0.5327  0.1594 -0.0461
 1137SOL    HW114873   0.673   1.402   6.075 -1.7274  0.6092  0.1761
 1137SOL    HW214874   0.723   1.533   6.028  2.3913  0.3820 -3.2541
 1138SOL     OW14875   4.122   1.918   4.610 -0.6974 -0.0408  0.2939
 1138SOL    HW114876   4.137   1.895   4.702 -1.8240  1.0030  0.7404
 1138SOL    HW214877   4.036   1.880   4.592 -0.9866  0.9193 -0.3340
 1139SOL     OW14878   0.214   2.865   2.324  0.6450  0.3598 -0.2214
 1139SOL    HW114879   0.144   2.926   2.345  1.7243  1.4230  0.2666
 1139SOL    HW214880   0.176   2.804   2.260 -1.0036  0.3343  0.7948
 1140SOL     OW14881   0.591   1.946   8.163 -0.5450 -0.0393  0.1194
 1140SOL    HW114882   0.502   1.910   8.165  0.7256 -3.0910  1.5348
 1140SOL    HW214883   0.619   1.901   8.242 -1.1568  1.1672  1.0125
 1141SOL     OW14884   0.683   2.198   0.378  0.0682 -0.2986  0.5588
 1141SOL    HW114885   0.753   2.207   0.442  1.7207 -0.2333 -1.2793
 1141SOL    HW214886   0.635   2.124   0.415 -0.4610 -0.9751 -1.5192
 1142SOL     OW14887   3.048   1.662   5.503  0.1504 -0.1353  0.8012
 1142SOL    HW114888   3.044   1.576   5.546  0.1154 -0.5255  0.0233
 1142SOL    HW214889   3.027   1.629   5.416  0.5193  2.4952 -0.2824
 1143SOL     OW14890   2.277   1.897   7.829 -0.1985  0.1131  0.7071
 1143SOL    HW114891   2.338   1.823   7.832 -0.4148 -0.1229 -0.6138
 1143SOL    HW214892   2.226   1.894   7.910  1.6410 -1.3386  1.8207
 1144SOL     OW14893   0.510   0.705  17.105  0.1179 -0.8478 -0.3235
 1144SOL    HW114894   0.454   0.730  17.178 -0.7318 -1.9684 -0.5938
 1144SOL    HW214895   0.533   0.793  17.075 -0.2626 -0.8468 -0.6122
 1145SOL     OW14896   2.581   3.915   5.237 -0.4983  0.5343  1.0862
 1145SOL    HW114897   2.652   3.958   5.189 -0.1077  0.4062  1.5513
 1145SOL    HW214898   2.527   3.903   5.159  1.1925 -1.8143  0.2761
 1146SOL     OW14899   0.695   2.262   5.932  0.1530  0.0284 -0.4527
 1146SOL    HW114900   0.639   2.319   5.984 -0.0844 -2.6137  2.2054
 1146SOL    HW214901   0.698   2.195   6.000  1.0106  0.0604 -0.4642
 1147SOL     OW14902   4.290   3.268   7.623  0.3878 -0.3557  0.3169
 1147SOL    HW114903   4.320   3.356   7.601  0.1265 -0.3759 -0.1321
 1147SOL    HW214904   4.366   3.240   7.672  0.3093  0.7399  1.0601
 1148SOL     OW14905   2.081   3.083   3.613 -0.1241  0.1620 -0.2200
 1148SOL    HW114906   2.122   3.142   3.549  0.7664 -0.0182  0.1861
 1148SOL    HW214907   2.006   3.052   3.563  0.4906 -1.0999 -0.3599
 1149SOL     OW14908   3.752   1.587   4.629 -0.0765  0.0850 -0.1709
 1149SOL    HW114909   3.732   1.515   4.570  1.3658 -0.1183 -0.4263
 1149SOL    HW214910   3.664   1.624   4.629 -0.4990 -0.9186 -2.3597
 1150SOL     OW14911   0.352   0.903  12.921 -0.1228 -0.7171  0.3218
 1150SOL    HW114912   0.296   0.858  12.857 -0.2806  1.2438 -0.9350
 1150SOL    HW214913   0.361   0.840  12.993  1.9815  0.9278  1.5132
 1151SOL     OW14914   4.294   2.341   6.136  0.6364 -0.0920  0.4509
 1151SOL    HW114915   4.378   2.387   6.144  0.5808 -0.5776  3.7060
 1151SOL    HW214916   4.254   2.376   6.056 -1.2870 -2.3008  0.4530
 1152SOL     OW14917   1.553   2.689   3.415 -0.2065  0.3996 -0.5306
 1152SOL    HW114918   1.629   2.652   3.369 -0.0447 -0.5427  0.4989
 1152SOL    HW214919   1.487   2.620   3.412  0.5167 -0.3818  1.8332
 1153SOL     OW14920   2.311   1.559   8.525  0.2017 -0.9233  0.0466
 1153SOL    HW114921   2.403   1.536   8.527  0.1054 -1.0992  2.1917
 1153SOL    HW214922   2.305   1.601   8.611 -1.2390 -3.0583  1.0121
 1154SOL     OW14923   0.307   3.818   1.148 -0.4312 -0.2823  0.1416
 1154SOL    HW114924   0.344   3.834   1.235 -1.2391 -1.7222  0.7381
 1154SOL    HW214925   0.287   3.725   1.151  0.7042 -0.5413 -0.3572
 1155SOL     OW14926   4.100   0.895   6.733 -0.0422 -0.3260 -0.4390
 1155SOL    HW114927   4.151   0.889   6.653  0.2555 -2.9463 -0.0396
 1155SOL    HW214928   4.088   0.804   6.760  1.3614 -0.1509  0.7713
 1156SOL     OW14929   1.494   1.608   8.627 -0.7482  0.5595  0.2225
 1156SOL    HW114930   1.554   1.616   8.702 -0.5155 -2.4862  0.3476
 1156SOL    HW214931   1.552   1.556   8.571 -1.5455  0.9006 -0.8923
 1157SOL     OW14932   1.792   4.340   1.896 -0.8017  0.6068  0.1245
 1157SOL    HW114933   1.719   4.301   1.943 -1.8241  0.7247 -1.3707
 1157SOL    HW214934   1.784   4.430   1.928 -0.6029 -0.4294  3.1034
 1158SOL     OW14935   0.813   1.254   8.151  0.8139  0.1559 -0.6047
 1158SOL    HW114936   0.728   1.287   8.183  0.2465  0.6997 -2.6580
 1158SOL    HW214937   0.811   1.276   8.058  0.2027  2.0961 -0.1271
 1159SOL     OW14938   2.675   0.160   9.860 -0.0673 -0.7907 -0.0094
 1159SOL    HW114939   2.706   0.178   9.771  0.3988  4.7125  1.2593
 1159SOL    HW214940   2.615   0.234   9.867  0.9064 -0.1723  1.8290
 1160SOL     OW14941   2.460   0.432  12.063  0.0976  0.4064 -0.6599
 1160SOL    HW114942   2.543   0.451  12.106 -0.3986 -1.6500  1.2223
 1160SOL    HW214943   2.487   0.384  11.985 -1.8659 -0.5082 -0.7800
 1161SOL     OW14944   2.327   2.122   7.005 -0.1740 -0.3556  0.0173
 1161SOL    HW114945   2.265   2.190   6.979 -0.3883 -1.0429 -1.2682
 1161SOL    HW214946   2.371   2.168   7.076 -0.1438 -0.6578  0.1963
 1162SOL     OW14947   3.158   2.139  13.796 -0.6739 -0.0721  0.3050
 1162SOL    HW114948   3.198   2.052  13.805  1.9194  1.0333 -0.6521
 1162SOL    HW214949   3.233   2.198  13.790  0.4475 -1.7393 -1.9347
 1163SOL     OW14950   1.625   1.843  12.588 -0.2455  0.9817 -0.2792
 1163SOL    HW114951   1.602   1.906  12.656 -0.4663 -0.4915  1.0079
 1163SOL    HW214952   1.685   1.887  12.528  0.0849  0.3379 -0.4155
 1164SOL     OW14953   0.932   2.511   9.130  0.5945  0.3336 -0.7030
 1164SOL    HW114954   0.945   2.460   9.211 -2.7560 -0.3654 -0.5724
 1164SOL    HW214955   0.962   2.450   9.063 -0.5319  1.3822 -2.1483
 1165SOL     OW14956   1.722   1.442   7.951  0.1731  0.6562  0.6423
 1165SOL    HW114957   1.746   1.464   7.861 -0.8352  4.0632  1.2050
 1165SOL    HW214958   1.628   1.447   7.937  0.4949  2.3639 -0.8924
 1166SOL     OW14959   4.690   1.256   4.094 -0.0566  0.7216 -0.4331
 1166SOL    HW114960   4.663   1.165   4.082  1.8558 -0.0761  1.2432
 1166SOL    HW214961   4.608   1.300   4.116  0.8986  2.0981  0.3532
 1167SOL     OW14962   1.586   3.202  11.050  0.9195  0.0468  0.1570
 1167SOL    HW114963   1.657   3.139  11.040  1.3845  0.5443  0.3689
 1167SOL    HW214964   1.622   3.251  11.124  2.0196 -1.0439  0.3498
 1168SOL     OW14965   3.360   0.503   0.904 -0.6655 -0.4973 -0.4356
 1168SOL    HW114966   3.333   0.414   0.929 -2.8071  0.4623  0.7000
 1168SOL    HW214967   3.371   0.543   0.990  0.9805 -0.7678 -0.5124
 1169SOL     OW14968   2.563   0.193   8.820 -0.4702  0.2181  0.4869
 1169SOL    HW114969   2.501   0.122   8.807 -0.1367  0.2694 -1.3922
 1169SOL    HW214970   2.652   0.157   8.821  0.0196  1.4240  0.7541
 1170SOL     OW14971   3.129   3.298   2.711 -0.2515 -0.1664 -0.1914
 1170SOL    HW114972   3.143   3.335   2.798 -0.1194  1.8314 -1.0554
 1170SOL    HW214973   3.076   3.357   2.657 -1.4671 -0.8265  0.2690
 1171SOL     OW14974   4.177   4.559   0.901 -0.7209  0.7374  0.0056
 1171SOL    HW114975   4.201   4.581   0.991 -0.5720  2.2730 -0.4140
 1171SOL    HW214976   4.254   4.592   0.855 -0.0399 -0.5569  0.2149
 1172SOL     OW14977   1.399   1.020   5.044  0.0864  0.3280 -0.2025
 1172SOL    HW114978   1.320   0.966   5.051  1.1894 -1.0859  1.4458
 1172SOL    HW214979   1.420   0.977   4.962 -1.2409  0.9150 -0.8530
 1173SOL     OW14980   3.658   1.394   3.596 -0.1142  0.7520  0.1036
 1173SOL    HW114981   3.711   1.316   3.609 -0.1942  1.1404  2.6772
 1173SOL    HW214982   3.720   1.453   3.553 -1.6027  0.6420 -2.2205
 1174SOL     OW14983   4.218   2.572   5.288 -0.6249 -0.4471 -0.4863
 1174SOL    HW114984   4.210   2.661   5.324  0.5715 -0.2214 -0.7857
 1174SOL    HW214985   4.138   2.534   5.323  0.7300 -1.6695  1.2598
 1175SOL     OW14986   4.112   2.498   6.733 -0.5618 -0.4380 -0.2470
 1175SOL    HW114987   4.151   2.579   6.765 -1.0619 -0.4413  0.3692
 1175SOL    HW214988   4.169   2.495   6.656  1.0724 -0.2397  0.9500
 1176SOL     OW14989   1.298   3.160   2.691 -0.2271 -0.3987  0.3702
 1176SOL    HW114990   1.245   3.086   2.661  0.2030 -0.3898 -0.4037
 1176SOL    HW214991   1.355   3.153   2.615  0.9520  1.7442  1.0744
 1177SOL     OW14992   4.514   1.217   2.859  0.1547 -0.3523  0.3707
 1177SOL    HW114993   4.525   1.310   2.876  1.2674 -0.8232  2.2929
 1177SOL    HW214994   4.448   1.227   2.791  0.5151  0.1507  0.0957
 1178SOL     OW14995   4.703   1.243   5.595 -0.4580  0.2047 -0.2720
 1178SOL    HW114996   0.045   1.204   5.648  0.4698 -0.0646 -1.6638
 1178SOL    HW214997   0.005   1.333   5.580  0.2329 -0.0711 -0.5814
 1179SOL     OW14998   0.461   2.525  11.829  0.4332  0.5009  0.3061
 1179SOL    HW114999   0.501   2.610  11.815 -0.3888  0.4611 -2.3546
 1179SOL    HW215000   0.456   2.531  11.924  0.7815  1.5719  0.2584
 1180SOL     OW15001   0.011   2.156  12.138  0.1558  0.5564  0.5271
 1180SOL    HW115002   0.003   2.060  12.136  1.8509  0.5112 -3.0649
 1180SOL    HW215003   0.079   2.166  12.206  0.8801 -1.0050  0.0330
 1181SOL     OW15004   0.111   1.184   4.537  0.4386 -0.6324 -0.3283
 1181SOL    HW115005   0.108   1.092   4.562  2.1347 -1.0456 -1.6047
 1181SOL    HW215006   0.181   1.219   4.591 -0.7176  1.9921 -0.5418
 1182SOL     OW15007   4.075   1.891   2.622 -0.2992  0.1099  0.7562
 1182SOL    HW115008   4.093   1.800   2.599 -0.7973  0.2195 -0.0509
 1182SOL    HW215009   4.112   1.942   2.550 -0.6790  0.1620  0.5965
 1183SOL     OW15010   0.861   2.946   1.498 -0.4181 -0.5978 -0.3553
 1183SOL    HW115011   0.802   2.949   1.574  0.3123  0.0758  0.1917
 1183SOL    HW215012   0.873   2.853   1.483  3.7716 -0.3104  1.2442
 1184SOL     OW15013   3.560   0.628  14.754 -0.1794  0.0142  0.1474
 1184SOL    HW115014   3.608   0.711  14.749 -0.7472  0.2586 -1.3471
 1184SOL    HW215015   3.475   0.664  14.778 -0.5782 -1.9466  1.7200
 1185SOL     OW15016   1.269   1.308   7.171  0.0128 -0.1062 -0.5306
 1185SOL    HW115017   1.227   1.250   7.108  2.0299 -0.5207 -1.4999
 1185SOL    HW215018   1.194   1.366   7.179 -0.0057 -0.1807 -0.1555
 1186SOL     OW15019   1.189   3.952   8.512 -0.4711 -0.2670  0.5905
 1186SOL    HW115020   1.125   3.898   8.466 -0.6704  0.8483 -0.4735
 1186SOL    HW215021   1.241   3.889   8.561  0.1121  1.4490  2.1805
 1187SOL     OW15022   2.836   3.882   4.395  0.0766  0.1727  0.2601
 1187SOL    HW115023   2.752   3.880   4.350 -0.0655  0.9013  0.4955
 1187SOL    HW215024   2.894   3.892   4.319 -1.7053 -0.5656 -1.1923
 1188SOL     OW15025   0.496   4.350   8.557 -0.1041 -0.5295  0.5598
 1188SOL    HW115026   0.544   4.366   8.476 -2.4708 -0.1800 -0.7699
 1188SOL    HW215027   0.465   4.264   8.531  2.3647 -1.0442 -0.6415
 1189SOL     OW15028   3.663   3.124   6.583  0.4076 -0.0870 -0.0133
 1189SOL    HW115029   3.735   3.094   6.638 -0.8823 -0.8419  1.2472
 1189SOL    HW215030   3.672   3.218   6.596  0.0997  0.0577 -0.8263
 1190SOL     OW15031   4.687   4.503   4.465 -0.0340  0.1165  0.4226
 1190SOL    HW115032   4.712   4.432   4.406 -1.9685 -0.9816  0.9210
 1190SOL    HW215033   4.636   4.564   4.411 -1.0791 -1.1349 -0.0100
 1191SOL     OW15034   1.000   1.657   7.684  0.5926 -0.1525  0.1700
 1191SOL    HW115035   0.989   1.750   7.669 -1.0502 -0.2857  0.5520
 1191SOL    HW215036   1.053   1.641   7.606 -0.0709 -1.2953 -0.0531
 1192SOL     OW15037   3.974   3.908   3.940 -0.0704 -0.0396 -0.1528
 1192SOL    HW115038   4.041   3.846   3.969 -2.4336 -1.9663  1.1010
 1192SOL    HW215039   4.035   3.981   3.928  0.4407 -0.0248  2.5566
 1193SOL     OW15040   1.360   1.618   6.929 -1.1109 -0.3550  0.8538
 1193SOL    HW115041   1.412   1.551   6.975 -0.7641  0.6663  1.9265
 1193SOL    HW215042   1.292   1.558   6.897 -0.6451 -0.5564  0.2259
 1194SOL     OW15043   4.019   0.863   3.899  0.4421  0.1301  0.0994
 1194SOL    HW115044   3.966   0.859   3.820  2.3166 -1.3192 -1.0995
 1194SOL    HW215045   3.972   0.813   3.966 -2.7749  0.7428 -1.7106
 1195SOL     OW15046   1.117   0.677   6.969  0.2957  0.0691  0.6356
 1195SOL    HW115047   1.091   0.624   6.893 -1.1615  0.2195  1.0233
 1195SOL    HW215048   1.058   0.643   7.037 -0.0151  0.4770  0.5708
 1196SOL     OW15049   1.565   0.355  13.539 -0.3699  0.2699  0.1954
 1196SOL    HW115050   1.586   0.446  13.518 -0.2813  0.7388  2.3419
 1196SOL    HW215051   1.476   0.349  13.505  0.0772 -0.4398 -0.8406
 1197SOL     OW15052   4.586   3.618  14.133 -0.3524  0.1177  0.1886
 1197SOL    HW115053   4.677   3.644  14.114 -0.5496  0.9370  0.3425
 1197SOL    HW215054   4.594   3.592  14.225  0.2795 -0.2964  0.0192
 1198SOL     OW15055   1.668   3.681   8.935 -0.3280  0.3694  0.2546
 1198SOL    HW115056   1.627   3.706   9.018 -1.3015 -1.1385  0.2164
 1198SOL    HW215057   1.639   3.590   8.936 -0.3017  0.3600 -0.3112
 1199SOL     OW15058   3.086   4.140   4.303 -0.0957 -0.0434 -0.0003
 1199SOL    HW115059   3.060   4.073   4.240 -1.0981  0.2039  0.1548
 1199SOL    HW215060   3.027   4.202   4.259 -0.9580 -1.5943 -1.0200
 1200SOL     OW15061   3.818   3.377   6.535  0.4353 -0.5335  0.3850
 1200SOL    HW115062   3.832   3.446   6.471  0.0499 -0.8131 -0.0014
 1200SOL    HW215063   3.872   3.411   6.607  1.5725  0.1577 -0.8083
 1201SOL     OW15064   2.119   2.154   0.004  0.5016  0.2702 -0.2525
 1201SOL    HW115065   2.026   2.153   0.025  0.1038  0.9353 -1.9664
 1201SOL    HW215066   2.119   2.178  17.618  1.3234  0.8735 -0.0950
 1202SOL     OW15067   4.271   1.618   9.588  0.1047 -0.2547  0.4663
 1202SOL    HW115068   4.253   1.661   9.504 -0.2942  0.9503  1.1680
 1202SOL    HW215069   4.354   1.660   9.611  1.3707 -2.0933 -0.7080
 1203SOL     OW15070   1.833   1.695   2.489  0.1550  0.4187 -0.3372
 1203SOL    HW115071   1.763   1.630   2.489 -1.4117  2.1112  1.0133
 1203SOL    HW215072   1.820   1.752   2.413  2.3359  0.3978 -0.7308
 1204SOL     OW15073   1.131   0.077   5.012 -0.3212 -0.2852  0.0186
 1204SOL    HW115074   1.068   0.029   4.958 -1.1997  0.5929  0.2597
 1204SOL    HW215075   1.175   0.118   4.937  0.2963 -0.2368  0.4074
 1205SOL     OW15076   4.391   1.816   7.745  0.2436  0.4087  0.0484
 1205SOL    HW115077   4.473   1.777   7.775  0.2898  0.9565  0.6395
 1205SOL    HW215078   4.414   1.889   7.688  0.3495 -0.2838 -0.7903
 1206SOL     OW15079   3.546   1.912   9.059  0.1111  0.1804 -0.0799
 1206SOL    HW115080   3.558   2.007   9.060 -0.9122  0.3102  0.0254
 1206SOL    HW215081   3.626   1.870   9.089 -0.2320  0.2893  0.9886
 1207SOL     OW15082   3.327   2.790   5.520 -0.4644  0.2358 -0.0826
 1207SOL    HW115083   3.269   2.725   5.482  0.2875 -2.0385  2.6273
 1207SOL    HW215084   3.261   2.839   5.569 -1.6707  0.0099 -1.5079
 1208SOL     OW15085   1.621   0.618   7.306 -0.0330  0.1312 -0.0512
 1208SOL    HW115086   1.613   0.674   7.229 -0.4274  2.4275  1.6460
 1208SOL    HW215087   1.641   0.681   7.375 -1.4867  0.3298  0.2041
 1209SOL     OW15088   2.615   3.450   7.840 -0.4676 -0.1796 -0.5619
 1209SOL    HW115089   2.689   3.500   7.805  0.8886 -1.0437  1.0670
 1209SOL    HW215090   2.625   3.366   7.796 -1.1231 -0.1706 -0.7233
 1210SOL     OW15091   0.448   0.083  17.667 -0.0852  0.2100 -0.3277
 1210SOL    HW115092   0.480   0.006   0.007  1.6848  0.8301 -0.5324
 1210SOL    HW215093   0.381   0.045  17.611  0.5146 -2.0869  0.5284
 1211SOL     OW15094   0.562   0.461   5.571 -0.1665 -0.1304 -0.0952
 1211SOL    HW115095   0.564   0.429   5.481 -0.0121 -2.1631  0.6398
 1211SOL    HW215096   0.571   0.556   5.557 -1.3252 -0.1995 -1.3442
 1212SOL     OW15097   0.953   2.520  17.606  0.3658  0.5521 -0.5667
 1212SOL    HW115098   0.926   2.585  17.671 -0.4868 -1.2725  0.8843
 1212SOL    HW215099   1.004   2.459  17.658 -0.3750  1.5047  1.2529
 1213SOL     OW15100   0.549   0.500  13.820  0.0771  0.1677 -0.2775
 1213SOL    HW115101   0.615   0.439  13.786 -0.5669 -0.4058 -0.4837
 1213SOL    HW215102   0.542   0.555  13.742  1.0492  0.9380  0.1773
 1214SOL     OW15103   2.715   1.389   2.776  0.5401 -0.4793 -0.3401
 1214SOL    HW115104   2.772   1.466   2.769  1.7391 -1.5414 -2.3693
 1214SOL    HW215105   2.667   1.388   2.694  0.1506  2.8582 -0.1438
 1215SOL     OW15106   3.136   3.142   4.164  0.2388  0.3712  1.0035
 1215SOL    HW115107   3.095   3.079   4.104 -2.0479 -0.2386  3.1757
 1215SOL    HW215108   3.175   3.201   4.100 -1.7786  0.2805 -0.3010
 1216SOL     OW15109   1.060   4.160   8.652  0.4040 -0.0352 -0.0826
 1216SOL    HW115110   1.111   4.090   8.610 -0.3351 -2.0509  2.3570
 1216SOL    HW215111   1.109   4.176   8.733  2.3391  0.5179 -1.3713
 1217SOL     OW15112   0.694   0.130   5.924  0.3513 -0.7614  0.1285
 1217SOL    HW115113   0.604   0.133   5.890  0.1980  0.4385  0.6275
 1217SOL    HW215114   0.730   0.199   5.869 -0.1594 -1.9102 -1.6334
 1218SOL     OW15115   2.667   0.367   6.785  0.0219 -0.4171  0.7285
 1218SOL    HW115116   2.633   0.354   6.873 -2.4812 -0.5378 -0.2633
 1218SOL    HW215117   2.601   0.339   6.721  2.1980 -1.4367 -1.0861
 1219SOL     OW15118   0.148   3.317  10.318 -0.4625 -0.6051  0.5262
 1219SOL    HW115119   0.166   3.310  10.412  1.0278  0.0484  0.3015
 1219SOL    HW215120   0.208   3.249  10.285  0.9410  0.8515  0.0593
 1220SOL     OW15121   3.032   0.610   8.338 -0.3888 -0.3125 -0.1127
 1220SOL    HW115122   3.060   0.551   8.408 -2.3951 -0.5555  0.4817
 1220SOL    HW215123   3.106   0.600   8.279 -1.5697 -0.9903 -1.4608
 1221SOL     OW15124   0.227   1.871   8.792  0.0931  0.9862 -0.4236
 1221SOL    HW115125   0.319   1.897   8.787  0.3620 -0.1755 -1.5697
 1221SOL    HW215126   0.212   1.811   8.719  2.2599  0.2279 -0.2593
 1222SOL     OW15127   4.591   3.317  11.061  0.0069 -0.4026 -0.0934
 1222SOL    HW115128   4.534   3.384  11.021  1.6385  1.1560  0.1750
 1222SOL    HW215129   4.673   3.363  11.041  0.4719 -1.6562 -1.0480
 1223SOL     OW15130   0.972   2.646   5.047  0.5060  0.0882 -0.3429
 1223SOL    HW115131   0.914   2.722   5.058 -1.6037 -1.6968  0.8978
 1223SOL    HW215132   0.907   2.576   5.044  0.4213  0.0796  1.4953
 1224SOL     OW15133   4.667   0.065  17.322  0.3132  0.1697 -0.0689
 1224SOL    HW115134   4.584   0.021  17.307 -0.1014  1.4543 -1.4727
 1224SOL    HW215135   4.657   0.076  17.417 -0.0220 -0.2382 -0.0581
 1225SOL     OW15136   3.605   1.956   1.104  0.3762 -0.3642  0.0944
 1225SOL    HW115137   3.595   2.050   1.122 -1.5615 -0.4342 -0.5348
 1225SOL    HW215138   3.608   1.917   1.191  0.2452 -0.3533  0.1043
 1226SOL     OW15139   4.630   2.218   4.346  0.1482 -0.0432  0.5419
 1226SOL    HW115140   4.590   2.265   4.420  2.8261  1.2814  1.1777
 1226SOL    HW215141   4.700   2.170   4.391  0.2676  1.5176  2.0330
 1227SOL     OW15142   1.636   1.887   4.352  0.3515  0.0896  0.2786
 1227SOL    HW115143   1.634   1.889   4.448 -1.2767 -0.2251  0.2522
 1227SOL    HW215144   1.554   1.843   4.327  0.7844 -1.7299  2.0064
 1228SOL     OW15145   1.187   0.536   3.358 -0.2518  0.3062  0.2858
 1228SOL    HW115146   1.228   0.461   3.315 -0.0276  1.2044 -1.0912
 1228SOL    HW215147   1.107   0.537   3.305  0.1658  0.3307 -0.3488
 1229SOL     OW15148   4.139   3.833   6.619 -0.3310 -0.1517 -0.7887
 1229SOL    HW115149   4.194   3.757   6.641  0.5984  0.5979 -0.5424
 1229SOL    HW215150   4.184   3.908   6.659  0.0545 -0.1728 -1.1848
 1230SOL     OW15151   3.559   1.053   6.132  0.0362 -0.4852 -0.2392
 1230SOL    HW115152   3.598   0.967   6.121  0.1562 -0.6515  1.5018
 1230SOL    HW215153   3.553   1.082   6.041  1.2212 -0.3121 -0.2625
 1231SOL     OW15154   3.442   0.837   3.557  0.1813  0.0880 -0.3524
 1231SOL    HW115155   3.485   0.823   3.641  0.6725  1.9268 -0.2841
 1231SOL    HW215156   3.419   0.746   3.541 -2.3229  0.7870 -0.8277
 1232SOL     OW15157   4.068   1.827  16.089 -0.0317  0.1817  0.6908
 1232SOL    HW115158   3.992   1.770  16.086  0.4197 -0.3068 -1.1980
 1232SOL    HW215159   4.030   1.913  16.075  0.1119 -0.4879 -3.7105
 1233SOL     OW15160   3.551   2.419  15.028  0.3128  0.0025 -0.2485
 1233SOL    HW115161   3.551   2.505  15.070 -0.4873 -0.5833  0.9168
 1233SOL    HW215162   3.456   2.407  15.027  0.3508 -0.2920 -0.2073
 1234SOL     OW15163   1.786   0.088   5.528 -0.2919 -0.2671  0.2577
 1234SOL    HW115164   1.728   0.033   5.580 -0.4570  0.3462  0.7134
 1234SOL    HW215165   1.859   0.099   5.589  0.4142  0.2876 -0.6704
 1235SOL     OW15166   3.840   3.866  14.000  0.5019 -0.2242 -0.1932
 1235SOL    HW115167   3.866   3.925  14.070 -0.7200  0.0656  0.0061
 1235SOL    HW215168   3.915   3.809  13.983  2.4062  2.0897  0.5919
 1236SOL     OW15169   4.111   2.324   7.286  0.2203 -0.0132 -0.5287
 1236SOL    HW115170   4.108   2.324   7.190 -2.9456 -1.6525 -0.4422
 1236SOL    HW215171   4.035   2.378   7.307  0.4596  0.1897 -0.1971
 1237SOL     OW15172   4.250   3.923   8.363 -0.0740  0.5059 -0.2821
 1237SOL    HW115173   4.167   3.961   8.392 -0.2843  0.0779 -0.3292
 1237SOL    HW215174   4.283   3.880   8.443 -0.8544 -0.2114 -0.3449
 1238SOL     OW15175   2.478   1.288   7.263  0.6589  0.3128  0.5250
 1238SOL    HW115176   2.570   1.267   7.250  0.1114 -2.8796  1.8130
 1238SOL    HW215177   2.446   1.259   7.178 -2.2626  1.0168  1.3574
 1239SOL     OW15178   0.576   1.622  14.181 -0.7647  0.0133  0.2379
 1239SOL    HW115179   0.645   1.688  14.174 -2.2145  1.5859  0.8125
 1239SOL    HW215180   0.629   1.543  14.191  2.1438  1.8667 -0.6108
 1240SOL     OW15181   2.927   2.879   4.806 -0.0134  0.5202  0.2001
 1240SOL    HW115182   2.861   2.850   4.743 -0.3670 -0.6363  1.0932
 1240SOL    HW215183   2.922   2.974   4.803  2.2329  0.6185 -0.4203
 1241SOL     OW15184   4.480   2.464   9.530 -0.1631  0.4161  0.2812
 1241SOL    HW115185   4.468   2.449   9.623 -3.4593  0.0853 -0.2028
 1241SOL    HW215186   4.572   2.437   9.523 -1.0747 -2.1532 -2.0366
 1242SOL     OW15187   0.174   2.699   5.657  0.5611  0.4051  0.7534
 1242SOL    HW115188   0.203   2.727   5.571 -1.6583  1.9683  0.5309
 1242SOL    HW215189   0.164   2.604   5.650  0.6038  0.3873  0.9184
 1243SOL     OW15190   3.196   3.857   3.612  0.4544  0.2450 -0.5354
 1243SOL    HW115191   3.127   3.880   3.549 -1.6702 -1.9703  0.9901
 1243SOL    HW215192   3.253   3.797   3.565  0.2507 -0.2474 -0.1605
 1244SOL     OW15193   0.667   0.063  15.376  0.0054 -0.2933 -0.1210
 1244SOL    HW115194   0.635   0.153  15.372  0.6737  0.1176  3.2909
 1244SOL    HW215195   0.583   0.020  15.390 -0.2867  0.3969  0.2840
 1245SOL     OW15196   0.269   1.515   6.701 -0.5063 -0.2445 -0.0924
 1245SOL    HW115197   0.238   1.425   6.699 -1.3053  0.0801 -2.2776
 1245SOL    HW215198   0.207   1.546   6.767 -0.0322 -1.3786  0.8859
 1246SOL     OW15199   0.711   0.250   8.045  0.2043 -0.2817  0.6478
 1246SOL    HW115200   0.662   0.217   8.120 -0.6743 -0.2600  0.0822
 1246SOL    HW215201   0.793   0.282   8.084  0.2492  0.3783  0.0177
 1247SOL     OW15202   0.923   0.140  14.539  0.0959  0.5350 -0.0226
 1247SOL    HW115203   0.887   0.092  14.464  0.8072 -2.1847  1.3920
 1247SOL    HW215204   0.885   0.228  14.529 -2.4474 -0.4166  1.3643
 1248SOL     OW15205   2.791   0.557   4.895 -0.2072 -0.2126 -0.0534
 1248SOL    HW115206   2.839   0.567   4.977 -0.4570 -0.7249  0.1583
 1248SOL    HW215207   2.706   0.591   4.923 -0.4185 -1.4529  0.8321
 1249SOL     OW15208   4.684   3.847   3.310 -0.1541  0.2849 -0.5004
 1249SOL    HW115209   4.630   3.827   3.234  0.5886 -0.8114 -0.7257
 1249SOL    HW215210   0.040   3.869   3.268 -0.0154 -0.3770 -0.5649
 1250SOL     OW15211   0.380   0.612   6.636 -0.0436  0.4081  0.0213
 1250SOL    HW115212   0.327   0.656   6.570 -0.8644  0.4765  0.7272
 1250SOL    HW215213   0.378   0.532   6.583  0.0167  0.8844 -0.7045
 1251SOL     OW15214   3.342   0.418   4.768  0.2742  0.7125  0.8863
 1251SOL    HW115215   3.423   0.383   4.807  0.1899 -2.8579 -2.2443
 1251SOL    HW215216   3.377   0.482   4.706  1.3059  1.3930  2.1482
 1252SOL     OW15217   0.321   3.575   1.206 -0.2605 -0.0843 -0.1036
 1252SOL    HW115218   0.339   3.537   1.292  0.3874  1.1980  0.3166
 1252SOL    HW215219   0.307   3.498   1.150 -2.0861  0.3539 -0.2426
 1253SOL     OW15220   1.358   4.604   8.227  0.6209 -0.3065  0.0310
 1253SOL    HW115221   1.416   4.530   8.209 -0.5879 -1.0166 -0.9643
 1253SOL    HW215222   1.333   4.564   8.310  0.7848 -0.4652  0.0053
 1254SOL     OW15223   0.455   3.386   2.833  0.3914  0.2432 -0.0052
 1254SOL    HW115224   0.386   3.414   2.893 -0.3851  0.6166 -1.0798
 1254SOL    HW215225   0.445   3.293   2.813 -0.9731  0.2630  0.6133
 1255SOL     OW15226   4.361   3.112   3.787 -0.6368 -0.1923 -0.2944
 1255SOL    HW115227   4.330   3.026   3.758  1.1232 -1.1199  0.5877
 1255SOL    HW215228   4.287   3.169   3.766 -2.4257 -1.7883  1.7649
 1256SOL     OW15229   4.495   4.708   3.020  0.5261  0.2883 -0.3423
 1256SOL    HW115230   4.465   0.008   3.107 -1.0957  1.1750 -1.1832
 1256SOL    HW215231   4.548   4.635   3.052  0.4714  0.1864 -0.4853
 1257SOL     OW15232   0.050   4.415  17.056 -0.2895  0.1161 -1.5240
 1257SOL    HW115233   0.033   4.389  17.147 -0.6887  0.7050 -1.4296
 1257SOL    HW215234   0.018   4.337  17.010 -0.2036 -1.6516  1.4089
 1258SOL     OW15235   2.027   2.231   5.871  0.0497 -0.3180 -0.1541
 1258SOL    HW115236   2.042   2.317   5.909 -2.4110 -0.2330  0.6173
 1258SOL    HW215237   1.954   2.192   5.918  1.0698  0.1427  1.7953
 1259SOL     OW15238   3.258   1.020   2.297  0.2454  0.3500  0.0336
 1259SOL    HW115239   3.307   1.100   2.316  0.8178  0.4236 -1.8093
 1259SOL    HW215240   3.201   1.042   2.223 -0.2977 -0.0014  0.3483
 1260SOL     OW15241   1.729   0.804   4.082 -0.7756  0.5530  0.0430
 1260SOL    HW115242   1.731   0.772   3.992 -1.4966  0.9598 -0.1210
 1260SOL    HW215243   1.737   0.724   4.134  0.8063  2.0750  2.1340
 1261SOL     OW15244   2.017   0.766   3.255  0.2593  0.1787  0.3173
 1261SOL    HW115245   2.029   0.845   3.203 -0.4869  1.2876  1.8137
 1261SOL    HW215246   1.959   0.791   3.328 -1.2472  3.2473 -1.9528
 1262SOL     OW15247   0.893   1.463   2.244 -0.3980  0.1907 -0.3602
 1262SOL    HW115248   0.923   1.418   2.165 -2.7123 -1.8749 -0.1002
 1262SOL    HW215249   0.801   1.442   2.228 -0.1149 -1.0730 -0.3240
 1263SOL     OW15250   4.459   3.346   4.732 -0.3054  0.4210 -0.2268
 1263SOL    HW115251   4.453   3.251   4.736  0.5410  0.3391 -0.9699
 1263SOL    HW215252   4.373   3.350   4.690 -0.0911  2.3611 -0.4631
 1264SOL     OW15253   1.299   4.451   6.814  1.1387  0.0472  0.1419
 1264SOL    HW115254   1.324   4.417   6.728 -0.3512 -0.6125 -0.0305
 1264SOL    HW215255   1.347   4.392   6.872 -0.8556 -1.1786  0.5011
 1265SOL     OW15256   2.793   3.364   3.767 -0.3294  0.0183 -0.3075
 1265SOL    HW115257   2.791   3.425   3.841  0.8807 -0.7649  0.3683
 1265SOL    HW215258   2.748   3.418   3.703 -0.0601  0.2664 -0.2865
 1266SOL     OW15259   3.356   2.975   3.158  0.1220 -0.1316 -0.3054
 1266SOL    HW115260   3.327   2.887   3.134  0.9127 -0.7975  1.1767
 1266SOL    HW215261   3.401   3.005   3.080  0.5451 -0.2734 -0.1184
 1267SOL     OW15262   0.832   4.521   0.134  0.5749  0.1037 -0.2822
 1267SOL    HW115263   0.801   4.590   0.193  0.8433  0.4150 -0.5099
 1267SOL    HW215264   0.862   4.458   0.200 -1.2191  0.2295  0.6525
 1268SOL     OW15265   2.780   0.412   9.250 -0.2526  0.2770  0.4501
 1268SOL    HW115266   2.865   0.457   9.254 -0.8467  1.6410 -2.4104
 1268SOL    HW215267   2.803   0.329   9.291  0.6295  0.3055  0.0186
 1269SOL     OW15268   2.939   3.767  12.887  0.3661 -0.7094  0.2910
 1269SOL    HW115269   2.865   3.762  12.948 -0.3915 -0.9041 -0.6467
 1269SOL    HW215270   2.941   3.862  12.872  0.7604 -1.0201 -1.5833
 1270SOL     OW15271   4.495   2.325  15.297  0.1355  0.4018  0.0145
 1270SOL    HW115272   4.589   2.335  15.317  0.8395 -3.0649 -1.6488
 1270SOL    HW215273   4.487   2.254  15.234  1.9840  0.6573 -0.5377
 1271SOL     OW15274   4.206   0.863   8.392 -0.2802  0.2260 -0.1582
 1271SOL    HW115275   4.137   0.917   8.352  0.5822  0.4270 -1.3783
 1271SOL    HW215276   4.200   0.871   8.487  1.0304  3.0927 -0.3289
 1272SOL     OW15277   2.950   2.014   8.651 -0.3684  0.2934  0.2743
 1272SOL    HW115278   2.921   1.924   8.640 -1.0330  0.5064  0.2503
 1272SOL    HW215279   3.002   2.035   8.573  0.7596  2.1105  1.5063
 1273SOL     OW15280   3.813   1.496   5.856 -0.2165  0.4565  1.0762
 1273SOL    HW115281   3.798   1.428   5.922  0.5118  0.7669  1.5664
 1273SOL    HW215282   3.775   1.458   5.777  0.1573 -0.7540  1.4736
 1274SOL     OW15283   0.945   0.464   2.860 -0.1580 -0.1147 -0.1398
 1274SOL    HW115284   1.018   0.460   2.798 -0.1046 -0.7704 -0.0357
 1274SOL    HW215285   0.933   0.557   2.840  2.8774  0.4393  0.5910
 1275SOL     OW15286   3.951   1.516   2.798  0.4527 -0.1740 -0.2566
 1275SOL    HW115287   3.935   1.448   2.732 -1.9116  1.2758 -1.1768
 1275SOL    HW215288   3.879   1.578   2.789 -0.3126 -0.8542  1.1105
 1276SOL     OW15289   3.971   3.120   8.234  0.5728 -0.3116  0.6372
 1276SOL    HW115290   3.979   3.215   8.247  0.0752 -0.1060 -0.5793
 1276SOL    HW215291   3.980   3.124   8.139 -1.6616 -0.6282  0.4101
 1277SOL     OW15292   2.029   4.351  17.500  0.9180 -0.7178  0.0481
 1277SOL    HW115293   2.115   4.379  17.468  1.3470 -2.6612 -0.5347
 1277SOL    HW215294   2.051   4.332  17.591 -2.8841 -2.3486  0.6331
 1278SOL     OW15295   3.070   2.542   3.072  0.1293  0.2953 -0.1826
 1278SOL    HW115296   3.103   2.537   2.982 -1.8926  0.4462 -0.9220
 1278SOL    HW215297   2.979   2.524   3.051 -0.2892  0.3625  1.6375
 1279SOL     OW15298   1.109   3.121   7.281  0.2788 -0.1411  0.0164
 1279SOL    HW115299   1.082   3.029   7.290 -3.0021  0.5526 -2.7575
 1279SOL    HW215300   1.056   3.162   7.349 -1.9254 -0.8829 -1.2188
 1280SOL     OW15301   4.594   1.558   5.006 -0.0248 -0.0387 -0.4785
 1280SOL    HW115302   4.537   1.621   4.961 -0.7812  0.5440  1.2905
 1280SOL    HW215303   4.590   1.589   5.097 -0.6606 -0.9378 -0.1927
 1281SOL     OW15304   3.465   0.002  17.673  0.0177 -0.1092  0.1618
 1281SOL    HW115305   3.427   4.667  17.610  1.0539  0.3461 -0.8980
 1281SOL    HW215306   3.558   4.721  17.650 -0.1488  1.1823 -0.9037
 1282SOL     OW15307   2.727   2.228  12.018 -0.0049 -0.4638  0.0705
 1282SOL    HW115308   2.706   2.146  11.974 -0.8667  0.5038 -1.3022
 1282SOL    HW215309   2.777   2.283  11.958 -1.8352  2.7181  1.4773
 1283SOL     OW15310   2.807   0.353   4.308  0.5953 -0.3381 -0.0762
 1283SOL    HW115311   2.744   0.332   4.376 -1.7300  3.5538 -1.0156
 1283SOL    HW215312   2.785   0.292   4.238  1.3656 -1.1391  0.3864
 1284SOL     OW15313   2.786   2.133   9.637 -0.4671 -0.0107  0.6645
 1284SOL    HW115314   2.824   2.218   9.614 -0.2812 -0.3627 -0.3215
 1284SOL    HW215315   2.867   2.087   9.659  0.0215 -0.5119 -2.1484
 1285SOL     OW15316   2.641   0.352  16.550  0.3497  0.0894 -0.4090
 1285SOL    HW115317   2.717   0.339  16.606 -1.2051 -2.1696  1.1484
 1285SOL    HW215318   2.678   0.424  16.499 -0.0905 -0.3969 -1.4214
 1286SOL     OW15319   2.459   0.694   6.686  0.6116  0.2414  0.4042
 1286SOL    HW115320   2.549   0.668   6.710  0.8298 -0.3141 -1.0162
 1286SOL    HW215321   2.453   0.638   6.608  1.4776  0.6499  0.0345
 1287SOL     OW15322   3.237   0.907  10.589 -0.1576 -0.0985  0.0381
 1287SOL    HW115323   3.153   0.912  10.634  0.1731 -2.0649  0.8542
 1287SOL    HW215324   3.289   0.838  10.631  2.0098  2.0309  0.8526
 1288SOL     OW15325   0.818   2.313  16.388  0.4306  0.2464  0.5548
 1288SOL    HW115326   0.880   2.241  16.390 -1.2361 -1.2943 -2.9411
 1288SOL    HW215327   0.774   2.303  16.303  0.1770 -1.0389  0.8475
 1289SOL     OW15328   4.562   4.670   9.997 -0.5621  0.8598 -0.4106
 1289SOL    HW115329   4.657   4.685  10.000 -0.2601 -1.2155  0.8443
 1289SOL    HW215330   4.528   0.013  10.053 -0.4116  0.2726  0.4149
 1290SOL     OW15331   3.814   4.310   5.134  0.6069 -0.0219  0.1898
 1290SOL    HW115332   3.752   4.368   5.091 -1.4422 -2.1513  0.3220
 1290SOL    HW215333   3.755   4.256   5.186 -1.0465  0.5126 -1.1443
 1291SOL     OW15334   2.657   1.988   9.423  0.7452  0.0188  0.1781
 1291SOL    HW115335   2.616   1.937   9.493 -2.0775  0.9834 -0.7816
 1291SOL    HW215336   2.704   2.053   9.474 -2.5281  2.6935 -0.2077
 1292SOL     OW15337   2.831   0.234   8.553  0.3428 -0.7229 -0.4363
 1292SOL    HW115338   2.874   0.201   8.632  0.3121 -1.3436 -0.6746
 1292SOL    HW215339   2.896   0.214   8.486  1.2916 -2.4587  1.0183
 1293SOL     OW15340   0.417   1.318   8.868  0.0813 -0.4292 -0.6171
 1293SOL    HW115341   0.396   1.411   8.875 -0.5313 -0.6430  0.3721
 1293SOL    HW215342   0.432   1.293   8.959  0.9390  0.0963 -0.6189
 1294SOL     OW15343   2.271   4.209   4.601 -0.5833 -0.0918  0.1607
 1294SOL    HW115344   2.341   4.271   4.582 -0.1267  0.0860  2.4431
 1294SOL    HW215345   2.289   4.187   4.693  0.5605  0.4097  0.0533
 1295SOL     OW15346   0.451   3.664   6.094  0.1465  0.2924 -0.3906
 1295SOL    HW115347   0.484   3.628   6.012  0.9860  2.8330 -1.1514
 1295SOL    HW215348   0.537   3.651   6.135 -0.5127  0.1996  0.9714
 1296SOL     OW15349   2.056   0.338   5.454  0.2961  0.1460  0.8838
 1296SOL    HW115350   2.042   0.401   5.524 -2.0962  0.1308  0.4269
 1296SOL    HW215351   2.054   0.256   5.503  2.0313 -0.8950 -0.7933
 1297SOL     OW15352   2.769   1.952  11.904  0.1829  0.3712  0.2435
 1297SOL    HW115353   2.691   1.937  11.850  0.7596  1.4883 -0.8874
 1297SOL    HW215354   2.829   1.954  11.830  0.1347 -0.3613  0.1815
 1298SOL     OW15355   0.595   4.354   7.698  0.1507 -0.2610 -0.3778
 1298SOL    HW115356   0.612   4.447   7.690 -0.3318 -0.1060  0.4587
 1298SOL    HW215357   0.579   4.345   7.792  2.2153  1.6690  0.1382
 1299SOL     OW15358   4.121   2.661   3.916  0.4367  0.1274 -0.0199
 1299SOL    HW115359   4.094   2.714   3.991 -0.5754  2.1348 -1.8099
 1299SOL    HW215360   4.216   2.674   3.918  0.6435 -1.4668  0.1299
 1300SOL     OW15361   3.930   0.766   3.256  0.3078  0.0023 -0.0435
 1300SOL    HW115362   3.964   0.707   3.190 -0.9723  1.5956 -2.1095
 1300SOL    HW215363   3.912   0.844   3.204 -2.6411 -0.1709  0.6732
 1301SOL     OW15364   1.727   0.203   2.954  0.0397  0.0827 -0.0881
 1301SOL    HW115365   1.795   0.237   2.897 -0.1440  3.7935  1.8858
 1301SOL    HW215366   1.771   0.152   3.021 -0.2090 -0.7479 -0.5636
 1302SOL     OW15367   2.606   3.812   7.139 -0.1383  0.2376 -0.3268
 1302SOL    HW115368   2.624   3.897   7.180 -3.0856 -0.1102  1.7204
 1302SOL    HW215369   2.693   3.775   7.146 -0.3953 -0.0440  1.5090
 1303SOL     OW15370   4.060   0.974  14.171 -0.0418  0.5950  0.7261
 1303SOL    HW115371   4.083   0.938  14.256  0.0316 -0.6229  0.1941
 1303SOL    HW215372   4.152   0.983  14.146  0.2284  1.1829  1.9427
 1304SOL     OW15373   1.167   3.552   8.556 -0.0086 -0.5850 -0.4509
 1304SOL    HW115374   1.225   3.478   8.576 -0.1873 -0.2694  1.2367
 1304SOL    HW215375   1.177   3.608   8.633  0.9996 -1.2838 -0.0651
 1305SOL     OW15376   4.720   0.196   3.758  0.0589 -0.1878  0.3567
 1305SOL    HW115377   4.702   0.254   3.832 -1.0357 -0.4790  0.3096
 1305SOL    HW215378   0.070   0.242   3.723 -0.7287  0.3273 -0.6845
 1306SOL     OW15379   0.000   1.196  16.455  0.4051  0.3737  0.2479
 1306SOL    HW115380   4.663   1.168  16.520  0.9331  0.8625  0.9880
 1306SOL    HW215381   4.685   1.276  16.422  1.7171  0.9836  0.0693
 1307SOL     OW15382   0.207   0.340   3.708  0.1865 -0.2193 -0.3821
 1307SOL    HW115383   0.282   0.310   3.760  0.0983 -1.0753 -0.7501
 1307SOL    HW215384   0.227   0.433   3.718  1.3867 -0.4344 -0.8681
 1308SOL     OW15385   0.996   3.146  15.550  0.2387 -0.5100  0.3251
 1308SOL    HW115386   0.949   3.064  15.561  0.1175 -0.3961  0.6684
 1308SOL    HW215387   0.932   3.217  15.553 -1.6189 -2.0986 -1.8452
 1309SOL     OW15388   0.388   3.412   7.310  0.2584 -0.4017  0.1162
 1309SOL    HW115389   0.452   3.394   7.241 -1.2352 -4.5438 -0.1339
 1309SOL    HW215390   0.298   3.412   7.279 -0.0618 -0.2249  1.0451
 1310SOL     OW15391   1.324   3.346  10.118  0.8115 -0.6951 -0.0489
 1310SOL    HW115392   1.376   3.278  10.075 -0.6724 -1.1862 -1.0745
 1310SOL    HW215393   1.367   3.355  10.203  1.6001  2.3160 -0.7548
 1311SOL     OW15394   0.758   2.544  11.799 -0.1409  0.4278  0.3876
 1311SOL    HW115395   0.729   2.454  11.814  0.1118  0.0717 -1.3248
 1311SOL    HW215396   0.736   2.554  11.707 -0.8145  2.4343  0.7766
 1312SOL     OW15397   3.374   1.410  12.451 -0.4179  0.3257  0.3352
 1312SOL    HW115398   3.392   1.322  12.416 -0.2091  0.4624  0.1042
 1312SOL    HW215399   3.427   1.462  12.391  2.3813 -1.2386  1.4250
 1313SOL     OW15400   0.121   3.443   7.268 -0.2842 -0.0352 -0.4767
 1313SOL    HW115401   0.042   3.388   7.271  1.6346 -2.7979 -1.1176
 1313SOL    HW215402   0.087   3.525   7.231 -1.2226 -0.2408 -0.0783
 1314SOL     OW15403   1.113   3.596  16.037 -0.3991 -0.2833  0.4661
 1314SOL    HW115404   1.201   3.596  15.998 -0.7196 -0.2633 -0.2619
 1314SOL    HW215405   1.133   3.552  16.119  0.1892  1.1891  1.1134
 1315SOL     OW15406   1.976   4.268  14.144  0.4651 -0.2164  0.0607
 1315SOL    HW115407   2.003   4.274  14.052 -0.0082  0.6719 -0.0225
 1315SOL    HW215408   2.056   4.283  14.194 -0.4279  1.0128  1.1139
 1316SOL     OW15409   4.646   0.034   9.627 -0.1328  0.3152 -0.1871
 1316SOL    HW115410   4.598   0.118   9.623  1.2659  1.0272 -1.8586
 1316SOL    HW215411   4.676   0.016   9.538  1.6943  0.3940  0.4160
 1317SOL     OW15412   4.380   0.851   2.203 -0.0912  0.5012 -0.4501
 1317SOL    HW115413   4.432   0.931   2.195  1.1002 -0.2195  0.0246
 1317SOL    HW215414   4.318   0.867   2.132  0.3202 -2.9262 -1.5546
 1318SOL     OW15415   2.024   2.489   5.207 -0.6930  0.1462 -0.1133
 1318SOL    HW115416   2.090   2.438   5.254 -1.5831 -0.1710  0.7930
 1318SOL    HW215417   1.955   2.422   5.202 -0.0827 -0.4886 -0.1435
 1319SOL     OW15418   2.282   4.427   8.703  0.0846  0.8086 -0.0891
 1319SOL    HW115419   2.270   4.393   8.792  0.3712  0.1455 -0.3015
 1319SOL    HW215420   2.367   4.389   8.681  0.0097 -0.1335  1.2288
 1320SOL     OW15421   4.365   1.232   3.311 -0.7521 -0.1784  0.0349
 1320SOL    HW115422   4.406   1.316   3.291  1.1438 -1.5349 -1.8301
 1320SOL    HW215423   4.448   1.183   3.310 -1.0145 -0.6106 -0.8361
 1321SOL     OW15424   3.588   2.911   7.514 -0.4116 -0.1553 -0.1909
 1321SOL    HW115425   3.538   2.836   7.546  1.0417 -1.6072 -1.3143
 1321SOL    HW215426   3.593   2.890   7.420  3.2347 -0.8695  0.1755
 1322SOL     OW15427   1.586   3.476   2.393 -0.2944  0.2810  0.3858
 1322SOL    HW115428   1.581   3.547   2.457 -0.5009  0.6834 -0.0786
 1322SOL    HW215429   1.518   3.497   2.329  0.0825 -1.6559 -0.6418
 1323SOL     OW15430   2.024   1.431   0.218  0.5531  0.1042 -0.5706
 1323SOL    HW115431   1.982   1.491   0.280  1.0254  0.0277 -0.1747
 1323SOL    HW215432   2.114   1.432   0.252  0.0472  1.7098  0.7697
 1324SOL     OW15433   1.588   2.678   0.654 -0.1291 -0.4030  0.6610
 1324SOL    HW115434   1.640   2.630   0.718  0.5627 -2.0788 -1.1498
 1324SOL    HW215435   1.647   2.754   0.648 -3.1153  1.9791  1.6023
 1325SOL     OW15436   3.944   0.192   7.912  0.0631  0.4972  0.4383
 1325SOL    HW115437   3.973   0.190   7.821  0.8930  2.7938  0.6722
 1325SOL    HW215438   4.031   0.219   7.943  0.4219  1.5183 -1.5105
 1326SOL     OW15439   3.559   3.107  10.992 -0.2931  0.1540 -0.0808
 1326SOL    HW115440   3.654   3.092  10.995 -0.3543 -0.8490 -2.3309
 1326SOL    HW215441   3.542   3.108  11.086  1.4448 -0.4517  0.2405
 1327SOL     OW15442   1.546   1.974   7.210 -0.7767  0.6631  0.0611
 1327SOL    HW115443   1.577   1.911   7.275  1.0026  1.5781  0.0888
 1327SOL    HW215444   1.611   1.953   7.144 -0.5234 -1.4503  0.9972
 1328SOL     OW15445   2.966   1.555  17.340  0.1228  0.1456  0.2250
 1328SOL    HW115446   3.001   1.556  17.251 -0.0233  0.2777  0.1695
 1328SOL    HW215447   2.928   1.642  17.354  0.4413  0.4078 -0.5647
 1329SOL     OW15448   4.615   2.184   7.450 -0.2557  0.3424  0.1313
 1329SOL    HW115449   4.595   2.248   7.518 -0.3593 -1.3110  1.6739
 1329SOL    HW215450   4.619   2.242   7.374 -0.4014  2.6549  1.8868
 1330SOL     OW15451   0.853   4.348  13.705  0.0408  0.2027  0.3397
 1330SOL    HW115452   0.766   4.375  13.674  0.6865 -0.5952 -2.1477
 1330SOL    HW215453   0.828   4.294  13.779  0.9602 -1.3277 -0.4835
 1331SOL     OW15454   4.145   1.869   5.666  0.2344 -0.7285  0.2809
 1331SOL    HW115455   4.236   1.853   5.690  0.2669  0.7764  1.1742
 1331SOL    HW215456   4.122   1.954   5.704 -0.1364 -1.7724  2.3632
 1332SOL     OW15457   4.214   2.521   4.735 -0.1173 -0.3283  0.3839
 1332SOL    HW115458   4.277   2.568   4.680  0.1496 -0.5534  0.4950
 1332SOL    HW215459   4.252   2.533   4.822 -1.8694  0.2599  1.0687
 1333SOL     OW15460   2.423   1.934  15.525 -0.7539  0.2497 -0.2718
 1333SOL    HW115461   2.353   1.972  15.578 -0.9658 -1.4008  0.6185
 1333SOL    HW215462   2.481   2.009  15.514  1.1626 -1.3683 -1.1977
 1334SOL     OW15463   0.586   2.505   8.960 -0.4933 -0.3401 -0.0882
 1334SOL    HW115464   0.661   2.472   8.911 -0.5130  0.0143 -0.3645
 1334SOL    HW215465   0.557   2.425   9.003 -2.4605  0.7373  0.5920
 1335SOL     OW15466   2.117   3.739   7.582  0.1589 -0.7220 -0.4771
 1335SOL    HW115467   2.087   3.650   7.602 -1.0074 -0.0989  0.5562
 1335SOL    HW215468   2.157   3.767   7.665 -2.8648  0.2282  0.6699
 1336SOL     OW15469   4.562   0.906   5.042 -0.4166 -0.1634  0.1023
 1336SOL    HW115470   4.482   0.860   5.067 -0.8327  1.3678  1.5660
 1336SOL    HW215471   4.526   0.986   5.006 -0.3810  0.0560  0.5475
 1337SOL     OW15472   1.456   4.315   4.372  0.6178 -0.7100 -0.1556
 1337SOL    HW115473   1.482   4.401   4.404 -2.7339 -0.0886  0.9149
 1337SOL    HW215474   1.426   4.356   4.292 -0.1346 -1.5374 -0.2973
 1338SOL     OW15475   2.754   1.463  10.006 -0.1006  0.1102 -0.1235
 1338SOL    HW115476   2.791   1.478  10.093 -0.7715 -3.0907  0.7100
 1338SOL    HW215477   2.763   1.546   9.958  2.0249 -0.3422 -0.4888
 1339SOL     OW15478   0.505   3.619   7.481  0.3711  0.0597 -0.0058
 1339SOL    HW115479   0.455   3.539   7.465  1.3929  0.2501 -3.9569
 1339SOL    HW215480   0.594   3.598   7.451  0.3394  0.7313 -0.5639
 1340SOL     OW15481   0.143   1.195   6.468  0.3429  0.1904 -0.2586
 1340SOL    HW115482   0.086   1.259   6.427  0.8515  0.8184  0.0056
 1340SOL    HW215483   0.129   1.211   6.562 -2.1859  0.9056 -0.7696
 1341SOL     OW15484   3.596   4.608   2.845  0.4591 -0.2445  0.3064
 1341SOL    HW115485   3.510   4.643   2.868  0.9289  0.4018  1.0839
 1341SOL    HW215486   3.655   4.682   2.858 -0.0217  0.3202 -0.7367
 1342SOL     OW15487   1.215   2.616   3.016 -0.6241 -0.0500 -0.4169
 1342SOL    HW115488   1.292   2.560   3.012 -0.0667  0.8063 -1.9939
 1342SOL    HW215489   1.213   2.630   3.111 -1.0008 -1.1729 -0.2647
 1343SOL     OW15490   3.057   4.136  10.412  1.0110 -0.3677 -0.3265
 1343SOL    HW115491   3.007   4.129  10.331 -0.1404  0.8635  0.2863
 1343SOL    HW215492   3.099   4.219  10.392 -0.0628  0.2674  0.0580
 1344SOL     OW15493   4.416   4.354   6.473 -0.3489  0.3639  0.1361
 1344SOL    HW115494   4.344   4.313   6.426 -0.7497  1.6925 -0.4125
 1344SOL    HW215495   4.404   4.319   6.561  1.7246  1.4866  0.8699
 1345SOL     OW15496   0.872   2.285   8.371 -0.0323  0.0945 -0.4256
 1345SOL    HW115497   0.816   2.321   8.440 -1.3631  0.0774 -1.5012
 1345SOL    HW215498   0.839   2.196   8.360 -3.2213  1.2315 -0.0019
 1346SOL     OW15499   4.417   1.768   4.957 -0.5786  0.1851 -0.4595
 1346SOL    HW115500   4.338   1.821   4.957 -0.2568  0.6654 -0.4281
 1346SOL    HW215501   4.459   1.796   5.038 -1.1408 -1.5704  0.4447
 1347SOL     OW15502   3.337   1.760   6.519  0.4340 -0.1021  0.2827
 1347SOL    HW115503   3.293   1.845   6.517 -1.2956 -1.0896 -3.5441
 1347SOL    HW215504   3.390   1.756   6.439 -0.6149  2.1065 -0.5420
 1348SOL     OW15505   1.530   2.140   3.187  0.1808  0.0562 -0.1835
 1348SOL    HW115506   1.496   2.079   3.252 -1.0053  1.7797  0.8387
 1348SOL    HW215507   1.526   2.225   3.231  0.4622 -0.5851  1.0704
 1349SOL     OW15508   3.228   0.710   5.757 -0.3094  0.4122  0.2235
 1349SOL    HW115509   3.218   0.734   5.849  0.5528 -0.6123  0.5780
 1349SOL    HW215510   3.292   0.776   5.730  1.2208 -2.4733 -3.2411
 1350SOL     OW15511   4.126   3.658   7.303 -0.1345 -0.0572  0.0585
 1350SOL    HW115512   4.143   3.690   7.215 -1.4676  0.3139 -0.0635
 1350SOL    HW215513   4.207   3.617   7.333 -1.7302 -2.1923  1.4279
 1351SOL     OW15514   4.528   2.421   9.246 -0.0165 -0.2127 -0.4926
 1351SOL    HW115515   4.474   2.488   9.288  0.2342  0.3947 -1.1317
 1351SOL    HW215516   4.475   2.343   9.264 -1.2696  0.2230 -2.1656
 1352SOL     OW15517   2.330   3.614   5.344  0.3737 -0.2483  0.3449
 1352SOL    HW115518   2.416   3.655   5.344  0.3915 -0.2877 -2.1015
 1352SOL    HW215519   2.321   3.578   5.432  2.2441 -2.0063 -0.1855
 1353SOL     OW15520   1.985   3.440  11.273  0.2846 -0.1663  0.3452
 1353SOL    HW115521   2.032   3.406  11.349  2.2834 -1.4653 -1.4903
 1353SOL    HW215522   2.057   3.445  11.210  0.3508  0.6471  0.4843
 1354SOL     OW15523   2.414   0.905   2.761  0.0118 -0.5068  0.0814
 1354SOL    HW115524   2.477   0.844   2.722  1.1577  1.4880 -1.2032
 1354SOL    HW215525   2.337   0.902   2.705 -1.3261  1.4987  1.8068
 1355SOL     OW15526   0.031   2.509  10.019  0.1144  0.1380 -0.2263
 1355SOL    HW115527   4.709   2.438   9.977 -2.5315  2.3991 -1.0182
 1355SOL    HW215528   4.721   2.584   9.971  1.3981 -0.1413 -1.6509
 1356SOL     OW15529   3.407   3.374   5.097 -0.2603 -0.1316  0.5492
 1356SOL    HW115530   3.475   3.307   5.091 -0.7932 -0.7155  1.0332
 1356SOL    HW215531   3.345   3.328   5.153 -1.1151 -0.0007 -0.2974
 1357SOL     OW15532   2.121   4.234   8.537 -0.5396 -0.1041 -0.3384
 1357SOL    HW115533   2.192   4.296   8.554  0.1203 -0.5189 -1.6037
 1357SOL    HW215534   2.164   4.149   8.535 -1.3957 -0.5479 -0.1297
 1358SOL     OW15535   1.826   3.700  15.599  0.4397  0.5051 -0.4739
 1358SOL    HW115536   1.875   3.622  15.572 -0.6994 -0.4364  0.1658
 1358SOL    HW215537   1.885   3.774  15.585  2.9804 -1.6338 -1.1241
 1359SOL     OW15538   0.767   0.339   0.142 -0.2349 -0.0278 -0.2824
 1359SOL    HW115539   0.709   0.400   0.097 -1.3291 -1.3687 -0.7120
 1359SOL    HW215540   0.702   0.284   0.188 -2.6374  4.2459  1.4716
 1360SOL     OW15541   0.434   1.650   8.306 -0.7331  0.2998 -0.8411
 1360SOL    HW115542   0.422   1.728   8.253  0.5181  1.2239  0.2240
 1360SOL    HW215543   0.476   1.598   8.237 -1.2449 -3.0347  1.3566
 1361SOL     OW15544   3.350   4.327   7.255  0.6823  0.3924  0.1855
 1361SOL    HW115545   3.269   4.346   7.208 -0.6282 -2.7482  1.2001
 1361SOL    HW215546   3.393   4.279   7.184 -0.9557 -1.1526  0.2651
 1362SOL     OW15547   2.686   0.899   4.363 -0.1720 -0.1806  0.4125
 1362SOL    HW115548   2.644   0.847   4.431 -1.8887  0.8975  0.1616
 1362SOL    HW215549   2.713   0.975   4.414 -0.9206  1.2316 -1.3007
 1363SOL     OW15550   0.363   2.776   4.817 -0.4831  0.4606 -0.2221
 1363SOL    HW115551   0.269   2.788   4.831 -0.6134 -1.6160  0.8050
 1363SOL    HW215552   0.370   2.768   4.722 -2.0330 -0.7582 -0.2382
 1364SOL     OW15553   1.948   0.800   7.167 -0.2388 -0.2584  0.3816
 1364SOL    HW115554   1.985   0.726   7.119  3.5110  2.5192 -0.9853
 1364SOL    HW215555   1.988   0.795   7.254 -1.6821 -0.2314  1.0497
 1365SOL     OW15556   3.130   3.873   6.860  0.4651  0.7648 -0.7804
 1365SOL    HW115557   3.158   3.965   6.856  0.3614  0.7297 -2.3621
 1365SOL    HW215558   3.216   3.834   6.846  1.3797  1.8748  1.8942
 1366SOL     OW15559   3.500   3.194   4.542 -0.4962 -0.0988  0.0544
 1366SOL    HW115560   3.545   3.110   4.540  0.4037  0.3614  0.9049
 1366SOL    HW215561   3.515   3.209   4.449  0.4720  0.6206  0.3195
 1367SOL     OW15562   1.604   2.731   5.071  0.2048  0.1526  0.1548
 1367SOL    HW115563   1.548   2.745   4.995  0.4573  1.3240  0.1816
 1367SOL    HW215564   1.559   2.791   5.130 -0.2978  0.7000 -0.7797
 1368SOL     OW15565   0.633   3.880   4.798  0.0912  0.0972  0.3670
 1368SOL    HW115566   0.611   3.973   4.793  0.3989  0.1989  0.8739
 1368SOL    HW215567   0.547   3.844   4.818 -0.1671  0.0477 -0.8302
 1369SOL     OW15568   4.301   2.212   4.111 -0.0852  0.0860 -0.2848
 1369SOL    HW115569   4.269   2.211   4.021  0.5889  0.3487 -0.5205
 1369SOL    HW215570   4.393   2.189   4.096  0.4978  2.2513  0.0369
 1370SOL     OW15571   1.785   3.668  15.899 -0.3460 -0.2730  0.2895
 1370SOL    HW115572   1.800   3.744  15.954  1.0171 -0.7401  0.5718
 1370SOL    HW215573   1.873   3.649  15.866  0.8287 -0.2671  3.4275
 1371SOL     OW15574   2.185   3.404   2.300 -0.0767  0.0938  0.8224
 1371SOL    HW115575   2.120   3.474   2.310 -1.2805 -0.6190 -1.9220
 1371SOL    HW215576   2.186   3.396   2.204  1.8532 -1.8616  1.0152
 1372SOL     OW15577   2.114   1.473  10.752 -0.7954  0.5468 -0.3982
 1372SOL    HW115578   2.034   1.449  10.800 -1.2753  3.1072  0.0998
 1372SOL    HW215579   2.157   1.389  10.737 -0.5306  0.3508  1.4575
 1373SOL     OW15580   4.262   3.111   4.102 -0.0278 -0.3723  0.3555
 1373SOL    HW115581   4.211   3.155   4.034  1.6120  0.3359 -0.4206
 1373SOL    HW215582   4.349   3.150   4.093 -0.4445  0.3044 -0.6766
 1374SOL     OW15583   3.121   2.061   8.084  0.3579 -0.2674 -0.7760
 1374SOL    HW115584   3.064   2.033   8.155  1.6324  0.1869  0.4384
 1374SOL    HW215585   3.208   2.051   8.123  1.0522 -0.1320 -2.2617
 1375SOL     OW15586   0.015   2.431  10.540 -0.0609  0.1755 -0.0307
 1375SOL    HW115587   0.091   2.463  10.490  0.6316  1.1119  1.6092
 1375SOL    HW215588   4.666   2.479  10.507 -1.2607  0.3437  3.0056
 1376SOL     OW15589   4.715   1.447   7.393  0.4907 -0.5651  0.3374
 1376SOL    HW115590   4.721   1.542   7.388  0.7691 -0.6797 -1.3402
 1376SOL    HW215591   4.623   1.437   7.371  1.0909 -0.6586 -2.0754
 1377SOL     OW15592   2.987   0.630   5.057 -0.0692 -0.0971 -0.3220
 1377SOL    HW115593   2.974   0.617   5.151  0.1496  1.2514 -0.0998
 1377SOL    HW215594   3.072   0.588   5.050 -0.5673 -0.9880 -0.9465
 1378SOL     OW15595   2.232   0.905   9.538 -0.6814 -0.5936 -0.2062
 1378SOL    HW115596   2.183   0.985   9.555 -0.6932 -1.0062  1.6332
 1378SOL    HW215597   2.321   0.941   9.532 -1.0089  0.2748  0.1014
 1379SOL     OW15598   3.837   1.388   0.658  0.0647  1.3631 -0.4961
 1379SOL    HW115599   3.784   1.465   0.640 -1.6816  0.6603  1.6461
 1379SOL    HW215600   3.767   1.324   0.671  1.6953 -0.3638 -0.2280
 1380SOL     OW15601   4.358   0.487   5.626  0.2806 -0.0302  0.0983
 1380SOL    HW115602   4.409   0.568   5.617  1.8620 -0.8464  1.7417
 1380SOL    HW215603   4.417   0.428   5.579  1.9111  0.7298  1.1813
 1381SOL     OW15604   1.475   1.839  13.840 -0.0832 -0.4418  0.8238
 1381SOL    HW115605   1.391   1.809  13.875 -0.1633 -1.6560 -0.4494
 1381SOL    HW215606   1.537   1.779  13.881  1.3205  0.9430  0.7123
 1382SOL     OW15607   3.692   1.880   4.423 -0.0893 -0.0044  0.3089
 1382SOL    HW115608   3.620   1.941   4.406 -0.5787 -0.0991  2.0331
 1382SOL    HW215609   3.647   1.806   4.382 -1.3137  0.9986 -0.1597
 1383SOL     OW15610   1.018   3.282   1.765 -0.1121  0.4247 -0.3016
 1383SOL    HW115611   0.936   3.306   1.808  0.7955  0.4418  1.4019
 1383SOL    HW215612   1.075   3.322   1.831  0.3944 -1.4820  0.4185
 1384SOL     OW15613   1.853   2.910   8.281 -0.6058  0.0892  0.1522
 1384SOL    HW115614   1.819   2.838   8.335 -1.2798  0.9108  0.8332
 1384SOL    HW215615   1.799   2.974   8.328  1.6225  1.1010  1.3241
 1385SOL     OW15616   1.326   2.143  14.990  0.5038 -0.4656 -0.0629
 1385SOL    HW115617   1.337   2.162  14.897  0.9518 -0.0198  0.0811
 1385SOL    HW215618   1.307   2.236  15.001 -0.7263 -0.4722 -2.1307
 1386SOL     OW15619   4.107   4.474  10.162 -0.4598 -0.1569  0.0136
 1386SOL    HW115620   4.122   4.567  10.145 -0.8594 -0.0986 -0.0264
 1386SOL    HW215621   4.144   4.436  10.082  2.6398  2.0625  0.3866
 1387SOL     OW15622   3.309   2.258   0.350 -0.0492 -0.1023  0.2237
 1387SOL    HW115623   3.335   2.236   0.440 -1.3427  0.9459  0.8539
 1387SOL    HW215624   3.332   2.176   0.306  0.2446 -0.1815  0.5225
 1388SOL     OW15625   2.069   2.297   9.258  0.3697 -0.0365  0.3645
 1388SOL    HW115626   2.077   2.320   9.350 -3.5150 -0.1300  0.7037
 1388SOL    HW215627   2.066   2.379   9.209 -0.4796 -0.6345 -0.5893
 1389SOL     OW15628   2.688   0.264   2.153 -0.5199 -0.5233  0.3351
 1389SOL    HW115629   2.653   0.303   2.073 -0.6689 -0.9303  0.2000
 1389SOL    HW215630   2.602   0.246   2.191 -0.7117  0.4166  0.3520
 1390SOL     OW15631   4.340   0.480   6.115  0.7991  0.1711 -0.2328
 1390SOL    HW115632   4.252   0.450   6.138 -0.0240  1.9491 -1.0459
 1390SOL    HW215633   4.342   0.542   6.188 -3.6261 -0.7965  0.6961
 1391SOL     OW15634   1.272   1.072   3.336  0.0005 -0.2346 -0.1441
 1391SOL    HW115635   1.350   1.030   3.373  0.2758 -0.3313 -0.8395
 1391SOL    HW215636   1.256   1.115   3.420  0.9335 -1.3673  0.6178
 1392SOL     OW15637   1.669   1.229   2.764  0.0194  0.3386 -0.0622
 1392SOL    HW115638   1.733   1.182   2.710 -0.0936 -2.4923  2.2783
 1392SOL    HW215639   1.590   1.209   2.713  2.4558 -2.9428 -2.5409
 1393SOL     OW15640   1.153   1.884   2.450 -0.0186 -0.7696 -0.6670
 1393SOL    HW115641   1.206   1.806   2.468 -0.3056 -0.9762 -0.7157
 1393SOL    HW215642   1.093   1.839   2.390 -2.0592  1.0125  0.0564
 1394SOL     OW15643   3.758   2.205   7.141  0.0246 -0.2315 -0.2444
 1394SOL    HW115644   3.750   2.132   7.079  2.3191 -0.5656 -0.1138
 1394SOL    HW215645   3.853   2.202   7.140  0.0793  1.6271 -1.9667
 1395SOL     OW15646   3.888   3.682   2.492 -0.2601  0.2050 -0.4925
 1395SOL    HW115647   3.983   3.682   2.483 -0.1819  2.0971  0.4575
 1395SOL    HW215648   3.861   3.655   2.404  1.7912 -1.0010 -0.7466
 1396SOL     OW15649   2.211   4.554  17.139  0.2294  0.2565 -0.5928
 1396SOL    HW115650   2.165   4.533  17.057 -2.1677  1.5832  0.3862
 1396SOL    HW215651   2.291   4.505  17.123  1.1686  1.4178  0.5754
 1397SOL     OW15652   4.125   3.907  11.447 -0.3681 -0.2982 -0.2451
 1397SOL    HW115653   4.116   3.975  11.513 -0.7714 -3.3321  2.8421
 1397SOL    HW215654   4.047   3.854  11.464 -0.1801 -0.8089 -0.9519
 1398SOL     OW15655   4.605   0.823   6.512  0.6630 -0.1803  0.0093
 1398SOL    HW115656   4.552   0.889   6.467 -0.6633 -0.9315  0.4830
 1398SOL    HW215657   4.608   0.755   6.445 -0.7632  0.4415 -0.6972
 1399SOL     OW15658   4.284   4.467   4.633  0.1371  0.1830  0.5771
 1399SOL    HW115659   4.281   4.391   4.575 -0.0763  0.8284 -0.2422
 1399SOL    HW215660   4.197   4.465   4.673  1.0819  0.9029  2.6636
 1400SOL     OW15661   0.085   3.998   8.782  0.0583 -0.8220 -0.3711
 1400SOL    HW115662   0.010   3.986   8.723  0.3143  0.3218 -0.9271
 1400SOL    HW215663   0.142   4.013   8.706 -0.6988  0.4778 -0.6884
 1401SOL     OW15664   0.644   0.382   5.288  0.1049 -0.5946 -0.2164
 1401SOL    HW115665   0.654   0.477   5.281 -2.7883 -0.3251 -0.5138
 1401SOL    HW215666   0.727   0.350   5.251 -0.0091 -0.6033 -0.4622
 1402SOL     OW15667   2.627   4.075   2.920 -0.1664 -0.1832  0.2116
 1402SOL    HW115668   2.652   3.983   2.911  0.1111 -0.3386  2.5102
 1402SOL    HW215669   2.552   4.067   2.978 -1.3359  0.4760 -1.2157
 1403SOL     OW15670   3.344   0.125   7.660  0.0925 -0.0029 -0.2875
 1403SOL    HW115671   3.275   0.059   7.663 -1.2029  1.3527 -0.5683
 1403SOL    HW215672   3.287   0.195   7.629 -1.5541 -0.7382  1.1232
 1404SOL     OW15673   0.548   2.780   3.995 -0.2098 -0.0152 -0.1658
 1404SOL    HW115674   0.640   2.764   3.976  0.7937  0.4870  4.2501
 1404SOL    HW215675   0.550   2.820   4.082 -0.3973  1.0678 -0.6592
 1405SOL     OW15676   4.616   0.210   4.640 -0.0301  0.0808  0.2555
 1405SOL    HW115677   4.524   0.217   4.615 -0.8158 -1.5499  2.6951
 1405SOL    HW215678   4.597   0.164   4.722 -0.5052  1.2663  0.8203
 1406SOL     OW15679   3.128   4.330   5.803  0.3401 -0.0641 -0.1599
 1406SOL    HW115680   3.157   4.333   5.894 -1.7002  1.1397  0.4412
 1406SOL    HW215681   3.210   4.298   5.765  1.6166  0.0197  2.5112
 1407SOL     OW15682   2.263   1.417   8.001 -0.4408 -0.0570 -0.1672
 1407SOL    HW115683   2.286   1.435   8.092  2.0087 -0.5928 -0.6917
 1407SOL    HW215684   2.204   1.491   7.983 -0.3604  0.0235 -0.1004
 1408SOL     OW15685   1.913   4.028   7.079  0.2354  0.0228 -0.3426
 1408SOL    HW115686   2.009   4.028   7.078  0.2137 -1.0174 -1.7611
 1408SOL    HW215687   1.910   3.999   7.171  1.3903  0.8703 -0.0411
 1409SOL     OW15688   0.222   3.612  13.819 -0.1607 -0.5251  0.3349
 1409SOL    HW115689   0.234   3.518  13.804  0.3465 -0.3624 -0.3094
 1409SOL    HW215690   0.294   3.646  13.765  0.8541 -0.8423  1.4795
 1410SOL     OW15691   4.068   2.621   9.226  0.0461 -0.5210  0.7557
 1410SOL    HW115692   4.057   2.529   9.249  0.4646 -0.4741  1.1365
 1410SOL    HW215693   4.157   2.629   9.262  2.1666 -0.3547 -4.4478
 1411SOL     OW15694   2.521   0.966   6.960 -0.3606  0.6018 -0.4523
 1411SOL    HW115695   2.511   0.971   6.865  2.5179 -1.4158 -0.8766
 1411SOL    HW215696   2.505   1.059   6.977  0.3346  0.6537 -0.0394
 1412SOL     OW15697   3.010   4.184   1.305 -0.1562  0.0472 -0.1124
 1412SOL    HW115698   3.051   4.244   1.242  1.1596 -0.4611  0.2505
 1412SOL    HW215699   3.018   4.236   1.385 -0.1601 -2.1909  1.3234
 1413SOL     OW15700   3.492   1.864   3.511  0.3113  0.8484 -0.0069
 1413SOL    HW115701   3.397   1.873   3.513  0.1765 -0.5635 -0.0932
 1413SOL    HW215702   3.503   1.803   3.439 -2.9735 -0.7005  0.8302
 1414SOL     OW15703   3.774   4.051   9.076  0.2185 -0.2456  0.6079
 1414SOL    HW115704   3.683   4.080   9.074 -0.1649 -1.3623  2.3235
 1414SOL    HW215705   3.795   4.045   9.169 -1.3375  0.3146  0.9882
 1415SOL     OW15706   0.208   4.256   3.137 -0.0508 -0.1419 -0.6495
 1415SOL    HW115707   0.163   4.315   3.197 -0.9477  0.0789 -1.5272
 1415SOL    HW215708   0.299   4.280   3.150 -0.1298 -1.7889  2.9869
 1416SOL     OW15709   1.237   3.055   4.888  0.1102 -0.4921  0.1015
 1416SOL    HW115710   1.216   2.964   4.868  0.8044 -0.6127 -0.0699
 1416SOL    HW215711   1.287   3.083   4.811  0.1260  0.4567  0.4639
 1417SOL     OW15712   4.110   0.686   4.233  0.4965  0.2700 -0.3165
 1417SOL    HW115713   4.166   0.614   4.203 -0.7557 -0.6495 -0.4563
 1417SOL    HW215714   4.034   0.667   4.178  0.3769 -1.2078  0.3439
 1418SOL     OW15715   3.925   4.429   8.848 -0.2148 -0.1760  0.0183
 1418SOL    HW115716   3.843   4.413   8.800 -1.1854 -1.1678  1.9829
 1418SOL    HW215717   3.901   4.384   8.930  3.4194  0.6415  1.5319
 1419SOL     OW15718   1.367   0.706   0.672 -0.0366 -0.1546 -0.0036
 1419SOL    HW115719   1.416   0.750   0.603  0.8534  1.7884  1.8675
 1419SOL    HW215720   1.337   0.619   0.645 -1.5693  0.3454  0.1421
 1420SOL     OW15721   0.087   3.515   9.380  0.2860 -0.2569  0.6194
 1420SOL    HW115722   0.161   3.487   9.325 -1.6688 -2.7926 -0.7372
 1420SOL    HW215723   0.093   3.452   9.452  2.3122 -1.6123 -0.7316
 1421SOL     OW15724   0.428   4.024  10.836 -0.4686  0.6465 -0.6695
 1421SOL    HW115725   0.365   3.978  10.781  2.8444 -0.8530 -3.2141
 1421SOL    HW215726   0.510   4.001  10.793 -0.4633  0.1647 -0.4066
 1422SOL     OW15727   3.562   3.479   9.926 -0.3015 -0.2318  0.8747
 1422SOL    HW115728   3.489   3.535   9.902 -0.1528 -0.6187 -0.4677
 1422SOL    HW215729   3.611   3.476   9.843  0.1119 -1.3810  1.1616
 1423SOL     OW15730   1.861   0.953   5.749 -0.3852  0.2398  0.2809
 1423SOL    HW115731   1.907   0.879   5.709 -0.3937 -0.0242  0.7530
 1423SOL    HW215732   1.786   0.972   5.693  0.7154  0.0927 -1.2264
 1424SOL     OW15733   1.885   0.745   3.499 -0.3635  0.4285 -0.1228
 1424SOL    HW115734   1.881   0.694   3.580 -0.1118  0.0101 -0.3729
 1424SOL    HW215735   1.822   0.817   3.507 -0.8502 -0.2241  1.8099
 1425SOL     OW15736   2.462   4.025   1.946 -0.1102  0.6440  0.8144
 1425SOL    HW115737   2.478   4.089   2.016  1.3477  2.1282 -0.8615
 1425SOL    HW215738   2.386   3.981   1.983  0.2100  0.2090  0.9471
 1426SOL     OW15739   3.304   0.604  13.220 -0.6481  0.7022  0.3529
 1426SOL    HW115740   3.337   0.662  13.288 -0.4568  0.5146  0.4204
 1426SOL    HW215741   3.316   0.662  13.145 -1.4436 -0.5045 -0.7130
 1427SOL     OW15742   3.442   2.066  16.113 -0.3193  0.2871  0.5770
 1427SOL    HW115743   3.418   2.103  16.198  4.0580  1.3208  1.3510
 1427SOL    HW215744   3.438   2.148  16.063 -1.3544 -0.3380 -0.3716
 1428SOL     OW15745   1.642   2.081   8.083  0.6075  0.1559 -0.0266
 1428SOL    HW115746   1.599   2.056   8.165  0.0768 -3.0622 -1.2944
 1428SOL    HW215747   1.611   2.011   8.026  1.8338  0.9374 -1.6472
 1429SOL     OW15748   4.721   3.666   5.284 -0.2026  0.3806 -0.3574
 1429SOL    HW115749   4.702   3.619   5.365 -2.5155 -1.0576 -1.7339
 1429SOL    HW215750   4.658   3.738   5.287 -0.9395 -0.1624 -3.2481
 1430SOL     OW15751   2.343   3.882   6.473  0.2007  0.5207  0.0480
 1430SOL    HW115752   2.309   3.972   6.477 -0.3360  0.3027  0.2423
 1430SOL    HW215753   2.302   3.858   6.390 -2.6147 -1.3610  2.0129
 1431SOL     OW15754   2.665   0.975   3.063  0.3213  0.1593 -0.0318
 1431SOL    HW115755   2.577   1.007   3.082  1.0926  2.8886 -0.9615
 1431SOL    HW215756   2.698   0.954   3.150  1.0665 -0.3637 -0.4436
 1432SOL     OW15757   2.260   0.301   2.080  0.0774 -0.4556 -0.4341
 1432SOL    HW115758   2.318   0.280   2.152 -0.9427  1.2448  0.8908
 1432SOL    HW215759   2.267   0.220   2.030 -1.9475 -1.1473  0.4043
 1433SOL     OW15760   1.423   1.775   2.009 -0.0592 -0.0380 -0.1407
 1433SOL    HW115761   1.397   1.795   2.099  0.9149  0.0827  0.1191
 1433SOL    HW215762   1.338   1.739   1.985 -1.0129  2.0361  0.1278
 1434SOL     OW15763   0.639   2.957   4.453  0.0834  0.0036 -0.1113
 1434SOL    HW115764   0.723   2.954   4.499  0.8833  2.0728 -1.4484
 1434SOL    HW215765   0.606   3.040   4.489 -0.9660 -0.6355  0.3917
 1435SOL     OW15766   2.461   1.302  14.591 -0.4550 -0.1488 -0.1786
 1435SOL    HW115767   2.389   1.243  14.568  0.3225 -0.8116 -0.8869
 1435SOL    HW215768   2.413   1.385  14.588 -2.7512 -1.5397 -2.2127
 1436SOL     OW15769   0.822   2.114  13.388 -0.0496  0.0560  0.5763
 1436SOL    HW115770   0.727   2.118  13.380 -0.0812 -1.3746  0.2759
 1436SOL    HW215771   0.843   2.207  13.382  0.4564  0.0402  1.9737
 1437SOL     OW15772   0.699   2.797   3.438  0.3130 -0.0151 -0.1992
 1437SOL    HW115773   0.669   2.859   3.372 -2.5184 -0.5157  0.6308
 1437SOL    HW215774   0.701   2.714   3.391  0.4186  0.2581 -0.6751
 1438SOL     OW15775   1.878   0.559  16.360  0.4508 -0.3705  0.1673
 1438SOL    HW115776   1.945   0.506  16.403  0.7924 -0.0650  0.0149
 1438SOL    HW215777   1.922   0.638  16.328 -3.2235  0.4624 -2.8141
 1439SOL     OW15778   0.692   2.132  12.399 -0.1073  0.0407 -0.1742
 1439SOL    HW115779   0.731   2.163  12.481  0.3780  4.1480 -1.9834
 1439SOL    HW215780   0.771   2.098  12.357 -0.1121 -1.9268  1.3730
 1440SOL     OW15781   0.314   0.955   8.463 -0.0573  0.5666 -0.5117
 1440SOL    HW115782   0.390   0.914   8.421 -1.6677 -2.1131 -0.8164
 1440SOL    HW215783   0.358   1.007   8.530  0.3606  1.5510 -1.5652
 1441SOL     OW15784   1.203   0.661  15.796 -0.1909 -0.3666 -0.7365
 1441SOL    HW115785   1.110   0.682  15.799  0.1467  1.3027 -2.1949
 1441SOL    HW215786   1.200   0.593  15.864 -0.4015 -0.4153 -0.7958
 1442SOL     OW15787   0.562   0.612   2.934 -0.0219  0.0449 -0.1861
 1442SOL    HW115788   0.574   0.592   2.841 -0.2705  0.0243 -0.2147
 1442SOL    HW215789   0.613   0.693   2.926  0.9539 -0.5769 -0.1856
 1443SOL     OW15790   3.178   4.625   8.619  0.3667 -0.0342  0.0703
 1443SOL    HW115791   3.182   4.569   8.542 -0.2300  2.6824 -1.9219
 1443SOL    HW215792   3.083   4.620   8.635  0.6303 -0.5796  1.5152
 1444SOL     OW15793   1.334   0.687   4.068 -0.0758 -0.3435 -0.3843
 1444SOL    HW115794   1.401   0.742   4.110  0.1019 -0.4514 -0.5288
 1444SOL    HW215795   1.385   0.632   4.009  3.3220  1.3657  0.9101
 1445SOL     OW15796   3.775   4.586  17.400  0.4977  0.3546  0.3221
 1445SOL    HW115797   3.813   4.539  17.326 -1.8499  0.7487 -1.1160
 1445SOL    HW215798   3.735   4.661  17.356 -0.2926 -0.4541 -0.3143
 1446SOL     OW15799   2.981   4.550   9.068 -0.4853  0.8218  0.4310
 1446SOL    HW115800   2.982   4.642   9.095  1.2317  1.5275 -2.0915
 1446SOL    HW215801   3.025   4.525   9.149  0.5518  0.2117 -0.3282
 1447SOL     OW15802   0.841   1.311  13.712 -0.4956  0.0499  0.0035
 1447SOL    HW115803   0.794   1.358  13.781 -1.2257 -0.5653 -0.0682
 1447SOL    HW215804   0.830   1.373  13.639 -0.8090 -0.0354 -0.0218
 1448SOL     OW15805   4.305   2.728   3.126  0.9729  1.0621  0.3522
 1448SOL    HW115806   4.362   2.804   3.137 -1.5049  2.8411  0.8528
 1448SOL    HW215807   4.339   2.659   3.183 -1.1281 -0.4248 -0.2031
 1449SOL     OW15808   4.319   3.169   2.604 -0.7686  0.5944 -0.5182
 1449SOL    HW115809   4.287   3.259   2.605 -0.3937  0.6886  1.2064
 1449SOL    HW215810   4.265   3.129   2.535 -1.4366 -0.7009  0.7633
 1450SOL     OW15811   4.129   3.110  15.081 -0.4623 -0.1344 -0.3948
 1450SOL    HW115812   4.181   3.038  15.118  0.4435 -0.0060 -1.4104
 1450SOL    HW215813   4.103   3.149  15.164 -0.8069 -3.1555  0.9227
 1451SOL     OW15814   0.230   2.463   2.284  0.5432  0.1053  0.2878
 1451SOL    HW115815   0.298   2.511   2.236  0.6859 -0.6044 -0.2332
 1451SOL    HW215816   0.240   2.498   2.372 -1.9813  1.7320 -0.0868
 1452SOL     OW15817   3.521   2.578  10.014  0.0843 -0.5109  0.2506
 1452SOL    HW115818   3.506   2.662  10.055  0.6089 -0.0210 -0.5447
 1452SOL    HW215819   3.504   2.517  10.086  1.8250 -0.1586  0.9621
 1453SOL     OW15820   1.953   0.964  13.912 -0.2224 -0.5257 -0.1890
 1453SOL    HW115821   1.864   0.974  13.946 -0.1876 -1.8519  0.2841
 1453SOL    HW215822   2.006   1.016  13.972 -1.3596  1.0955 -0.5940
 1454SOL     OW15823   1.178   1.410   6.597  0.3926 -0.6133  0.2039
 1454SOL    HW115824   1.143   1.453   6.675  0.0608 -0.6076  0.0519
 1454SOL    HW215825   1.246   1.363   6.647 -0.1405  1.8046  3.1794
 1455SOL     OW15826   1.719   1.494   9.730 -0.1112 -0.4271  0.4380
 1455SOL    HW115827   1.643   1.456   9.774  0.5768  0.3824  2.3022
 1455SOL    HW215828   1.757   1.546   9.800 -0.2729  0.8900 -0.4457
 1456SOL     OW15829   2.507   3.809  12.840  0.0101 -0.2994  0.6254
 1456SOL    HW115830   2.416   3.789  12.815 -0.5780  1.0259  1.6988
 1456SOL    HW215831   2.501   3.750  12.916 -1.0028 -1.6137 -0.4514
 1457SOL     OW15832   3.241   3.068   6.026  0.2109  0.0247 -0.1658
 1457SOL    HW115833   3.230   3.049   6.119  1.0085 -1.1216 -0.3078
 1457SOL    HW215834   3.180   3.141   6.017 -1.7420 -1.6695 -0.8355
 1458SOL     OW15835   1.904   4.717  13.286 -0.1049 -0.7474 -0.3419
 1458SOL    HW115836   1.922   0.077  13.323  0.8360 -0.7738 -0.7456
 1458SOL    HW215837   1.813   4.702  13.311  0.6538 -1.3450  2.1121
 1459SOL     OW15838   1.692   2.632   3.042  0.2235  0.7790  0.0767
 1459SOL    HW115839   1.685   2.728   3.039  0.0530  0.7741  0.2732
 1459SOL    HW215840   1.786   2.619   3.036 -0.1985 -2.4604  0.8942
 1460SOL     OW15841   2.512   0.697  11.293 -0.1700  0.5813  0.0927
 1460SOL    HW115842   2.556   0.668  11.373 -1.4197  1.2712  1.0209
 1460SOL    HW215843   2.561   0.639  11.234 -1.0329 -0.9353  0.8736
 1461SOL     OW15844   3.999   3.798   8.751  0.2616  0.6732 -0.4164
 1461SOL    HW115845   4.019   3.870   8.811  0.0517 -1.7608  2.6060
 1461SOL    HW215846   3.914   3.774   8.787  0.8197 -1.0356 -0.1967
 1462SOL     OW15847   3.125   1.345  11.001 -0.2937  0.9571  0.0877
 1462SOL    HW115848   3.209   1.364  11.043  0.3470 -0.5055 -0.5160
 1462SOL    HW215849   3.145   1.261  10.959 -0.8482  0.2509  1.2217
 1463SOL     OW15850   2.968   0.187  11.349  0.6301  0.1401 -0.1843
 1463SOL    HW115851   2.957   0.120  11.416  1.6405 -1.4613 -1.6008
 1463SOL    HW215852   3.021   0.247  11.401  0.1858  0.2994  0.0820
 1464SOL     OW15853   2.104   0.239  12.906  0.4342 -0.5267 -0.4519
 1464SOL    HW115854   2.032   0.178  12.922  0.8559 -1.0365 -0.5054
 1464SOL    HW215855   2.162   0.190  12.848  1.1458  0.2412 -0.3866
 1465SOL     OW15856   0.483   1.540   1.812 -0.5368 -0.5199  0.2684
 1465SOL    HW115857   0.560   1.521   1.758 -3.0190 -1.8182 -2.7494
 1465SOL    HW215858   0.466   1.631   1.787  1.1241 -0.2514  0.0724
 1466SOL     OW15859   3.319   4.717  14.884 -0.4328 -0.0680  0.3445
 1466SOL    HW115860   3.293   4.662  14.810 -2.2671  1.9309 -0.5070
 1466SOL    HW215861   3.236   0.028  14.911  0.5444  0.7625  2.2241
 1467SOL     OW15862   3.331   4.602   3.039  0.7445  0.1523 -0.6002
 1467SOL    HW115863   3.315   4.627   2.948 -0.3126  0.6393 -0.2925
 1467SOL    HW215864   3.251   4.554   3.058  3.0582 -2.1955  3.0704
 1468SOL     OW15865   2.505   4.510  10.548 -0.5452  0.0575  0.3954
 1468SOL    HW115866   2.431   4.551  10.502  1.2730 -0.4399 -2.9603
 1468SOL    HW215867   2.486   4.551  10.632 -0.7807  1.3231 -0.2617
 1469SOL     OW15868   1.213   2.751  11.690 -0.0208 -0.0018 -0.3076
 1469SOL    HW115869   1.275   2.702  11.636  0.3881 -1.5564  1.5764
 1469SOL    HW215870   1.176   2.685  11.748  0.8345 -2.2301 -2.3249
 1470SOL     OW15871   0.523   1.003  15.881 -0.0765  0.0111 -0.2976
 1470SOL    HW115872   0.479   0.966  15.804 -0.5190 -0.1999  0.0607
 1470SOL    HW215873   0.588   0.936  15.899 -2.9788 -2.8180 -0.4155
 1471SOL     OW15874   3.802   4.134   5.431 -0.0084  0.0667 -0.8762
 1471SOL    HW115875   3.817   4.054   5.381  1.0597  1.4988 -2.8684
 1471SOL    HW215876   3.721   4.164   5.390  0.2101  0.4109 -1.0524
 1472SOL     OW15877   4.665   2.024   2.551 -0.8581  0.5578 -0.2846
 1472SOL    HW115878   4.671   2.118   2.569  2.3116  0.3574 -0.3147
 1472SOL    HW215879   0.028   2.006   2.524 -0.6908 -1.6634  1.7072
 1473SOL     OW15880   0.505   1.512   4.070  0.2716  0.5341 -0.1527
 1473SOL    HW115881   0.454   1.592   4.073 -0.3692  0.1010  0.4156
 1473SOL    HW215882   0.519   1.496   4.164 -0.7109  0.7057  0.0252
 1474SOL     OW15883   0.084   2.367   9.188 -0.5732  0.1901  0.9346
 1474SOL    HW115884   0.042   2.309   9.252 -0.8777 -0.9460 -0.2963
 1474SOL    HW215885   0.013   2.401   9.133  0.1144  0.8177  0.4343
 1475SOL     OW15886   2.640   4.273   3.800  0.0225  0.1154 -0.0416
 1475SOL    HW115887   2.664   4.181   3.802 -0.7638 -0.0462  1.6422
 1475SOL    HW215888   2.632   4.287   3.705 -1.3446  0.2317  0.0863
 1476SOL     OW15889   0.725   1.752   1.949 -0.0895 -0.2132  0.8156
 1476SOL    HW115890   0.687   1.839   1.941  0.7169 -0.1001 -1.8718
 1476SOL    HW215891   0.819   1.761   1.929  0.1357 -2.4433  0.8351
 1477SOL     OW15892   1.014   0.386   7.516 -0.2122  0.0536 -0.1158
 1477SOL    HW115893   0.945   0.445   7.545 -2.6197 -2.4085 -0.8522
 1477SOL    HW215894   1.092   0.421   7.559  2.0434 -1.3488 -3.0367
 1478SOL     OW15895   1.362   2.865   2.191 -0.2990  0.1074  0.5333
 1478SOL    HW115896   1.449   2.853   2.228  0.3364  0.1172 -0.9871
 1478SOL    HW215897   1.329   2.776   2.206  1.6968 -0.9516 -1.4231
 1479SOL     OW15898   4.161   4.624  16.417  0.0229  0.1588  0.2008
 1479SOL    HW115899   4.115   4.606  16.499  0.5811  0.5428  0.5923
 1479SOL    HW215900   4.247   4.585  16.429 -0.2585 -0.2190  0.9928
 1480SOL     OW15901   1.418   1.050   7.671  0.3000 -0.4295 -0.3297
 1480SOL    HW115902   1.354   1.086   7.609 -2.4168  0.5958  3.1178
 1480SOL    HW215903   1.369   1.061   7.752  0.3941  2.6265 -0.6602
 1481SOL     OW15904   2.490   2.992   3.712  0.1397 -0.5856  0.2539
 1481SOL    HW115905   2.480   3.069   3.655 -1.5776  0.2660  1.7144
 1481SOL    HW215906   2.396   2.983   3.725  0.2477 -2.7280 -0.5044
 1482SOL     OW15907   3.104   1.850   3.306  0.2472 -0.7151 -0.1239
 1482SOL    HW115908   3.077   1.941   3.320  1.0965 -0.6677  1.2679
 1482SOL    HW215909   3.195   1.861   3.278  0.8519  0.2069  2.1941
 1483SOL     OW15910   1.279   4.227  16.161  0.3148 -0.7795  0.7039
 1483SOL    HW115911   1.189   4.258  16.152 -0.1233 -1.2158  3.5455
 1483SOL    HW215912   1.314   4.217  16.073 -0.6350 -1.3412  0.3898
 1484SOL     OW15913   0.134   3.837   3.910  0.8156  0.1871 -0.0301
 1484SOL    HW115914   0.187   3.857   3.987 -1.0381  1.6763  0.8627
 1484SOL    HW215915   0.201   3.827   3.843  0.3980  1.0481 -0.5697
 1485SOL     OW15916   4.564   3.819  16.822 -0.0446  0.2038 -0.4135
 1485SOL    HW115917   4.651   3.806  16.784 -0.6445  1.0869 -2.1059
 1485SOL    HW215918   4.559   3.915  16.827 -0.9523  0.3843 -4.8683
 1486SOL     OW15919   3.369   3.808   3.998 -0.1310 -0.2315  0.2895
 1486SOL    HW115920   3.361   3.803   4.093 -2.6284  0.3944  0.1013
 1486SOL    HW215921   3.281   3.838   3.978 -0.8011 -0.8949  2.2978
 1487SOL     OW15922   3.306   2.831   1.681  0.8708  0.6231 -0.6429
 1487SOL    HW115923   3.217   2.854   1.709  1.1422  2.1799 -1.0761
 1487SOL    HW215924   3.307   2.882   1.600 -2.1996 -1.1901 -1.8476
 1488SOL     OW15925   3.207   3.262   7.148  0.1306 -0.6433  0.0679
 1488SOL    HW115926   3.242   3.351   7.147 -1.1365 -0.1430  0.4601
 1488SOL    HW215927   3.162   3.262   7.063  2.5833  0.5396 -1.2388
 1489SOL     OW15928   2.472   4.269   5.989  0.2953  0.2752 -0.3339
 1489SOL    HW115929   2.517   4.352   6.002  0.2242 -0.3168  3.4649
 1489SOL    HW215930   2.546   4.210   5.976 -2.1777 -2.9142  0.2476
 1490SOL     OW15931   4.680   1.896   3.706  0.6536  0.3541  0.4430
 1490SOL    HW115932   0.041   1.935   3.706  0.8491 -0.0293 -1.8310
 1490SOL    HW215933   4.655   1.886   3.797 -0.4460 -1.2106 -0.0255
 1491SOL     OW15934   0.229   4.530   5.174 -0.4112  0.1049  0.2759
 1491SOL    HW115935   0.271   4.601   5.223 -1.0034 -0.2169  1.2476
 1491SOL    HW215936   0.141   4.567   5.166  0.0445  1.0215 -0.5542
 1492SOL     OW15937   1.340   3.638  17.031 -0.0347 -0.2912 -0.1739
 1492SOL    HW115938   1.369   3.679  17.112  1.1962 -2.1607  0.3162
 1492SOL    HW215939   1.319   3.716  16.979  0.0243 -0.6230 -0.6955
 1493SOL     OW15940   2.698   1.421  14.889  0.1707 -0.0426  0.4823
 1493SOL    HW115941   2.730   1.430  14.800  1.1150  3.1034  1.1621
 1493SOL    HW215942   2.628   1.358  14.869 -0.6252  0.5099  1.5397
 1494SOL     OW15943   2.991   0.190  16.887  1.0945  0.3681 -0.4393
 1494SOL    HW115944   2.937   0.200  16.966 -2.0190 -0.5875 -2.4616
 1494SOL    HW215945   3.075   0.221  16.921  1.3594 -0.6756 -0.1631
 1495SOL     OW15946   1.946   3.427   9.078 -0.1345 -0.0356 -0.2793
 1495SOL    HW115947   1.903   3.511   9.060  0.5422  0.1086 -1.2382
 1495SOL    HW215948   2.037   3.452   9.092 -0.0020 -1.9343  2.1282
 1496SOL     OW15949   4.175   1.899   9.055 -0.1170 -0.3325 -0.2723
 1496SOL    HW115950   4.265   1.884   9.084  0.4151 -0.3691 -1.9294
 1496SOL    HW215951   4.159   1.836   8.985 -2.4807  0.3008 -0.2767
 1497SOL     OW15952   0.553   0.393  16.443 -0.1348 -0.0077  0.0620
 1497SOL    HW115953   0.545   0.297  16.449  0.3164 -0.0905 -0.7933
 1497SOL    HW215954   0.514   0.427  16.524 -2.6374  1.4311 -1.7544
 1498SOL     OW15955   0.462   2.811  10.299 -0.6254  0.3696  0.5242
 1498SOL    HW115956   0.385   2.762  10.269 -0.7731  0.7617  0.2672
 1498SOL    HW215957   0.533   2.782  10.243 -0.7302 -0.8501  1.0222
 1499SOL     OW15958   1.503   2.527  15.204  0.0183 -0.2016  0.3107
 1499SOL    HW115959   1.430   2.470  15.230 -2.7718  3.2309  0.0222
 1499SOL    HW215960   1.465   2.610  15.232 -2.3017 -0.3861 -2.2838
 1500SOL     OW15961   0.459   4.701   5.637  0.4582 -0.2269 -0.2746
 1500SOL    HW115962   0.551   4.685   5.657 -0.3070  2.2654  4.9977
 1500SOL    HW215963   0.429   4.616   5.603 -2.2154  0.3421  0.6590
 1501SOL     OW15964   4.100   3.864   7.479  0.1781  0.1141 -0.4278
 1501SOL    HW115965   4.104   3.786   7.424  1.2725 -0.1160 -0.0195
 1501SOL    HW215966   4.043   3.917   7.423  0.4615  2.4367  1.4984
 1502SOL     OW15967   3.529   0.766  15.083 -0.4987  0.1881 -0.5681
 1502SOL    HW115968   3.573   0.718  15.153  1.1671  1.8282 -0.4810
 1502SOL    HW215969   3.452   0.712  15.066  1.8663 -3.3001 -0.0902
 1503SOL     OW15970   0.299   0.778  13.836  0.4115 -0.1980  0.4874
 1503SOL    HW115971   0.338   0.788  13.749  0.5548 -0.3418  0.5346
 1503SOL    HW215972   0.220   0.732  13.808 -0.1238  1.0972 -0.1147
 1504SOL     OW15973   1.957   2.269  15.222  0.2162 -0.0783 -0.2869
 1504SOL    HW115974   1.899   2.202  15.186 -0.8560  0.0416  1.2470
 1504SOL    HW215975   1.976   2.228  15.306 -0.3079  0.3555  0.0447
 1505SOL     OW15976   2.828   4.594  16.341  0.2372  0.0338 -0.0627
 1505SOL    HW115977   2.865   4.670  16.386 -0.7170  0.0886  0.6364
 1505SOL    HW215978   2.870   4.526  16.393 -2.1035 -1.9919 -0.8535
 1506SOL     OW15979   4.240   4.460   2.840 -0.4555 -0.0715 -0.6154
 1506SOL    HW115980   4.331   4.487   2.835 -1.0369  2.0543 -0.0216
 1506SOL    HW215981   4.232   4.419   2.926  0.1846 -0.7080 -0.8626
 1507SOL     OW15982   1.380   3.793   4.085 -0.0446 -0.2762  0.0342
 1507SOL    HW115983   1.416   3.830   4.005  1.5162  3.5768  2.5249
 1507SOL    HW215984   1.344   3.871   4.126 -1.4444 -0.9746  0.1370
 1508SOL     OW15985   2.487   1.986   8.902 -0.1822 -0.4482  0.0567
 1508SOL    HW115986   2.393   1.994   8.919  0.0628 -0.6949  1.6015
 1508SOL    HW215987   2.524   2.073   8.887  1.0651 -1.1600 -1.0169
 1509SOL     OW15988   2.416   1.069  10.961  0.2899  0.3435 -0.2108
 1509SOL    HW115989   2.427   1.115  11.045 -2.4031  1.0671 -0.2258
 1509SOL    HW215990   2.335   1.022  10.978 -0.1158  0.8281 -0.7823
 1510SOL     OW15991   2.763   4.489   2.702 -0.2888 -0.2598 -0.5555
 1510SOL    HW115992   2.682   4.478   2.751 -0.1811 -2.6172 -0.9111
 1510SOL    HW215993   2.796   4.400   2.709  1.2825  0.3012 -0.9202
 1511SOL     OW15994   0.724   3.659   9.146  0.1065 -0.1180 -0.5158
 1511SOL    HW115995   0.713   3.640   9.239 -1.0270  2.2040 -0.1585
 1511SOL    HW215996   0.810   3.618   9.139 -0.9697 -2.3818 -0.4291
 1512SOL     OW15997   4.284   0.318   5.856 -0.5099 -0.1336 -0.3919
 1512SOL    HW115998   4.304   0.364   5.775  0.4190 -1.3894 -0.8674
 1512SOL    HW215999   4.308   0.383   5.923  0.5127 -1.8609  0.9130
 1513SOL     OW16000   2.904   1.626  16.545  0.0145 -0.0559 -0.4199
 1513SOL    HW116001   2.989   1.592  16.515 -0.3822 -1.4006  0.0082
 1513SOL    HW216002   2.926   1.717  16.523  1.2787 -0.2803 -0.1271
 1514SOL     OW16003   4.068   0.472   7.293  0.5651 -0.2331  0.3980
 1514SOL    HW116004   4.160   0.444   7.300  0.6988  0.2542  0.5438
 1514SOL    HW216005   4.028   0.437   7.372  0.5070 -0.9228  0.0645
 1515SOL     OW16006   0.698   1.602   6.990  0.2078 -0.5461  0.4086
 1515SOL    HW116007   0.756   1.589   6.915 -1.4215  2.2316 -1.2974
 1515SOL    HW216008   0.759   1.637   7.054  0.7005  0.0448 -0.3934
 1516SOL     OW16009   3.232   0.081  12.919  0.2312  0.2890  0.1147
 1516SOL    HW116010   3.289   0.055  12.992  2.1731 -0.0520 -1.5024
 1516SOL    HW216011   3.174   0.141  12.965  1.0100  1.0808  0.0550
 1517SOL     OW16012   3.005   0.525   2.609 -0.1573 -0.0144  0.3755
 1517SOL    HW116013   3.017   0.467   2.685 -1.2485  1.8648  1.9840
 1517SOL    HW216014   2.917   0.560   2.622  0.1268  1.1737 -0.9249
 1518SOL     OW16015   1.064   0.908   2.341  0.1555  0.0024 -0.1364
 1518SOL    HW116016   1.141   0.852   2.326 -0.8234 -1.4979  0.4623
 1518SOL    HW216017   1.087   0.960   2.418  2.8750 -1.1687 -0.1549
 1519SOL     OW16018   1.689   1.775   7.631 -0.0329 -0.0788  0.4416
 1519SOL    HW116019   1.638   1.777   7.549 -3.0598  0.0967  2.3245
 1519SOL    HW216020   1.621   1.776   7.698  0.8972  0.4287  1.3695
 1520SOL     OW16021   2.526   4.654   7.062  0.0806 -0.4344 -0.0748
 1520SOL    HW116022   2.586   4.711   7.013 -0.1054 -0.5208 -0.4053
 1520SOL    HW216023   2.589   4.586   7.087  0.4049 -0.4815 -1.0015
 1521SOL     OW16024   2.808   2.145   6.269  0.2119 -0.2872 -0.4288
 1521SOL    HW116025   2.767   2.176   6.189  1.9503 -0.4275 -1.3717
 1521SOL    HW216026   2.750   2.188   6.332  0.7223 -0.3411  0.0760
 1522SOL     OW16027   2.585   2.824  13.524 -0.2902  0.2994  1.0044
 1522SOL    HW116028   2.604   2.731  13.512  1.4349  0.9270 -1.2574
 1522SOL    HW216029   2.557   2.852  13.436  1.0680  2.0558  1.1344
 1523SOL     OW16030   1.559   2.890  15.897  0.2270  0.1822 -0.1098
 1523SOL    HW116031   1.633   2.835  15.871 -1.5054 -2.0298 -0.4600
 1523SOL    HW216032   1.489   2.826  15.908 -0.8340  1.1079 -1.5450
 1524SOL     OW16033   1.941   4.559   2.836 -0.2981 -0.0811  0.0902
 1524SOL    HW116034   1.868   4.605   2.794 -0.5929 -0.6494 -0.0258
 1524SOL    HW216035   1.974   4.515   2.758  0.9767  1.2985 -0.1339
 1525SOL     OW16036   4.118   1.963   7.565  0.4471 -0.3668 -0.7708
 1525SOL    HW116037   4.188   2.011   7.609 -0.6138  0.7488 -0.2936
 1525SOL    HW216038   4.164   1.952   7.482  1.3021  1.9571 -0.6251
 1526SOL     OW16039   2.950   3.266   1.589 -0.0599 -0.3423 -0.0824
 1526SOL    HW116040   2.956   3.256   1.494  0.9319 -1.1429  0.0598
 1526SOL    HW216041   3.044   3.275   1.599  0.0927 -0.5437 -1.3231
 1527SOL     OW16042   2.349   1.893  12.796  0.4982  0.3878  0.3407
 1527SOL    HW116043   2.347   1.836  12.719  0.1824 -1.3188  1.6081
 1527SOL    HW216044   2.426   1.851  12.834 -0.3231 -0.2226  1.3154
 1528SOL     OW16045   1.179   3.363   7.527 -0.4182  0.0409 -0.2802
 1528SOL    HW116046   1.190   3.387   7.619  0.6140  0.3183 -0.4764
 1528SOL    HW216047   1.221   3.277   7.533 -0.8767 -0.1461  0.3031
 1529SOL     OW16048   0.248   3.175   5.444 -0.1950 -0.0242 -0.3894
 1529SOL    HW116049   0.314   3.218   5.390 -0.4030  0.2956 -0.3859
 1529SOL    HW216050   0.196   3.130   5.377 -2.2577  3.2769 -0.9857
 1530SOL     OW16051   2.044   2.177  11.453  0.0886  0.0046  0.7585
 1530SOL    HW116052   1.981   2.243  11.423  0.5650 -0.0253 -0.3048
 1530SOL    HW216053   2.050   2.127  11.372 -0.8272  0.2763  0.5153
 1531SOL     OW16054   0.810   2.788   8.520  1.1737  0.1070  0.7362
 1531SOL    HW116055   0.899   2.804   8.552  1.6897 -1.1962 -0.0232
 1531SOL    HW216056   0.768   2.874   8.518  0.1652 -0.4176 -0.4784
 1532SOL     OW16057   0.615   3.648   0.998 -0.6814  0.2324  0.1367
 1532SOL    HW116058   0.550   3.693   1.052 -1.4616 -1.0343  0.2843
 1532SOL    HW216059   0.693   3.644   1.052  0.6940  0.8001 -1.8241
 1533SOL     OW16060   1.978   4.416  12.602 -0.0353  0.0942 -0.1061
 1533SOL    HW116061   2.051   4.354  12.594 -2.3876 -2.5847 -0.9086
 1533SOL    HW216062   1.987   4.447  12.692 -0.3728 -1.8784  0.6238
 1534SOL     OW16063   2.336   1.503   2.652  0.1563  0.1241  0.4456
 1534SOL    HW116064   2.351   1.453   2.572  1.4760  0.1558  0.6739
 1534SOL    HW216065   2.420   1.499   2.698  0.4786  0.2482 -0.1264
 1535SOL     OW16066   2.093   2.848   4.321 -0.1563 -0.7123  0.5649
 1535SOL    HW116067   2.092   2.753   4.321  0.1455 -0.7055 -2.1563
 1535SOL    HW216068   2.137   2.865   4.238  0.2014  1.5382  1.2121
 1536SOL     OW16069   1.056   3.853   6.836  0.0253 -0.0184  0.7692
 1536SOL    HW116070   0.963   3.865   6.816 -0.2479  1.8830  3.1566
 1536SOL    HW216071   1.050   3.838   6.930  0.3964 -4.7101  0.0382
 1537SOL     OW16072   3.728   2.866   8.362  0.2908  0.6955  0.1626
 1537SOL    HW116073   3.808   2.908   8.394  1.8760  0.1472 -3.0073
 1537SOL    HW216074   3.666   2.880   8.434  0.0652 -0.3673  0.1761
 1538SOL     OW16075   4.572   3.873  12.650  0.3012 -0.0971  0.4809
 1538SOL    HW116076   4.617   3.796  12.613 -0.1284 -1.3934  2.6741
 1538SOL    HW216077   4.629   3.882  12.726 -0.3880  3.4650  0.5625
 1539SOL     OW16078   2.938   2.502   4.601  0.2130 -0.2382 -0.6657
 1539SOL    HW116079   2.874   2.493   4.530  0.9280  3.1461 -1.7168
 1539SOL    HW216080   3.015   2.536   4.555 -0.0269 -2.0180 -2.3734
 1540SOL     OW16081   1.213   2.207   3.853  0.4987  0.3418 -0.6437
 1540SOL    HW116082   1.132   2.158   3.840  0.8031  0.3041 -2.3825
 1540SOL    HW216083   1.183   2.286   3.899  1.6678  0.4879 -0.1423
 1541SOL     OW16084   3.797   2.698  15.893  0.9749 -0.4322  0.2753
 1541SOL    HW116085   3.761   2.762  15.832  1.7119  0.2973  0.6109
 1541SOL    HW216086   3.772   2.737  15.977  0.6241 -2.0853  0.9417
 1542SOL     OW16087   4.363   4.085   3.707 -0.0994  0.5480  0.0190
 1542SOL    HW116088   4.357   4.061   3.614 -0.7246 -0.7726  0.3986
 1542SOL    HW216089   4.412   4.009   3.740 -0.5645 -0.1786 -0.9417
 1543SOL     OW16090   0.269   0.508   5.471 -0.4690 -0.1309  0.3607
 1543SOL    HW116091   0.182   0.528   5.438  0.0835 -0.8220 -1.5124
 1543SOL    HW216092   0.314   0.591   5.486 -3.2519  1.1889  1.2641
 1544SOL     OW16093   1.261   3.812   2.973  0.1061  0.6976  0.0033
 1544SOL    HW116094   1.256   3.872   3.047  0.5311  1.9797 -1.0090
 1544SOL    HW216095   1.281   3.873   2.903 -0.9135 -0.4348 -1.2665
 1545SOL     OW16096   3.283   3.335  17.309  0.6410  0.5814 -0.0936
 1545SOL    HW116097   3.190   3.324  17.327  0.4703  0.6579 -0.9312
 1545SOL    HW216098   3.312   3.410  17.363  0.6420 -1.2961  2.5332
 1546SOL     OW16099   1.304   0.486   4.954 -0.0282 -0.1364 -0.2476
 1546SOL    HW116100   1.317   0.463   5.046 -1.1450 -1.8721 -0.5205
 1546SOL    HW216101   1.306   0.401   4.910  2.2209 -0.8786  1.3055
 1547SOL     OW16102   2.644   2.984   2.727  1.0721 -0.2478 -0.4517
 1547SOL    HW116103   2.714   2.965   2.664  0.1609 -1.6684 -1.0468
 1547SOL    HW216104   2.683   3.062   2.767 -1.1776 -0.6619  2.5543
 1548SOL     OW16105   3.704   0.881  17.000 -0.3614 -0.0011  0.0439
 1548SOL    HW116106   3.748   0.802  17.032  0.0240  0.3607  0.4163
 1548SOL    HW216107   3.632   0.890  17.062 -0.5149  1.0124 -0.2861
 1549SOL     OW16108   4.521   3.193  11.330 -0.1847  0.2618 -0.3340
 1549SOL    HW116109   4.507   3.179  11.424  0.0640  0.3547 -0.2848
 1549SOL    HW216110   4.479   3.278  11.317  2.1681  1.0364 -2.5967
 1550SOL     OW16111   0.009   4.560   5.440 -0.0868 -0.0817 -0.3199
 1550SOL    HW116112   0.104   4.573   5.434 -0.4457  2.4423 -0.5653
 1550SOL    HW216113   0.002   4.547   5.534  1.3515  0.7877 -0.0893
 1551SOL     OW16114   2.799   0.712   2.641 -0.0968  0.4976  0.2257
 1551SOL    HW116115   2.711   0.744   2.622  0.1342  1.1071  0.1634
 1551SOL    HW216116   2.789   0.703   2.735  1.9946 -0.2294  0.3795
 1552SOL     OW16117   1.024   2.866   0.014 -0.1351 -0.8704 -0.3518
 1552SOL    HW116118   1.059   2.890  17.635 -1.3722 -1.1769 -0.9460
 1552SOL    HW216119   1.077   2.791   0.040 -2.4360 -1.6977  1.9655
 1553SOL     OW16120   3.766   4.700   7.855  0.3758 -0.1319  0.6271
 1553SOL    HW116121   3.685   0.020   7.831  0.5883  0.6306  1.4087
 1553SOL    HW216122   3.823   0.045   7.883  1.8169 -0.1803 -2.1264
 1554SOL     OW16123   1.185   3.667   8.829 -0.3354  0.3280 -0.1827
 1554SOL    HW116124   1.182   3.685   8.923  1.7915 -0.2604 -0.0031
 1554SOL    HW216125   1.238   3.588   8.829  0.7672  1.0695  1.3320
 1555SOL     OW16126   4.168   0.279   5.291  0.8229 -0.1968  0.4219
 1555SOL    HW116127   4.095   0.265   5.230  1.4693  0.4358 -0.5058
 1555SOL    HW216128   4.202   0.190   5.301  3.4482  0.8752  1.1218
 1556SOL     OW16129   3.214   1.974  11.600  0.0815 -0.3322 -0.0810
 1556SOL    HW116130   3.208   2.035  11.674  2.9820  0.3275 -0.3837
 1556SOL    HW216131   3.119   1.963  11.600 -0.1501  1.6567 -1.5306
 1557SOL     OW16132   0.221   4.195  16.464  0.5025 -0.5917 -0.1912
 1557SOL    HW116133   0.233   4.209  16.370 -0.1298  0.7124 -0.0847
 1557SOL    HW216134   0.247   4.104  16.476  0.5268  0.0091  4.0388
 1558SOL     OW16135   4.424   2.182   9.384 -0.4134  0.1312  0.1826
 1558SOL    HW116136   4.328   2.175   9.378 -0.1146 -1.7011 -2.3836
 1558SOL    HW216137   4.446   2.168   9.477  1.7537  2.8799  0.0790
 1559SOL     OW16138   4.253   4.120   6.434  0.1210  0.6166 -0.0558
 1559SOL    HW116139   4.242   4.116   6.529  2.7674  1.0127  0.2513
 1559SOL    HW216140   4.219   4.035   6.406 -0.3464  0.5176  0.8242
 1560SOL     OW16141   1.132   2.405   5.572 -0.2559 -0.0343 -0.2610
 1560SOL    HW116142   1.212   2.357   5.551  0.1681  0.7650 -0.4794
 1560SOL    HW216143   1.150   2.446   5.656 -2.0247 -1.5841  0.8655
 1561SOL     OW16144   2.611   3.356   4.818 -0.0637 -0.1105 -0.4569
 1561SOL    HW116145   2.632   3.310   4.899  2.6483 -1.6892 -2.0703
 1561SOL    HW216146   2.600   3.447   4.847 -2.4696 -0.8941  1.0958
 1562SOL     OW16147   1.352   2.758   7.645 -0.6399  0.1469 -0.5184
 1562SOL    HW116148   1.317   2.717   7.724  0.1458  1.4035  0.4609
 1562SOL    HW216149   1.421   2.813   7.681 -1.3116  2.0263 -2.1145
 1563SOL     OW16150   0.208   1.070  15.510 -0.8519  0.2433 -0.3314
 1563SOL    HW116151   0.260   1.010  15.563 -1.1009  0.9595  0.7268
 1563SOL    HW216152   0.261   1.063  15.431  2.6355 -2.2777  2.2689
 1564SOL     OW16153   3.998   1.293  17.181 -0.0033 -0.2258  0.2584
 1564SOL    HW116154   3.954   1.210  17.200  0.2830 -0.5383 -0.4482
 1564SOL    HW216155   4.012   1.345  17.260  1.5311 -1.0755  0.5365
 1565SOL     OW16156   3.438   1.471   2.513 -0.6540  0.1670  0.2062
 1565SOL    HW116157   3.443   1.389   2.464 -0.2436  0.7542 -0.7232
 1565SOL    HW216158   3.449   1.535   2.443 -0.7144  0.1659  0.1955
 1566SOL     OW16159   1.717   4.696   9.465  0.0981  0.0344  0.6530
 1566SOL    HW116160   1.756   0.032   9.404 -1.8499  1.4537  0.8518
 1566SOL    HW216161   1.640   4.679   9.410  0.3572 -5.7304  2.0557
 1567SOL     OW16162   3.667   2.902   8.087  0.0986  0.2746 -0.2075
 1567SOL    HW116163   3.725   2.903   8.163 -0.1968  0.2100  0.0221
 1567SOL    HW216164   3.588   2.905   8.141  1.3186 -1.8542  1.6840
 1568SOL     OW16165   2.298   2.628  10.195  0.1989 -0.4189  0.0773
 1568SOL    HW116166   2.205   2.633  10.218  0.7507  2.0821  1.7370
 1568SOL    HW216167   2.306   2.538  10.165 -3.3851  0.3027 -3.0699
 1569SOL     OW16168   1.676   2.026   5.068  0.2466 -0.4715  0.3763
 1569SOL    HW116169   1.685   1.931   5.077 -0.5139 -0.5005  0.8568
 1569SOL    HW216170   1.764   2.040   5.035 -0.4632  1.5036 -0.6823
 1570SOL     OW16171   3.342   2.887  10.693 -0.0705 -0.2745 -0.0498
 1570SOL    HW116172   3.360   2.793  10.698  1.1482 -0.0935 -1.0109
 1570SOL    HW216173   3.319   2.899  10.785 -1.2777 -3.6579  0.1219
 1571SOL     OW16174   1.599   3.693   9.772 -0.0613 -0.3070  0.2437
 1571SOL    HW116175   1.623   3.680   9.863 -0.1643 -0.5509  0.2380
 1571SOL    HW216176   1.530   3.629   9.753 -0.0481 -0.7775  1.8085
 1572SOL     OW16177   1.838   0.365   6.031 -0.2793 -0.7067 -0.3465
 1572SOL    HW116178   1.848   0.363   6.126  0.0789 -0.6232 -0.3828
 1572SOL    HW216179   1.848   0.270   6.017  1.9120 -0.5730  0.2876
 1573SOL     OW16180   0.814   3.553   3.654 -0.0384 -0.5799 -0.0681
 1573SOL    HW116181   0.907   3.541   3.632  0.2310  0.8864  0.2549
 1573SOL    HW216182   0.797   3.636   3.609  3.4801  0.2442  0.0638
 1574SOL     OW16183   1.573   0.025  13.818  0.0176 -0.5870 -0.2309
 1574SOL    HW116184   1.540   4.678  13.869 -0.1118  0.9435  1.8982
 1574SOL    HW216185   1.564   4.720  13.728 -1.7656 -0.7082 -0.0039
 1575SOL     OW16186   1.391   3.229  14.922 -0.1268  1.1456  0.1925
 1575SOL    HW116187   1.435   3.312  14.941  0.7524  0.6025  0.5264
 1575SOL    HW216188   1.322   3.248  14.985  0.2744  0.8755  0.7142
 1576SOL     OW16189   4.394   3.088  17.089  0.1714 -0.4584  0.5015
 1576SOL    HW116190   4.318   3.144  17.107 -1.6106 -2.2987 -1.3261
 1576SOL    HW216191   4.465   3.152  17.096  0.9917 -1.4949  1.6296
 1577SOL     OW16192   1.684   1.772  12.211  0.4343  0.0335 -0.5859
 1577SOL    HW116193   1.643   1.822  12.141 -1.6711  0.7087  1.1345
 1577SOL    HW216194   1.694   1.842  12.275  0.5121 -2.1631  1.7841
 1578SOL     OW16195   1.523   0.393   5.851  0.7083  0.2877  0.8372
 1578SOL    HW116196   1.469   0.399   5.930  0.2555  1.8642  0.4150
 1578SOL    HW216197   1.576   0.472   5.856  0.6916  0.3232  0.3965
 1579SOL     OW16198   3.429   3.715   3.580 -0.0558  0.2435  0.5915
 1579SOL    HW116199   3.471   3.798   3.554  1.2640 -0.0941  1.6067
 1579SOL    HW216200   3.490   3.696   3.652 -2.9760 -1.0366  2.6928
 1580SOL     OW16201   3.429   2.178   6.874  0.1185 -0.1693  0.3293
 1580SOL    HW116202   3.467   2.171   6.962  1.4619  1.3797 -0.1356
 1580SOL    HW216203   3.478   2.253   6.842 -0.5124 -1.2939 -3.2606
 1581SOL     OW16204   1.366   4.172   8.471  0.3918  0.1764  0.0205
 1581SOL    HW116205   1.344   4.191   8.379 -1.2266  1.1643  0.6244
 1581SOL    HW216206   1.299   4.104   8.485 -0.2339  0.3120 -2.2163
 1582SOL     OW16207   1.593   1.303   4.791 -0.6591  0.2119 -0.4136
 1582SOL    HW116208   1.560   1.285   4.879 -1.3994 -1.7564 -1.0907
 1582SOL    HW216209   1.530   1.370   4.765 -0.2742  0.3598 -0.9674
 1583SOL     OW16210   2.306   1.573  14.524  0.0970  0.0833  0.2815
 1583SOL    HW116211   2.222   1.616  14.503 -0.1904 -1.4374 -1.6799
 1583SOL    HW216212   2.326   1.618  14.606  2.2936 -0.9994  0.3233
 1584SOL     OW16213   0.201   3.687   3.572  0.5931  0.3229  0.2850
 1584SOL    HW116214   0.163   3.600   3.588 -0.5831  0.9318  0.7521
 1584SOL    HW216215   0.118   3.734   3.575  0.6339  0.3884  0.3801
 1585SOL     OW16216   1.971   3.282  17.339  0.0257  0.2805  0.1354
 1585SOL    HW116217   2.002   3.204  17.385  0.1394 -1.1997 -2.4295
 1585SOL    HW216218   1.925   3.245  17.263 -1.0859 -1.3515  1.5928
 1586SOL     OW16219   0.256   2.903   0.410  0.1591 -0.3628  0.4564
 1586SOL    HW116220   0.344   2.909   0.448 -0.4227  1.0325  1.5762
 1586SOL    HW216221   0.264   2.847   0.333  1.6526  1.2382 -0.5555
 1587SOL     OW16222   3.234   1.890   2.873 -0.1920 -0.3211 -0.2549
 1587SOL    HW116223   3.281   1.843   2.803 -0.0571 -0.3265 -0.1614
 1587SOL    HW216224   3.303   1.904   2.938  0.3258 -1.2437 -0.5998
 1588SOL     OW16225   1.202   4.338  11.570 -0.6133 -0.5464 -0.5692
 1588SOL    HW116226   1.256   4.415  11.588 -0.3455 -0.0971 -3.3343
 1588SOL    HW216227   1.228   4.284  11.645  1.1496  1.4257  0.2496
 1589SOL     OW16228   0.684   2.955   8.948  0.1593 -0.3093  0.1360
 1589SOL    HW116229   0.708   2.986   9.036  0.1428 -4.5380  1.6360
 1589SOL    HW216230   0.728   2.871   8.963  0.6486  0.1345  1.2289
 1590SOL     OW16231   3.855   2.090  10.955  0.3219  0.2439  0.0377
 1590SOL    HW116232   3.841   2.037  10.877 -0.4987  0.9191 -0.2626
 1590SOL    HW216233   3.813   2.027  11.015 -2.0765 -1.6613 -3.6469
 1591SOL     OW16234   3.811   2.409   4.561 -0.2004 -0.1441  0.1929
 1591SOL    HW116235   3.884   2.470   4.560  0.3167 -0.7941 -2.2753
 1591SOL    HW216236   3.854   2.343   4.614  0.8336  1.2275  1.0567
 1592SOL     OW16237   0.310   1.679   0.897 -0.0610 -0.6906 -0.2928
 1592SOL    HW116238   0.270   1.592   0.889  1.8441 -1.4071 -2.4020
 1592SOL    HW216239   0.233   1.735   0.899  1.0378  0.7795  0.9745
 1593SOL     OW16240   3.613   0.827   8.074 -0.3538  0.0488 -0.2446
 1593SOL    HW116241   3.629   0.867   8.160  1.1836  0.6209 -0.7899
 1593SOL    HW216242   3.681   0.759   8.079  1.6558  2.1383  0.7922
 1594SOL     OW16243   2.964   0.701   5.565  0.3668  0.7916  0.0591
 1594SOL    HW116244   2.925   0.788   5.578  0.1971  0.9869 -1.6905
 1594SOL    HW216245   3.042   0.708   5.620  0.4566 -2.0330  0.2858
 1595SOL     OW16246   1.877   3.894   6.598 -0.4168 -0.1247 -0.0232
 1595SOL    HW116247   1.911   3.885   6.509 -0.3197  0.1551 -0.0140
 1595SOL    HW216248   1.828   3.812   6.596  1.7307 -1.4495  1.3203
 1596SOL     OW16249   2.646   1.937   6.575  0.5457  0.1118  0.6072
 1596SOL    HW116250   2.605   1.985   6.647 -2.6554 -1.9016  0.1404
 1596SOL    HW216251   2.655   1.857   6.626 -2.6055 -0.8002 -0.2268
 1597SOL     OW16252   0.789   3.633   1.225  0.3663  0.3997 -0.2237
 1597SOL    HW116253   0.876   3.639   1.265  0.3691 -1.1403 -0.0100
 1597SOL    HW216254   0.787   3.539   1.205  3.1064 -0.0353  1.5219
 1598SOL     OW16255   1.146   2.744   0.405  0.1610 -0.1156 -0.6303
 1598SOL    HW116256   1.084   2.817   0.391  0.5477  0.0124 -1.6987
 1598SOL    HW216257   1.183   2.762   0.491 -0.6807  3.0183 -0.9265
 1599SOL     OW16258   2.275   4.390   4.968 -0.1035 -0.4590  0.3942
 1599SOL    HW116259   2.343   4.447   5.004 -0.9376 -0.0803  1.3842
 1599SOL    HW216260   2.197   4.440   4.994 -0.2679 -0.8171  0.5923
 1600SOL     OW16261   2.285   4.113   5.218 -0.5792  0.4643 -0.0324
 1600SOL    HW116262   2.319   4.079   5.135 -0.5133  0.6082 -0.0637
 1600SOL    HW216263   2.246   4.033   5.252 -1.7692  1.6556  1.3848
 1601SOL     OW16264   1.015   1.704  11.480  0.2344  0.3596 -0.0564
 1601SOL    HW116265   1.054   1.651  11.410  1.8431  0.9747  0.3680
 1601SOL    HW216266   1.027   1.794  11.452 -0.7088 -0.1805 -2.1799
 1602SOL     OW16267   4.657   2.002  14.436  0.1169 -0.7085 -0.0902
 1602SOL    HW116268   4.719   1.972  14.503  0.1094  1.6033  0.9605
 1602SOL    HW216269   4.613   1.917  14.431  1.5385 -1.5599  1.8244
 1603SOL     OW16270   1.143   1.869  10.293 -0.1708 -0.5706 -0.3055
 1603SOL    HW116271   1.085   1.891  10.366  1.0939 -0.9753  0.8205
 1603SOL    HW216272   1.176   1.956  10.271 -0.2132 -0.5854 -0.4270
 1604SOL     OW16273   2.570   1.713   3.160 -0.8363  0.2954  0.1864
 1604SOL    HW116274   2.654   1.666   3.153 -0.4869  1.2886 -2.1062
 1604SOL    HW216275   2.604   1.802   3.174 -0.6945  0.4887 -1.4237
 1605SOL     OW16276   1.439   2.022   9.995  0.1835 -0.2219  0.0048
 1605SOL    HW116277   1.517   1.996  10.044 -0.8326 -2.6872  0.3023
 1605SOL    HW216278   1.374   2.049  10.060  0.5170 -1.1154  0.7005
 1606SOL     OW16279   4.408   1.185   4.392  0.4186  0.2761 -0.9186
 1606SOL    HW116280   4.358   1.264   4.372 -2.0117 -1.1881 -0.5254
 1606SOL    HW216281   4.465   1.222   4.460 -0.9890  1.6676 -0.5064
 1607SOL     OW16282   0.653   3.900   5.240  0.6796  0.4633  0.0835
 1607SOL    HW116283   0.708   3.978   5.245  1.7971 -0.3761  1.0555
 1607SOL    HW216284   0.621   3.889   5.151 -0.1318  0.3057  0.3940
 1608SOL     OW16285   4.237   3.404   4.412 -0.6123  0.1730  0.2385
 1608SOL    HW116286   4.177   3.431   4.343  1.2580 -0.3474 -1.6008
 1608SOL    HW216287   4.287   3.486   4.415 -0.3563  0.0471 -0.6669
 1609SOL     OW16288   0.406   4.136   6.960 -0.3050  0.0056  0.3119
 1609SOL    HW116289   0.388   4.196   6.887 -1.1529  0.8194  1.1899
 1609SOL    HW216290   0.499   4.114   6.959 -0.2384  0.3350 -0.8933
 1610SOL     OW16291   1.416   0.629  13.622 -0.0360 -0.0671  0.2311
 1610SOL    HW116292   1.381   0.545  13.592 -0.9971  0.9547 -1.4888
 1610SOL    HW216293   1.387   0.636  13.712 -3.4699 -2.9182 -0.6187
 1611SOL     OW16294   4.246   0.336   1.394  0.3737 -0.9313 -0.0353
 1611SOL    HW116295   4.260   0.292   1.477  0.7126 -1.1421 -0.2046
 1611SOL    HW216296   4.282   0.423   1.412  2.0711 -1.6671  0.1337
 1612SOL     OW16297   4.531   4.467  10.907  0.3499  0.1284  0.1703
 1612SOL    HW116298   4.621   4.498  10.912  0.2354  0.2287  1.5378
 1612SOL    HW216299   4.497   4.527  10.973 -0.8518  0.1705 -0.4969
 1613SOL     OW16300   4.413   0.469   9.445  0.3133 -0.1746 -0.4138
 1613SOL    HW116301   4.398   0.477   9.350 -1.1905 -0.4712 -0.2045
 1613SOL    HW216302   4.384   0.558   9.461  0.8659  0.0150 -0.4879
 1614SOL     OW16303   3.692   3.994   0.850  0.0890 -0.5448 -0.0764
 1614SOL    HW116304   3.747   4.073   0.843 -1.4697  0.3931 -1.7468
 1614SOL    HW216305   3.715   3.965   0.938  0.5878  0.7633  0.2257
 1615SOL     OW16306   3.739   0.474   2.423 -0.2302  0.2664 -0.4556
 1615SOL    HW116307   3.741   0.453   2.517  3.5170  1.6456 -0.2554
 1615SOL    HW216308   3.833   0.481   2.405 -0.1475  0.8934  0.2092
 1616SOL     OW16309   0.436   4.549   4.302 -0.9799 -0.4502 -0.1635
 1616SOL    HW116310   0.506   4.613   4.321 -0.4065 -0.8538 -0.8993
 1616SOL    HW216311   0.356   4.584   4.341  1.3489  0.9251  3.3183
 1617SOL     OW16312   4.337   4.519   5.065 -0.2836 -0.1319 -0.5747
 1617SOL    HW116313   4.341   4.425   5.079  5.2568  0.2785  0.4921
 1617SOL    HW216314   4.399   4.555   5.129 -2.1742 -0.3870  1.3978
 1618SOL     OW16315   0.500   1.855   5.390 -0.0849 -0.4083 -0.3392
 1618SOL    HW116316   0.581   1.906   5.384  2.4074 -4.1735  1.6435
 1618SOL    HW216317   0.455   1.893   5.314  0.8165  0.8328 -0.2611
 1619SOL     OW16318   3.730   3.742  11.028 -0.0378  0.6428  0.3293
 1619SOL    HW116319   3.684   3.694  11.097  1.2904  0.2742  0.9469
 1619SOL    HW216320   3.691   3.693  10.955 -0.2882  3.0610 -1.1618
 1620SOL     OW16321   4.530   3.486   5.131 -0.6249 -0.4138 -0.2147
 1620SOL    HW116322   4.597   3.474   5.198  0.4379  1.6187 -0.9014
 1620SOL    HW216323   4.557   3.420   5.068  2.2298  1.7325 -1.2494
 1621SOL     OW16324   1.942   0.810   6.551 -0.8938  0.1688  0.1233
 1621SOL    HW116325   1.946   0.900   6.518 -1.0558 -0.2945 -1.1523
 1621SOL    HW216326   1.938   0.760   6.469 -0.5299  0.3530 -0.0089
 1622SOL     OW16327   4.327   1.279   2.631  0.0434 -0.3628  0.6283
 1622SOL    HW116328   4.366   1.270   2.544 -0.7070 -1.3506  0.3980
 1622SOL    HW216329   4.297   1.370   2.635  1.4496  0.2586 -3.6041
 1623SOL     OW16330   3.619   1.578  15.254  0.5112 -0.2967 -0.2308
 1623SOL    HW116331   3.592   1.650  15.197  0.3750  0.9839  1.4668
 1623SOL    HW216332   3.687   1.614  15.312 -2.2367 -0.0917  2.8131
 1624SOL     OW16333   2.305   3.551   7.028 -0.2737  0.5978 -0.6141
 1624SOL    HW116334   2.230   3.609   7.015 -0.0515  0.8841 -0.6197
 1624SOL    HW216335   2.350   3.558   6.944  0.2836 -1.5788 -0.5196
 1625SOL     OW16336   1.463   1.779   7.960 -0.3868 -0.0144 -0.4613
 1625SOL    HW116337   1.540   1.747   8.008 -1.8521 -1.1037  1.1942
 1625SOL    HW216338   1.502   1.858   7.923 -1.9751  0.8374 -0.3255
 1626SOL     OW16339   3.358   0.431   3.797 -0.4047 -0.4912 -0.0051
 1626SOL    HW116340   3.381   0.493   3.727  0.2677 -3.0750 -2.0801
 1626SOL    HW216341   3.374   0.492   3.869 -1.2252  0.5546 -0.7088
 1627SOL     OW16342   0.593   3.697   6.815  0.4578 -0.0126 -0.8770
 1627SOL    HW116343   0.598   3.659   6.903  1.6140 -1.1349 -1.4214
 1627SOL    HW216344   0.547   3.628   6.768 -0.5364 -0.3793  0.6189
 1628SOL     OW16345   3.392   2.656  16.114  0.0849 -0.2435 -0.0462
 1628SOL    HW116346   3.372   2.747  16.135  1.9726 -0.0067  0.6678
 1628SOL    HW216347   3.383   2.662  16.019 -1.4542 -1.4837  0.0255
 1629SOL     OW16348   4.402   3.635   7.361 -0.2670  0.5716 -0.1769
 1629SOL    HW116349   4.429   3.619   7.271  1.8599  1.6929  0.2354
 1629SOL    HW216350   4.465   3.697   7.399 -0.9705  0.7090  0.7709
 1630SOL     OW16351   4.256   0.063   8.855  0.3574 -0.2392  0.1620
 1630SOL    HW116352   4.261   0.059   8.950  0.7671 -0.4181  0.1327
 1630SOL    HW216353   4.229   4.699   8.841 -0.7978  0.2430 -0.6735
 1631SOL     OW16354   3.504   1.466   6.120 -0.7190  0.5259 -0.0970
 1631SOL    HW116355   3.464   1.431   6.200 -0.4277  0.4536  0.0176
 1631SOL    HW216356   3.597   1.442   6.127 -0.6041  1.3439  1.1751
 1632SOL     OW16357   1.322   0.874  17.369 -0.2121  0.1375  0.0980
 1632SOL    HW116358   1.341   0.914  17.284 -2.5918 -1.7491 -1.3312
 1632SOL    HW216359   1.329   0.780  17.349 -1.4999 -0.1637  1.0395
 1633SOL     OW16360   0.029   2.091   6.810  0.2055 -0.0711 -0.1946
 1633SOL    HW116361   0.009   2.094   6.904  0.1939 -0.0086 -0.1990
 1633SOL    HW216362   0.089   2.017   6.803  0.1407 -0.1318 -0.1160
 1634SOL     OW16363   0.551   4.536   3.791 -0.1212 -0.2553 -0.0334
 1634SOL    HW116364   0.464   4.503   3.772 -0.1267 -0.5366  0.4695
 1634SOL    HW216365   0.537   4.610   3.733  0.1128 -1.4618 -1.6310
 1635SOL     OW16366   0.851   0.996   7.777  0.3984 -0.0830  0.1890
 1635SOL    HW116367   0.831   1.008   7.684 -1.8704  2.5793  1.0339
 1635SOL    HW216368   0.945   0.977   7.770  0.0960 -0.9234 -1.5324
 1636SOL     OW16369   4.596   1.468   8.203  0.2203 -0.5875  0.3131
 1636SOL    HW116370   4.505   1.442   8.191 -0.0122  0.3199  0.1295
 1636SOL    HW216371   4.595   1.563   8.201  2.8279 -0.5685 -0.2818
 1637SOL     OW16372   1.818   3.520   3.144  0.5117 -0.2925 -0.6837
 1637SOL    HW116373   1.826   3.483   3.057 -1.0674 -1.9704 -0.1041
 1637SOL    HW216374   1.812   3.614   3.123  1.4842 -0.3361 -1.1545
 1638SOL     OW16375   0.834   1.731   4.538  0.5508  0.3349  0.2746
 1638SOL    HW116376   0.901   1.749   4.471 -0.1425 -0.8035 -0.7316
 1638SOL    HW216377   0.768   1.686   4.485 -0.6671  0.3936  1.7430
 1639SOL     OW16378   1.044   2.759  16.073  0.3728  0.5280  0.6079
 1639SOL    HW116379   1.044   2.684  16.132  0.9915  0.9245  1.1145
 1639SOL    HW216380   1.099   2.816  16.128  2.4045 -1.1276  0.2928
 1640SOL     OW16381   2.662   2.213   3.719 -0.0168 -0.1872  0.2675
 1640SOL    HW116382   2.683   2.158   3.795  0.1719 -0.9330 -0.3237
 1640SOL    HW216383   2.698   2.297   3.748 -2.5010  0.9070  0.1617
 1641SOL     OW16384   0.803   0.260   0.619  0.2114 -0.7373 -0.4136
 1641SOL    HW116385   0.883   0.211   0.601 -0.3652 -2.4407  1.6827
 1641SOL    HW216386   0.790   0.236   0.711 -1.3820  0.9699 -0.1729
 1642SOL     OW16387   4.334   2.500   6.487  0.4616 -0.1230 -0.8824
 1642SOL    HW116388   4.423   2.530   6.470  1.0368 -0.5646  1.3806
 1642SOL    HW216389   4.290   2.567   6.434 -2.3645 -0.1711  1.3904
 1643SOL     OW16390   3.704   1.883   1.375  0.7064 -0.1553 -0.0970
 1643SOL    HW116391   3.742   1.814   1.322  0.1223 -0.3335 -0.2786
 1643SOL    HW216392   3.752   1.867   1.457  1.3920  0.6657 -0.3339
 1644SOL     OW16393   3.970   4.130  12.467 -0.1333 -0.0256  0.4264
 1644SOL    HW116394   4.046   4.159  12.518 -1.3559  0.6894  1.8564
 1644SOL    HW216395   4.000   4.135  12.377  0.4314  0.9818  0.6691
 1645SOL     OW16396   0.611   1.804   3.937 -0.3368  0.0600 -0.6473
 1645SOL    HW116397   0.561   1.862   3.995  0.8321  1.9281 -1.5193
 1645SOL    HW216398   0.555   1.726   3.933  1.8743 -1.4842 -1.1072
 1646SOL     OW16399   3.991   4.021   9.327 -0.0938 -0.2137  0.1339
 1646SOL    HW116400   4.067   3.974   9.293  1.3135  1.5082  0.9047
 1646SOL    HW216401   3.940   3.957   9.377 -0.4583 -0.2897 -0.3365
 1647SOL     OW16402   2.783   4.428   1.004 -0.2499  0.1194 -0.6308
 1647SOL    HW116403   2.806   4.441   0.912 -3.3187  0.9283 -1.2907
 1647SOL    HW216404   2.873   4.422   1.035 -1.4201  0.9754  3.0046
 1648SOL     OW16405   4.234   2.016  12.831  0.5724  0.1602 -0.0469
 1648SOL    HW116406   4.232   2.083  12.763 -0.9006 -0.3294 -0.4839
 1648SOL    HW216407   4.321   2.021  12.870  0.2856  1.3192  0.4589
 1649SOL     OW16408   1.007   2.768   9.610 -0.5122  0.4903  0.2578
 1649SOL    HW116409   1.005   2.720   9.527 -1.6324  0.8277  0.0903
 1649SOL    HW216410   0.920   2.807   9.617 -0.5943  0.2516  0.5897
 1650SOL     OW16411   0.003   3.662   8.354  0.0804 -0.0913  0.0833
 1650SOL    HW116412   4.658   3.600   8.369 -0.9659  1.0776 -0.1440
 1650SOL    HW216413   0.044   3.666   8.440  0.1138 -0.5092  0.0898
 1651SOL     OW16414   0.548   1.779   6.808 -0.6419 -0.1107  0.0362
 1651SOL    HW116415   0.591   1.717   6.867 -1.3989 -2.7013 -2.1173
 1651SOL    HW216416   0.611   1.799   6.738 -1.6865  0.9215 -0.6151
 1652SOL     OW16417   1.493   1.213   1.676 -0.0810  0.3302 -0.0182
 1652SOL    HW116418   1.492   1.207   1.771  1.7396  2.1200  0.1132
 1652SOL    HW216419   1.550   1.286   1.653  0.2539 -0.0318 -0.3553
 1653SOL     OW16420   0.548   2.570   8.272 -0.1490 -0.0033 -0.3906
 1653SOL    HW116421   0.630   2.547   8.228  0.8716  0.0847  1.4345
 1653SOL    HW216422   0.580   2.573   8.362  0.4243  4.3563 -0.7600
 1654SOL     OW16423   0.623   3.497  11.442 -0.1929  0.5004  0.1935
 1654SOL    HW116424   0.676   3.443  11.383 -1.9147 -0.9044 -0.0770
 1654SOL    HW216425   0.536   3.492  11.404 -0.1680  1.6821  0.0029
 1655SOL     OW16426   3.736   1.527   1.527 -0.5346  0.5318  0.0584
 1655SOL    HW116427   3.652   1.544   1.571  0.5484  1.9923  1.5545
 1655SOL    HW216428   3.772   1.615   1.541 -0.9598  0.5209  1.2688
 1656SOL     OW16429   4.207   3.086  13.038 -0.3778 -0.1508  0.1851
 1656SOL    HW116430   4.302   3.077  13.040 -0.3307  0.6386  0.9664
 1656SOL    HW216431   4.199   3.181  13.032  1.7349 -0.0998 -1.4695
 1657SOL     OW16432   1.576   1.509   2.224 -0.3959  0.0597 -0.7941
 1657SOL    HW116433   1.651   1.486   2.169 -1.1404 -2.2368 -0.8577
 1657SOL    HW216434   1.502   1.503   2.164  0.2449 -0.8790 -1.4951
 1658SOL     OW16435   4.337   2.384   3.124 -0.0354 -0.2587 -0.1343
 1658SOL    HW116436   4.301   2.375   3.036  0.3296  2.3492 -0.5498
 1658SOL    HW216437   4.311   2.303   3.169 -2.0615  2.2922  3.3659
 1659SOL     OW16438   1.996   0.818   6.114 -0.3424  0.4096 -0.0655
 1659SOL    HW116439   2.082   0.842   6.079 -0.6595 -0.0582 -1.1620
 1659SOL    HW216440   1.974   0.758   6.043  0.5055 -0.2558  0.2200
 1660SOL     OW16441   2.705   3.312   1.223  0.5445  0.4154  0.4549
 1660SOL    HW116442   2.626   3.267   1.194 -0.2688  3.0361 -1.3583
 1660SOL    HW216443   2.680   3.404   1.231  0.5151  0.2799  1.8968
 1661SOL     OW16444   3.307   1.280   2.725 -0.1925 -0.3848 -0.0585
 1661SOL    HW116445   3.329   1.187   2.715 -0.1281 -0.2197 -1.4552
 1661SOL    HW216446   3.374   1.320   2.670 -1.4237 -0.5324 -1.6554
 1662SOL     OW16447   3.165   4.455   7.740 -0.0029  0.3406  0.1325
 1662SOL    HW116448   3.161   4.370   7.696 -2.4947  1.0526 -1.0035
 1662SOL    HW216449   3.136   4.416   7.822 -2.1655  0.0599 -0.7622
 1663SOL     OW16450   0.571   0.874   2.576 -0.0862 -0.3219 -0.0242
 1663SOL    HW116451   0.587   0.783   2.548 -2.7019 -1.4491  2.2260
 1663SOL    HW216452   0.654   0.888   2.622 -0.5316  2.8411 -0.2041
 1664SOL     OW16453   2.635   4.575   9.839  0.2458  0.2384  0.0063
 1664SOL    HW116454   2.640   4.663   9.877 -0.3578 -0.6096  2.0123
 1664SOL    HW216455   2.720   4.576   9.794  0.0898  1.8193 -0.2557
 1665SOL     OW16456   1.078   0.712  12.535  0.2559 -0.3935 -0.3429
 1665SOL    HW116457   1.057   0.669  12.618  2.1331  2.4370  1.6088
 1665SOL    HW216458   1.138   0.782  12.560  2.2138 -1.8034 -1.1168
 1666SOL     OW16459   0.435   3.176  10.360  0.2155  0.4665 -0.2063
 1666SOL    HW116460   0.490   3.230  10.303 -0.4834  1.6756  0.2691
 1666SOL    HW216461   0.371   3.137  10.301  1.2630 -0.5943 -0.6382
 1667SOL     OW16462   1.246   0.268   9.377 -0.1786  0.2193  0.7017
 1667SOL    HW116463   1.229   0.195   9.436  0.7799 -1.9201 -1.6367
 1667SOL    HW216464   1.276   0.333   9.441 -0.4172  0.1675  0.8661
 1668SOL     OW16465   3.390   3.627   2.871 -0.4816  0.3773  0.0550
 1668SOL    HW116466   3.357   3.687   2.938  1.4748  0.2469  1.1503
 1668SOL    HW216467   3.430   3.687   2.807 -0.2589 -0.1573 -0.3049
 1669SOL     OW16468   1.553   1.230   9.417 -0.8073  0.0052  0.4306
 1669SOL    HW116469   1.554   1.222   9.321 -1.4859  1.2187  0.3228
 1669SOL    HW216470   1.571   1.323   9.427  1.8892 -0.5034  0.3362
 1670SOL     OW16471   0.908   3.363   3.187  0.8196 -0.5205 -0.0608
 1670SOL    HW116472   0.898   3.448   3.143  0.7880  0.5971  2.1083
 1670SOL    HW216473   0.859   3.377   3.268  1.8653  2.6515  0.0325
 1671SOL     OW16474   1.469   3.770  13.858 -0.2346  0.1209 -0.6580
 1671SOL    HW116475   1.471   3.702  13.924  2.1736 -1.6018 -2.5181
 1671SOL    HW216476   1.526   3.843  13.883  1.9624 -1.8339  0.0110
 1672SOL     OW16477   2.330   3.835   9.028  0.5956 -0.7860  0.3926
 1672SOL    HW116478   2.373   3.797   9.104  0.6933 -2.1332 -0.3352
 1672SOL    HW216479   2.382   3.798   8.957  0.7336 -1.2012  0.7114
 1673SOL     OW16480   1.237   4.508   8.443 -0.1836 -0.3913  0.1302
 1673SOL    HW116481   1.144   4.491   8.453 -0.1207 -0.4800  0.5533
 1673SOL    HW216482   1.278   4.449   8.506  0.6587 -0.7520 -0.7363
 1674SOL     OW16483   3.504   3.909   1.952 -0.0763  0.0817  0.3140
 1674SOL    HW116484   3.507   3.822   1.992 -2.5309  0.6410  1.7219
 1674SOL    HW216485   3.575   3.936   2.010 -1.1222  2.3431  0.5522
 1675SOL     OW16486   1.501   3.055   7.395  0.0791 -0.4319 -0.5357
 1675SOL    HW116487   1.556   2.977   7.384  1.0449  0.2106 -0.3541
 1675SOL    HW216488   1.468   3.066   7.306 -1.1094 -1.3995 -0.2103
 1676SOL     OW16489   1.074   0.119   8.283  0.9940 -0.0572 -0.6503
 1676SOL    HW116490   1.117   0.087   8.363 -0.8217  0.4785  0.5294
 1676SOL    HW216491   1.122   0.071   8.216 -0.1648 -3.6084  1.0265
 1677SOL     OW16492   4.412   1.667  14.974  0.3860  0.4317 -0.3756
 1677SOL    HW116493   4.344   1.726  15.006 -0.9367 -0.7331 -1.0445
 1677SOL    HW216494   4.385   1.591  15.026  0.3165 -1.8628 -3.7823
 1678SOL     OW16495   3.219   0.768   6.022  0.1218 -0.2043 -0.1811
 1678SOL    HW116496   3.304   0.737   6.055  0.0866  0.5330  0.5953
 1678SOL    HW216497   3.164   0.718   6.083 -1.4543 -0.8934 -2.1943
 1679SOL     OW16498   3.097   3.862   3.881  0.5087  0.1868  0.3717
 1679SOL    HW116499   3.138   3.854   3.795  0.8925 -2.1761  0.7852
 1679SOL    HW216500   3.020   3.806   3.873  0.4989  0.3260 -0.5109
 1680SOL     OW16501   1.146   0.562   3.647 -0.3295  0.5730 -0.5204
 1680SOL    HW116502   1.127   0.560   3.553 -2.5430  1.6952 -0.1060
 1680SOL    HW216503   1.085   0.636   3.659 -0.8713  0.0877 -0.2648
 1681SOL     OW16504   3.282   1.145   8.987 -0.6969  0.0811  0.3296
 1681SOL    HW116505   3.280   1.210   9.058 -1.0126  1.9124 -1.3452
 1681SOL    HW216506   3.280   1.057   9.024 -0.2313  0.3985  1.1073
 1682SOL     OW16507   0.394   1.640   6.435  0.8267  0.4797  0.5024
 1682SOL    HW116508   0.473   1.603   6.397 -0.3590 -1.5508  0.0606
 1682SOL    HW216509   0.392   1.606   6.525  0.5123  0.1761  0.3798
 1683SOL     OW16510   3.922   3.049   0.436  0.3233 -0.1769  0.0831
 1683SOL    HW116511   3.863   2.989   0.390 -0.0888  1.0844 -1.0295
 1683SOL    HW216512   3.894   3.027   0.524  1.1635  1.0400  0.6537
 1684SOL     OW16513   2.901   3.393  13.090 -0.5981  0.1862  0.1390
 1684SOL    HW116514   2.910   3.463  13.154 -2.8194 -0.6482  1.3852
 1684SOL    HW216515   2.818   3.352  13.115 -0.6254  0.3402  0.2959
 1685SOL     OW16516   3.872   3.934   6.076 -0.1038 -0.0915  0.3588
 1685SOL    HW116517   3.864   4.027   6.054 -0.4712 -0.0524  0.6494
 1685SOL    HW216518   3.949   3.897   6.033  0.0500  0.8021 -0.1342
 1686SOL     OW16519   0.205   3.729  14.321  0.0040  0.1893 -0.2354
 1686SOL    HW116520   0.166   3.703  14.238 -0.5671  0.1912  0.0366
 1686SOL    HW216521   0.159   3.672  14.383 -1.0143  1.7651  0.4512
 1687SOL     OW16522   4.495   0.903   3.673 -0.0767  0.2045  0.1395
 1687SOL    HW116523   4.568   0.963   3.659 -0.2663  0.1136 -1.2473
 1687SOL    HW216524   4.506   0.876   3.765  3.1182 -0.4304 -0.4037
 1688SOL     OW16525   2.117   4.553   4.391  0.2125 -0.1119 -0.5021
 1688SOL    HW116526   2.023   4.537   4.398  0.3743 -0.9262 -0.0945
 1688SOL    HW216527   2.147   4.538   4.480  0.2269  0.8136 -0.3530
 1689SOL     OW16528   2.265   0.357   1.298  0.2138 -0.2286  0.6904
 1689SOL    HW116529   2.215   0.432   1.267  0.7882 -0.3449 -0.5002
 1689SOL    HW216530   2.231   0.283   1.246  0.2570  1.8894 -2.3321
 1690SOL     OW16531   0.809   3.356  15.579 -0.2405  0.1186 -0.4089
 1690SOL    HW116532   0.804   3.365  15.675  2.5606 -1.0711 -0.1501
 1690SOL    HW216533   0.825   3.446  15.552  0.6802 -0.4280 -1.6990
 1691SOL     OW16534   4.402   1.819   6.497 -0.3873  0.6361  0.5285
 1691SOL    HW116535   4.334   1.850   6.557 -0.3775 -2.2835  2.0287
 1691SOL    HW216536   4.461   1.895   6.503  0.3504  0.1244 -0.3091
 1692SOL     OW16537   2.100   0.446   3.955  0.7029 -0.1284  0.1287
 1692SOL    HW116538   2.053   0.530   3.956 -1.3633 -1.2593 -2.3017
 1692SOL    HW216539   2.153   0.453   3.875  0.1793  0.0556 -0.1979
 1693SOL     OW16540   2.619   2.139   8.302  0.0828 -0.1754 -0.3008
 1693SOL    HW116541   2.540   2.136   8.356  0.2497 -2.0160 -0.1648
 1693SOL    HW216542   2.675   2.181   8.368  1.3267 -3.1140  0.5495
 1694SOL     OW16543   2.818   1.771   6.895  0.4988 -0.0974 -0.4388
 1694SOL    HW116544   2.815   1.849   6.840 -1.6604 -1.4262 -2.1799
 1694SOL    HW216545   2.894   1.784   6.953  0.9854  1.1417 -1.3622
 1695SOL     OW16546   1.680   2.066   2.973  0.0275  0.0518 -0.0640
 1695SOL    HW116547   1.647   2.130   2.910  2.9564  1.4214 -0.1755
 1695SOL    HW216548   1.627   2.084   3.050 -0.1115 -0.4670 -0.0331
 1696SOL     OW16549   1.985   0.172   9.317  0.2316 -0.0487  0.1034
 1696SOL    HW116550   2.077   0.192   9.301  0.7142 -4.4287 -2.4069
 1696SOL    HW216551   1.962   0.257   9.356 -1.8363 -0.2384 -0.6949
 1697SOL     OW16552   0.058   4.321   2.713  0.4775  0.3425  0.1264
 1697SOL    HW116553   0.140   4.334   2.666  1.3800 -2.1444  1.0271
 1697SOL    HW216554   4.719   4.334   2.645  1.3739  0.3616 -0.7344
 1698SOL     OW16555   2.497   2.419   8.302  0.2845 -1.0186 -0.2876
 1698SOL    HW116556   2.423   2.462   8.343  0.9483 -0.7792  0.6727
 1698SOL    HW216557   2.525   2.370   8.379  1.1605  2.5374  1.6339
 1699SOL     OW16558   1.236   4.270   0.327 -0.6206 -0.2402 -0.1004
 1699SOL    HW116559   1.147   4.301   0.313 -0.2212  1.7462  1.6060
 1699SOL    HW216560   1.236   4.272   0.423  1.0667 -1.4311 -0.0597
 1700SOL     OW16561   1.135   4.525   8.785  0.3927  0.5393 -0.4813
 1700SOL    HW116562   1.216   4.513   8.736  0.7733  0.0362  0.2631
 1700SOL    HW216563   1.166   4.594   8.843 -3.8486  2.9991 -1.1645
 1701SOL     OW16564   3.051   2.614   5.457  0.4625  0.5641 -0.2024
 1701SOL    HW116565   3.118   2.561   5.413  0.2775  0.9558 -0.9642
 1701SOL    HW216566   2.984   2.552   5.485  0.1277  0.6448 -0.8252
 1702SOL     OW16567   0.769   3.130   3.610  0.6168  0.2266 -0.7543
 1702SOL    HW116568   0.707   3.086   3.668 -1.1159  1.9643 -1.2641
 1702SOL    HW216569   0.837   3.064   3.600  0.5145 -0.1057  0.8261
 1703SOL     OW16570   3.355   2.410   7.095 -0.3727 -0.3458 -0.1382
 1703SOL    HW116571   3.382   2.321   7.120  2.0824  1.1371  2.4545
 1703SOL    HW216572   3.436   2.439   7.053 -0.2402 -0.0733  0.3138
 1704SOL     OW16573   1.222   2.542   3.871 -0.4904  0.6554 -0.4787
 1704SOL    HW116574   1.239   2.584   3.955  2.0883 -1.5838  0.1155
 1704SOL    HW216575   1.138   2.497   3.883  0.7181 -0.9336  1.9629
 1705SOL     OW16576   4.591   1.023   7.788  0.2987  0.6056 -0.0113
 1705SOL    HW116577   4.508   1.037   7.743 -0.5092 -2.0123  0.6903
 1705SOL    HW216578   4.573   1.087   7.857 -0.7191  0.8105 -0.4627
 1706SOL     OW16579   0.282   0.368   2.237 -0.0447 -0.1046  0.3179
 1706SOL    HW116580   0.201   0.392   2.281  0.3890  1.2436  0.3905
 1706SOL    HW216581   0.315   0.450   2.201 -2.0086  0.1858 -0.7834
 1707SOL     OW16582   0.370   3.174   6.528 -0.1105 -0.0307  0.2379
 1707SOL    HW116583   0.457   3.215   6.519 -0.8834  1.3907 -0.6780
 1707SOL    HW216584   0.322   3.216   6.457  0.7019  0.2796 -0.1316
 1708SOL     OW16585   3.793   3.166   3.948 -0.3679  0.2517 -0.3771
 1708SOL    HW116586   3.697   3.159   3.953  0.0073 -2.9143  2.0650
 1708SOL    HW216587   3.803   3.251   3.904  0.7595  0.0296 -0.5380
 1709SOL     OW16588   4.005   2.206   8.590 -0.1255  0.2798  0.4912
 1709SOL    HW116589   4.022   2.127   8.641  1.9555  0.2858 -0.1973
 1709SOL    HW216590   3.950   2.266   8.641  0.2102  1.0898 -0.0926
 1710SOL     OW16591   0.908   2.723  16.363 -0.4008  0.1404  0.0340
 1710SOL    HW116592   0.950   2.647  16.323  0.4839  0.2050  0.8393
 1710SOL    HW216593   0.928   2.704  16.454  1.4960 -0.8545 -0.5991
 1711SOL     OW16594   3.513   3.222   7.320 -0.0147 -0.1199 -0.7755
 1711SOL    HW116595   3.447   3.201   7.387  0.6675  2.9014  0.8183
 1711SOL    HW216596   3.490   3.162   7.249 -0.5391 -1.8402  0.8203
 1712SOL     OW16597   3.589   2.172   2.114  0.1099 -0.0021  0.2949
 1712SOL    HW116598   3.545   2.087   2.106 -1.5774  0.4769  4.2369
 1712SOL    HW216599   3.671   2.148   2.071  1.0372  1.8934  0.9942
 1713SOL     OW16600   4.712   1.066   2.432 -0.4583  0.2707 -0.6734
 1713SOL    HW116601   0.077   1.087   2.414 -0.3125  0.9381  0.8816
 1713SOL    HW216602   4.700   1.004   2.360 -0.7841  1.0856 -1.3274
 1714SOL     OW16603   0.080   0.243   7.950 -0.1921 -0.4112  0.8930
 1714SOL    HW116604   0.017   0.171   7.955 -0.3406 -0.6085 -3.7302
 1714SOL    HW216605   0.071   0.283   8.036 -1.7493  1.9358 -0.3506
 1715SOL     OW16606   4.577   1.595   0.671 -0.1446  0.0670 -0.2122
 1715SOL    HW116607   4.495   1.625   0.711  0.7613 -1.8048  3.0381
 1715SOL    HW216608   4.573   1.500   0.678  0.6301  0.1765  1.7207
 1716SOL     OW16609   2.439   2.121  15.133  0.3396  0.1519 -0.3712
 1716SOL    HW116610   2.402   2.158  15.213 -1.0146 -2.4064  0.1976
 1716SOL    HW216611   2.417   2.193  15.074 -0.8474 -0.5210 -0.7651
 1717SOL     OW16612   0.006   2.954  14.139 -0.6411  0.2596 -0.2115
 1717SOL    HW116613   0.014   3.006  14.060  1.6830  1.7242  1.0044
 1717SOL    HW216614   0.066   2.882  14.119 -0.7873  0.7510 -2.4217
 1718SOL     OW16615   4.593   3.209   3.000 -0.0106 -0.4100 -0.4138
 1718SOL    HW116616   4.629   3.120   2.989  3.4807  1.0366 -0.7452
 1718SOL    HW216617   4.506   3.190   2.964 -0.2073 -0.6557  0.1945
 1719SOL     OW16618   0.385   2.510   3.285 -0.0117  0.3484 -0.5586
 1719SOL    HW116619   0.353   2.595   3.317  1.6599  0.8681 -0.2535
 1719SOL    HW216620   0.480   2.520   3.290  0.0374 -1.5711  2.3694
 1720SOL     OW16621   0.383   0.881  15.651 -0.0028 -0.5250  0.1191
 1720SOL    HW116622   0.363   0.802  15.700 -0.0314  0.0776  1.0925
 1720SOL    HW216623   0.439   0.847  15.581 -0.5340  1.0274 -1.0772
 1721SOL     OW16624   0.899   0.706   3.659 -0.4809 -0.1795 -0.7247
 1721SOL    HW116625   0.851   0.631   3.624 -0.5764 -1.0863  1.3004
 1721SOL    HW216626   0.855   0.723   3.743 -0.2631  2.9975 -1.2759
 1722SOL     OW16627   0.873   1.901   2.650 -0.4274 -0.3302  0.1438
 1722SOL    HW116628   0.797   1.935   2.602 -0.1917  0.2637  0.1857
 1722SOL    HW216629   0.895   1.971   2.712  1.5258 -0.7728 -0.0371
 1723SOL     OW16630   2.753   0.333   8.185 -0.2421 -0.3331 -0.2259
 1723SOL    HW116631   2.754   0.428   8.172  1.1167 -0.1278  1.2413
 1723SOL    HW216632   2.846   0.310   8.177 -0.2157 -0.1867 -0.3529
 1724SOL     OW16633   1.596   0.363   3.509  0.3582 -0.4633  0.3164
 1724SOL    HW116634   1.555   0.449   3.503  0.0249 -0.6608 -0.2090
 1724SOL    HW216635   1.590   0.328   3.421 -0.9336  3.2190 -1.0770
 1725SOL     OW16636   2.860   0.091   2.943 -0.2896  0.1235  0.4719
 1725SOL    HW116637   2.907   0.043   2.874  0.1264  0.0381  0.8139
 1725SOL    HW216638   2.796   0.141   2.894  3.1929  2.1220 -2.0195
 1726SOL     OW16639   0.544   3.067  14.341 -0.7358  0.3019  0.9254
 1726SOL    HW116640   0.618   3.009  14.361 -0.3622 -0.4837 -2.8033
 1726SOL    HW216641   0.539   3.113  14.425 -0.5166  0.7744  0.6784
 1727SOL     OW16642   2.127   0.794  12.943 -0.1478 -0.4917  0.2537
 1727SOL    HW116643   2.157   0.877  12.904  0.1924 -0.1071  1.3439
 1727SOL    HW216644   2.178   0.737  12.885  0.7225 -0.4155  0.9397
 1728SOL     OW16645   4.560   0.667   8.425  0.3300  0.7712 -0.2813
 1728SOL    HW116646   4.583   0.730   8.493  1.8119  0.4390 -0.4687
 1728SOL    HW216647   4.490   0.621   8.471  2.2903 -2.6281 -0.6611
 1729SOL     OW16648   3.589   3.467   2.576  0.1557 -0.4866 -0.3078
 1729SOL    HW116649   3.618   3.472   2.667 -1.8062  0.8133  0.2674
 1729SOL    HW216650   3.523   3.397   2.581  0.7817 -0.9281  1.9822
 1730SOL     OW16651   1.877   0.725  14.928  0.0275 -0.4306 -0.3429
 1730SOL    HW116652   1.827   0.675  14.864  1.4489 -0.2271 -1.6188
 1730SOL    HW216653   1.881   0.813  14.889  0.4798  0.4405  1.6701
 1731SOL     OW16654   3.494   4.659   6.044 -1.2326  0.2835  0.2755
 1731SOL    HW116655   3.459   4.679   5.957  1.1741 -0.4015 -0.8550
 1731SOL    HW216656   3.529   4.570   6.038 -1.2947  0.2730  0.0507
 1732SOL     OW16657   2.121   3.256   2.674  0.2058  0.2548 -0.0377
 1732SOL    HW116658   2.092   3.189   2.737 -1.4552  0.8549 -0.1802
 1732SOL    HW216659   2.193   3.207   2.634  0.4136  0.5478 -0.0195
 1733SOL     OW16660   2.971   0.264  11.827 -0.5159  0.0705  0.6487
 1733SOL    HW116661   3.053   0.277  11.876  0.3822  1.2962 -1.1666
 1733SOL    HW216662   2.977   0.174  11.796  1.5682  1.0404 -1.8094
 1734SOL     OW16663   4.428   2.459  12.032 -0.0141 -0.1001  0.4657
 1734SOL    HW116664   4.516   2.472  12.067  0.7335  1.4528 -2.0067
 1734SOL    HW216665   4.427   2.366  12.007 -2.5118 -0.2196  1.0296
 1735SOL     OW16666   3.171   3.816   5.571 -0.2345  0.8153  0.0487
 1735SOL    HW116667   3.086   3.856   5.553  0.1422  2.4113  1.8640
 1735SOL    HW216668   3.188   3.772   5.487  0.0988 -2.1703  1.6844
 1736SOL     OW16669   3.957   1.877   9.395  0.8558 -0.3264  0.4952
 1736SOL    HW116670   3.866   1.900   9.375  1.0886  0.5798  0.4885
 1736SOL    HW216671   3.948   1.831   9.479 -0.6070  0.6204  0.8638
 1737SOL     OW16672   0.974   0.445  14.646 -0.5538  0.2052  0.5901
 1737SOL    HW116673   0.949   0.509  14.712  1.8801 -0.3550  2.0712
 1737SOL    HW216674   0.895   0.449  14.592 -1.7867 -3.2565  2.1318
 1738SOL     OW16675   4.684   0.389   8.157  0.2469 -0.9779  0.2094
 1738SOL    HW116676   4.702   0.382   8.251 -1.9619  0.2504  0.7422
 1738SOL    HW216677   4.638   0.473   8.150 -1.6641 -1.9215  1.3061
 1739SOL     OW16678   0.250   1.280  17.246 -0.1137 -0.5808 -0.0738
 1739SOL    HW116679   0.201   1.312  17.322 -1.1646 -2.4982  0.0443
 1739SOL    HW216680   0.292   1.363  17.223 -1.1720 -0.6364 -2.1915
 1740SOL     OW16681   3.918   2.094   4.799  0.1989  0.2556 -0.3196
 1740SOL    HW116682   3.890   2.091   4.708  0.6547 -1.6985 -0.3951
 1740SOL    HW216683   3.975   2.172   4.795  1.4445 -0.7128 -1.3995
 1741SOL     OW16684   1.647   3.731   5.229 -0.3535 -0.6827  0.5175
 1741SOL    HW116685   1.615   3.770   5.148 -0.5059 -3.3383 -0.6977
 1741SOL    HW216686   1.594   3.651   5.222 -1.3529 -0.0212  0.4737
 1742SOL     OW16687   1.017   1.001   4.881  0.1567  0.4828 -0.5267
 1742SOL    HW116688   1.004   1.096   4.874  0.3820  0.6449  1.3676
 1742SOL    HW216689   1.065   0.986   4.799 -1.1738 -0.7593 -1.0769
 1743SOL     OW16690   1.691   0.281  15.516  0.1570 -0.5647 -0.6459
 1743SOL    HW116691   1.613   0.285  15.571  2.0127  0.8734  1.8646
 1743SOL    HW216692   1.661   0.315  15.432  0.8939 -0.5927 -0.9184
 1744SOL     OW16693   0.649   0.727  15.892  0.1667 -0.9618  0.7759
 1744SOL    HW116694   0.575   0.690  15.844  1.6037 -2.4760 -0.2383
 1744SOL    HW216695   0.591   0.750  15.965  0.6510 -1.4901  1.3322
 1745SOL     OW16696   1.547   0.146   4.741 -0.3526  0.1793 -0.0225
 1745SOL    HW116697   1.462   0.175   4.775 -0.4995  1.1245 -1.2205
 1745SOL    HW216698   1.577   0.226   4.699  0.3417 -1.2861 -2.2923
 1746SOL     OW16699   3.193   1.251   4.801  0.5485 -0.4525 -0.4903
 1746SOL    HW116700   3.115   1.197   4.787  0.0322 -0.3414  1.9494
 1746SOL    HW216701   3.159   1.318   4.860  0.9913  2.5191 -3.5543
 1747SOL     OW16702   1.958   3.575   2.410 -1.2717 -0.0950 -0.5248
 1747SOL    HW116703   2.010   3.514   2.462 -0.0033  1.2770 -0.1676
 1747SOL    HW216704   1.902   3.629   2.465 -1.2463 -2.1524  1.5204
 1748SOL     OW16705   0.443   0.679  16.388  0.1154 -0.2748 -0.1214
 1748SOL    HW116706   0.430   0.585  16.402  0.2727 -0.2076  0.5006
 1748SOL    HW216707   0.412   0.717  16.470  1.1656 -1.9292  1.0508
 1749SOL     OW16708   1.028   1.703   8.596  0.4032 -0.7948  0.0838
 1749SOL    HW116709   1.020   1.625   8.651 -1.8679  1.0944  2.4318
 1749SOL    HW216710   0.966   1.767   8.632 -0.0739 -0.2367 -1.7160
 1750SOL     OW16711   2.802   0.832  12.210  0.1746  0.2350  0.5010
 1750SOL    HW116712   2.868   0.782  12.162 -2.2555 -0.2373 -2.3287
 1750SOL    HW216713   2.846   0.915  12.228  1.3986  0.3401 -2.9753
 1751SOL     OW16714   2.363   0.416   3.117  0.0282 -0.1649  0.3029
 1751SOL    HW116715   2.366   0.463   3.034  0.0677  2.6748  1.8844
 1751SOL    HW216716   2.299   0.465   3.170 -2.3324 -3.1631  0.2411
 1752SOL     OW16717   0.270   1.996  14.088  0.8260  0.1240 -0.2741
 1752SOL    HW116718   0.191   2.045  14.115  0.0712 -0.7752 -0.8693
 1752SOL    HW216719   0.281   1.946  14.169 -0.2322  0.2888 -0.0222
 1753SOL     OW16720   1.515   0.129   8.202 -0.4013 -0.3793  0.3539
 1753SOL    HW116721   1.475   0.049   8.234  1.0963 -1.4797 -0.5325
 1753SOL    HW216722   1.587   0.132   8.265 -0.6030 -1.7032  0.6345
 1754SOL     OW16723   2.604   1.390   5.835 -0.2586 -0.2056 -0.2317
 1754SOL    HW116724   2.552   1.355   5.907  0.4342 -0.3142  0.2203
 1754SOL    HW216725   2.568   1.476   5.814 -0.3661 -0.2738 -0.3273
 1755SOL     OW16726   2.679   1.979   7.328 -0.4031  0.2522 -0.3672
 1755SOL    HW116727   2.766   2.018   7.337 -1.6142  2.4386  2.1658
 1755SOL    HW216728   2.627   2.030   7.390  0.3982 -2.0545  2.2339
 1756SOL     OW16729   2.911   2.524  17.246 -0.3153 -0.0830 -0.3184
 1756SOL    HW116730   2.835   2.580  17.229 -1.4922 -1.9389 -1.2244
 1756SOL    HW216731   2.874   2.486  17.326  0.0905  0.5768  0.1893
 1757SOL     OW16732   0.561   0.074   1.982  0.5008 -0.6407 -0.3379
 1757SOL    HW116733   0.496   0.031   2.038  0.0040  1.8597  1.0015
 1757SOL    HW216734   0.523   0.162   1.976 -0.4041 -0.9051  1.7103
 1758SOL     OW16735   3.499   2.296   8.845  0.3083  0.3002  0.0084
 1758SOL    HW116736   3.503   2.324   8.936 -2.7415  2.5209 -0.5588
 1758SOL    HW216737   3.580   2.339   8.817  1.1030 -0.5149  1.0345
 1759SOL     OW16738   0.276   2.455   4.455  0.1915  0.1562 -0.1381
 1759SOL    HW116739   0.236   2.456   4.368  2.3117 -0.5359 -1.1234
 1759SOL    HW216740   0.198   2.442   4.510 -0.8499  3.2511 -0.8727
 1760SOL     OW16741   1.919   0.450   9.698  0.3155 -0.1344 -0.1969
 1760SOL    HW116742   1.939   0.428   9.789 -0.1498  0.4316  0.0441
 1760SOL    HW216743   1.849   0.389   9.675 -1.6914  2.1307 -0.1217
 1761SOL     OW16744   0.938   2.608  11.245 -0.8492 -0.1688  0.2443
 1761SOL    HW116745   0.869   2.542  11.245 -1.9724  1.0174  1.5959
 1761SOL    HW216746   0.941   2.618  11.150 -2.2874 -0.2025  0.2096
 1762SOL     OW16747   3.689   2.052  14.223  0.0570 -0.7255  0.1118
 1762SOL    HW116748   3.622   1.988  14.199 -1.8202  1.6307 -0.9235
 1762SOL    HW216749   3.767   2.011  14.185 -0.0341 -0.4243 -0.3923
 1763SOL     OW16750   2.860   3.102   0.792  0.0183 -0.1191 -0.1733
 1763SOL    HW116751   2.775   3.139   0.815  0.2723  0.5444 -0.3066
 1763SOL    HW216752   2.889   3.069   0.877 -0.4466 -2.0196 -0.7669
 1764SOL     OW16753   2.313   2.323   7.799 -0.2036 -0.4627  0.6983
 1764SOL    HW116754   2.267   2.329   7.715  2.8320  2.2387 -0.7577
 1764SOL    HW216755   2.372   2.396   7.781  1.1129 -0.8248  3.5674
 1765SOL     OW16756   1.906   0.116   4.022 -0.1589  0.3224 -0.2309
 1765SOL    HW116757   1.815   0.116   4.054  0.2040  0.1222  0.8142
 1765SOL    HW216758   1.898   0.036   3.971  1.0878  1.0024 -1.4581
 1766SOL     OW16759   1.546   0.359   9.605 -0.0205  0.2822  0.3679
 1766SOL    HW116760   1.601   0.416   9.552 -1.4321  1.0150 -0.3115
 1766SOL    HW216761   1.609   0.329   9.671 -2.0897  1.4031  2.8433
 1767SOL     OW16762   3.251   3.014   7.265  0.3997 -0.7396 -0.4302
 1767SOL    HW116763   3.264   3.101   7.228  1.5625 -0.7039  0.0650
 1767SOL    HW216764   3.280   3.030   7.355  0.3360 -1.0808 -0.3491
 1768SOL     OW16765   3.636   3.213   8.509 -0.1604  0.3130 -0.1288
 1768SOL    HW116766   3.692   3.227   8.433  0.0448  0.8363  0.1174
 1768SOL    HW216767   3.692   3.245   8.580 -0.6601  0.7466  0.0663
 1769SOL     OW16768   1.338   1.919   4.037 -0.2557  0.4232 -0.0148
 1769SOL    HW116769   1.412   1.894   4.092  0.6253  1.2145 -0.8417
 1769SOL    HW216770   1.376   1.926   3.950 -0.7001  0.6108 -0.1944
 1770SOL     OW16771   1.788   3.210   9.056 -0.2082  0.0638 -0.1749
 1770SOL    HW116772   1.775   3.194   9.150 -1.2418  1.7861 -0.0258
 1770SOL    HW216773   1.845   3.286   9.062  0.9077 -0.7717 -0.1572
 1771SOL     OW16774   4.170   3.550   3.839  0.1866  0.1245 -0.0967
 1771SOL    HW116775   4.137   3.633   3.806 -3.2150 -0.6051  1.4394
 1771SOL    HW216776   4.244   3.541   3.780  0.4973  0.5814  0.2266
 1772SOL     OW16777   3.809   0.304   0.634  0.3148  0.4377 -0.1120
 1772SOL    HW116778   3.780   0.214   0.617  0.4460  0.4513 -0.4121
 1772SOL    HW216779   3.726   0.345   0.655 -0.0270 -0.7593  0.8772
 1773SOL     OW16780   2.316   1.853   5.717 -0.3451  0.0095  0.0063
 1773SOL    HW116781   2.354   1.940   5.730 -0.7588  0.4418 -1.7579
 1773SOL    HW216782   2.233   1.865   5.672  0.2864  1.1182 -0.8644
 1774SOL     OW16783   0.655   1.880   7.795 -0.1367 -0.3085 -0.2955
 1774SOL    HW116784   0.747   1.890   7.772 -0.1707 -0.0752 -0.3369
 1774SOL    HW216785   0.656   1.799   7.846 -0.4775 -0.9089 -1.2413
 1775SOL     OW16786   2.679   1.972   3.163 -0.2640 -0.2703 -0.1758
 1775SOL    HW116787   2.657   2.062   3.140  1.1591 -0.2059 -1.2070
 1775SOL    HW216788   2.772   1.964   3.184 -0.3477  1.2540  0.7535
 1776SOL     OW16789   2.678   0.165  11.310  0.6573 -0.5028 -0.7388
 1776SOL    HW116790   2.773   0.172  11.311  0.6476 -0.4680  0.0505
 1776SOL    HW216791   2.667   0.241  11.368 -1.2077 -1.0230 -0.4167
 1777SOL     OW16792   3.019   3.976   7.735  0.1298 -0.0924  0.8619
 1777SOL    HW116793   2.929   4.008   7.744 -0.6446 -1.5360 -1.6283
 1777SOL    HW216794   3.049   3.934   7.815 -0.1231  0.5415  1.2852
 1778SOL     OW16795   1.535   1.502   9.357  0.0653  1.2941  1.1764
 1778SOL    HW116796   1.534   1.542   9.269 -2.5036  0.3882  0.7836
 1778SOL    HW216797   1.624   1.517   9.389  0.2988  1.0938  0.6208
 1779SOL     OW16798   2.935   2.956   3.148 -0.2027 -0.0038 -0.1349
 1779SOL    HW116799   3.008   2.972   3.088 -0.0449 -0.7694 -0.1523
 1779SOL    HW216800   2.861   2.957   3.087 -0.0040  0.9036 -0.3629
 1780SOL     OW16801   3.696   4.378   1.661  0.2393 -0.3565 -0.1139
 1780SOL    HW116802   3.618   4.323   1.677  0.0745 -0.0117  0.2741
 1780SOL    HW216803   3.675   4.423   1.579  0.6677 -2.0028 -1.1252
 1781SOL     OW16804   1.462   4.705   7.745 -0.2123  0.4679  0.5015
 1781SOL    HW116805   1.451   0.069   7.718 -1.6203  0.2153  0.1926
 1781SOL    HW216806   1.533   4.722   7.806  2.0688 -1.5458 -1.5989
 1782SOL     OW16807   1.504   0.674   9.168  0.1177 -0.1525  0.0846
 1782SOL    HW116808   1.539   0.704   9.252 -0.5348  1.7738 -0.3467
 1782SOL    HW216809   1.427   0.730   9.158 -0.9285 -1.5004  0.5610
 1783SOL     OW16810   1.535   3.899   7.547  0.2307  0.8627 -0.0663
 1783SOL    HW116811   1.510   3.902   7.455  1.8444 -0.5916 -0.5464
 1783SOL    HW216812   1.585   3.980   7.559 -0.0416  0.7762  1.7446
 1784SOL     OW16813   3.444   3.290  16.532 -0.4318  0.5337  0.1023
 1784SOL    HW116814   3.405   3.210  16.568  3.7487 -0.6852  1.9529
 1784SOL    HW216815   3.459   3.338  16.614 -0.8621 -0.1502  0.5861
 1785SOL     OW16816   0.613   0.652   6.747 -0.0201  0.6520 -0.4639
 1785SOL    HW116817   0.525   0.615   6.739  0.9569 -1.3919 -1.8650
 1785SOL    HW216818   0.626   0.676   6.655  1.9586  2.1401  0.2083
 1786SOL     OW16819   2.381   1.223   4.281  0.5953  0.0795  0.0404
 1786SOL    HW116820   2.432   1.289   4.328  0.0228  0.5840 -0.0500
 1786SOL    HW216821   2.446   1.178   4.227 -0.7298 -0.1560 -1.3410
 1787SOL     OW16822   4.168   4.679  14.919 -0.4644  0.5404  0.6989
 1787SOL    HW116823   4.131   4.604  14.965  0.9256 -0.5436  0.0692
 1787SOL    HW216824   4.148   4.653  14.829 -0.2667 -0.5127  0.9547
 1788SOL     OW16825   3.594   3.185   5.039  0.0871  0.5194 -0.2109
 1788SOL    HW116826   3.599   3.189   4.943 -1.2989  1.5046 -0.2435
 1788SOL    HW216827   3.563   3.095   5.045 -0.5578  0.8230  0.8488
 1789SOL     OW16828   3.808   4.182   1.258  0.0336 -0.3249  0.2613
 1789SOL    HW116829   3.778   4.113   1.317  0.0174  0.4053  1.0984
 1789SOL    HW216830   3.882   4.135   1.219  0.7636  0.2763  0.9534
 1790SOL     OW16831   4.108   3.424   0.567  0.1220 -0.0958  0.6708
 1790SOL    HW116832   4.112   3.345   0.512 -2.3467  0.2816 -0.0488
 1790SOL    HW216833   4.186   3.472   0.539 -1.0698  1.2254 -0.3902
 1791SOL     OW16834   0.184   2.985   3.440  0.0248 -0.0284 -0.0852
 1791SOL    HW116835   0.193   3.045   3.514  0.1686  0.5150 -0.5435
 1791SOL    HW216836   0.150   3.037   3.367  0.1682  1.5818  1.0144
 1792SOL     OW16837   3.167   2.816   7.092  0.0537 -1.0671  0.0217
 1792SOL    HW116838   3.178   2.851   7.181  1.0148 -2.7503  0.5563
 1792SOL    HW216839   3.208   2.890   7.047  1.1872 -1.3313  0.6075
 1793SOL     OW16840   2.858   0.014   7.859  0.1243 -0.8879 -0.0366
 1793SOL    HW116841   2.922   4.698   7.916  0.1404 -1.6140 -0.5857
 1793SOL    HW216842   2.906   0.097   7.849  0.3057 -0.9631  0.2053
 1794SOL     OW16843   3.991   4.022   1.145  0.1238 -0.3292  0.4180
 1794SOL    HW116844   3.955   4.038   1.058  0.6962 -2.3259 -0.1901
 1794SOL    HW216845   4.004   3.927   1.142  1.1471 -0.2439  1.9622
 1795SOL     OW16846   3.444   3.439  13.819  0.1541 -0.0174 -0.3932
 1795SOL    HW116847   3.379   3.477  13.760  0.1768 -0.1295 -0.4906
 1795SOL    HW216848   3.524   3.475  13.780  2.5902 -1.7363  2.9322
 1796SOL     OW16849   2.418   4.088   7.064 -0.4394 -0.2201  0.0396
 1796SOL    HW116850   2.503   4.053   7.039 -0.8447  0.3056 -2.1120
 1796SOL    HW216851   2.398   4.144   6.989 -2.3513 -2.9340 -1.4717
 1797SOL     OW16852   3.985   3.068  12.867 -0.2486 -0.7084 -0.6924
 1797SOL    HW116853   4.065   3.066  12.920 -1.1845 -0.3870  0.7423
 1797SOL    HW216854   4.018   3.105  12.785 -2.8744  1.5454 -0.7024
 1798SOL     OW16855   3.118   2.751   7.921 -0.5813 -0.0992  0.1000
 1798SOL    HW116856   3.036   2.719   7.883 -1.1277  1.0337  0.3143
 1798SOL    HW216857   3.158   2.795   7.846 -1.3862 -2.4757 -1.7460
 1799SOL     OW16858   0.041   2.844   6.524 -0.2082  0.1187  0.5245
 1799SOL    HW116859   0.099   2.903   6.573  2.5964 -4.4190  2.7016
 1799SOL    HW216860   0.098   2.769   6.509 -1.7658 -1.2615  1.5179
 1800SOL     OW16861   1.967   1.059  17.149 -0.8752  0.3151  0.0861
 1800SOL    HW116862   1.993   1.121  17.081 -0.7970  0.5995  0.3773
 1800SOL    HW216863   1.888   1.021  17.110 -1.4905 -0.0404  1.6726
 1801SOL     OW16864   4.240   3.084   8.342 -0.0573  0.1130  0.0460
 1801SOL    HW116865   4.178   3.097   8.270 -1.0948  0.4018  0.9928
 1801SOL    HW216866   4.274   3.000   8.311 -0.5032 -1.2503  3.2686
 1802SOL     OW16867   2.435   2.239   6.163  0.0685 -1.4176  0.1182
 1802SOL    HW116868   2.427   2.185   6.241 -2.0672  0.2018  1.0163
 1802SOL    HW216869   2.371   2.207   6.100 -1.7383 -0.6431  1.5460
 1803SOL     OW16870   0.762   4.139   8.850  0.5196  0.4740  0.0686
 1803SOL    HW116871   0.687   4.191   8.823 -1.2269 -2.1878 -0.1962
 1803SOL    HW216872   0.720   4.079   8.911  1.2749 -0.4415 -0.3016
 1804SOL     OW16873   1.593   3.972   9.700  0.0068 -0.0130 -0.2880
 1804SOL    HW116874   1.592   3.879   9.726 -1.9975  0.2626  0.5987
 1804SOL    HW216875   1.684   3.995   9.717 -0.1813 -0.6261  1.5912
 1805SOL     OW16876   3.590   2.515  13.293  0.0621 -0.2272 -0.1194
 1805SOL    HW116877   3.596   2.456  13.367 -0.8852  0.0821  0.2093
 1805SOL    HW216878   3.669   2.492  13.244  0.1175 -1.9165  0.7871
 1806SOL     OW16879   4.363   3.331   6.613 -0.0142  0.0477  0.1360
 1806SOL    HW116880   4.355   3.425   6.628 -3.8035 -0.0153 -1.3123
 1806SOL    HW216881   4.365   3.322   6.517 -0.3824  0.6225  0.0741
 1807SOL     OW16882   0.223   1.615   9.286 -0.5638  0.7396 -0.1720
 1807SOL    HW116883   0.210   1.554   9.214  0.5388  1.4223 -0.9498
 1807SOL    HW216884   0.302   1.663   9.261 -0.6709  0.5877 -0.8037
 1808SOL     OW16885   2.265   0.247   9.330 -0.9225  0.8315  0.4563
 1808SOL    HW116886   2.328   0.215   9.395 -0.1905  0.4422 -0.4451
 1808SOL    HW216887   2.299   0.334   9.310  1.7494 -0.8798 -2.5268
 1809SOL     OW16888   2.543   0.132   9.358 -0.0455 -0.5323 -0.3416
 1809SOL    HW116889   2.634   0.105   9.343 -0.6171 -2.5367 -0.1836
 1809SOL    HW216890   2.503   0.072   9.294 -1.7378  1.2243 -0.9186
 1810SOL     OW16891   0.142   3.417   0.779 -0.3899  0.3322  0.1481
 1810SOL    HW116892   0.132   3.489   0.716 -0.8821  1.6475  1.7147
 1810SOL    HW216893   0.113   3.342   0.728 -2.8211  1.2524  0.1727
 1811SOL     OW16894   1.722   3.664   6.579 -0.4531 -0.6392 -0.2631
 1811SOL    HW116895   1.776   3.618   6.643 -1.4897 -1.1825  0.2098
 1811SOL    HW216896   1.721   3.609   6.500  2.3330 -2.2528  0.8299
 1812SOL     OW16897   3.548   3.262   6.847 -0.4501 -0.0935  0.2398
 1812SOL    HW116898   3.546   3.351   6.813  1.3385 -0.7534 -1.6136
 1812SOL    HW216899   3.577   3.265   6.938 -1.0266  0.6332  0.4006
 1813SOL     OW16900   0.406   2.660  11.084 -0.3327  0.4710  0.1150
 1813SOL    HW116901   0.357   2.669  11.003 -1.2335  0.1620  0.6213
 1813SOL    HW216902   0.499   2.650  11.062 -0.4558  0.9849 -0.6322
 1814SOL     OW16903   3.680   0.870   5.011  0.0298  0.1494  0.9956
 1814SOL    HW116904   3.700   0.803   5.077 -2.9868  1.1227  2.9187
 1814SOL    HW216905   3.614   0.822   4.961  0.3444 -0.2142  0.9274
 1815SOL     OW16906   1.030   1.098   0.970  0.2328  0.3071 -0.2642
 1815SOL    HW116907   1.032   1.189   0.941  0.6326  1.2502  2.7439
 1815SOL    HW216908   0.943   1.085   1.007  0.8750  0.9746  1.5352
 1816SOL     OW16909   0.043   2.126   4.579  0.2109  0.3305  0.0872
 1816SOL    HW116910   0.128   2.083   4.585  0.9216  1.4321 -2.2482
 1816SOL    HW216911   4.718   2.061   4.628  0.2835  0.1961 -0.0131
 1817SOL     OW16912   2.326   2.470   5.771  0.4487 -0.0982  0.5305
 1817SOL    HW116913   2.388   2.459   5.700 -1.9766  4.0104 -2.2289
 1817SOL    HW216914   2.376   2.530   5.827  1.2239  1.2435 -1.5938
 1818SOL     OW16915   4.248   0.304   1.729 -0.5959  0.7267  0.0310
 1818SOL    HW116916   4.245   0.248   1.807 -2.5269  0.8676  0.0480
 1818SOL    HW216917   4.208   0.245   1.665 -1.8738 -0.1931  1.6673
 1819SOL     OW16918   3.080   4.519   1.268 -0.8425  0.3702  0.2105
 1819SOL    HW116919   3.152   4.483   1.319 -0.9145 -1.1839 -0.7657
 1819SOL    HW216920   3.090   4.470   1.186  2.8460  0.5482  0.5776
 1820SOL     OW16921   3.972   0.771   1.800  0.5366 -0.0946  0.4246
 1820SOL    HW116922   3.929   0.805   1.722 -0.3105  0.0693  0.9687
 1820SOL    HW216923   3.948   0.679   1.809  2.6285 -0.6665  0.3691
 1821SOL     OW16924   3.382   2.207   0.605  0.5551  0.1655  0.3094
 1821SOL    HW116925   3.465   2.174   0.641  0.0327 -1.2683  0.2053
 1821SOL    HW216926   3.321   2.194   0.678  1.0197 -0.3325  0.6163
 1822SOL     OW16927   2.771   0.914   1.836  0.4112  0.5022  0.4879
 1822SOL    HW116928   2.812   1.000   1.851 -2.1381  1.8621 -0.3624
 1822SOL    HW216929   2.750   0.917   1.743  0.0657  0.3120  0.5602
 1823SOL     OW16930   0.652   0.249  12.024 -0.0334 -0.4105  0.6140
 1823SOL    HW116931   0.748   0.251  12.027 -0.0544  1.6630 -0.2668
 1823SOL    HW216932   0.628   0.192  12.098  1.7984 -1.5654  0.3110
 1824SOL     OW16933   2.705   1.375   7.673  0.1431 -0.2839 -0.4804
 1824SOL    HW116934   2.717   1.419   7.590  1.1339 -0.6777 -0.5445
 1824SOL    HW216935   2.610   1.372   7.676  0.1888  0.0108  1.6584
 1825SOL     OW16936   4.571   2.488   3.007 -0.5824  0.2458  0.1094
 1825SOL    HW116937   4.506   2.426   3.040  1.2138 -1.1394  1.0530
 1825SOL    HW216938   4.623   2.507   3.085  0.4317  0.2802 -0.5747
 1826SOL     OW16939   0.638   1.035   8.869 -0.3688  0.7055  0.6884
 1826SOL    HW116940   0.596   0.952   8.889  1.6727 -0.1672  1.3637
 1826SOL    HW216941   0.593   1.058   8.787  0.9695 -0.2984 -0.3110
 1827SOL     OW16942   0.063   3.734   4.738 -0.6368  0.2373 -0.0412
 1827SOL    HW116943   0.019   3.808   4.781 -0.4952  0.4687 -0.2974
 1827SOL    HW216944   4.706   3.694   4.713 -1.2386 -0.3020  2.7495
 1828SOL     OW16945   2.710   1.726   9.896  0.4457 -0.1804  0.4075
 1828SOL    HW116946   2.622   1.711   9.860  0.6291 -1.2976  0.3945
 1828SOL    HW216947   2.690   1.763   9.981 -0.4628  1.0804 -0.3620
 1829SOL     OW16948   2.297   1.715   8.775 -0.2666 -0.7602  0.7228
 1829SOL    HW116949   2.325   1.776   8.844  0.5305  0.6856 -0.8981
 1829SOL    HW216950   2.217   1.761   8.747 -0.1211 -1.8904 -1.4950
 1830SOL     OW16951   3.800   2.470   7.225 -0.0154  0.1137  0.7459
 1830SOL    HW116952   3.768   2.382   7.205  1.3174 -0.1717 -0.1455
 1830SOL    HW216953   3.808   2.458   7.320  0.6452 -2.3802  0.3725
 1831SOL     OW16954   2.104   0.144   6.305 -0.0894  0.3214 -0.7015
 1831SOL    HW116955   2.049   0.220   6.285 -1.9415 -0.2992  2.0161
 1831SOL    HW216956   2.053   0.107   6.378  1.1258 -2.0382 -1.0415
 1832SOL     OW16957   2.395   0.144   3.231  0.3835 -0.3993 -0.0214
 1832SOL    HW116958   2.461   0.166   3.165 -1.5211 -0.6687 -2.0234
 1832SOL    HW216959   2.324   0.175   3.175 -0.2706  1.5167  1.8723
 1833SOL     OW16960   2.394   4.109   8.918 -0.0611  0.1498 -0.7385
 1833SOL    HW116961   2.345   4.040   8.963  0.9691  0.2216  0.4973
 1833SOL    HW216962   2.413   4.166   8.993 -0.2936 -0.5754 -0.1255
 1834SOL     OW16963   3.590   3.794   4.667 -0.3966  0.2577  0.4749
 1834SOL    HW116964   3.647   3.722   4.638 -0.4866  1.2961 -2.2525
 1834SOL    HW216965   3.588   3.837   4.581 -1.3121 -1.0190 -0.1524
 1835SOL     OW16966   2.591   2.038   2.467 -0.0188 -0.3787  0.1673
 1835SOL    HW116967   2.654   2.025   2.538 -1.9856  1.3007  2.2226
 1835SOL    HW216968   2.520   1.980   2.492  0.0040 -0.2650  0.4937
 1836SOL     OW16969   3.843   3.545   6.240  0.7828 -0.4983  0.8826
 1836SOL    HW116970   3.919   3.491   6.218 -0.5238 -1.5763 -0.9882
 1836SOL    HW216971   3.765   3.492   6.222  0.7428  0.3433 -1.3859
 1837SOL     OW16972   3.325   1.745   9.134 -0.0601  0.3093 -0.4944
 1837SOL    HW116973   3.270   1.735   9.056 -1.1236  2.2973 -0.0051
 1837SOL    HW216974   3.387   1.814   9.113  0.8070 -0.1611  0.5113
 1838SOL     OW16975   0.942   1.292   5.957 -0.4095 -0.3739 -0.5926
 1838SOL    HW116976   0.923   1.378   5.922  1.4865  0.2702 -0.0660
 1838SOL    HW216977   1.037   1.285   5.944 -0.3149 -1.8868  0.7785
 1839SOL     OW16978   1.694   2.142   4.174 -0.3276 -0.1651 -0.3516
 1839SOL    HW116979   1.785   2.169   4.184 -1.0257  2.5716 -1.5179
 1839SOL    HW216980   1.687   2.070   4.237  1.9380  0.7971  0.9669
 1840SOL     OW16981   1.863   3.190   1.779 -0.2085 -0.1991 -0.1532
 1840SOL    HW116982   1.934   3.176   1.716  0.3459 -1.7630  0.8414
 1840SOL    HW216983   1.805   3.122   1.746  0.4650 -1.0048  0.3381
 1841SOL     OW16984   3.577   3.495   7.807 -0.0092  0.3150  0.1689
 1841SOL    HW116985   3.570   3.581   7.847 -0.6664  1.5632 -2.6160
 1841SOL    HW216986   3.667   3.462   7.808 -0.4887 -1.0516 -2.0370
 1842SOL     OW16987   0.772   1.890   5.999  0.3158  0.3091 -0.1673
 1842SOL    HW116988   0.814   1.807   6.021  3.4210  2.2834  1.4038
 1842SOL    HW216989   0.745   1.874   5.908  4.3190 -0.0782 -1.2967
 1843SOL     OW16990   2.162   0.321   2.425  0.0164 -0.4670  0.1443
 1843SOL    HW116991   2.177   0.265   2.502 -0.3252  0.7583  1.0990
 1843SOL    HW216992   2.249   0.315   2.385  0.2101  0.2609  0.4686
 1844SOL     OW16993   1.629   1.769   4.004 -1.0494  0.2442 -0.0579
 1844SOL    HW116994   1.616   1.684   3.962 -0.9007 -0.0018  0.3952
 1844SOL    HW216995   1.579   1.813   3.936 -2.5652 -2.4530 -0.6684
 1845SOL     OW16996   2.741   3.063   0.187  0.3921 -0.2151 -0.4611
 1845SOL    HW116997   2.653   3.025   0.192 -0.2324  1.0260 -2.2430
 1845SOL    HW216998   2.726   3.153   0.158  0.3677 -0.3615 -0.9087
 1846SOL     OW16999   1.746   0.744   8.060 -0.1116 -0.1925  0.2045
 1846SOL    HW117000   1.723   0.827   8.018  1.7768  0.2009 -0.0555
 1846SOL    HW217001   1.814   0.774   8.121 -0.9234 -1.5314  1.7756
 1847SOL     OW17002   1.237   3.480  17.447  0.6622  0.0693  0.2437
 1847SOL    HW117003   1.264   3.471  17.356  0.4806 -1.7877  0.3713
 1847SOL    HW217004   1.318   3.511  17.487 -0.4027  1.6372  1.1700
 1848SOL     OW17005   0.714   4.263   6.784 -0.2035  0.0894 -0.1037
 1848SOL    HW117006   0.801   4.258   6.744 -0.0470 -1.0747  0.3770
 1848SOL    HW217007   0.668   4.285   6.703 -2.6384 -1.9713  0.7433
 1849SOL     OW17008   2.954   2.009   7.887  0.3458  0.3958 -0.1248
 1849SOL    HW117009   3.035   2.016   7.937  1.1220  2.3978 -1.6309
 1849SOL    HW217010   2.904   2.081   7.925  2.7975  2.5872 -1.0174
 1850SOL     OW17011   0.925   4.635  11.069 -0.3498  0.0847 -0.2403
 1850SOL    HW117012   0.938   4.540  11.064 -1.0313 -0.0490  0.5647
 1850SOL    HW217013   0.845   4.641  11.017 -0.2419  0.4105 -0.3689
 1851SOL     OW17014   1.494   2.153   5.221  0.1554  0.3808  0.2424
 1851SOL    HW117015   1.449   2.074   5.249  0.7389  0.6297  1.9314
 1851SOL    HW217016   1.557   2.121   5.156 -0.5956  0.8957 -0.7352
 1852SOL     OW17017   3.461   2.972   5.212 -0.0984  0.0749 -0.3823
 1852SOL    HW117018   3.425   3.056   5.242 -1.7955 -1.1641  0.9799
 1852SOL    HW217019   3.389   2.923   5.174 -0.1846 -0.0364 -0.0693
 1853SOL     OW17020   3.191   1.605  16.478 -0.1711 -0.1641 -0.6251
 1853SOL    HW117021   3.253   1.573  16.412  1.7380  1.9511  0.1469
 1853SOL    HW217022   3.236   1.686  16.502  2.0908 -1.1461 -1.5418
 1854SOL     OW17023   4.158   0.150  11.446 -0.1697 -0.6367 -0.3350
 1854SOL    HW117024   4.207   0.182  11.370 -0.1155 -2.9384 -1.2552
 1854SOL    HW217025   4.213   0.076  11.470 -0.1118  0.0526  1.6356
 1855SOL     OW17026   0.869   2.005  10.435  0.4733 -0.2704 -0.0953
 1855SOL    HW117027   0.844   2.086  10.481  0.2420 -0.6772  0.4919
 1855SOL    HW217028   0.864   2.037  10.344  0.3397  0.7540  0.2663
 1856SOL     OW17029   1.860   1.570   8.599  0.1732 -0.7187 -0.0840
 1856SOL    HW117030   1.804   1.614   8.662 -0.5255 -1.8314  0.0706
 1856SOL    HW217031   1.813   1.487   8.601  0.4526 -0.9516 -3.4043
 1857SOL     OW17032   4.145   4.413   9.353  0.7259  0.3203  0.2900
 1857SOL    HW117033   4.129   4.458   9.436 -1.1688 -0.0677  0.1376
 1857SOL    HW217034   4.226   4.369   9.378  1.9790  3.0261  0.9480
 1858SOL     OW17035   4.600   0.561   3.401 -0.2539 -0.1947  0.3827
 1858SOL    HW117036   4.573   0.476   3.433 -1.2038 -0.3193 -0.7364
 1858SOL    HW217037   4.533   0.612   3.447 -0.6191  0.0599 -0.4137
 1859SOL     OW17038   4.601   1.712   6.999 -0.1577  0.0297  0.1340
 1859SOL    HW117039   4.519   1.668   6.979 -0.3179 -0.4094  1.7153
 1859SOL    HW217040   4.566   1.798   7.021  1.0810  0.1698  1.5753
 1860SOL     OW17041   0.739   2.654   4.363  0.6719  0.4863 -0.0124
 1860SOL    HW117042   0.774   2.742   4.354  4.5593 -1.1884 -1.6128
 1860SOL    HW217043   0.771   2.628   4.449  2.0768  0.0410 -0.6674
 1861SOL     OW17044   3.057   2.847   3.817 -0.4085 -0.3541  0.2735
 1861SOL    HW117045   3.004   2.810   3.747 -2.3941 -2.2218  2.7165
 1861SOL    HW217046   3.125   2.884   3.761 -1.7717 -0.4648 -1.4081
 1862SOL     OW17047   4.360   2.108   7.301 -0.1479  0.5608  0.5311
 1862SOL    HW117048   4.292   2.115   7.234 -0.9791 -2.0010  1.0954
 1862SOL    HW217049   4.429   2.169   7.275 -0.2323  0.2431 -0.4168
 1863SOL     OW17050   2.418   3.895   4.588  0.0791  0.3055 -0.7893
 1863SOL    HW117051   2.469   3.972   4.612  0.4460 -0.3431  0.4926
 1863SOL    HW217052   2.401   3.862   4.676 -0.5768  0.4957 -0.8390
 1864SOL     OW17053   1.471   1.544  11.862 -0.4335 -0.5249  0.1992
 1864SOL    HW117054   1.560   1.527  11.830  0.1084 -1.5165  2.2306
 1864SOL    HW217055   1.500   1.534  11.953  0.4931 -0.9787 -0.1517
 1865SOL     OW17056   1.245   3.140  15.699 -0.1112  0.7570  0.1307
 1865SOL    HW117057   1.287   3.223  15.724 -2.3667  1.4332  1.6524
 1865SOL    HW217058   1.159   3.154  15.660 -0.5827 -0.6953  0.6674
 1866SOL     OW17059   1.705   4.563   2.055  0.2363 -0.5333 -0.2960
 1866SOL    HW117060   1.750   4.632   2.007 -1.1178  1.3312  1.1538
 1866SOL    HW217061   1.622   4.577   2.010 -0.6789  0.0692  1.5738
 1867SOL     OW17062   4.159   1.060   9.869  0.4172  0.0624  0.0839
 1867SOL    HW117063   4.078   1.011   9.886  0.0937 -0.0589 -1.7745
 1867SOL    HW217064   4.208   1.047   9.950  2.8579 -0.9235 -1.5632
 1868SOL     OW17065   0.187   1.062   1.009 -0.4683  0.0241  0.1250
 1868SOL    HW117066   0.113   1.099   0.961 -0.8592 -2.2614 -1.0555
 1868SOL    HW217067   0.217   1.130   1.069  0.6896  0.3319 -0.8112
 1869SOL     OW17068   4.128   2.644   4.342 -0.0303  0.5144 -0.0018
 1869SOL    HW117069   4.161   2.569   4.292 -0.3500  0.7087 -0.4996
 1869SOL    HW217070   4.142   2.721   4.287 -1.5278  0.4934 -0.4084
 1870SOL     OW17071   3.893   0.918  14.631 -0.5075 -0.0229  0.5722
 1870SOL    HW117072   3.918   0.825  14.631 -1.1372 -0.1666 -1.9443
 1870SOL    HW217073   3.877   0.938  14.539 -1.0019 -2.6741  0.0856
 1871SOL     OW17074   1.529   4.532   4.560  0.1732 -0.1667  0.1033
 1871SOL    HW117075   1.507   4.471   4.631  0.3695 -0.7679 -0.3538
 1871SOL    HW217076   1.584   4.593   4.609  0.2850  1.0019 -1.4807
 1872SOL     OW17077   3.857   2.018   7.887 -0.9486  0.3046  0.1802
 1872SOL    HW117078   3.895   2.104   7.902  0.6743  0.1510 -2.9329
 1872SOL    HW217079   3.801   2.009   7.964 -0.9689 -1.5601 -0.0373
 1873SOL     OW17080   2.433   4.359  17.294  0.2341 -0.9184  0.1084
 1873SOL    HW117081   2.482   4.389  17.370 -1.6003  2.5750 -0.1112
 1873SOL    HW217082   2.467   4.271  17.274  0.7890 -0.7730  0.4201
 1874SOL     OW17083   3.620   3.767  13.198 -0.1505 -0.2108  0.1299
 1874SOL    HW117084   3.543   3.774  13.254  0.9917 -2.3243  1.9796
 1874SOL    HW217085   3.659   3.852  13.219  1.3238 -0.7917 -0.2533
 1875SOL     OW17086   1.183   3.268   8.184 -0.1333 -0.2427  0.3129
 1875SOL    HW117087   1.248   3.295   8.119 -1.5034  1.2324 -0.4430
 1875SOL    HW217088   1.209   3.180   8.209 -1.7174 -0.2388  1.9892
 1876SOL     OW17089   2.815   4.223   5.701 -0.4606  0.1325  0.4350
 1876SOL    HW117090   2.776   4.258   5.621 -1.6318 -0.7098  0.6430
 1876SOL    HW217091   2.901   4.266   5.697 -1.3045  1.4845 -3.0935
 1877SOL     OW17092   0.351   2.189   4.479 -0.0581 -0.3481 -0.1669
 1877SOL    HW117093   0.327   2.207   4.570  3.7937 -0.6710  0.9301
 1877SOL    HW217094   0.338   2.277   4.443  0.2831  0.7433  2.3856
 1878SOL     OW17095   4.247   0.827   2.701  0.4391 -0.0648  0.3366
 1878SOL    HW117096   4.288   0.827   2.615 -0.8876  3.7424 -0.2904
 1878SOL    HW217097   4.218   0.918   2.700 -0.9411 -0.5078  0.0451
 1879SOL     OW17098   0.173   1.755   1.227 -0.2975  0.1254 -0.2526
 1879SOL    HW117099   0.268   1.748   1.213 -0.2611  1.6071 -0.7094
 1879SOL    HW217100   0.162   1.850   1.224  1.1604  0.2993 -0.3526
 1880SOL     OW17101   1.449   4.593   1.948  0.3319 -0.4372 -0.5340
 1880SOL    HW117102   1.395   4.554   1.879 -1.0895  0.3284  0.1446
 1880SOL    HW217103   1.382   4.628   2.007  0.4147 -1.5369  0.2145
 1881SOL     OW17104   2.681   2.516  11.241 -0.1097 -0.3169 -0.7926
 1881SOL    HW117105   2.695   2.610  11.236 -2.0653  0.0056 -0.3493
 1881SOL    HW217106   2.657   2.505  11.149 -2.4435 -0.6401 -0.1383
 1882SOL     OW17107   3.559   1.171   0.992 -0.7103 -0.0880  0.9298
 1882SOL    HW117108   3.509   1.110   1.047 -0.8295 -1.0721 -0.2744
 1882SOL    HW217109   3.523   1.254   1.025 -0.9911  1.1262 -2.4750
 1883SOL     OW17110   3.239   2.866   5.081  0.0479  0.1684 -0.2126
 1883SOL    HW117111   3.172   2.797   5.084  1.8089 -1.5210  0.1192
 1883SOL    HW217112   3.187   2.934   5.038  0.5174  0.3184 -0.5377
 1884SOL     OW17113   0.980   0.753   5.003  0.1473 -0.1874  0.1674
 1884SOL    HW117114   0.940   0.817   4.944 -1.0552 -1.5603 -0.5337
 1884SOL    HW217115   1.062   0.795   5.027  0.9374 -1.6332 -0.0169
 1885SOL     OW17116   4.380   1.279  12.870  0.6351  0.2019 -0.2257
 1885SOL    HW117117   4.289   1.270  12.897  1.0140 -2.8040 -0.0253
 1885SOL    HW217118   4.413   1.194  12.898 -0.2835  0.0869  0.4846
 1886SOL     OW17119   2.111   2.703   9.938  0.0861 -0.3729 -0.0000
 1886SOL    HW117120   2.108   2.610   9.960  0.0843 -0.3586  0.0604
 1886SOL    HW217121   2.103   2.697   9.843  0.6050  2.8747 -0.2576
 1887SOL     OW17122   1.683   0.742   8.637 -0.2754  0.1503 -0.0471
 1887SOL    HW117123   1.767   0.699   8.651 -0.0281  0.3594 -0.8544
 1887SOL    HW217124   1.653   0.732   8.727 -1.9673  3.5689 -0.1979
 1888SOL     OW17125   1.599   4.453   0.383  0.2086  0.0384  0.6339
 1888SOL    HW117126   1.559   4.538   0.363 -0.4765 -1.1189 -2.9581
 1888SOL    HW217127   1.632   4.435   0.295 -0.0760  3.5980 -0.1686
 1889SOL     OW17128   3.337   0.289   5.836 -0.8067  0.2684  0.4399
 1889SOL    HW117129   3.254   0.293   5.883 -1.3914 -0.4774 -0.5338
 1889SOL    HW217130   3.298   0.282   5.749  0.9703  0.8419 -0.4141
 1890SOL     OW17131   1.585   3.958   2.390  0.2764 -0.2027  0.2546
 1890SOL    HW117132   1.495   3.990   2.385  0.3541 -0.0174  0.0159
 1890SOL    HW217133   1.577   3.915   2.475  1.2242 -1.3401 -0.2231
 1891SOL     OW17134   4.472   1.926   3.925 -0.7961 -0.7443 -0.0983
 1891SOL    HW117135   4.521   1.995   3.971 -2.5195  0.5137 -0.1440
 1891SOL    HW217136   4.480   1.855   3.988  0.5923 -1.6581 -1.3099
 1892SOL     OW17137   1.810   0.296  11.959 -0.0412  0.5034  0.2471
 1892SOL    HW117138   1.857   0.366  11.914 -0.1490 -0.4430 -1.3017
 1892SOL    HW217139   1.883   0.255  12.006  1.6357  0.3721 -2.5307
 1893SOL     OW17140   0.788   3.209   4.077  0.0417  0.2461  0.2536
 1893SOL    HW117141   0.822   3.130   4.119 -1.4277 -1.3448 -1.5379
 1893SOL    HW217142   0.850   3.214   4.004 -1.4619 -0.4536 -1.0688
 1894SOL     OW17143   0.604   4.017   5.936  0.2240  0.0487  0.0071
 1894SOL    HW117144   0.682   4.064   5.906  1.3586 -1.4494  0.6148
 1894SOL    HW217145   0.620   4.005   6.029  1.7909  0.2831 -0.2334
 1895SOL     OW17146   2.901   1.858   6.051 -0.0762 -0.5562 -0.3058
 1895SOL    HW117147   2.937   1.813   6.127  0.1842  0.0897 -0.0423
 1895SOL    HW217148   2.850   1.785   6.017 -0.9735 -1.3752  2.7530
 1896SOL     OW17149   1.181   0.666   4.683  0.1244 -0.2239  0.1329
 1896SOL    HW117150   1.148   0.755   4.689  0.9468 -0.0213  1.4076
 1896SOL    HW217151   1.276   0.664   4.687 -0.0009 -1.3413  2.2443
 1897SOL     OW17152   1.438   3.349   3.904  0.5388 -0.3413  0.2795
 1897SOL    HW117153   1.364   3.371   3.960 -1.1004 -2.1837 -1.1900
 1897SOL    HW217154   1.441   3.425   3.847  0.4230 -0.0566  0.6519
 1898SOL     OW17155   1.339   0.900  15.529  0.1321 -0.2662 -0.1777
 1898SOL    HW117156   1.259   0.945  15.556 -0.3031 -1.4465  0.4837
 1898SOL    HW217157   1.307   0.813  15.508  2.8604 -1.0496 -1.0761
 1899SOL     OW17158   0.067   1.816   5.166  0.4448  0.2177 -0.6573
 1899SOL    HW117159   0.097   1.730   5.137  0.4755 -0.1492  0.4439
 1899SOL    HW217160   0.138   1.872   5.135  0.7302 -0.1568 -0.6674
 1900SOL     OW17161   2.096   1.256   9.961 -0.0716  0.0746  0.4661
 1900SOL    HW117162   2.080   1.310   9.883 -0.7301 -0.7424  0.0474
 1900SOL    HW217163   2.012   1.212   9.968 -0.6394  0.7714 -1.6837
 1901SOL     OW17164   4.019   4.395   1.524 -0.1017 -0.2967 -0.2790
 1901SOL    HW117165   4.055   4.325   1.470 -1.6812 -0.3230 -1.2744
 1901SOL    HW217166   3.952   4.353   1.578 -0.8367  0.0252 -0.9387
 1902SOL     OW17167   0.235   1.975  14.382 -0.3987 -0.1672  0.5038
 1902SOL    HW117168   0.155   1.943  14.341 -1.4584  0.3466  2.1962
 1902SOL    HW217169   0.206   1.968  14.473 -0.5503  0.6647  0.5186
 1903SOL     OW17170   0.013   0.755   4.439  0.6954 -0.7383  0.0477
 1903SOL    HW117171   0.096   0.742   4.486  2.0486  0.4110 -2.0196
 1903SOL    HW217172   0.000   0.850   4.445 -0.0756 -0.9091  1.0606
 1904SOL     OW17173   2.678   4.565   0.141 -0.2217 -0.2936  0.2705
 1904SOL    HW117174   2.677   4.656   0.170 -1.8239 -0.2227  0.0119
 1904SOL    HW217175   2.748   4.578   0.077 -0.6960 -1.1229 -0.4253
 1905SOL     OW17176   4.584   2.681   5.137  0.7287  0.2057  0.0048
 1905SOL    HW117177   4.594   2.677   5.232  1.5567  0.8386 -0.0617
 1905SOL    HW217178   4.671   2.690   5.098  1.1591  1.5031  1.2421
 1906SOL     OW17179   1.978   3.569  16.710 -0.3970  0.1468 -0.2344
 1906SOL    HW117180   1.959   3.534  16.797 -0.2267  1.5776  0.3862
 1906SOL    HW217181   1.990   3.660  16.738  1.9488 -0.5828  1.1018
 1907SOL     OW17182   2.902   2.603   7.705  0.1293 -0.1542 -0.0273
 1907SOL    HW117183   2.939   2.520   7.735 -0.7949 -0.8851 -0.9093
 1907SOL    HW217184   2.855   2.643   7.778 -0.9423 -2.0847  0.3666
 1908SOL     OW17185   2.572   0.498   8.820 -0.2199  0.5555 -0.1898
 1908SOL    HW117186   2.578   0.549   8.740  0.5272  1.0116  0.1573
 1908SOL    HW217187   2.553   0.408   8.794  1.9286 -0.7296  2.6224
 1909SOL     OW17188   0.739   1.071   3.419 -0.4929  0.1668  0.2379
 1909SOL    HW117189   0.738   1.101   3.509  0.1068 -0.3683  0.4272
 1909SOL    HW217190   0.805   1.001   3.421  0.0241  0.6175 -1.0309
 1910SOL     OW17191   2.319   0.962  14.666 -0.3565 -0.3412 -0.1818
 1910SOL    HW117192   2.286   1.043  14.628 -0.0634 -0.5875 -0.9530
 1910SOL    HW217193   2.239   0.920  14.697 -0.4169  0.1325  0.3005
 1911SOL     OW17194   3.609   2.085  13.795 -0.0766  0.1734 -0.6179
 1911SOL    HW117195   3.650   2.016  13.743 -1.0456  0.1449 -1.3370
 1911SOL    HW217196   3.549   2.134  13.739 -0.8709  0.3914  0.4098
 1912SOL     OW17197   3.327   1.993   4.164  0.0175  0.2356 -0.3263
 1912SOL    HW117198   3.266   2.066   4.154 -3.2726 -1.9215  4.2621
 1912SOL    HW217199   3.366   1.967   4.081  0.1082  2.5986 -1.0282
 1913SOL     OW17200   3.430   0.712   6.706 -0.7417  0.1563  0.3681
 1913SOL    HW117201   3.453   0.645   6.771  0.3539 -1.2850 -1.5257
 1913SOL    HW217202   3.480   0.782   6.748 -2.1733  1.5575 -0.2891
 1914SOL     OW17203   0.187   4.171   1.949  0.5648 -0.8177  0.2864
 1914SOL    HW117204   0.259   4.113   1.925 -1.1449 -2.2310 -1.3388
 1914SOL    HW217205   0.132   4.123   2.011  0.8580  1.3223  2.1884
 1915SOL     OW17206   0.969   4.207  15.766  0.1378  0.6354  0.8098
 1915SOL    HW117207   0.922   4.222  15.684 -0.0687  0.7007  0.9388
 1915SOL    HW217208   0.931   4.122  15.789  1.1737 -0.3301 -1.0417
 1916SOL     OW17209   3.751   2.426  15.917 -0.9493  0.5736 -0.1889
 1916SOL    HW117210   3.656   2.431  15.930 -0.8749 -1.0215  0.9193
 1916SOL    HW217211   3.779   2.516  15.897  1.9362 -0.8140 -2.4408
 1917SOL     OW17212   4.429   3.620   7.062  0.1426 -0.4447  0.0469
 1917SOL    HW117213   4.411   3.696   7.007  0.2521 -0.7165 -0.3695
 1917SOL    HW217214   4.430   3.556   6.991  2.0648 -1.0804  0.6588
 1918SOL     OW17215   0.850   2.501  17.284 -0.1804  0.4362 -0.3742
 1918SOL    HW117216   0.830   2.425  17.229  0.6157 -0.5329  0.6847
 1918SOL    HW217217   0.875   2.444  17.356 -0.9330  0.6710  0.0773
 1919SOL     OW17218   2.091   0.785  16.288  0.1953 -0.3821  0.9515
 1919SOL    HW117219   2.157   0.805  16.222  0.0500 -2.3999  0.1697
 1919SOL    HW217220   2.080   0.869  16.331  0.9066 -0.0648  0.5130
 1920SOL     OW17221   3.367   4.236  10.051  0.0970  0.1645 -0.1441
 1920SOL    HW117222   3.384   4.170   9.983 -1.5316 -0.4473  0.0292
 1920SOL    HW217223   3.436   4.297  10.026 -0.2835  0.8264  0.4242
 1921SOL     OW17224   3.078   4.142   3.683 -0.1555  0.4937 -0.0436
 1921SOL    HW117225   3.032   4.125   3.765 -0.1397  0.2340 -0.0890
 1921SOL    HW217226   3.163   4.098   3.689 -0.6755 -0.6399 -0.8399
 1922SOL     OW17227   3.273   1.158   3.969 -0.1298 -0.2692 -0.4521
 1922SOL    HW117228   3.268   1.070   4.007 -0.3804  0.1929  0.5709
 1922SOL    HW217229   3.331   1.153   3.893  0.2509 -0.7420 -0.1337
 1923SOL     OW17230   3.998   3.496   5.746  0.9650  0.0154 -0.1517
 1923SOL    HW117231   4.005   3.440   5.669  2.3530 -1.5756  1.1216
 1923SOL    HW217232   3.950   3.442   5.809  0.1362  1.0070  0.0729
 1924SOL     OW17233   0.336   4.383   7.283 -0.3876  0.8724  0.5217
 1924SOL    HW117234   0.268   4.414   7.222 -1.5793 -0.8125  1.0119
 1924SOL    HW217235   0.407   4.441   7.256  1.0350 -0.3077  1.7567
 1925SOL     OW17236   2.217   3.989  12.017  0.2587 -0.5728 -0.2098
 1925SOL    HW117237   2.230   3.992  11.922  0.2357  3.0615 -0.0907
 1925SOL    HW217238   2.230   4.083  12.028 -0.8716 -0.2949 -1.2724
 1926SOL     OW17239   1.396   2.280  14.040 -0.5066 -0.1891  0.0222
 1926SOL    HW117240   1.427   2.366  14.012 -0.7902 -0.5381 -1.4059
 1926SOL    HW217241   1.321   2.274  13.980  0.2775 -1.2583 -0.8523
 1927SOL     OW17242   1.097   2.978   1.697  0.2575  0.7157  0.2284
 1927SOL    HW117243   1.021   2.929   1.729 -0.0746  1.8089  1.1321
 1927SOL    HW217244   1.061   3.066   1.687 -1.8354  0.0899  2.2549
 1928SOL     OW17245   3.714   1.156   2.131  0.3270 -0.4630 -0.8518
 1928SOL    HW117246   3.798   1.182   2.092  0.8438  1.7358  1.7062
 1928SOL    HW217247   3.706   1.062   2.119 -0.4696 -0.6466  1.2104
 1929SOL     OW17248   3.389   1.754   3.215  0.2354 -0.4782 -0.0139
 1929SOL    HW117249   3.360   1.675   3.170 -0.8392  0.0874 -0.2976
 1929SOL    HW217250   3.420   1.810   3.144  2.2273 -0.7089  0.6677
 1930SOL     OW17251   3.537   2.408  11.094  0.2143  0.1392 -0.2967
 1930SOL    HW117252   3.621   2.394  11.049  1.7425  0.8360  2.3132
 1930SOL    HW217253   3.493   2.490  11.072 -0.6978  0.0103  1.1114
 1931SOL     OW17254   0.133   2.064   0.256 -0.0765 -0.2302  0.8198
 1931SOL    HW117255   0.206   2.113   0.219 -0.5903  0.6486  0.9683
 1931SOL    HW217256   0.157   2.057   0.348  0.6029 -0.2889  0.6321
 1932SOL     OW17257   1.173   2.883   7.453  0.4892  0.1934 -0.2854
 1932SOL    HW117258   1.223   2.832   7.517 -1.1608  0.8223  1.5335
 1932SOL    HW217259   1.187   2.842   7.368  0.7220  0.4457 -0.3684
 1933SOL     OW17260   1.243   3.573   7.367 -0.4788 -0.1248 -0.1555
 1933SOL    HW117261   1.326   3.603   7.403 -1.8401  3.3602  0.1686
 1933SOL    HW217262   1.212   3.501   7.422 -0.1199  0.4843  0.8318
 1934SOL     OW17263   1.346   3.646   2.253  0.5886 -0.2493 -0.1786
 1934SOL    HW117264   1.355   3.552   2.239 -0.0717  0.0077 -2.3233
 1934SOL    HW217265   1.428   3.674   2.213 -0.0051  0.0920 -1.1491
 1935SOL     OW17266   2.587   0.075   4.388  0.2888 -0.7717 -0.0048
 1935SOL    HW117267   2.604   0.138   4.458 -0.5971 -1.6445  1.0053
 1935SOL    HW217268   2.526   0.015   4.431 -1.0799  1.5701  1.3352
 1936SOL     OW17269   0.746   1.489   5.177 -0.4969  0.0687 -0.3132
 1936SOL    HW117270   0.744   1.399   5.145 -0.0964  0.5374 -1.6361
 1936SOL    HW217271   0.841   1.503   5.177 -0.3310 -1.0474 -0.6856
 1937SOL     OW17272   3.730   2.706   9.007 -0.5441 -0.4916  0.2076
 1937SOL    HW117273   3.689   2.623   8.984 -2.0864 -0.0370  1.3749
 1937SOL    HW217274   3.663   2.772   8.987 -0.0241 -0.3314 -1.0670
 1938SOL     OW17275   2.703   3.356  15.975 -0.4862  0.1816  0.0724
 1938SOL    HW117276   2.686   3.269  15.941  0.1589 -0.0452  0.3297
 1938SOL    HW217277   2.655   3.418  15.921 -1.0241 -0.0268  0.3171
 1939SOL     OW17278   0.523   3.986   0.945 -0.7756  0.0216  0.1965
 1939SOL    HW117279   0.543   3.935   1.024 -2.5164  3.4578  2.8392
 1939SOL    HW217280   0.523   4.077   0.975 -1.9856  0.8358 -2.2728
 1940SOL     OW17281   2.981   3.174   8.208  0.4188  0.0133 -1.2108
 1940SOL    HW117282   2.913   3.116   8.173 -0.6449 -0.3205  1.4516
 1940SOL    HW217283   3.052   3.111   8.218  0.3025 -0.0397 -0.7536
 1941SOL     OW17284   1.609   2.542  15.815  0.8161 -0.2366  0.0115
 1941SOL    HW117285   1.671   2.614  15.829 -1.1550  1.1926  1.3229
 1941SOL    HW217286   1.563   2.572  15.736 -0.8812  1.4441  1.6133
 1942SOL     OW17287   3.070   0.233   5.922  0.2943  0.1394 -0.0002
 1942SOL    HW117288   2.998   0.215   5.982  1.5612 -1.2885  1.0732
 1942SOL    HW217289   3.031   0.288   5.854  1.6976 -0.8631 -1.6245
 1943SOL     OW17290   3.294   4.262   2.956  0.2086 -0.2782  0.2662
 1943SOL    HW117291   3.258   4.186   2.911  1.4126 -0.6499 -0.0531
 1943SOL    HW217292   3.337   4.312   2.886  0.2899 -0.8800 -0.1108
 1944SOL     OW17293   3.180   3.221  16.723  0.8195  0.1058  0.1640
 1944SOL    HW117294   3.192   3.140  16.672 -1.6370  0.0440 -0.3228
 1944SOL    HW217295   3.142   3.286  16.664 -1.0927 -0.3238  0.9297
 1945SOL     OW17296   4.104   0.165  12.170 -0.7619 -0.6814  0.1831
 1945SOL    HW117297   4.155   0.240  12.138  1.4824 -3.2946 -2.4172
 1945SOL    HW217298   4.020   0.209  12.182 -1.4253 -2.0532  0.6000
 1946SOL     OW17299   0.920   0.889   6.105 -0.0546  0.7495  0.8548
 1946SOL    HW117300   0.957   0.824   6.165  1.3893 -0.3653 -1.2818
 1946SOL    HW217301   0.826   0.875   6.120  0.0619 -0.3259  0.6212
 1947SOL     OW17302   1.974   2.108   2.739 -0.9722  0.3223  0.0464
 1947SOL    HW117303   1.984   2.067   2.825 -0.8033  1.5548  0.6105
 1947SOL    HW217304   2.049   2.167   2.738  1.4749 -2.7564 -0.2554
 1948SOL     OW17305   1.748   1.787   2.251  0.3063 -0.1161 -1.0976
 1948SOL    HW117306   1.829   1.780   2.202  0.4493  0.9230 -1.0026
 1948SOL    HW217307   1.688   1.745   2.188 -0.3129  0.1151 -0.6594
 1949SOL     OW17308   0.794   4.061   3.341 -0.2803 -0.6130  0.5442
 1949SOL    HW117309   0.806   3.966   3.336  2.6720 -0.1441 -1.4175
 1949SOL    HW217310   0.702   4.075   3.319  0.2557  1.0005 -0.6067
 1950SOL     OW17311   4.251   1.340   5.692  0.1714 -0.3130 -0.4038
 1950SOL    HW117312   4.305   1.416   5.670 -0.9820  0.2774 -1.1143
 1950SOL    HW217313   4.317   1.272   5.676  1.1236  0.4376  0.2584
 1951SOL     OW17314   1.413   3.618   6.879 -0.3064  0.7594  0.2345
 1951SOL    HW117315   1.322   3.623   6.850 -0.4644  1.0009  0.7820
 1951SOL    HW217316   1.431   3.710   6.894 -1.9737  1.0947  0.2055
 1952SOL     OW17317   1.078   2.047   6.324 -0.7306 -0.1243 -0.6686
 1952SOL    HW117318   1.143   2.013   6.386 -0.2449 -1.3542 -1.8519
 1952SOL    HW217319   1.109   2.137   6.318 -1.5201  0.2685  1.0263
 1953SOL     OW17320   3.599   0.966   2.460 -0.5602  0.0218  0.2006
 1953SOL    HW117321   3.693   0.953   2.450 -0.3357  2.4911 -0.8608
 1953SOL    HW217322   3.567   0.880   2.434  1.1707 -1.1602  1.9738
 1954SOL     OW17323   4.458   1.766   4.144  0.1231 -0.3269 -0.0543
 1954SOL    HW117324   4.458   1.836   4.209 -0.6454 -1.0257  0.6989
 1954SOL    HW217325   4.365   1.759   4.122 -0.0785  1.4994  0.2758
 1955SOL     OW17326   3.547   1.236   6.324 -0.1466  0.0913  0.3321
 1955SOL    HW117327   3.631   1.237   6.370 -1.3656  1.7957  2.5114
 1955SOL    HW217328   3.562   1.184   6.245  0.1067  2.9370 -1.4984
 1956SOL     OW17329   4.335   0.346   9.768  0.0902 -0.4209  0.2354
 1956SOL    HW117330   4.339   0.428   9.817  3.2000 -0.8790  0.7565
 1956SOL    HW217331   4.262   0.356   9.707 -0.4554  0.7012  1.0769
 1957SOL     OW17332   1.850   4.402  13.235 -0.0371  0.0453 -0.7486
 1957SOL    HW117333   1.800   4.440  13.308 -1.2928 -3.0985  0.0428
 1957SOL    HW217334   1.785   4.399  13.165  0.0995 -3.3609 -0.7403
 1958SOL     OW17335   2.406   1.017  16.031  0.4716  0.0387 -0.1227
 1958SOL    HW117336   2.443   1.074  16.099 -0.7902 -1.1230  1.5178
 1958SOL    HW217337   2.417   1.071  15.952  1.1652  0.3657  0.1955
 1959SOL     OW17338   0.708   1.779   3.104  0.5711  0.2322 -0.8254
 1959SOL    HW117339   0.747   1.767   3.017  1.3958  1.7815 -0.6655
 1959SOL    HW217340   0.656   1.857   3.090  0.0375 -0.2446 -1.5231
 1960SOL     OW17341   3.687   3.111   5.784  0.0098 -0.1933  0.5397
 1960SOL    HW117342   3.602   3.127   5.825 -0.5547 -0.5269 -0.4925
 1960SOL    HW217343   3.661   3.087   5.695  0.3435 -0.2050  0.4483
 1961SOL     OW17344   0.185   2.390   5.576 -0.4215  0.0311 -0.4109
 1961SOL    HW117345   0.253   2.343   5.624 -0.4048 -1.0460 -1.4823
 1961SOL    HW217346   0.237   2.443   5.516 -1.6446 -0.5817 -2.0038
 1962SOL     OW17347   3.375   2.428   1.381 -0.2062 -0.5779  0.1358
 1962SOL    HW117348   3.316   2.390   1.316 -2.6636 -2.2031  3.3605
 1962SOL    HW217349   3.333   2.513   1.395  2.0560  0.5679  0.0643
 1963SOL     OW17350   3.112   0.141   3.373  0.0546  0.2992 -0.1869
 1963SOL    HW117351   3.097   0.133   3.279  0.1510  0.5840 -0.2258
 1963SOL    HW217352   3.203   0.169   3.366  0.5459 -0.6918  2.2369
 1964SOL     OW17353   1.039   0.409  10.466 -0.4234 -0.0928 -0.7815
 1964SOL    HW117354   1.036   0.485  10.407  1.7790  0.4727 -0.1374
 1964SOL    HW217355   0.947   0.404  10.495 -0.6064  1.5150 -1.0736
 1965SOL     OW17356   4.096   4.165   1.912  0.6664  0.0598  0.4122
 1965SOL    HW117357   4.046   4.176   1.830 -1.5190  0.0609  1.7485
 1965SOL    HW217358   4.102   4.070   1.917 -0.2905 -0.0751 -1.0822
 1966SOL     OW17359   1.684   2.482   4.990  0.0233  0.0668 -0.2606
 1966SOL    HW117360   1.669   2.569   5.025  2.2839  0.3709 -0.0784
 1966SOL    HW217361   1.615   2.435   5.037  0.6927  1.9865  2.5650
 1967SOL     OW17362   4.658   2.531   8.113 -0.1886  0.0818 -0.0736
 1967SOL    HW117363   4.630   2.583   8.038  2.5794  0.9631 -0.5141
 1967SOL    HW217364   4.651   2.586   8.191  2.5836  0.1225  0.1669
 1968SOL     OW17365   2.403   4.673   1.222 -0.2907 -0.0607  0.1730
 1968SOL    HW117366   2.437   0.033   1.245  0.2139 -0.5417  1.2308
 1968SOL    HW217367   2.483   4.627   1.195  0.0995  1.1205 -0.7032
 1969SOL     OW17368   2.296   3.693   2.016  0.0461 -0.1427 -0.3997
 1969SOL    HW117369   2.212   3.678   1.973  1.1537 -0.9701 -2.2724
 1969SOL    HW217370   2.267   3.719   2.103  0.8805 -0.3713 -0.0558
 1970SOL     OW17371   4.546   1.738   8.169 -0.1476 -0.3923  0.2579
 1970SOL    HW117372   4.461   1.755   8.211 -1.3623 -2.1387 -1.4584
 1970SOL    HW217373   4.559   1.810   8.107 -0.4337 -0.3122  0.2875
 1971SOL     OW17374   1.563   0.824  11.844  0.4147  0.1255  0.2034
 1971SOL    HW117375   1.646   0.781  11.868 -0.8257 -1.7910  1.0337
 1971SOL    HW217376   1.502   0.792  11.910  0.9456  1.3677  1.2929
 1972SOL     OW17377   4.484   0.618   1.895 -0.0821 -0.1076  0.0930
 1972SOL    HW117378   4.484   0.557   1.821 -2.7801  0.4055 -0.3065
 1972SOL    HW217379   4.465   0.550   1.960 -0.3234 -0.8720 -0.7690
 1973SOL     OW17380   3.745   3.815   2.688 -0.1041 -0.0734 -0.2153
 1973SOL    HW117381   3.802   3.887   2.714  0.2566 -0.5578  0.3336
 1973SOL    HW217382   3.808   3.764   2.637  0.1125  0.3915 -0.4070
 1974SOL     OW17383   4.231   4.458   8.273  0.0753 -0.2473 -0.0970
 1974SOL    HW117384   4.219   4.505   8.355 -0.8533 -0.8390  0.0987
 1974SOL    HW217385   4.285   4.383   8.298 -0.5733 -1.0855 -1.2252
 1975SOL     OW17386   1.712   3.167   7.537  0.2495 -0.7544  0.2944
 1975SOL    HW117387   1.715   3.202   7.448 -1.2701  1.1782  1.0025
 1975SOL    HW217388   1.625   3.128   7.532  1.7216 -3.5808 -2.8722
 1976SOL     OW17389   2.612   3.271   8.302  0.4101  0.1970  0.0404
 1976SOL    HW117390   2.632   3.364   8.309  0.1233  0.1778  1.0884
 1976SOL    HW217391   2.517   3.275   8.299  0.3527 -0.9875  0.3122
 1977SOL     OW17392   3.149   2.591   6.701  0.1329 -0.3797 -0.2580
 1977SOL    HW117393   3.075   2.592   6.762 -0.7872  0.2914 -1.3922
 1977SOL    HW217394   3.181   2.501   6.708  1.0024 -0.1786 -1.5909
 1978SOL     OW17395   2.846   3.173   6.374  0.5946 -0.1766 -0.4401
 1978SOL    HW117396   2.789   3.147   6.446  2.0107  0.3837  0.8909
 1978SOL    HW217397   2.839   3.268   6.379 -0.6860 -0.4913  3.5941
 1979SOL     OW17398   1.916   3.119   0.248  0.1754 -0.0563 -0.4147
 1979SOL    HW117399   1.904   3.150   0.337  2.4551  2.1003 -0.8622
 1979SOL    HW217400   1.848   3.165   0.199 -0.3806 -0.8647 -0.3976
 1980SOL     OW17401   0.748   2.546  11.504 -0.0259  0.7621 -0.2179
 1980SOL    HW117402   0.839   2.575  11.510  0.9312 -1.9529 -1.7238
 1980SOL    HW217403   0.749   2.492  11.425  1.2950 -0.0268  0.3449
 1981SOL     OW17404   3.469   1.102  10.607 -0.0265  0.3579 -0.2612
 1981SOL    HW117405   3.381   1.068  10.588 -0.6280  1.2740  0.9367
 1981SOL    HW217406   3.529   1.028  10.608 -2.1595 -1.4236 -2.5474
 1982SOL     OW17407   1.361   1.264  11.835 -0.3518 -0.7285  0.1724
 1982SOL    HW117408   1.371   1.359  11.839  2.1336 -1.0829  2.8334
 1982SOL    HW217409   1.422   1.239  11.905  0.9535 -0.7132 -0.9674
 1983SOL     OW17410   3.406   1.991  10.450  0.1374 -0.2088  0.1827
 1983SOL    HW117411   3.408   2.056  10.380  1.2347  1.4260  1.7431
 1983SOL    HW217412   3.313   1.967  10.441  0.4063 -1.2204  0.0657
 1984SOL     OW17413   1.066   1.393   7.735 -0.4066 -0.1651  0.0526
 1984SOL    HW117414   1.034   1.469   7.685 -0.5901  0.2572  0.8193
 1984SOL    HW217415   1.105   1.436   7.811 -1.7596  2.5942 -0.8033
 1985SOL     OW17416   4.177   1.103   7.769  0.1048  0.5806 -0.6375
 1985SOL    HW117417   4.251   1.153   7.802  0.6397 -0.9390  0.4666
 1985SOL    HW217418   4.102   1.160   7.784 -0.5650 -0.6749  0.7594
 1986SOL     OW17419   3.404   0.997   8.378  0.1233  0.6205  0.0467
 1986SOL    HW117420   3.381   1.044   8.298  0.4069 -3.7037 -2.5633
 1986SOL    HW217421   3.318   0.990   8.419  0.6321 -2.7349  0.4944
 1987SOL     OW17422   0.349   2.454  14.961 -0.0111  0.1309 -0.3601
 1987SOL    HW117423   0.327   2.458  14.868 -1.3324  0.5558 -0.0179
 1987SOL    HW217424   0.438   2.488  14.967 -0.3082  1.1261 -1.6394
 1988SOL     OW17425   1.934   3.739  17.602  0.1558 -0.0919  0.6571
 1988SOL    HW117426   1.981   3.676  17.548  0.7525  0.1079  0.9439
 1988SOL    HW217427   1.920   3.691  17.684  2.6653  2.0361  2.3353
 1989SOL     OW17428   3.512   2.869  16.421  0.0385  0.0898  0.5273
 1989SOL    HW117429   3.474   2.925  16.489 -0.7552  2.0873 -1.5578
 1989SOL    HW217430   3.434   2.832  16.379  2.0210 -1.9298 -1.3403
 1990SOL     OW17431   0.753   3.367  11.222 -0.1919  0.5598  0.1483
 1990SOL    HW117432   0.833   3.391  11.175  0.4749  1.0266  1.5247
 1990SOL    HW217433   0.714   3.310  11.155  0.5047  0.5254 -0.2276
 1991SOL     OW17434   0.579   3.834  14.822 -0.3884 -0.0354  0.4457
 1991SOL    HW117435   0.566   3.740  14.825 -2.5047  0.2915  1.6742
 1991SOL    HW217436   0.497   3.859  14.780 -0.4365 -0.2441  0.4174
 1992SOL     OW17437   0.419   0.116   2.259 -0.4223 -0.2587 -0.5236
 1992SOL    HW117438   0.436   0.134   2.351 -0.5468 -0.8264 -0.3897
 1992SOL    HW217439   0.390   0.202   2.230 -0.3380  0.8051  2.5904
 1993SOL     OW17440   0.195   2.631   6.420 -0.0060  0.1020 -0.3185
 1993SOL    HW117441   0.242   2.550   6.399  0.9040  0.9852 -1.6622
 1993SOL    HW217442   0.235   2.685   6.352 -1.6259  1.4875 -0.1638
 1994SOL     OW17443   3.155   3.476  13.445 -0.1424  0.0493  0.5196
 1994SOL    HW117444   3.132   3.384  13.433  2.2285 -0.1051 -2.7548
 1994SOL    HW217445   3.073   3.524  13.437 -0.3663 -0.1600  1.5198
 1995SOL     OW17446   2.638   0.774   4.099  0.0919 -0.5835 -0.4009
 1995SOL    HW117447   2.660   0.837   4.168  0.7849  0.0329 -1.1851
 1995SOL    HW217448   2.680   0.697   4.138  0.8885 -0.0847 -0.2713
 1996SOL     OW17449   4.148   3.569   8.739  0.2044  0.4781 -0.0509
 1996SOL    HW117450   4.131   3.518   8.818 -1.1291 -0.6567 -1.0738
 1996SOL    HW217451   4.083   3.639   8.746 -3.0028 -2.5110  0.0131
 1997SOL     OW17452   0.390   1.467  17.126 -0.0686 -0.1185  0.3059
 1997SOL    HW117453   0.474   1.492  17.165 -0.7058 -0.1543  1.7332
 1997SOL    HW217454   0.378   1.527  17.052  0.8631  1.4876  1.4519
 1998SOL     OW17455   2.744   1.386   9.742 -0.5429  0.1969 -0.6508
 1998SOL    HW117456   2.743   1.411   9.834 -2.2424 -4.6527  0.6785
 1998SOL    HW217457   2.655   1.351   9.737  0.3222 -2.1120  0.1095
 1999SOL     OW17458   1.524   0.767   5.278  0.3216 -0.3100  0.4385
 1999SOL    HW117459   1.595   0.828   5.260  0.0837  0.5756  2.4970
 1999SOL    HW217460   1.556   0.732   5.362  1.4482 -0.7464 -0.1765
 2000SOL     OW17461   2.522   2.922   1.064  0.0535 -0.0524  0.3238
 2000SOL    HW117462   2.483   2.858   1.122 -0.6817  0.0662 -0.0418
 2000SOL    HW217463   2.613   2.936   1.089  0.0430  1.2127 -0.2924
 2001SOL     OW17464   2.117   2.478   5.964  0.0898 -0.0476 -0.8186
 2001SOL    HW117465   2.203   2.463   5.924 -0.9772 -1.5339 -2.5706
 2001SOL    HW217466   2.140   2.502   6.054 -1.2252  0.1428 -0.5399
 2002SOL     OW17467   2.053   0.437   7.088 -0.0129  0.0585 -0.2912
 2002SOL    HW117468   2.031   0.344   7.096 -2.3825  0.5923 -0.4476
 2002SOL    HW217469   2.046   0.466   7.179  2.2719  2.2764 -0.8099
 2003SOL     OW17470   0.498   3.930   8.271  0.0521  0.4785 -0.0028
 2003SOL    HW117471   0.568   3.908   8.209  0.3667 -2.7483  1.4847
 2003SOL    HW217472   0.546   3.910   8.351 -1.2875 -0.1549  0.6453
 2004SOL     OW17473   2.159   2.700   6.718 -0.7428 -0.0635  0.7835
 2004SOL    HW117474   2.169   2.737   6.806  1.4234  0.6358  0.2347
 2004SOL    HW217475   2.087   2.637   6.724  0.0809 -1.0610  0.1055
 2005SOL     OW17476   4.064   0.041  12.407 -0.2403  0.0201 -0.2771
 2005SOL    HW117477   4.087   0.063  12.316 -1.0822  0.9745 -0.2701
 2005SOL    HW217478   4.077   0.123  12.455 -0.6690  0.0365 -0.1927
 2006SOL     OW17479   0.788   0.963   1.058  0.5019 -0.0498  0.2591
 2006SOL    HW117480   0.813   0.905   0.986 -3.2619  1.2233 -2.0843
 2006SOL    HW217481   0.822   0.915   1.134 -1.0880 -0.3164  0.7952
 2007SOL     OW17482   2.173   4.524   4.642  0.3797  0.0880  0.3212
 2007SOL    HW117483   2.200   4.439   4.675 -1.0512 -0.3378  0.4234
 2007SOL    HW217484   2.098   4.547   4.697  0.1650 -0.9907  0.4744
 2008SOL     OW17485   4.481   3.838   3.784  0.0337  0.4373  0.5565
 2008SOL    HW117486   4.509   3.785   3.859 -0.0129  1.4825  1.3143
 2008SOL    HW217487   4.531   3.807   3.709 -0.0828  1.6332 -0.0024
 2009SOL     OW17488   3.519   0.694   3.140  0.1995 -0.4057  0.6638
 2009SOL    HW117489   3.512   0.662   3.050  2.1142  0.5231  0.1803
 2009SOL    HW217490   3.447   0.756   3.140  0.1756 -0.4262 -0.1088
 2010SOL     OW17491   2.156   2.877   2.675  0.5182 -0.2966  0.4466
 2010SOL    HW117492   2.239   2.872   2.627  1.0906 -0.2398  1.4112
 2010SOL    HW217493   2.194   2.821   2.743 -0.2158 -2.3727 -0.8680
 2011SOL     OW17494   1.417   1.077   2.414 -0.1738 -0.1733 -0.0953
 2011SOL    HW117495   1.398   1.008   2.350  0.1430  1.0742 -1.5354
 2011SOL    HW217496   1.494   1.042   2.459 -0.7395 -0.5506  0.5914
 2012SOL     OW17497   0.187   4.575   7.173 -0.6012 -0.9979  0.5001
 2012SOL    HW117498   0.094   4.582   7.151 -0.7462 -2.4849  0.6227
 2012SOL    HW217499   0.197   4.659   7.218 -0.9483 -0.8844  0.3693
 2013SOL     OW17500   1.190   1.868   9.098 -0.1984 -0.5596  0.2706
 2013SOL    HW117501   1.203   1.838   9.188  1.7797  2.3674  0.9614
 2013SOL    HW217502   1.098   1.893   9.103  0.1153  0.4941  0.6369
 2014SOL     OW17503   1.367   3.055   8.234 -0.0214 -0.7666  0.4891
 2014SOL    HW117504   1.424   3.091   8.166  0.4425 -1.4362  0.5251
 2014SOL    HW217505   1.390   2.963   8.223  1.0145 -0.4189 -0.2772
 2015SOL     OW17506   1.218   0.080   1.025 -1.0230  0.8108  0.2765
 2015SOL    HW117507   1.209   0.054   0.934  1.1995  0.6915  0.0803
 2015SOL    HW217508   1.221   4.725   1.075 -1.3301  1.1750  0.8900
 2016SOL     OW17509   3.941   1.080   8.649 -0.8986 -0.0460 -0.0620
 2016SOL    HW117510   3.855   1.038   8.645 -0.2761 -1.2873 -0.1960
 2016SOL    HW217511   3.965   1.038   8.732 -0.0237  0.2703 -0.1486
 2017SOL     OW17512   1.570   2.338  14.884  0.3055 -0.5338 -0.2710
 2017SOL    HW117513   1.558   2.244  14.873  0.9491 -0.7202  0.5926
 2017SOL    HW217514   1.492   2.341  14.940 -0.9110  0.3216 -2.0379
 2018SOL     OW17515   3.309   2.886   2.622 -0.8209 -0.0082 -0.2093
 2018SOL    HW117516   3.272   2.954   2.565 -0.7557  1.9573  2.1196
 2018SOL    HW217517   3.270   2.807   2.584  0.9468 -1.8245  1.7668
 2019SOL     OW17518   3.785   2.601   8.324 -0.1248 -0.1023  0.1323
 2019SOL    HW117519   3.816   2.641   8.405 -0.2865  0.5757 -0.1398
 2019SOL    HW217520   3.754   2.682   8.282 -1.7453 -0.0336  1.4502
 2020SOL     OW17521   3.736   0.990  15.234  0.4350  0.0163  0.5807
 2020SOL    HW117522   3.689   1.072  15.251 -0.7397 -0.6750  0.6596
 2020SOL    HW217523   3.774   0.969  15.319 -1.9404 -1.2711  1.3317
 2021SOL     OW17524   1.076   2.632   7.769  0.7664 -0.1315 -0.0582
 2021SOL    HW117525   1.125   2.551   7.785 -1.4962 -1.3926  0.5806
 2021SOL    HW217526   1.127   2.692   7.823  0.9420 -0.1741 -0.1776
 2022SOL     OW17527   4.480   2.911   7.171 -0.2746  0.0937  0.4008
 2022SOL    HW117528   4.385   2.916   7.178 -0.3463 -0.2342 -0.2786
 2022SOL    HW217529   4.510   2.951   7.253  0.3144  1.3308 -0.4151
 2023SOL     OW17530   1.767   2.753  15.825 -0.1927 -0.1470 -0.3136
 2023SOL    HW117531   1.821   2.822  15.787 -0.1491  0.4826  0.9036
 2023SOL    HW217532   1.840   2.705  15.863 -0.3414 -1.4323 -1.6617
 2024SOL     OW17533   4.650   4.368   2.433 -0.2348  0.0731  0.0237
 2024SOL    HW117534   4.588   4.438   2.452 -0.4292 -0.2807  0.6766
 2024SOL    HW217535   4.699   4.386   2.353  0.6381 -0.5530  0.4071
 2025SOL     OW17536   2.969   0.829   2.021 -0.0788  0.0792 -0.5927
 2025SOL    HW117537   2.891   0.840   1.967  0.7534  0.9608 -1.6335
 2025SOL    HW217538   2.955   0.740   2.053  0.4269  0.3197  0.3056
 2026SOL     OW17539   4.415   3.645   2.120  0.1679  0.0490  0.5719
 2026SOL    HW117540   4.428   3.734   2.089  0.5773  0.0478  0.7410
 2026SOL    HW217541   4.477   3.639   2.193  0.8025  0.5583  0.0777
 2027SOL     OW17542   4.347   1.033   0.101  0.3974  0.7749  0.5393
 2027SOL    HW117543   4.382   1.048   0.013  0.8371  1.1783  0.7853
 2027SOL    HW217544   4.360   1.119   0.140  1.3909  1.3756 -1.1497
 2028SOL     OW17545   1.428   3.204   6.119 -0.1085 -0.0078  0.2461
 2028SOL    HW117546   1.381   3.283   6.145  0.1856  0.5350 -0.9062
 2028SOL    HW217547   1.505   3.221   6.174 -0.1596 -1.6855  0.8379
 2029SOL     OW17548   0.259   2.713  10.830 -0.3785  0.1757 -0.1052
 2029SOL    HW117549   0.180   2.660  10.825  0.1998 -0.4702 -2.3126
 2029SOL    HW217550   0.230   2.802  10.813  0.4816  0.7174  1.2910
 2030SOL     OW17551   4.570   2.658   7.615 -0.2135 -0.2977 -0.2770
 2030SOL    HW117552   4.534   2.569   7.610 -0.2828 -0.3516  1.1361
 2030SOL    HW217553   4.663   2.634   7.607 -0.9382 -2.8992 -1.0917
 2031SOL     OW17554   2.198   2.016   8.888  0.4688  0.1258  0.5990
 2031SOL    HW117555   2.116   1.977   8.859  1.0899 -0.1587 -0.7636
 2031SOL    HW217556   2.170   2.107   8.891  1.2431  0.3649  0.6183
 2032SOL     OW17557   0.358   2.644  12.882  0.9135  0.0350  0.2885
 2032SOL    HW117558   0.441   2.689  12.896  1.8209 -1.1710 -1.2486
 2032SOL    HW217559   0.359   2.578  12.952  1.2613  0.5688  0.7908
 2033SOL     OW17560   2.746   4.339  10.406 -0.5493  0.5708 -0.3326
 2033SOL    HW117561   2.669   4.372  10.452 -0.5665 -0.6985  0.5554
 2033SOL    HW217562   2.717   4.247  10.406  0.3553  0.2871 -0.2981
 2034SOL     OW17563   4.523   1.228   3.852  0.5455  0.3933  0.3749
 2034SOL    HW117564   4.584   1.302   3.856 -0.1232  0.9345  0.4847
 2034SOL    HW217565   4.468   1.239   3.929  0.5388 -0.7139  0.5202
 2035SOL     OW17566   1.776   2.488  15.252 -0.0546  0.0374  0.1081
 2035SOL    HW117567   1.690   2.499  15.211 -1.7431 -2.4408  2.9622
 2035SOL    HW217568   1.749   2.434  15.326 -0.1282 -0.4332 -0.2601
 2036SOL     OW17569   3.238   3.005   6.313 -0.1320 -0.1869 -0.2623
 2036SOL    HW117570   3.328   3.027   6.338  0.0658 -1.1778 -0.1253
 2036SOL    HW217571   3.228   2.916   6.345 -0.6826  0.0920  0.3468
 2037SOL     OW17572   1.492   2.590  15.547  0.3219 -0.2551 -0.0591
 2037SOL    HW117573   1.406   2.614  15.513  1.8672  0.9489 -3.1350
 2037SOL    HW217574   1.539   2.673  15.539 -2.7198  1.4975  0.2463
 2038SOL     OW17575   1.598   3.227   4.142  0.0488  0.3533 -0.2528
 2038SOL    HW117576   1.541   3.253   4.070  1.0721 -1.0581 -1.5518
 2038SOL    HW217577   1.655   3.304   4.154 -1.5971  1.2438  1.8946
 2039SOL     OW17578   1.827   2.035   0.382 -0.4426 -0.8963 -0.0318
 2039SOL    HW117579   1.904   1.978   0.381  0.4550  0.3474 -1.2590
 2039SOL    HW217580   1.865   2.103   0.437 -2.3310  1.1730 -1.3202
 2040SOL     OW17581   1.913   2.673  16.158  0.2327  0.1402  0.2364
 2040SOL    HW117582   1.950   2.656  16.071 -2.4758 -1.2784 -0.6568
 2040SOL    HW217583   1.991   2.651  16.208  1.7113 -0.0237 -2.1588
 2041SOL     OW17584   1.686   4.354   5.465 -0.1139  0.7859  0.1756
 2041SOL    HW117585   1.758   4.304   5.428  0.9804  0.5035  2.7469
 2041SOL    HW217586   1.734   4.437   5.456  0.2015  0.5047 -0.7103
 2042SOL     OW17587   1.873   2.267   7.543 -0.1066  0.3652  0.0538
 2042SOL    HW117588   1.863   2.174   7.524 -0.1045  0.2019  0.8591
 2042SOL    HW217589   1.791   2.304   7.510  0.8381  1.2126 -1.3451
 2043SOL     OW17590   0.850   0.684   6.880 -0.2249 -0.1457 -0.8873
 2043SOL    HW117591   0.783   0.698   6.814 -0.6196  0.7306 -0.2887
 2043SOL    HW217592   0.858   0.588   6.877 -0.2075 -0.1368 -1.0711
 2044SOL     OW17593   2.501   2.248   9.211  0.3365 -0.1223  0.0132
 2044SOL    HW117594   2.450   2.323   9.181 -0.7423 -0.1786  1.6853
 2044SOL    HW217595   2.514   2.195   9.133 -3.6982 -0.1524 -0.6316
 2045SOL     OW17596   4.600   0.013  11.836 -0.3041 -0.3494  0.8988
 2045SOL    HW117597   4.657   0.081  11.870  0.3067 -0.4262  0.0165
 2045SOL    HW217598   4.644   4.655  11.845  0.1997 -0.0646  1.0978
 2046SOL     OW17599   4.552   3.167   6.972  0.0934 -0.6873  0.0167
 2046SOL    HW117600   4.592   3.087   7.005  1.2467  0.5427  1.5963
 2046SOL    HW217601   4.480   3.181   7.034 -1.6685 -0.3847 -2.1027
 2047SOL     OW17602   1.443   4.351   6.587 -0.4919  0.2914 -0.3174
 2047SOL    HW117603   1.518   4.318   6.636 -0.4430  1.0660  0.1213
 2047SOL    HW217604   1.490   4.394   6.515 -1.7965 -0.2813 -1.5166
 2048SOL     OW17605   3.442   3.541   4.446  0.1101  0.2199  0.4146
 2048SOL    HW117606   3.532   3.554   4.416  0.5427 -0.9317  1.2106
 2048SOL    HW217607   3.447   3.520   4.539 -0.3949  1.3065  0.6875
 2049SOL     OW17608   3.463   1.532   8.772 -0.2220 -0.3898  0.2079
 2049SOL    HW117609   3.539   1.575   8.811 -0.1529 -0.4947  0.1897
 2049SOL    HW217610   3.426   1.603   8.719 -2.6036 -1.7032  0.1072
 2050SOL     OW17611   2.120   0.057   2.943 -0.1076  1.0125  0.4237
 2050SOL    HW117612   2.207   0.020   2.928  0.3057  2.4445 -0.6354
 2050SOL    HW217613   2.063   4.709   2.925  2.1167 -1.0333  1.8009
 2051SOL     OW17614   3.125   1.764   9.857 -0.3338  0.7691 -0.5070
 2051SOL    HW117615   3.188   1.829   9.890 -1.6120  2.1750 -0.8406
 2051SOL    HW217616   3.053   1.810   9.814 -1.1040  1.6514  1.7534
 2052SOL     OW17617   1.405   1.503   4.710 -0.3977 -0.6433  0.0781
 2052SOL    HW117618   1.361   1.588   4.718 -1.4187 -1.0939 -0.6347
 2052SOL    HW217619   1.337   1.438   4.728 -0.1277 -1.4100 -1.6783
 2053SOL     OW17620   0.392   1.160  16.237 -0.4041  0.0200  0.2084
 2053SOL    HW117621   0.392   1.233  16.176  0.5411 -0.1393  0.0111
 2053SOL    HW217622   0.321   1.111  16.195 -0.7530 -1.0695  2.0656
 2054SOL     OW17623   0.098   0.339   6.848 -0.2641  0.5714  0.5928
 2054SOL    HW117624   0.182   0.296   6.861 -1.4693 -2.2722 -0.8764
 2054SOL    HW217625   0.045   0.279   6.900  0.3541  0.4634  1.0856
 2055SOL     OW17626   3.068   4.388  13.149 -1.1545  0.2671 -0.3735
 2055SOL    HW117627   3.155   4.348  13.155 -1.1364  0.1408 -1.4991
 2055SOL    HW217628   3.044   4.364  13.060 -0.0778 -1.2675 -0.2608
 2056SOL     OW17629   2.519   1.870  15.146  0.5096 -0.6475 -0.0371
 2056SOL    HW117630   2.443   1.862  15.204 -1.1537  0.3675 -2.0611
 2056SOL    HW217631   2.500   1.956  15.108 -0.7343 -2.1446 -2.8423
 2057SOL     OW17632   1.376   1.798   2.271  0.3766 -0.1030 -0.4937
 2057SOL    HW117633   1.434   1.834   2.338  1.0432  0.3442 -1.3038
 2057SOL    HW217634   1.360   1.707   2.296 -0.7276  0.3911  0.5749
 2058SOL     OW17635   2.030   2.338   3.641  0.3728  0.3808 -0.3160
 2058SOL    HW117636   2.025   2.245   3.619  0.3389  0.1224  0.7840
 2058SOL    HW217637   2.100   2.377   3.589  1.7621 -0.9708  0.5381
 2059SOL     OW17638   1.590   1.986  12.808 -0.4048  0.6997  0.4823
 2059SOL    HW117639   1.525   2.052  12.782 -0.8150  0.8678  1.9679
 2059SOL    HW217640   1.557   1.955  12.892 -2.4741 -0.2130 -0.6501
 2060SOL     OW17641   3.100   2.641   3.526  0.0637  0.0393  0.3050
 2060SOL    HW117642   3.066   2.722   3.487 -0.1146 -1.0528 -1.8285
 2060SOL    HW217643   3.027   2.580   3.514  1.1554 -1.0824 -0.6346
 2061SOL     OW17644   0.912   0.090   3.277 -0.0170  0.0975  0.1241
 2061SOL    HW117645   0.852   0.079   3.350 -1.6169  5.1639 -0.4168
 2061SOL    HW217646   0.896   0.017   3.218 -0.8325  1.7265 -1.6884
 2062SOL     OW17647   0.183   2.038   9.536 -0.6539 -0.8521 -0.3485
 2062SOL    HW117648   0.147   1.961   9.492 -0.9166 -0.8701 -0.1029
 2062SOL    HW217649   0.168   2.014   9.627  1.9031 -1.9799 -0.2365
 2063SOL     OW17650   0.732   1.887   9.221  0.5763 -0.5330  0.3464
 2063SOL    HW117651   0.729   1.977   9.253  0.5578 -0.5494  0.3907
 2063SOL    HW217652   0.643   1.870   9.189  0.7889 -2.6843  0.9252
 2064SOL     OW17653   4.410   3.094   4.781  0.5439 -0.2749  0.0617
 2064SOL    HW117654   4.447   3.017   4.826  0.6741 -0.7872 -0.9302
 2064SOL    HW217655   4.335   3.057   4.735  1.1382  0.6517 -1.6218
 2065SOL     OW17656   1.982   0.678   9.135 -0.0058 -0.1704  0.8155
 2065SOL    HW117657   2.076   0.680   9.116 -0.5543 -0.8387 -1.9497
 2065SOL    HW217658   1.980   0.658   9.229 -0.9446 -1.6400  0.4738
 2066SOL     OW17659   4.510   2.574  10.457  0.2064  0.2978 -0.3633
 2066SOL    HW117660   4.461   2.566  10.375 -2.1183  0.7410  0.9653
 2066SOL    HW217661   4.485   2.662  10.486  0.9209 -0.1244  1.5680
 2067SOL     OW17662   1.969   3.273   4.042 -0.6933  0.1341 -0.3668
 2067SOL    HW117663   1.930   3.186   4.032  2.8548 -1.2917 -2.0404
 2067SOL    HW217664   2.030   3.281   3.969  1.3966  0.8660  1.4638
 2068SOL     OW17665   1.515   2.160  15.228 -0.6709  0.0185 -0.1389
 2068SOL    HW117666   1.446   2.109  15.185  0.4774 -1.9189  0.3197
 2068SOL    HW217667   1.471   2.191  15.307 -2.2474  1.0437 -1.4104
 2069SOL     OW17668   3.601   2.986   2.566  0.2228  0.6640 -0.3316
 2069SOL    HW117669   3.597   2.964   2.473 -1.9545 -3.0219  0.6468
 2069SOL    HW217670   3.683   2.942   2.587  0.6509  1.3861 -0.4990
 2070SOL     OW17671   3.864   4.487   6.235  0.2204  0.8826  0.1812
 2070SOL    HW117672   3.934   4.425   6.255 -1.3451  0.3384  3.9248
 2070SOL    HW217673   3.904   4.537   6.164 -0.7563  0.6390 -0.5341
 2071SOL     OW17674   1.865   2.424   9.011 -0.1166  0.3778  0.2735
 2071SOL    HW117675   1.907   2.484   9.072  0.0563 -0.4906  1.0081
 2071SOL    HW217676   1.794   2.473   8.969 -1.0239 -0.5898  0.6643
 2072SOL     OW17677   3.490   1.619   1.707  0.0581 -0.0400  0.4241
 2072SOL    HW117678   3.420   1.670   1.665  0.3616  0.7487  0.8757
 2072SOL    HW217679   3.449   1.542   1.746  1.0326 -1.3976 -1.2264
 2073SOL     OW17680   2.219   0.921   3.440 -0.4811 -0.0488  0.4287
 2073SOL    HW117681   2.256   0.913   3.352  0.7351  0.2960  0.9157
 2073SOL    HW217682   2.300   0.916   3.490 -0.9997 -1.2285  1.1679
 2074SOL     OW17683   4.192   1.390  16.838 -0.1854 -0.5143  0.2058
 2074SOL    HW117684   4.253   1.413  16.768 -0.9024 -0.2205 -0.3188
 2074SOL    HW217685   4.238   1.309  16.863  1.0627 -0.6842 -2.5638
 2075SOL     OW17686   3.848   1.538   3.207  0.2427 -0.1896  0.3440
 2075SOL    HW117687   3.881   1.482   3.136  0.4544 -2.3045  2.1097
 2075SOL    HW217688   3.889   1.620   3.178  0.0680  0.5729  2.2968
 2076SOL     OW17689   4.685   4.576  16.314 -0.1665  0.7153 -0.2284
 2076SOL    HW117690   0.003   4.531  16.387 -2.0088 -1.0688 -0.2018
 2076SOL    HW217691   0.036   4.619  16.278 -0.2008  0.4439 -0.6254
 2077SOL     OW17692   0.034   3.741  10.801  0.6205 -0.2679 -0.3722
 2077SOL    HW117693   4.716   3.825  10.794  2.4352  0.8491  1.3342
 2077SOL    HW217694   0.100   3.757  10.733  0.9758  0.3145  0.0993
 2078SOL     OW17695   2.655   1.635   8.024  0.0745  0.2676  0.0419
 2078SOL    HW117696   2.645   1.673   7.937  1.2128  0.8933  0.1741
 2078SOL    HW217697   2.748   1.612   8.014  0.0265  0.3231 -0.5093
 2079SOL     OW17698   1.148   3.288   5.015 -0.3894  0.1913  0.3247
 2079SOL    HW117699   1.197   3.210   4.986 -0.9664  0.0806 -0.3721
 2079SOL    HW217700   1.065   3.258   4.977  0.4654 -1.0341 -0.5987
 2080SOL     OW17701   1.255   2.095  15.334  0.1002 -0.3772  1.0372
 2080SOL    HW117702   1.185   2.151  15.369 -0.9131 -0.3273 -1.0790
 2080SOL    HW217703   1.220   2.051  15.257  0.2271 -0.3227  0.9496
 2081SOL     OW17704   0.363   4.381  14.196  0.5287  0.1842 -0.0387
 2081SOL    HW117705   0.305   4.375  14.120 -1.4627  0.0352  1.4827
 2081SOL    HW217706   0.318   4.451  14.243  0.9074  1.7802 -2.0324
 2082SOL     OW17707   0.283   0.385   0.376  0.0453 -0.0119 -0.3406
 2082SOL    HW117708   0.374   0.393   0.405 -1.3781  0.6908  3.9082
 2082SOL    HW217709   0.296   0.354   0.286 -0.9402  2.5272 -1.3596
 2083SOL     OW17710   1.893   1.022   9.904 -0.3853 -0.6857 -0.7557
 2083SOL    HW117711   1.944   1.033   9.824 -0.6570 -4.0908 -1.3928
 2083SOL    HW217712   1.944   0.954   9.948 -2.0273 -0.0882  2.1038
 2084SOL     OW17713   2.324   2.055  17.370 -0.4054  0.3641 -0.0080
 2084SOL    HW117714   2.243   2.101  17.392 -0.5291  1.5354 -2.8964
 2084SOL    HW217715   2.285   1.974  17.337  1.4735  0.6240 -2.7731
 2085SOL     OW17716   0.516   4.631   2.940 -0.2251 -0.2421 -0.2839
 2085SOL    HW117717   0.554   4.630   3.028 -1.1772  0.5047  0.1263
 2085SOL    HW217718   0.582   4.572   2.902  0.0490  0.7474 -1.3326
 2086SOL     OW17719   4.125   3.478   4.163 -0.2246  0.2190 -0.1462
 2086SOL    HW117720   4.139   3.422   4.087 -0.0725 -0.5504  0.4529
 2086SOL    HW217721   4.029   3.480   4.161 -0.2747 -0.5978  1.0426
 2087SOL     OW17722   1.014   2.626   7.387 -0.3356 -0.2843 -0.4851
 2087SOL    HW117723   0.977   2.592   7.306  0.3304 -0.4561 -0.7219
 2087SOL    HW217724   0.955   2.696   7.415  0.5380 -0.5826  2.1288
 2088SOL     OW17725   3.431   4.123   7.091  0.4211  0.5400 -0.4353
 2088SOL    HW117726   3.399   4.036   7.070  0.4430  0.2057  0.8856
 2088SOL    HW217727   3.447   4.152   7.002  0.7776 -0.9919 -0.8704
 2089SOL     OW17728   2.032   1.321   6.265  0.3263  0.1173 -0.2248
 2089SOL    HW117729   2.027   1.417   6.271 -3.4680 -0.0156 -1.0919
 2089SOL    HW217730   2.079   1.294   6.344  0.6877 -1.1160 -0.8755
 2090SOL     OW17731   4.161   3.790   3.683  0.3427 -0.0035  0.4195
 2090SOL    HW117732   4.115   3.828   3.608  0.2889 -0.6109  0.1484
 2090SOL    HW217733   4.251   3.796   3.652  0.3319  0.0905  0.4058
 2091SOL     OW17734   3.153   4.209  17.377 -0.4021  0.1623  0.2641
 2091SOL    HW117735   3.060   4.218  17.353  0.0051 -1.4873 -1.9219
 2091SOL    HW217736   3.185   4.189  17.289 -3.6849  1.1896 -1.1652
 2092SOL     OW17737   3.571   1.051   3.144 -0.0127 -0.3350 -0.0253
 2092SOL    HW117738   3.580   1.026   3.237 -2.6658 -1.4424 -0.0766
 2092SOL    HW217739   3.485   1.024   3.113 -0.9980 -1.3978  3.5719
 2093SOL     OW17740   0.892   3.958  17.278  0.3284 -0.4027  0.2826
 2093SOL    HW117741   0.874   3.944  17.371 -0.7854 -1.8031 -0.1477
 2093SOL    HW217742   0.813   3.919  17.241  0.5091 -0.1723 -0.3429
 2094SOL     OW17743   1.178   4.504   6.384  0.6286 -0.4153 -0.8981
 2094SOL    HW117744   1.162   4.469   6.472 -3.8869  1.7377 -0.8234
 2094SOL    HW217745   1.089   4.498   6.348 -0.1279  0.5958  0.8027
 2095SOL     OW17746   2.907   3.653  10.721 -0.0589 -0.3605  0.5627
 2095SOL    HW117747   2.906   3.729  10.780 -0.7629 -2.2720  3.0205
 2095SOL    HW217748   2.828   3.610  10.755  0.0123 -0.8046  0.1643
 2096SOL     OW17749   3.291   2.817   1.202  0.3621 -0.3482 -0.5354
 2096SOL    HW117750   3.226   2.789   1.137  0.6185 -0.3914 -0.7754
 2096SOL    HW217751   3.274   2.761   1.277 -0.1785  2.1427  1.2242
 2097SOL     OW17752   0.119   1.365   5.968 -0.0402  0.1715  0.3361
 2097SOL    HW117753   0.075   1.407   6.042 -1.0697 -0.0994 -0.1119
 2097SOL    HW217754   0.190   1.427   5.949  1.4007 -1.4206  0.5580
 2098SOL     OW17755   0.264   3.359   6.733 -0.4297 -0.0681 -0.1832
 2098SOL    HW117756   0.282   3.310   6.813  1.8742  1.8847  0.4836
 2098SOL    HW217757   0.172   3.340   6.714 -0.5782  0.5831 -0.1076
 2099SOL     OW17758   0.489   4.225   3.576 -0.2067  0.1256  0.0279
 2099SOL    HW117759   0.568   4.266   3.611 -0.1540  1.2111 -1.3405
 2099SOL    HW217760   0.465   4.166   3.647 -3.8792  0.5999 -0.7681
 2100SOL     OW17761   1.831   3.544   7.415 -1.1498  0.0261  0.1723
 2100SOL    HW117762   1.895   3.571   7.349  0.0586  0.5797  1.5891
 2100SOL    HW217763   1.797   3.474   7.359  0.2147  0.4907 -1.2282
 2101SOL     OW17764   1.211   0.251   3.284  0.3357 -0.1645 -0.0492
 2101SOL    HW117765   1.127   0.209   3.266  0.3615  0.3867 -1.4160
 2101SOL    HW217766   1.263   0.226   3.208  1.2429 -2.3582  1.2850
 2102SOL     OW17767   4.418   2.821  10.582 -0.2331  0.0849  0.2859
 2102SOL    HW117768   4.364   2.818  10.661 -1.4302  1.5248 -0.4777
 2102SOL    HW217769   4.506   2.826  10.619 -2.0915  3.5001  4.2872
 2103SOL     OW17770   1.550   0.307   8.830  0.5837 -0.4510 -1.3345
 2103SOL    HW117771   1.594   0.298   8.914 -2.0606  0.1858  0.1415
 2103SOL    HW217772   1.597   0.367   8.773 -1.2846  0.7149 -1.6698
 2104SOL     OW17773   2.252   1.397   2.892 -0.7099  0.6251  0.3533
 2104SOL    HW117774   2.286   1.415   2.804  1.2546 -0.1870  0.9492
 2104SOL    HW217775   2.168   1.359   2.869 -2.7207  4.9914  0.4123
 2105SOL     OW17776   4.365   4.664   3.968  0.1068 -0.1903 -0.3642
 2105SOL    HW117777   4.301   4.593   3.961  1.3052 -1.0589 -2.2470
 2105SOL    HW217778   4.409   4.672   3.884 -0.2762  0.1642 -0.5294
 2106SOL     OW17779   2.077   1.266  11.111 -0.3145  0.3909 -0.5462
 2106SOL    HW117780   2.078   1.254  11.016  0.1514  1.8384 -0.7169
 2106SOL    HW217781   2.170   1.282  11.129 -0.1773 -1.0466  0.0505
 2107SOL     OW17782   1.363   3.592   4.930 -0.3353  0.5833 -0.5917
 2107SOL    HW117783   1.303   3.557   4.996  2.0006 -0.3556  1.0175
 2107SOL    HW217784   1.295   3.646   4.889 -2.2034 -1.6676 -0.4872
 2108SOL     OW17785   0.236   3.045  10.204 -0.0067  0.2456 -0.3337
 2108SOL    HW117786   0.208   2.956  10.223  0.1384  0.4108  0.6575
 2108SOL    HW217787   0.281   3.045  10.120 -0.3801 -0.2820 -0.5344
 2109SOL     OW17788   2.810   2.663   7.963 -0.0355 -0.3274  0.1405
 2109SOL    HW117789   2.745   2.605   8.003 -0.7610  0.9770  0.8571
 2109SOL    HW217790   2.852   2.701   8.040  2.3827  0.5071 -1.5933
 2110SOL     OW17791   4.247   0.925   3.061  0.0747 -0.0533  0.1822
 2110SOL    HW117792   4.226   1.018   3.061  0.8680  0.1433  2.9299
 2110SOL    HW217793   4.201   0.888   2.986 -1.3518 -1.1018  1.5788
 2111SOL     OW17794   2.774   1.374  11.642 -0.2365  0.3481  0.1643
 2111SOL    HW117795   2.859   1.340  11.616  0.4562  0.0206  2.8570
 2111SOL    HW217796   2.731   1.365  11.557  2.9266 -2.6882 -1.0826
 2112SOL     OW17797   0.126   1.242  16.198 -0.0684 -0.3665 -0.1949
 2112SOL    HW117798   0.056   1.293  16.159 -0.9783 -2.1718 -0.9169
 2112SOL    HW217799   0.091   1.197  16.275 -0.7026 -0.0356 -0.2927
 2113SOL     OW17800   1.849   1.467   4.909  0.5582 -0.3346  0.0067
 2113SOL    HW117801   1.850   1.374   4.888  0.3941 -0.4751  0.6088
 2113SOL    HW217802   1.932   1.470   4.956  0.5834  0.7640 -0.1122
 2114SOL     OW17803   3.693   0.323  11.175 -0.0470 -0.1593  0.3745
 2114SOL    HW117804   3.726   0.239  11.143 -1.0473 -1.2015  2.0219
 2114SOL    HW217805   3.768   0.377  11.151 -0.4633  0.9667  1.5668
 2115SOL     OW17806   3.209   0.459   5.112 -0.0472  0.5711 -0.0708
 2115SOL    HW117807   3.288   0.513   5.103  0.3792 -0.0356  0.0259
 2115SOL    HW217808   3.214   0.421   5.199  0.0716  0.5651 -0.0798
 2116SOL     OW17809   1.590   2.165   6.059 -0.0740 -0.2891 -0.5912
 2116SOL    HW117810   1.574   2.157   5.965 -0.3901 -1.3477 -0.4437
 2116SOL    HW217811   1.638   2.248   6.064  0.9549 -0.8855 -0.6459
 2117SOL     OW17812   1.269   2.161   7.090  0.3833  0.1736 -0.0539
 2117SOL    HW117813   1.279   2.085   7.034  1.0799 -0.5590  1.0647
 2117SOL    HW217814   1.298   2.128   7.175  1.6884  1.0481 -0.1687
 2118SOL     OW17815   0.651   2.598  11.012  0.3037 -0.2350  0.6255
 2118SOL    HW117816   0.739   2.629  10.988  0.3599 -0.0970  1.0144
 2118SOL    HW217817   0.682   2.549  11.088  0.5528  1.4760  1.6361
 2119SOL     OW17818   3.563   3.909   6.907 -0.1923 -0.2344 -0.1244
 2119SOL    HW117819   3.524   3.945   6.827 -2.4132 -1.2805  0.4980
 2119SOL    HW217820   3.640   3.859   6.879  0.4794  1.5076 -1.3955
 2120SOL     OW17821   0.974   1.759   1.865  0.1980 -0.4641 -0.5937
 2120SOL    HW117822   1.040   1.798   1.808  1.0609  0.8256  1.2907
 2120SOL    HW217823   1.025   1.722   1.937  0.2754 -2.1602 -1.5180
 2121SOL     OW17824   4.446   0.220   7.176 -0.0521  0.2679 -0.8420
 2121SOL    HW117825   4.432   0.162   7.252 -1.6004  0.6023 -0.8657
 2121SOL    HW217826   4.438   0.308   7.213  1.1824  0.2981 -0.6517
 2122SOL     OW17827   3.150   4.007  16.573  0.0209  0.1544 -0.0612
 2122SOL    HW117828   3.188   4.090  16.544 -0.6344  0.5615  0.2445
 2122SOL    HW217829   3.129   4.031  16.664 -0.3367 -2.7064  0.5932
 2123SOL     OW17830   0.621   2.615   8.565 -0.2206  0.8166 -0.4126
 2123SOL    HW117831   0.553   2.655   8.618 -0.2789  0.4216 -0.1903
 2123SOL    HW217832   0.687   2.684   8.574 -0.3149  1.0334 -1.3598
 2124SOL     OW17833   1.180   4.646  10.367  0.4020 -0.0036 -0.2947
 2124SOL    HW117834   1.189   4.598  10.450 -1.0326  0.3472  0.0619
 2124SOL    HW217835   1.197   0.012  10.385 -1.3585  0.0071  1.4422
 2125SOL     OW17836   0.271   3.078   4.556 -0.1641  0.1542  0.1160
 2125SOL    HW117837   0.241   3.116   4.473  1.0899  0.7069 -0.0898
 2125SOL    HW217838   0.346   3.130   4.585 -0.2860 -0.4748  1.5442
 2126SOL     OW17839   3.953   2.255   4.297 -0.2157 -0.2371 -0.3034
 2126SOL    HW117840   3.990   2.339   4.325 -0.0446 -0.7819  1.0801
 2126SOL    HW217841   4.023   2.192   4.315 -0.0939 -0.2375 -0.7733
 2127SOL     OW17842   4.061   2.673   7.036  0.0200  0.0966 -0.5449
 2127SOL    HW117843   3.968   2.694   7.027 -0.4530 -1.2540  1.2290
 2127SOL    HW217844   4.101   2.690   6.951 -0.4724  3.0897 -0.1810
 2128SOL     OW17845   0.194   1.431   2.595  0.1695 -0.3467  0.2279
 2128SOL    HW117846   0.210   1.459   2.505 -0.5201 -0.2233  0.1448
 2128SOL    HW217847   0.104   1.401   2.579 -0.4870  0.7042  1.9662
 2129SOL     OW17848   4.554   4.386   3.129 -0.1318 -0.1557  0.2605
 2129SOL    HW117849   4.543   4.294   3.104  1.4868  0.4919 -2.9264
 2129SOL    HW217850   4.558   4.378   3.224  0.0224 -0.6540  0.2149
 2130SOL     OW17851   1.541   4.283   9.212  0.1059 -0.4313 -0.6206
 2130SOL    HW117852   1.635   4.302   9.213 -0.4764  2.3261  2.4073
 2130SOL    HW217853   1.540   4.192   9.183 -1.8781 -1.1456  1.6398
 2131SOL     OW17854   2.131   3.963   2.103 -0.4116  0.4562  0.7254
 2131SOL    HW117855   2.100   3.875   2.122  0.4319  0.3050  1.4197
 2131SOL    HW217856   2.080   3.984   2.025 -0.3368  1.4041  0.9212
 2132SOL     OW17857   2.372   0.783   4.433  0.7873  0.0353  0.1433
 2132SOL    HW117858   2.462   0.750   4.431  0.7757  0.1230 -2.5251
 2132SOL    HW217859   2.332   0.752   4.351 -1.6468  1.4624  0.7739
 2133SOL     OW17860   4.548   4.511   9.703  0.5351 -0.3569  0.0538
 2133SOL    HW117861   4.582   4.601   9.700  0.6061 -0.4370 -1.4828
 2133SOL    HW217862   4.515   4.517   9.793  0.6334  1.9867 -0.0529
 2134SOL     OW17863   1.097   3.585   3.564 -0.0245 -0.1311 -0.7395
 2134SOL    HW117864   1.099   3.519   3.494  1.0140  0.1213 -0.9417
 2134SOL    HW217865   1.177   3.629   3.538 -1.2951  0.8236 -2.9571
 2135SOL     OW17866   1.707   2.999   5.189  0.1339 -0.0333 -0.1992
 2135SOL    HW117867   1.711   2.911   5.151 -0.6178  0.7107 -2.0041
 2135SOL    HW217868   1.778   3.005   5.253  0.0806 -1.4501  0.0026
 2136SOL     OW17869   0.596   2.300  12.147 -0.4551 -0.4731 -0.2640
 2136SOL    HW117870   0.678   2.337  12.113 -1.0067  0.6029 -0.4366
 2136SOL    HW217871   0.564   2.272  12.062 -0.4677 -1.1153 -0.0460
 2137SOL     OW17872   2.002   0.463  12.165 -0.2931  0.3112  1.0115
 2137SOL    HW117873   2.044   0.518  12.231  1.2432  1.5606 -0.9985
 2137SOL    HW217874   1.957   0.409  12.230  1.7564 -0.0096  2.1756
 2138SOL     OW17875   3.535   2.402   9.108 -0.0385 -0.1026  0.3834
 2138SOL    HW117876   3.602   2.338   9.131  0.5279  1.5825  3.3525
 2138SOL    HW217877   3.532   2.438   9.196 -0.5352  0.1734  0.2570
 2139SOL     OW17878   0.413   1.490   5.888  0.7400 -0.5334  0.2454
 2139SOL    HW117879   0.417   1.458   5.797 -0.8051  0.8041 -0.2851
 2139SOL    HW217880   0.500   1.496   5.927 -0.4402  3.7034  2.1694
 2140SOL     OW17881   4.001   4.542   1.133 -0.3622 -0.3478  0.3305
 2140SOL    HW117882   3.913   4.506   1.133  0.2262 -1.8079 -1.1371
 2140SOL    HW217883   3.997   4.586   1.048 -0.5179  0.1597  0.5970
 2141SOL     OW17884   3.907   1.056   2.415 -0.3054  0.6594  0.1409
 2141SOL    HW117885   3.985   1.004   2.394 -0.5123 -0.9724  3.3664
 2141SOL    HW217886   3.922   1.122   2.348  0.0724 -0.1667 -0.5901
 2142SOL     OW17887   2.481   3.282   5.592  0.4849 -0.3185  0.2106
 2142SOL    HW117888   2.412   3.275   5.526 -0.8240 -1.5902  1.6769
 2142SOL    HW217889   2.495   3.188   5.606  0.5182 -0.3894 -0.3273
 2143SOL     OW17890   1.743   3.366   2.189  0.4739  0.0463 -0.2869
 2143SOL    HW117891   1.699   3.298   2.240  0.7976 -0.0169 -0.0912
 2143SOL    HW217892   1.698   3.448   2.210 -0.5489 -1.2810  2.6267
 2144SOL     OW17893   4.157   0.802   5.618 -0.5221 -0.3635 -0.6225
 2144SOL    HW117894   4.077   0.750   5.605 -0.8709  0.3068 -1.1983
 2144SOL    HW217895   4.216   0.729   5.634  0.8271  0.2061 -2.9235
 2145SOL     OW17896   3.412   3.050   3.729  0.0386 -0.3813  0.0506
 2145SOL    HW117897   3.356   2.978   3.698 -1.7671 -0.0420  2.5575
 2145SOL    HW217898   3.494   3.030   3.685  0.1022  3.8028 -1.6828
 2146SOL     OW17899   3.326   0.531   5.425  0.1516  0.2002  0.2956
 2146SOL    HW117900   3.298   0.462   5.364 -0.0320  0.8811 -0.3851
 2146SOL    HW217901   3.276   0.500   5.501  1.1140 -0.8229  0.5038
 2147SOL     OW17902   3.935   1.360   2.561  0.3982 -0.5596 -0.1045
 2147SOL    HW117903   3.971   1.272   2.577 -0.2644 -0.3102  2.7483
 2147SOL    HW217904   3.920   1.354   2.467 -0.7097 -0.6257  0.0798
 2148SOL     OW17905   0.089   1.916   4.259  0.3791  0.0477  0.2350
 2148SOL    HW117906   0.026   1.861   4.306  0.5014  0.4995  0.9378
 2148SOL    HW217907   0.071   1.911   4.165 -1.2614  2.3870  0.4001
 2149SOL     OW17908   3.407   4.623   0.495  0.7523  0.0900 -0.2350
 2149SOL    HW117909   3.388   4.685   0.425  1.5106 -0.2501 -0.7394
 2149SOL    HW217910   3.500   4.598   0.488  1.4075  2.5806 -0.4876
 2150SOL     OW17911   0.755   4.269   7.180  0.3091  0.5464 -0.0416
 2150SOL    HW117912   0.803   4.187   7.194 -1.0867 -0.1833  0.4271
 2150SOL    HW217913   0.722   4.282   7.269 -1.9285  0.2946 -0.8337
 2151SOL     OW17914   4.535   1.675   5.373 -1.1984  0.0377  0.2440
 2151SOL    HW117915   4.533   1.770   5.382  1.1151  0.1643 -0.5361
 2151SOL    HW217916   4.630   1.665   5.370 -0.9545  2.5538  0.0784
 2152SOL     OW17917   4.340   0.479   8.403  0.2998  0.0554 -0.0015
 2152SOL    HW117918   4.420   0.457   8.356 -1.4678  0.8061 -3.3535
 2152SOL    HW217919   4.324   0.392   8.439 -0.9360  0.7386  1.0840
 2153SOL     OW17920   0.807   2.953   5.626 -0.8741  0.0154 -0.4505
 2153SOL    HW117921   0.794   2.994   5.711 -0.1125  3.6587 -2.0648
 2153SOL    HW217922   0.853   3.025   5.581  0.5256 -0.0626  0.8893
 2154SOL     OW17923   0.487   2.408   3.802  0.2269 -0.1574  0.1286
 2154SOL    HW117924   0.440   2.491   3.814 -2.5745 -1.6782 -0.1984
 2154SOL    HW217925   0.545   2.409   3.878 -0.0238  1.1341  0.2942
 2155SOL     OW17926   0.362   0.354   8.409  0.1197 -0.3438 -0.6276
 2155SOL    HW117927   0.326   0.275   8.369  2.5320 -1.5317 -0.4908
 2155SOL    HW217928   0.364   0.327   8.501 -1.8979  0.7676 -0.2607
 2156SOL     OW17929   0.537   1.655   8.571  0.0493 -0.1661 -0.1771
 2156SOL    HW117930   0.468   1.626   8.511 -0.8404  1.4159  0.0984
 2156SOL    HW217931   0.582   1.570   8.574  0.5027  0.0685 -0.2814
 2157SOL     OW17932   1.239   1.218   7.574 -0.4791 -0.6243 -0.1152
 2157SOL    HW117933   1.158   1.253   7.611 -0.4282  0.0041 -0.5980
 2157SOL    HW217934   1.200   1.178   7.496 -0.3511 -1.3212  0.1787
 2158SOL     OW17935   0.717   2.121  17.606 -0.5028 -0.0120 -0.0233
 2158SOL    HW117936   0.733   2.199  17.659  1.7792  0.4889 -1.4099
 2158SOL    HW217937   0.633   2.135  17.563  0.4554 -0.0939 -1.9542
 2159SOL     OW17938   3.371   4.201  16.524  0.0314 -0.1410 -0.6146
 2159SOL    HW117939   3.462   4.179  16.543 -0.0699  0.9212  1.0864
 2159SOL    HW217940   3.368   4.290  16.561 -0.6225  0.4970 -2.2190
 2160SOL     OW17941   1.913   0.891  11.920  0.0392 -0.3843  0.0715
 2160SOL    HW117942   1.886   0.907  12.011 -2.6425 -0.6915 -0.6622
 2160SOL    HW217943   2.005   0.915  11.922  0.0641 -0.4917  0.2840
 2161SOL     OW17944   2.416   1.079   3.153  0.3552  0.4886 -0.3026
 2161SOL    HW117945   2.382   1.138   3.220 -2.0044 -0.2817 -0.8102
 2161SOL    HW217946   2.407   1.127   3.071  2.1457 -0.1523 -0.8703
 2162SOL     OW17947   1.102   2.033  13.329  0.2352  0.0742 -0.3213
 2162SOL    HW117948   1.145   2.117  13.311  0.1456 -0.5705 -3.4689
 2162SOL    HW217949   1.009   2.043  13.311 -0.2418 -0.3586  1.9158
 2163SOL     OW17950   4.273   2.577  12.885  0.0788 -0.3045 -0.1813
 2163SOL    HW117951   4.245   2.669  12.877 -1.6314 -0.7221  1.0466
 2163SOL    HW217952   4.316   2.569  12.800 -0.0771 -0.5540 -0.2374
 2164SOL     OW17953   0.093   2.687  16.568 -0.5884  0.2633 -0.2605
 2164SOL    HW117954   0.160   2.636  16.614 -0.2887 -0.3365 -1.3441
 2164SOL    HW217955   0.146   2.761  16.538 -1.4655  0.4198 -1.4581
 2165SOL     OW17956   4.246   1.154   0.665 -0.4786  0.1764 -0.7468
 2165SOL    HW117957   4.242   1.194   0.753 -3.3909 -2.3636  0.2917
 2165SOL    HW217958   4.261   1.232   0.612  0.9266  0.8580  0.6469
 2166SOL     OW17959   3.057   0.871   3.892 -0.1328  0.2494 -0.0681
 2166SOL    HW117960   3.070   0.909   3.805 -2.0501 -3.2036 -1.8860
 2166SOL    HW217961   2.975   0.823   3.879  0.0856 -0.3064  0.6475
 2167SOL     OW17962   4.238   1.095   5.077  0.1444  0.9746 -0.2402
 2167SOL    HW117963   4.212   1.168   5.133 -0.0254 -0.8190  2.0179
 2167SOL    HW217964   4.308   1.133   5.024  2.2711  0.9901  2.5603
 2168SOL     OW17965   1.529   4.404   2.669  0.0327  0.1240 -0.1503
 2168SOL    HW117966   1.545   4.469   2.601  3.1087 -0.7301 -0.2547
 2168SOL    HW217967   1.596   4.340   2.644 -0.8437 -1.1262  0.7327
 2169SOL     OW17968   1.110   3.315   8.781 -0.2105  0.5416  0.1306
 2169SOL    HW117969   1.204   3.329   8.773  0.1193 -0.2877  2.4603
 2169SOL    HW217970   1.103   3.289   8.873  0.9095  0.1688  0.1102
 2170SOL     OW17971   3.128   4.356   1.481 -0.2024  0.9405 -0.2684
 2170SOL    HW117972   3.126   4.406   1.563  1.5847 -0.4612  0.6230
 2170SOL    HW217973   3.222   4.345   1.466 -0.3964 -1.8647  0.6521
 2171SOL     OW17974   0.859   3.240   2.489  0.1794 -0.2692  0.2148
 2171SOL    HW117975   0.895   3.160   2.528 -1.5690 -2.5890 -2.8995
 2171SOL    HW217976   0.767   3.234   2.518  0.0042  1.4080 -0.0193
 2172SOL     OW17977   0.744   1.774   5.075  0.0101  0.0559 -0.2309
 2172SOL    HW117978   0.736   1.681   5.098 -0.6869  0.6856  1.9850
 2172SOL    HW217979   0.832   1.810   5.084  0.4144 -1.3688  1.4018
 2173SOL     OW17980   0.642   2.620   7.561 -0.6269  0.2712  0.3424
 2173SOL    HW117981   0.727   2.663   7.555 -0.5697  0.3905  1.8698
 2173SOL    HW217982   0.629   2.579   7.476 -0.8353  0.6922  0.1748
 2174SOL     OW17983   2.381   2.098   1.846  0.6192 -0.8956  0.4860
 2174SOL    HW117984   2.392   2.018   1.795  1.6161 -0.4743  0.0382
 2174SOL    HW217985   2.408   2.065   1.931  2.7697  1.6611  0.8140
 2175SOL     OW17986   0.805   3.314  17.402  0.0234  0.7399  0.0568
 2175SOL    HW117987   0.876   3.250  17.402  1.1341  1.9606  0.7545
 2175SOL    HW217988   0.832   3.386  17.345 -2.1323 -1.3472 -3.6240
 2176SOL     OW17989   4.132   2.769  12.170  0.4019 -0.9874  0.2344
 2176SOL    HW117990   4.185   2.762  12.090 -2.7875 -1.8198 -1.8035
 2176SOL    HW217991   4.124   2.864  12.179 -1.7439 -1.2459  1.1203
 2177SOL     OW17992   4.161   0.478  12.316 -0.0331 -0.1010  0.5943
 2177SOL    HW117993   4.066   0.470  12.310 -0.0217  0.7802 -0.8095
 2177SOL    HW217994   4.186   0.455  12.226 -0.8497  0.7949  0.1363
 2178SOL     OW17995   3.487   0.454   7.278  0.4918 -0.7596 -0.5640
 2178SOL    HW117996   3.553   0.495   7.333 -0.2124  2.6257 -2.2721
 2178SOL    HW217997   3.410   0.461   7.335 -0.1026 -2.7903 -1.1131
 2179SOL     OW17998   4.229   1.489   2.434 -0.0088 -0.2824 -0.5436
 2179SOL    HW117999   4.318   1.491   2.400 -0.3629  0.2502 -1.4223
 2179SOL    HW218000   4.171   1.491   2.358  1.2686  2.8710 -1.4223
 2180SOL     OW18001   2.532   4.532   3.910  0.2509 -0.0104  0.3888
 2180SOL    HW118002   2.556   4.456   3.857  0.8253  0.4816 -0.0617
 2180SOL    HW218003   2.608   4.546   3.967 -1.3891 -0.3010  2.6400
 2181SOL     OW18004   3.370   2.921   6.644 -0.1151 -0.8764  0.5043
 2181SOL    HW118005   3.309   2.896   6.575  0.6239  0.0299 -0.4763
 2181SOL    HW218006   3.444   2.869   6.612 -0.2449 -0.7994  0.0769
 2182SOL     OW18007   1.326   3.849   9.222 -0.3911 -0.9709 -0.4063
 2182SOL    HW118008   1.357   3.919   9.164 -0.1067  0.1511  1.0961
 2182SOL    HW218009   1.282   3.789   9.162 -1.0449  0.6982 -1.5968
 2183SOL     OW18010   3.009   3.029  17.038 -0.1657  0.5976  0.0957
 2183SOL    HW118011   2.924   2.994  17.062 -0.7137  0.5097 -1.9338
 2183SOL    HW218012   3.039   2.963  16.975 -1.6003 -1.6383  1.8085
 2184SOL     OW18013   3.793   1.697   4.925 -0.1114 -0.1125  0.8354
 2184SOL    HW118014   3.789   1.666   4.835  2.3798 -2.4806  1.5084
 2184SOL    HW218015   3.704   1.681   4.954 -0.4389 -0.7216 -0.5354
 2185SOL     OW18016   2.191   1.763   3.627 -0.2676 -0.1251  0.2130
 2185SOL    HW118017   2.269   1.712   3.651  0.1015  0.5752  0.4938
 2185SOL    HW218018   2.146   1.689   3.587 -1.5294  0.8751 -0.2086
 2186SOL     OW18019   3.030   1.686   2.442 -0.6797 -0.2021  0.3734
 2186SOL    HW118020   3.083   1.613   2.472 -0.3859 -0.9028 -1.8551
 2186SOL    HW218021   2.941   1.652   2.445 -0.2725 -1.0312  2.7644
 2187SOL     OW18022   3.047   2.280   6.266 -0.1573 -0.2930  0.0586
 2187SOL    HW118023   2.955   2.256   6.260 -0.2317  0.3515 -1.4408
 2187SOL    HW218024   3.073   2.224   6.192 -2.8563  0.3732 -1.3986
 2188SOL     OW18025   1.302   3.754   3.444  0.3213  0.0591 -0.1537
 2188SOL    HW118026   1.383   3.776   3.399  0.0176  1.7390  0.1140
 2188SOL    HW218027   1.273   3.842   3.469 -0.0372  0.3395 -1.5401
 2189SOL     OW18028   3.810   2.592   4.826 -0.5154  0.5144  0.1145
 2189SOL    HW118029   3.844   2.674   4.862  1.5840  0.0157 -0.7290
 2189SOL    HW218030   3.891   2.544   4.844 -0.7197  0.6302  1.3136
 2190SOL     OW18031   0.611   2.724   4.893  0.1338 -0.1463  0.3237
 2190SOL    HW118032   0.520   2.719   4.863 -0.1631  0.4297  1.1425
 2190SOL    HW218033   0.625   2.815   4.917  2.1208 -0.9354  2.1798
 2191SOL     OW18034   4.161   0.648   8.259 -0.0314  0.0162  0.1282
 2191SOL    HW118035   4.224   0.596   8.308  0.9738  2.6716  1.6391
 2191SOL    HW218036   4.168   0.732   8.304 -0.7352  1.1283 -1.7933
 2192SOL     OW18037   0.303   3.034  17.602 -0.6573  0.0103 -0.3195
 2192SOL    HW118038   0.211   3.059  17.597 -0.9165 -0.9385 -0.3646
 2192SOL    HW218039   0.290   2.957  17.658  0.5019  0.6480  0.8148
 2193SOL     OW18040   2.608   1.372   0.676 -0.1556  0.2731  0.4256
 2193SOL    HW118041   2.554   1.448   0.657 -0.6590 -0.6131 -1.7059
 2193SOL    HW218042   2.557   1.319   0.737 -1.9850  0.0277 -1.3242
 2194SOL     OW18043   1.293   0.238   4.802 -0.7660  0.0459  0.4792
 2194SOL    HW118044   1.221   0.298   4.783  1.2071  2.4151  0.4153
 2194SOL    HW218045   1.272   0.155   4.760  0.7043  0.3594 -0.8857
 2195SOL     OW18046   4.177   3.668   2.459  0.3488  0.4813  0.2539
 2195SOL    HW118047   4.150   3.706   2.376 -1.2115  1.9531  1.4265
 2195SOL    HW218048   4.247   3.726   2.489  0.2818  0.0819  1.1822
 2196SOL     OW18049   1.940   0.595   5.955 -0.0796 -0.1599 -0.7455
 2196SOL    HW118050   1.900   0.514   5.989  0.5906  0.1893  0.8703
 2196SOL    HW218051   1.938   0.579   5.861  1.8166 -0.3843 -0.7440
 2197SOL     OW18052   3.527   1.141  15.381  0.5481 -0.2178 -0.1667
 2197SOL    HW118053   3.603   1.083  15.388  0.9926  0.4802  0.7863
 2197SOL    HW218054   3.458   1.075  15.381  0.7638 -0.4418  1.8850
 2198SOL     OW18055   0.917   3.444   7.462 -0.3754  1.0398  0.1903
 2198SOL    HW118056   1.008   3.418   7.480 -0.5088  0.5556  0.1537
 2198SOL    HW218057   0.874   3.362   7.484  1.9910 -0.1421  0.4722
 2199SOL     OW18058   4.326   0.643  10.266 -0.8069  0.3567 -0.6738
 2199SOL    HW118059   4.299   0.658  10.356  0.1860 -0.5206 -0.2201
 2199SOL    HW218060   4.270   0.708  10.224 -0.9873  0.5822 -0.0729
 2200SOL     OW18061   1.358   1.613   5.775 -0.5071  0.1112 -0.2255
 2200SOL    HW118062   1.408   1.599   5.856 -1.6488  2.3722  0.8736
 2200SOL    HW218063   1.351   1.708   5.783  0.4889  0.3535 -2.1789
 2201SOL     OW18064   0.945   2.627  16.623  0.1788 -0.1600 -0.3249
 2201SOL    HW118065   1.025   2.576  16.608  0.3484 -0.0607  0.2720
 2201SOL    HW218066   0.877   2.560  16.629  0.0133  0.1396  0.9355
 2202SOL     OW18067   0.249   3.474   0.070  0.1170 -0.2810  0.3702
 2202SOL    HW118068   0.181   3.485   0.137 -1.3682 -0.3691 -1.1070
 2202SOL    HW218069   0.188   3.422   0.017  1.3509 -2.3789  1.0198
 2203SOL     OW18070   1.699   0.366   4.604  0.0978  0.4783  0.6806
 2203SOL    HW118071   1.698   0.399   4.694  0.3605  1.5406  0.2953
 2203SOL    HW218072   1.625   0.419   4.574  1.0877  1.3555 -0.1612
 2204SOL     OW18073   1.221   0.580  14.522  0.4606  0.3975  0.2231
 2204SOL    HW118074   1.148   0.539  14.569  0.7434 -0.6383 -0.2657
 2204SOL    HW218075   1.296   0.548  14.571 -0.8771 -0.8051  1.5045
 2205SOL     OW18076   0.330   0.623   9.591  0.0759 -0.1186  0.1527
 2205SOL    HW118077   0.331   0.716   9.571 -0.0208 -0.2993 -0.6602
 2205SOL    HW218078   0.387   0.629   9.669  1.2665 -0.7210 -0.6635
 2206SOL     OW18079   2.467   1.857   5.982  0.0828 -0.1981 -0.3699
 2206SOL    HW118080   2.518   1.844   5.901  1.3936  3.6232 -0.1327
 2206SOL    HW218081   2.403   1.927   5.973 -0.1142 -0.2375  0.8285
 2207SOL     OW18082   0.146   4.634  12.377 -0.0282  0.5632 -0.0912
 2207SOL    HW118083   0.154   4.712  12.322  0.1029  1.0559  0.6272
 2207SOL    HW218084   0.235   4.603  12.362 -0.6599 -1.0285 -0.5536
 2208SOL     OW18085   1.291   1.950   6.492  0.0832  0.2265 -0.6240
 2208SOL    HW118086   1.363   1.954   6.429 -0.4626  1.9345 -1.1539
 2208SOL    HW218087   1.324   1.889   6.557  2.0998  2.5053  0.4858
 2209SOL     OW18088   3.389   2.731  17.640  0.2752 -0.0807  0.3831
 2209SOL    HW118089   3.341   2.787  17.580  2.1496  1.2075  0.1094
 2209SOL    HW218090   3.443   2.793  17.689 -0.2947 -0.1692  1.1251
 2210SOL     OW18091   0.820   3.878   4.479 -0.3327  0.0013 -0.5162
 2210SOL    HW118092   0.743   3.849   4.431 -0.2818 -1.2860  0.1779
 2210SOL    HW218093   0.799   3.966   4.510 -4.1238 -0.4088 -1.9418
 2211SOL     OW18094   3.495   3.420   5.457  0.4703 -0.2962 -0.6420
 2211SOL    HW118095   3.566   3.390   5.514  0.1084 -0.9822 -0.5515
 2211SOL    HW218096   3.445   3.341   5.475  0.7089  0.4992  3.5500
 2212SOL     OW18097   4.557   3.381   3.198  0.0507  0.1674  0.3328
 2212SOL    HW118098   4.572   3.309   3.136  0.6145  1.0687 -0.5773
 2212SOL    HW218099   4.600   3.346   3.276  0.3921  2.1300  1.0207
 2213SOL     OW18100   1.856   0.551   3.226  0.2370 -0.1088  0.0140
 2213SOL    HW118101   1.767   0.576   3.250  0.7126 -0.4447  2.1487
 2213SOL    HW218102   1.913   0.627   3.239 -0.1889  0.5447 -1.9834
 2214SOL     OW18103   1.904   1.646   4.193  0.0834  0.2858 -0.3240
 2214SOL    HW118104   1.874   1.725   4.236 -1.5258  0.0385 -1.0003
 2214SOL    HW218105   1.896   1.675   4.102 -0.7405  1.6845  0.2075
 2215SOL     OW18106   0.849   1.699   7.184 -0.3049 -0.0613  0.0631
 2215SOL    HW118107   0.825   1.721   7.275 -0.4769  0.9061 -0.2078
 2215SOL    HW218108   0.930   1.745   7.166  0.4699 -2.3830 -2.2502
 2216SOL     OW18109   2.349   1.611   1.937  0.1164  0.2324  0.3690
 2216SOL    HW118110   2.435   1.592   1.974  1.0939  0.9988 -1.4882
 2216SOL    HW218111   2.294   1.563   1.999  0.6255 -1.6403 -0.6113
 2217SOL     OW18112   3.585   0.683   5.454 -0.3524 -0.3448  0.0118
 2217SOL    HW118113   3.561   0.594   5.478 -0.3649 -0.6555 -1.1566
 2217SOL    HW218114   3.497   0.720   5.460 -0.5745 -1.2577  2.2349
 2218SOL     OW18115   3.214   2.246   4.140 -0.1199 -0.1184 -0.3814
 2218SOL    HW118116   3.132   2.198   4.148 -0.8990  1.2809  0.0801
 2218SOL    HW218117   3.231   2.271   4.231  0.0547 -0.9934 -0.1677
 2219SOL     OW18118   2.886   2.337  12.660  0.6814 -0.6911 -0.5788
 2219SOL    HW118119   2.807   2.381  12.693  1.0612  0.2047 -0.8729
 2219SOL    HW218120   2.853   2.249  12.645  0.5737 -0.4972 -1.4867
 2220SOL     OW18121   0.286   2.399   3.046 -0.6347 -0.0751 -0.3451
 2220SOL    HW118122   0.256   2.308   3.051  1.4436 -0.7385  0.0657
 2220SOL    HW218123   0.334   2.419   3.126 -0.2716  1.3443 -0.9016
 2221SOL     OW18124   1.651   2.599   9.252  0.0943 -0.5802 -0.4245
 2221SOL    HW118125   1.562   2.584   9.286  0.5249  0.3596  1.1411
 2221SOL    HW218126   1.635   2.551   9.171 -0.1640  2.5075 -2.1764
 2222SOL     OW18127   0.692   0.574   3.516  0.3930  0.2547  0.2670
 2222SOL    HW118128   0.607   0.556   3.476  0.0314  1.2767  0.5881
 2222SOL    HW218129   0.741   0.523   3.451 -0.3378 -1.8124  1.3136
 2223SOL     OW18130   2.986   3.069   3.597  0.0887  0.2641  0.5595
 2223SOL    HW118131   3.054   3.123   3.638  1.5515 -2.1849  1.3702
 2223SOL    HW218132   2.919   3.075   3.665 -0.2501 -0.6006  0.2946
 2224SOL     OW18133   0.199   1.462   1.180  0.7363  0.2762 -0.5290
 2224SOL    HW118134   0.179   1.550   1.211  2.5102  0.1643  0.9094
 2224SOL    HW218135   0.269   1.422   1.231 -0.4965  1.8745  2.4475
 2225SOL     OW18136   3.205   2.629   1.409  0.1136 -0.3373  0.4047
 2225SOL    HW118137   3.135   2.591   1.356  0.6849 -1.3300  0.3647
 2225SOL    HW218138   3.160   2.656   1.489  0.9554  1.8703  0.1391
 2226SOL     OW18139   2.628   4.058   4.633 -0.4863  0.2851  0.1834
 2226SOL    HW118140   2.672   4.141   4.651 -0.3201  0.2828 -0.1926
 2226SOL    HW218141   2.699   3.996   4.654 -1.2020 -1.0178 -1.1955
 2227SOL     OW18142   2.262   4.267  12.025 -0.5414 -0.8050 -0.5438
 2227SOL    HW118143   2.222   4.353  12.039  1.9797  0.8140 -3.2775
 2227SOL    HW218144   2.343   4.280  11.975 -0.4128  0.7205  0.0600
 2228SOL     OW18145   4.370   4.653   7.637  0.0689  0.3181  0.0006
 2228SOL    HW118146   4.447   4.604   7.606  1.7566  1.7392  1.9588
 2228SOL    HW218147   4.403   4.686   7.721  0.5041  2.6887 -1.1171
 2229SOL     OW18148   1.321   2.297  14.312  0.6335 -0.2811  0.0404
 2229SOL    HW118149   1.264   2.235  14.267 -0.2039  0.5266 -0.0125
 2229SOL    HW218150   1.390   2.313  14.248  0.3096 -0.3288 -0.3198
 2230SOL     OW18151   4.308   2.210   5.553 -0.1869  0.1069 -0.2211
 2230SOL    HW118152   4.231   2.212   5.610  0.4031 -1.5993  0.6217
 2230SOL    HW218153   4.372   2.259   5.605  1.8393 -2.4649 -0.3187
 2231SOL     OW18154   1.419   1.889  14.968 -0.1583  0.6359 -0.1262
 2231SOL    HW118155   1.399   1.978  14.996  0.6451  0.6683  0.3488
 2231SOL    HW218156   1.351   1.883  14.901  1.0492  1.0998 -1.3876
 2232SOL     OW18157   1.443   2.607   7.426  0.5649  0.0611 -0.2193
 2232SOL    HW118158   1.426   2.669   7.356 -0.1495  1.8514  1.5268
 2232SOL    HW218159   1.413   2.661   7.499  1.1413  0.0259  0.0415
 2233SOL     OW18160   4.138   0.435   9.631 -0.1962  0.1213 -0.1153
 2233SOL    HW118161   4.121   0.529   9.622  1.2868  0.2447 -1.4278
 2233SOL    HW218162   4.051   0.399   9.613 -0.7756  0.3289  2.2288
 2234SOL     OW18163   2.257   4.310   3.675 -0.2015 -0.0056  0.2224
 2234SOL    HW118164   2.260   4.405   3.687  0.7623  0.1956 -1.5492
 2234SOL    HW218165   2.321   4.306   3.604  0.2951 -1.1718  0.7338
 2235SOL     OW18166   2.047   0.823   7.416  0.7219  0.9280 -0.0607
 2235SOL    HW118167   2.013   0.844   7.503  0.9441  0.6219  0.1023
 2235SOL    HW218168   2.129   0.779   7.439  2.3377  4.2386  0.4025
 2236SOL     OW18169   2.343   0.857  14.386  0.3974  0.1901  0.0028
 2236SOL    HW118170   2.316   0.862  14.478  2.1761 -1.4764  0.6239
 2236SOL    HW218171   2.365   0.950  14.374  0.4570  0.3872  1.6263
 2237SOL     OW18172   1.294   0.324  15.281  0.3533  0.1903 -0.5182
 2237SOL    HW118173   1.204   0.355  15.274  0.2630 -0.0715 -0.5249
 2237SOL    HW218174   1.345   0.399  15.309  2.1778 -0.9331 -0.8285
 2238SOL     OW18175   1.932   4.498   5.544  0.6264 -0.2416  0.2660
 2238SOL    HW118176   1.910   4.405   5.533  0.0767 -0.0709 -0.1202
 2238SOL    HW218177   1.957   4.498   5.636  1.3281  2.0498  0.0581
 2239SOL     OW18178   3.115   3.238   6.383 -0.6918  0.2760 -0.3051
 2239SOL    HW118179   3.026   3.215   6.356 -0.6654  2.7153 -2.3986
 2239SOL    HW218180   3.161   3.156   6.400 -0.3371  0.7486  1.0696
 2240SOL     OW18181   0.787   1.490  13.011 -0.4747  0.1648 -0.3900
 2240SOL    HW118182   0.873   1.530  13.023 -0.3682 -0.0865 -0.3017
 2240SOL    HW218183   0.731   1.543  13.067  1.1960  1.3911  0.0911
 2241SOL     OW18184   2.406   0.733   7.270  0.2191 -0.5128 -0.9810
 2241SOL    HW118185   2.412   0.640   7.250  1.2945 -0.4142 -1.1035
 2241SOL    HW218186   2.494   0.759   7.242  0.1308  0.4896 -0.3353
 2242SOL     OW18187   1.552   1.148   6.130 -0.5251  0.3617  0.1633
 2242SOL    HW118188   1.587   1.181   6.213  0.5793  0.7986 -0.4680
 2242SOL    HW218189   1.563   1.228   6.078 -0.6665 -0.6272 -1.3839
 2243SOL     OW18190   2.531   2.283   9.652 -0.0863  0.5170 -0.2342
 2243SOL    HW118191   2.515   2.323   9.738  1.6723  2.2869 -0.7055
 2243SOL    HW218192   2.520   2.189   9.659 -3.1501  0.7696 -1.6755
 2244SOL     OW18193   0.856   2.729  13.947 -0.2803 -0.2897 -0.0354
 2244SOL    HW118194   0.801   2.666  13.993 -0.4100 -0.8167 -0.9121
 2244SOL    HW218195   0.853   2.793  14.019  0.1848 -0.2948 -0.0087
 2245SOL     OW18196   4.493   3.404   8.954  0.5759 -0.6835  0.3793
 2245SOL    HW118197   4.497   3.329   9.013  1.5847 -0.9871 -0.0683
 2245SOL    HW218198   4.436   3.356   8.893  0.5277  0.5127 -0.5219
 2246SOL     OW18199   2.402   0.832   3.272 -0.2598 -0.1065  0.0748
 2246SOL    HW118200   2.413   0.920   3.235  0.9153 -1.4082 -2.6733
 2246SOL    HW218201   2.494   0.807   3.275 -0.3053 -0.5067 -1.7810
 2247SOL     OW18202   3.937   3.047  10.861 -0.2409  0.0023 -0.3419
 2247SOL    HW118203   3.977   3.066  10.776 -0.7871  0.8928 -0.3973
 2247SOL    HW218204   3.903   3.130  10.892  2.2814  1.4353 -1.3762
 2248SOL     OW18205   1.663   4.250   1.623  0.6256  0.0158  0.2714
 2248SOL    HW118206   1.719   4.215   1.553  1.4042  2.4178 -0.3442
 2248SOL    HW218207   1.729   4.265   1.690  0.4802  2.1771 -0.0553
 2249SOL     OW18208   4.396   4.085   9.107  0.5005 -0.1930  0.0980
 2249SOL    HW118209   4.429   4.058   9.021  0.4495  0.2081 -0.0500
 2249SOL    HW218210   4.454   4.028   9.157  0.7620  1.4490  1.6969
 2250SOL     OW18211   0.332   1.744   4.100  0.4032  0.0633  0.0405
 2250SOL    HW118212   0.315   1.837   4.111 -0.7542 -0.2041  0.5298
 2250SOL    HW218213   0.276   1.706   4.168  0.4449 -3.0506 -1.6264
 2251SOL     OW18214   3.840   4.234   6.709 -0.0429  0.3639 -0.2358
 2251SOL    HW118215   3.861   4.144   6.686  0.3481 -0.4402  3.1823
 2251SOL    HW218216   3.914   4.256   6.767  1.0730 -2.3206 -0.6547
 2252SOL     OW18217   2.738   3.053  11.864 -0.1174 -0.3360  0.2615
 2252SOL    HW118218   2.715   3.146  11.860  0.5076 -0.1803  0.1650
 2252SOL    HW218219   2.759   3.040  11.956  0.2981  1.1851  0.3960
 2253SOL     OW18220   3.215   1.818   3.738 -0.2569  0.4247 -0.5131
 2253SOL    HW118221   3.156   1.849   3.806  0.9209  1.1927  0.1627
 2253SOL    HW218222   3.220   1.891   3.676  2.3355 -0.1588 -1.0046
 2254SOL     OW18223   1.352   2.727  15.949  0.0394  0.1152  0.3047
 2254SOL    HW118224   1.285   2.658  15.948  0.6154 -0.4268 -0.6175
 2254SOL    HW218225   1.295   2.798  15.919  0.2863 -0.1052 -0.6921
 2255SOL     OW18226   0.061   2.535  10.791 -0.2398  0.4452  0.0870
 2255SOL    HW118227   4.714   2.486  10.829  0.4817 -0.5266  0.2153
 2255SOL    HW218228   0.047   2.490  10.708 -0.9618  1.9663 -0.6110
 2256SOL     OW18229   2.718   1.434   3.772  0.2728 -0.3105  0.4987
 2256SOL    HW118230   2.775   1.511   3.775  1.5386 -1.1176 -3.6793
 2256SOL    HW218231   2.700   1.420   3.679  2.0158 -1.2355  0.3119
 2257SOL     OW18232   0.342   4.583   3.208 -0.0096 -0.6154  0.2303
 2257SOL    HW118233   0.325   4.652   3.145 -0.5264 -0.8139  0.1529
 2257SOL    HW218234   0.437   4.577   3.212 -0.0115 -0.7489  0.0663
 2258SOL     OW18235   3.663   3.525   9.040  0.3420 -0.3221  0.4641
 2258SOL    HW118236   3.717   3.527   9.119  0.4313 -0.0305  0.3930
 2258SOL    HW218237   3.584   3.567   9.076 -0.1769  0.1124 -1.2008
 2259SOL     OW18238   3.130   4.590  13.372 -0.1955  0.4387  0.2765
 2259SOL    HW118239   3.174   4.506  13.357  1.1555  1.1900  0.0052
 2259SOL    HW218240   3.054   4.582  13.314  0.8138  0.1574 -1.0261
 2260SOL     OW18241   3.533   4.184   9.105 -0.3215  0.0983 -0.4789
 2260SOL    HW118242   3.469   4.202   9.036 -0.7959  1.3725  0.3005
 2260SOL    HW218243   3.541   4.271   9.142  0.3304  0.1190 -0.6684
 2261SOL     OW18244   3.007   3.899   4.147 -0.2153  0.1196  0.0720
 2261SOL    HW118245   3.010   3.882   4.052  0.2450  0.1790  0.0764
 2261SOL    HW218246   3.022   3.811   4.178  0.7739  0.2696 -0.0012
 2262SOL     OW18247   1.212   4.506   5.188  0.2682 -0.0363  0.0807
 2262SOL    HW118248   1.133   4.504   5.242  1.2996  0.5299  1.5975
 2262SOL    HW218249   1.195   4.579   5.128  0.2462  2.0526  2.6616
 2263SOL     OW18250   3.698   1.352   4.509 -0.7702 -0.6699 -0.5603
 2263SOL    HW118251   3.607   1.328   4.526 -0.9388  1.6826  1.7927
 2263SOL    HW218252   3.711   1.284   4.443  2.8219  1.4673 -1.9994
 2264SOL     OW18253   1.949   3.006  15.781 -0.6024  0.3793  0.0516
 2264SOL    HW118254   1.963   3.066  15.855  0.6838 -1.9480  1.6929
 2264SOL    HW218255   1.884   3.050  15.726  1.0707  1.6296 -0.9489
 2265SOL     OW18256   1.096   1.361  16.448 -0.5505  0.3268 -0.3550
 2265SOL    HW118257   1.070   1.276  16.413  2.7587 -0.5875 -0.6538
 2265SOL    HW218258   1.093   1.414  16.369  1.3314  2.5383  1.0391
 2266SOL     OW18259   2.257   3.928   2.834 -0.0544  0.2144 -0.2032
 2266SOL    HW118260   2.298   4.002   2.789 -0.5210 -0.5341 -1.8613
 2266SOL    HW218261   2.279   3.862   2.769 -1.0226 -0.6459  0.3542
 2267SOL     OW18262   0.090   3.301   2.616  0.0991 -0.4256  0.4500
 2267SOL    HW118263   0.164   3.241   2.629 -2.5876 -3.6107  0.9701
 2267SOL    HW218264   0.024   3.237   2.591  0.3508 -0.6370  0.3271
 2268SOL     OW18265   3.042   3.332  16.295  0.3443 -0.1297 -0.0551
 2268SOL    HW118266   3.109   3.394  16.321 -0.5326  1.4288 -1.5104
 2268SOL    HW218267   3.027   3.344  16.201 -1.0170  3.4911  0.6566
 2269SOL     OW18268   1.794   2.403  13.252  0.5165 -0.2469 -0.7566
 2269SOL    HW118269   1.784   2.377  13.161  0.9044 -1.0328 -0.5758
 2269SOL    HW218270   1.808   2.318  13.294 -1.2494 -0.8722 -1.4266
 2270SOL     OW18271   0.256   3.786   4.564  0.1625 -0.3091 -0.7653
 2270SOL    HW118272   0.253   3.877   4.594 -0.0685 -0.7290  0.4981
 2270SOL    HW218273   0.193   3.740   4.620  0.6479 -0.4328 -0.3264
 2271SOL     OW18274   2.663   0.848   9.393 -0.1919  0.5219  0.2524
 2271SOL    HW118275   2.651   0.776   9.331 -0.0794  1.0374 -0.3609
 2271SOL    HW218276   2.743   0.894   9.369  0.4434 -1.1514 -0.8819
 2272SOL     OW18277   0.837   0.220   4.267 -0.0922 -0.1141 -0.1919
 2272SOL    HW118278   0.898   0.180   4.204 -1.8995  1.0112 -2.6578
 2272SOL    HW218279   0.757   0.191   4.224 -0.5708  0.5102  0.2927
 2273SOL     OW18280   1.182   2.760   0.664 -0.1930  0.1414  0.0592
 2273SOL    HW118281   1.213   2.670   0.654 -1.5504 -0.1274 -1.9159
 2273SOL    HW218282   1.101   2.747   0.714 -0.2788 -1.1293 -0.3985
 2274SOL     OW18283   3.021   4.045   8.673 -0.3875  0.2631 -0.1743
 2274SOL    HW118284   3.026   4.109   8.745  1.8615  1.3939 -1.3213
 2274SOL    HW218285   3.071   3.972   8.709 -2.8021 -1.3545 -0.1168
 2275SOL     OW18286   4.019   2.889   3.369 -0.3281  0.2669 -0.0342
 2275SOL    HW118287   3.948   2.953   3.364  0.6438  1.2469 -1.2234
 2275SOL    HW218288   3.974   2.822   3.317 -0.4238  0.7714 -0.5963
 2276SOL     OW18289   2.804   3.725   5.032 -0.4053 -0.1224 -0.2298
 2276SOL    HW118290   2.865   3.766   4.971 -1.5244 -0.7436 -1.7844
 2276SOL    HW218291   2.832   3.721   5.123  1.0935  1.5214 -0.6166
 2277SOL     OW18292   1.444   1.883  11.176  0.3314  0.1013  0.1809
 2277SOL    HW118293   1.460   1.792  11.154 -0.6676  0.1026 -0.5285
 2277SOL    HW218294   1.410   1.918  11.094  0.4148  0.3747  0.2632
 2278SOL     OW18295   1.288   0.618  17.276  0.4476 -0.7699  0.2006
 2278SOL    HW118296   1.201   0.592  17.305 -0.9093 -0.3679 -3.5531
 2278SOL    HW218297   1.279   0.613  17.181  0.7071 -2.7183  0.2606
 2279SOL     OW18298   2.989   0.639   2.363  0.7993  0.0266 -0.0936
 2279SOL    HW118299   2.998   0.565   2.423 -0.3050 -1.1498 -1.3751
 2279SOL    HW218300   3.059   0.696   2.395 -2.0182  2.4342  1.8349
 2280SOL     OW18301   0.883   2.671  15.842  0.5564 -0.9184  0.3888
 2280SOL    HW118302   0.845   2.604  15.898 -1.0142 -1.8655 -1.8360
 2280SOL    HW218303   0.933   2.718  15.909  1.5506 -0.8351 -0.4008
 2281SOL     OW18304   0.667   1.458   2.886  0.1484  0.1881 -0.2747
 2281SOL    HW118305   0.590   1.508   2.860 -1.4415 -1.0371  2.0259
 2281SOL    HW218306   0.734   1.526   2.891  1.4174 -0.9368 -1.8190
 2282SOL     OW18307   0.121   2.698   5.076  0.0412 -0.3180  0.4082
 2282SOL    HW118308   0.089   2.753   5.004 -0.4181 -2.5912 -1.1461
 2282SOL    HW218309   0.215   2.706   5.059 -0.1648  0.5886 -0.2977
 2283SOL     OW18310   4.670   2.279   5.532  0.0318  0.2826  0.3805
 2283SOL    HW118311   0.026   2.315   5.564  0.1251 -1.4782  2.1268
 2283SOL    HW218312   4.674   2.258   5.439 -0.5030  1.5158  0.0711
 2284SOL     OW18313   3.021   4.353  16.712 -0.0697  0.3720  0.0338
 2284SOL    HW118314   3.067   4.339  16.796 -0.3891 -0.0314  0.1426
 2284SOL    HW218315   3.095   4.379  16.657 -0.6376  0.1981 -0.8002
 2285SOL     OW18316   4.087   0.981   4.844 -0.3461 -1.2432 -0.7650
 2285SOL    HW118317   4.153   0.979   4.775  1.1025 -0.3710  0.5804
 2285SOL    HW218318   4.139   1.009   4.920  1.2835 -2.6977 -1.3599
 2286SOL     OW18319   2.824   2.532  16.367  0.3901  0.3135 -0.5681
 2286SOL    HW118320   2.798   2.441  16.379 -0.0712  0.3912 -0.9635
 2286SOL    HW218321   2.871   2.531  16.283 -1.9128 -1.0852 -1.8184
 2287SOL     OW18322   0.332   2.792   3.333 -0.1179 -0.0858 -0.5882
 2287SOL    HW118323   0.277   2.810   3.257 -0.7871  0.4081  0.0145
 2287SOL    HW218324   0.288   2.851   3.394 -1.4679 -1.4740 -0.2048
 2288SOL     OW18325   2.286   4.447   4.206  1.0289 -0.3135 -0.0183
 2288SOL    HW118326   2.233   4.476   4.280  0.5770 -0.9547 -0.0895
 2288SOL    HW218327   2.237   4.367   4.187 -1.1769  0.1280  3.9227
 2289SOL     OW18328   4.402   2.344   8.449 -0.2621  0.0820  0.2980
 2289SOL    HW118329   4.414   2.353   8.544  0.9112 -1.2258  0.2718
 2289SOL    HW218330   4.423   2.432   8.417 -0.8419 -0.3106 -1.1773
 2290SOL     OW18331   2.391   3.882  16.816  0.1594  0.5540 -0.2453
 2290SOL    HW118332   2.363   3.961  16.862  2.4704 -0.0503  2.1448
 2290SOL    HW218333   2.464   3.851  16.868 -1.2732 -2.4194 -0.0105
 2291SOL     OW18334   1.211   0.510   7.635 -0.7025  0.0491 -0.0078
 2291SOL    HW118335   1.284   0.503   7.697 -0.4861  1.1343 -0.1443
 2291SOL    HW218336   1.142   0.548   7.688  0.0668  1.6226 -0.1487
 2292SOL     OW18337   2.253   0.731   9.100  0.1136  0.0967 -0.6939
 2292SOL    HW118338   2.299   0.649   9.080  1.0205  0.3389  0.3862
 2292SOL    HW218339   2.325   0.794   9.094 -1.3969  1.7541 -1.2138
 2293SOL     OW18340   0.721   3.687  17.605 -0.1338  0.5963 -0.2329
 2293SOL    HW118341   0.791   3.622  17.608 -0.1192  0.6111 -0.2506
 2293SOL    HW218342   0.650   3.630  17.632 -0.3357  0.8811 -0.1636
 2294SOL     OW18343   1.619   4.595   5.968  0.6227 -0.5064  0.9667
 2294SOL    HW118344   1.682   4.637   6.027  0.6591  1.2639 -0.3335
 2294SOL    HW218345   1.538   4.631   6.003  1.0163 -1.7839  3.1844
 2295SOL     OW18346   2.126   3.304   3.810 -0.5851  0.0166 -0.2480
 2295SOL    HW118347   2.073   3.347   3.744 -1.2187  1.5550  1.2650
 2295SOL    HW218348   2.180   3.244   3.759  0.3619  0.3555  0.3579
 2296SOL     OW18349   2.605   1.162   3.838 -0.1726  0.0437 -0.7908
 2296SOL    HW118350   2.643   1.120   3.760  2.0691 -0.3483  0.5084
 2296SOL    HW218351   2.656   1.243   3.828  2.2964 -1.3674  0.3140
 2297SOL     OW18352   2.877   0.581   2.130  0.8141  0.5413 -0.0358
 2297SOL    HW118353   2.936   0.625   2.192  0.4014 -0.5628  1.1319
 2297SOL    HW218354   2.822   0.534   2.192  0.9295 -0.5629 -0.7857
 2298SOL     OW18355   0.530   4.573  10.590  0.3409 -0.3166 -0.0261
 2298SOL    HW118356   0.492   4.588  10.677  0.9323 -0.9255  0.3306
 2298SOL    HW218357   0.546   4.479  10.596  0.5136 -0.0999  2.7366
 2299SOL     OW18358   4.445   3.147   7.413  0.2266 -0.1897 -0.7687
 2299SOL    HW118359   4.500   3.068   7.417  1.8380  1.0111  0.4358
 2299SOL    HW218360   4.432   3.153   7.507  0.3591  0.6991 -0.8138
 2300SOL     OW18361   2.418   2.254   7.211 -0.4746 -0.7784 -0.3465
 2300SOL    HW118362   2.348   2.307   7.171  0.1117 -0.7388 -1.3246
 2300SOL    HW218363   2.397   2.279   7.301 -1.0064 -2.5035 -0.0052
 2301SOL     OW18364   2.495   1.963   3.687  0.3352  0.3952 -0.6357
 2301SOL    HW118365   2.561   2.030   3.670 -1.7869  2.8115  0.7075
 2301SOL    HW218366   2.413   2.010   3.678  0.4722  0.3890 -1.8950
 2302SOL     OW18367   2.716   0.285   2.816  0.3856  0.5549 -0.1232
 2302SOL    HW118368   2.771   0.284   2.738  0.8144 -0.8454  0.2118
 2302SOL    HW218369   2.703   0.377   2.840 -3.4246  0.8306 -3.2967
 2303SOL     OW18370   4.421   2.451   9.811 -0.1104  0.5466 -0.0505
 2303SOL    HW118371   4.494   2.395   9.836 -0.6183  0.2743  0.8435
 2303SOL    HW218372   4.444   2.540   9.837 -0.0108 -0.0597  1.9291
 2304SOL     OW18373   3.173   0.337   4.268  0.2664 -0.7695  0.2184
 2304SOL    HW118374   3.169   0.389   4.188  1.9574  0.1516  0.7466
 2304SOL    HW218375   3.246   0.278   4.250 -0.4918 -1.9819  1.1608
 2305SOL     OW18376   0.699   1.464   8.477 -0.0275  0.1159 -0.4699
 2305SOL    HW118377   0.760   1.419   8.535 -0.2135  2.6713  1.7368
 2305SOL    HW218378   0.677   1.398   8.411 -0.0546 -1.0761  0.7327
 2306SOL     OW18379   0.818   0.379   6.325 -0.5315  0.1005  0.3532
 2306SOL    HW118380   0.736   0.353   6.284 -1.5953  0.8302  2.0403
 2306SOL    HW218381   0.876   0.314   6.286 -0.1209  0.7599 -0.1330
 2307SOL     OW18382   1.699   2.999   4.247  0.3135 -0.2251  0.1071
 2307SOL    HW118383   1.753   3.064   4.292 -0.4135  0.0001  0.6629
 2307SOL    HW218384   1.649   3.059   4.192 -0.3751 -0.7192  0.1918
 2308SOL     OW18385   4.207   0.032   1.614 -0.1448 -0.2005  0.4095
 2308SOL    HW118386   4.285   0.053   1.564 -1.1714  1.3936 -0.5447
 2308SOL    HW218387   4.168   4.690   1.559 -0.7831  0.1404  0.4347
 2309SOL     OW18388   4.350   3.947   2.150 -0.0394 -0.3551  0.3375
 2309SOL    HW118389   4.436   3.970   2.186  1.2159 -1.9501 -1.6137
 2309SOL    HW218390   4.337   4.028   2.101  0.1995 -2.2281 -2.7989
 2310SOL     OW18391   1.983   1.167   4.705  0.9365 -0.2275 -0.2315
 2310SOL    HW118392   1.917   1.200   4.645 -0.4160  0.0918  1.4351
 2310SOL    HW218393   2.010   1.084   4.666 -0.5122 -0.4863 -0.6879
 2311SOL     OW18394   0.945   2.993   7.617 -0.2193 -1.0443 -0.1033
 2311SOL    HW118395   0.923   2.913   7.568 -0.2275 -0.1410 -1.5575
 2311SOL    HW218396   1.022   2.960   7.662  0.0026  0.6805  0.7480
 2312SOL     OW18397   3.235   3.789   4.495 -0.9916  0.1176 -0.4631
 2312SOL    HW118398   3.239   3.720   4.561 -4.2905 -0.3889 -0.7776
 2312SOL    HW218399   3.146   3.788   4.459 -0.4404  2.5487 -1.9559
 2313SOL     OW18400   2.203   3.494   1.476 -0.7499 -0.7334 -0.1188
 2313SOL    HW118401   2.251   3.474   1.556 -1.2148 -1.6768 -0.0655
 2313SOL    HW218402   2.224   3.586   1.459 -1.3856  0.1370  3.8573
 2314SOL     OW18403   0.452   3.256   4.928  0.2476  0.1808 -0.3030
 2314SOL    HW118404   0.435   3.345   4.958  0.5931 -0.3932  1.5747
 2314SOL    HW218405   0.365   3.216   4.931  0.3845 -0.1068 -0.1657
 2315SOL     OW18406   2.012   2.586   7.443 -0.1438  0.3951 -0.6217
 2315SOL    HW118407   2.051   2.532   7.373 -0.1166  1.1991 -1.2300
 2315SOL    HW218408   1.926   2.608   7.406 -2.4049 -2.1436  3.0924
 2316SOL     OW18409   4.298   1.751   8.338  0.2972  0.4239  0.2060
 2316SOL    HW118410   4.237   1.818   8.368 -0.3316 -0.2026  0.3148
 2316SOL    HW218411   4.361   1.744   8.411 -0.5326  1.1646  0.9884
 2317SOL     OW18412   0.130   0.049  15.534  0.1146  0.3373 -0.8348
 2317SOL    HW118413   0.103   4.721  15.608  1.4649  1.5833  0.5780
 2317SOL    HW218414   0.052   0.104  15.529 -1.4282 -1.7110  0.6464
 2318SOL     OW18415   1.523   1.551   6.014  0.1456  0.6542 -0.2023
 2318SOL    HW118416   1.592   1.492   5.984  0.5254  0.3588  1.2902
 2318SOL    HW218417   1.554   1.587   6.097 -1.7400  0.9438  0.3799
 2319SOL     OW18418   4.494   0.682   5.233 -0.1067  0.7381  0.1826
 2319SOL    HW118419   4.433   0.752   5.253 -0.3773  0.4356  0.4138
 2319SOL    HW218420   4.560   0.726   5.179  0.8116 -0.1744  0.5593
 2320SOL     OW18421   1.949   3.670   1.422  0.0383  0.3212  0.5996
 2320SOL    HW118422   1.947   3.576   1.435 -0.5402  0.2934  0.3286
 2320SOL    HW218423   2.040   3.691   1.399  0.6287 -1.6568  1.1918
 2321SOL     OW18424   3.197   2.180   5.317 -0.2993  0.5916 -0.1977
 2321SOL    HW118425   3.153   2.096   5.331  1.6198  0.1368  3.1199
 2321SOL    HW218426   3.290   2.159   5.326 -0.6163 -0.4745  0.6087
 2322SOL     OW18427   1.879   4.029   5.249 -0.5355  0.3636 -0.2731
 2322SOL    HW118428   1.949   3.989   5.197 -0.5141 -0.3528  0.3115
 2322SOL    HW218429   1.859   3.953   5.303 -2.5765  1.3082  0.2826
 2323SOL     OW18430   0.001   4.223  12.235 -0.5270  0.5184 -0.4304
 2323SOL    HW118431   4.667   4.180  12.295  0.8089 -1.1720 -0.2814
 2323SOL    HW218432   0.051   4.158  12.186  0.2237 -0.1659  1.2752
 2324SOL     OW18433   1.022   1.817  17.332 -0.4823 -0.1710  0.1547
 2324SOL    HW118434   0.993   1.737  17.287  0.6420 -1.7484  2.2415
 2324SOL    HW218435   1.011   1.880  17.261  1.1289  0.8010  0.7750
 2325SOL     OW18436   3.111   0.315  11.547 -0.0741 -0.4073  0.2290
 2325SOL    HW118437   3.206   0.305  11.551 -0.1758 -2.3049 -1.7620
 2325SOL    HW218438   3.089   0.334  11.638  0.2971  0.4423  0.1465
 2326SOL     OW18439   2.655   1.340   2.453  0.0496  0.8520 -0.0428
 2326SOL    HW118440   2.639   1.325   2.359 -0.0102 -0.7498  0.2226
 2326SOL    HW218441   2.653   1.246   2.473 -1.2321  0.7438 -0.6784
 2327SOL     OW18442   4.522   1.642   1.944  0.5807  0.1588  0.1762
 2327SOL    HW118443   4.544   1.659   1.853  1.1728 -4.0162 -0.4833
 2327SOL    HW218444   4.589   1.697   1.984 -0.8063  1.2179  1.0328
 2328SOL     OW18445   3.378   0.526   6.889  0.0272 -0.1006 -0.1746
 2328SOL    HW118446   3.433   0.462   6.932  0.3849  0.8608  0.7996
 2328SOL    HW218447   3.388   0.591   6.958 -0.6106  1.8590 -1.9089
 2329SOL     OW18448   0.504   3.193  14.643 -0.4548 -0.1934  0.4205
 2329SOL    HW118449   0.409   3.182  14.636 -0.0927 -2.6405 -0.5948
 2329SOL    HW218450   0.504   3.255  14.715 -0.8190 -0.4897  0.6747
 2330SOL     OW18451   2.053   0.673   6.340 -0.3821 -0.3289 -0.2311
 2330SOL    HW118452   2.143   0.652   6.317 -0.0407  0.9404 -0.0478
 2330SOL    HW218453   2.011   0.699   6.258  0.7501 -0.3346 -0.8034
 2331SOL     OW18454   1.169   3.118  16.111 -0.5343  0.2948  0.5753
 2331SOL    HW118455   1.204   3.059  16.178  0.0756 -0.2150 -0.1976
 2331SOL    HW218456   1.241   3.178  16.091  1.2764 -1.9528  0.3527
 2332SOL     OW18457   2.443   1.672   9.847 -0.0124 -0.6373 -0.1850
 2332SOL    HW118458   2.434   1.630   9.932 -0.2134  0.4824  0.3470
 2332SOL    HW218459   2.378   1.628   9.792 -0.9030 -1.2586  1.3643
 2333SOL     OW18460   3.268   4.705   6.259  0.6217 -0.1659  0.5471
 2333SOL    HW118461   3.314   4.709   6.174 -0.9213  4.0817 -0.0763
 2333SOL    HW218462   3.348   4.696   6.311  0.9292 -0.2968  0.0541
 2334SOL     OW18463   3.967   2.269   8.929 -0.5261  0.1377 -0.5795
 2334SOL    HW118464   4.055   2.236   8.911 -1.1433 -1.9907  0.2694
 2334SOL    HW218465   3.937   2.204   8.993  0.1671  1.7064  1.3563
 2335SOL     OW18466   4.435   4.686  13.290 -0.0405  0.0822  0.2684
 2335SOL    HW118467   4.379   4.703  13.366 -0.6163 -0.4539 -0.0334
 2335SOL    HW218468   4.520   4.706  13.328 -0.2850 -0.0144  0.8691
 2336SOL     OW18469   2.953   1.435   4.664  0.1864  0.0948  0.0628
 2336SOL    HW118470   3.049   1.437   4.654  0.3583  0.6908  1.9241
 2336SOL    HW218471   2.917   1.464   4.580  0.6806  0.6808  0.0459
 2337SOL     OW18472   2.200   0.201   1.080 -0.1985 -0.3081  0.4708
 2337SOL    HW118473   2.163   0.113   1.073 -0.4716 -0.0379 -1.2658
 2337SOL    HW218474   2.283   0.190   1.035 -0.8790  2.0602 -1.3544
 2338SOL     OW18475   2.498   2.960   2.405  0.0107  0.1182  0.0885
 2338SOL    HW118476   2.461   2.917   2.328  0.3306  2.1250 -1.1844
 2338SOL    HW218477   2.564   3.019   2.369  0.6981 -0.4391  0.4380
 2339SOL     OW18478   4.131   4.503   8.557 -0.5476  0.2399  0.2921
 2339SOL    HW118479   4.053   4.559   8.564 -0.1638  0.7315  0.6211
 2339SOL    HW218480   4.106   4.414   8.532 -0.5675 -0.2467  2.0546
 2340SOL     OW18481   2.685   2.836  17.560  0.0295  0.4782 -0.3701
 2340SOL    HW118482   2.746   2.803  17.626 -0.5487  1.4653  0.6442
 2340SOL    HW218483   2.635   2.899  17.611  0.9309  0.6003  0.3458
 2341SOL     OW18484   3.483   1.799   6.063 -0.5620 -0.0479  0.1831
 2341SOL    HW118485   3.556   1.772   6.007  0.4121 -2.0803  2.4315
 2341SOL    HW218486   3.438   1.865   6.011 -1.0812 -1.2173 -0.8433
 2342SOL     OW18487   1.379   2.872   4.174  0.0167 -0.5745 -0.3458
 2342SOL    HW118488   1.469   2.848   4.194 -0.1644 -1.3048 -0.3937
 2342SOL    HW218489   1.345   2.891   4.261  1.8479 -0.5734  0.3732
 2343SOL     OW18490   2.005   0.091   9.697  0.0486  0.5331 -0.1733
 2343SOL    HW118491   2.018   4.723   9.700 -0.6794  0.4489  0.4503
 2343SOL    HW218492   2.094   0.125   9.688 -0.1557  0.5745 -2.1322
 2344SOL     OW18493   2.606   0.300   3.117 -0.0658 -0.1958  0.1848
 2344SOL    HW118494   2.649   0.363   3.060 -0.6904  2.3764  2.5453
 2344SOL    HW218495   2.519   0.340   3.113 -1.8939 -4.2035  0.1966
 2345SOL     OW18496   2.542   0.411   9.828 -0.9924  0.3085  0.8602
 2345SOL    HW118497   2.464   0.467   9.828 -0.3118  1.2650  1.2314
 2345SOL    HW218498   2.613   0.476   9.824 -2.1413  1.4055 -1.9986
 2346SOL     OW18499   2.691   2.508  13.733 -0.0450  0.0365 -0.3680
 2346SOL    HW118500   2.644   2.542  13.657  1.2063 -2.2546 -2.1791
 2346SOL    HW218501   2.721   2.425  13.695  0.8940  0.6007 -0.8367
 2347SOL     OW18502   3.126   2.080   2.083  0.3767 -0.1976  0.6543
 2347SOL    HW118503   3.033   2.093   2.067  0.8113 -0.0670 -1.7710
 2347SOL    HW218504   3.135   1.994   2.042 -0.1509  0.0198  0.0995
 2348SOL     OW18505   4.176   0.977  13.797  0.1554 -0.1651  0.2228
 2348SOL    HW118506   4.175   1.054  13.740  2.4613  0.2459  0.7324
 2348SOL    HW218507   4.206   0.913  13.733 -0.5715  0.4724 -0.7498
 2349SOL     OW18508   4.328   0.612  13.767  0.4697 -0.5913 -0.2898
 2349SOL    HW118509   4.262   0.636  13.702 -1.6481 -0.8445  1.7749
 2349SOL    HW218510   4.282   0.544  13.816 -0.6729  0.1343 -0.3635
 2350SOL     OW18511   3.595   0.939   8.875  0.5086 -0.1165 -0.0109
 2350SOL    HW118512   3.591   1.035   8.883 -0.7658  0.1509 -3.7899
 2350SOL    HW218513   3.504   0.909   8.870  1.2951 -2.8631  2.6767
 2351SOL     OW18514   2.824   0.307  17.675  0.3124  0.1561  0.2808
 2351SOL    HW118515   2.780   0.342   0.046 -1.2274  1.5482 -1.2186
 2351SOL    HW218516   2.799   0.382  17.622 -1.4536 -1.7445 -1.5884
 2352SOL     OW18517   2.247   3.765   7.827 -0.4093  0.2863  0.2259
 2352SOL    HW118518   2.166   3.737   7.871  0.0249  0.3985  1.1089
 2352SOL    HW218519   2.307   3.701   7.865  0.7521  1.2772  0.0660
 2353SOL     OW18520   2.420   1.689   7.757  0.2656 -0.4042 -0.4935
 2353SOL    HW118521   2.514   1.699   7.740  0.3190  1.0562  0.6779
 2353SOL    HW218522   2.413   1.593   7.762  1.9013 -0.5452 -0.8576
 2354SOL     OW18523   1.534   1.000   5.825 -0.4215 -0.0236 -0.3960
 2354SOL    HW118524   1.472   0.934   5.858  0.4031 -0.3521  0.4869
 2354SOL    HW218525   1.596   0.982   5.895  1.2990  1.9533 -1.4264
 2355SOL     OW18526   2.476   0.215   4.161  0.4948  0.3423 -0.7779
 2355SOL    HW118527   2.454   0.159   4.086 -0.2172  0.0270 -0.3300
 2355SOL    HW218528   2.502   0.152   4.228  0.2315  2.2621  1.1039
 2356SOL     OW18529   1.572   1.724  15.272 -0.6430  0.0338 -0.1468
 2356SOL    HW118530   1.597   1.815  15.284  0.3457 -0.3427  0.6587
 2356SOL    HW218531   1.613   1.713  15.186 -0.9587  2.9134 -0.6578
 2357SOL     OW18532   2.704   4.530   8.276 -0.3831 -0.6240 -0.2262
 2357SOL    HW118533   2.694   4.623   8.295 -2.6427 -1.3421  2.1334
 2357SOL    HW218534   2.645   4.521   8.202  1.0571  0.2673 -1.4845
 2358SOL     OW18535   4.440   2.942  13.158  0.0093  0.1304 -0.0179
 2358SOL    HW118536   4.490   2.939  13.076  1.1232 -0.4459  0.6848
 2358SOL    HW218537   4.367   2.882  13.141 -0.8126  0.4825  2.3351
 2359SOL     OW18538   4.551   3.818   6.070  0.8207  0.2747  0.0257
 2359SOL    HW118539   4.554   3.736   6.119  0.0181  0.3159  0.1304
 2359SOL    HW218540   4.545   3.881   6.142  0.6466 -1.6433  1.6959
 2360SOL     OW18541   2.369   1.111   8.249  0.0881 -0.0740 -0.3979
 2360SOL    HW118542   2.295   1.061   8.284 -0.4180  1.2184  0.3965
 2360SOL    HW218543   2.339   1.202   8.244 -1.3392 -0.4963  0.2223
 2361SOL     OW18544   0.115   1.999   9.788 -0.0344 -0.5030 -0.5706
 2361SOL    HW118545   0.037   2.018   9.840 -1.0363  0.3813 -2.3924
 2361SOL    HW218546   0.178   2.052   9.836 -1.2324 -0.4781  1.0011
 2362SOL     OW18547   0.491   1.209   4.007 -0.0411 -0.0811  0.4858
 2362SOL    HW118548   0.420   1.219   4.070  0.3407  0.5322  0.8247
 2362SOL    HW218549   0.456   1.252   3.929  2.0533 -0.1564 -0.5039
 2363SOL     OW18550   4.576   0.805   7.606 -0.1289  0.1281  0.4950
 2363SOL    HW118551   4.488   0.811   7.642  0.4270 -1.1126  2.0893
 2363SOL    HW218552   4.619   0.876   7.654 -0.1319 -0.4785  1.3941
 2364SOL     OW18553   2.135   1.776   4.427  0.1186  0.1499  0.3118
 2364SOL    HW118554   2.110   1.763   4.336  4.1530 -0.1361 -0.7506
 2364SOL    HW218555   2.108   1.691   4.461  0.9135 -0.4011 -0.4239
 2365SOL     OW18556   3.674   3.209   8.011 -0.6200  0.0061 -0.0361
 2365SOL    HW118557   3.578   3.213   8.006 -0.6155 -1.0634 -1.0691
 2365SOL    HW218558   3.687   3.118   8.038 -0.8636  0.0707  0.3002
 2366SOL     OW18559   3.768   2.691   2.521  0.7899  0.2444  0.1403
 2366SOL    HW118560   3.682   2.687   2.562  1.3737  0.2095  1.3706
 2366SOL    HW218561   3.763   2.627   2.451  0.5461 -1.1615  1.4382
 2367SOL     OW18562   2.304   0.743   7.510 -0.0036 -0.4112  0.0461
 2367SOL    HW118563   2.352   0.736   7.427 -2.2101  1.5501 -1.3654
 2367SOL    HW218564   2.295   0.656   7.550  2.5058 -0.8947 -0.4082
 2368SOL     OW18565   4.178   2.497   5.796 -0.0112  0.0905 -1.0852
 2368SOL    HW118566   4.209   2.586   5.815 -2.8447  1.2952 -2.1374
 2368SOL    HW218567   4.111   2.500   5.864  1.7032  0.4165  0.5897
 2369SOL     OW18568   2.869   2.954   7.451  0.2983  0.0933  0.0281
 2369SOL    HW118569   2.910   2.928   7.534  0.7799 -0.1164 -0.2717
 2369SOL    HW218570   2.870   3.049   7.466  1.2482  0.2893 -1.2940
 2370SOL     OW18571   3.030   3.671   7.844 -0.4895  0.1345  0.7280
 2370SOL    HW118572   3.089   3.595   7.849 -0.2660  0.2147 -0.5626
 2370SOL    HW218573   2.987   3.647   7.762  3.0816  0.0057 -1.1169
 2371SOL     OW18574   1.745   3.987   4.985  0.1452 -0.2585  0.3728
 2371SOL    HW118575   1.650   3.993   4.994  0.2637  2.0699  0.0927
 2371SOL    HW218576   1.756   3.892   4.995  0.0977 -0.5242 -2.0776
 2372SOL     OW18577   1.827   3.882   3.992 -0.1697  0.5666  0.1453
 2372SOL    HW118578   1.922   3.889   3.994 -0.0988  0.1259 -1.3222
 2372SOL    HW218579   1.818   3.801   3.940 -0.8140  0.2690  0.7114
 2373SOL     OW18580   3.410   4.005   9.657 -0.2204 -0.1144 -0.0950
 2373SOL    HW118581   3.465   4.071   9.615 -0.0463  1.4159  2.6044
 2373SOL    HW218582   3.446   3.999   9.745  0.0232 -1.1510 -0.2620
 2374SOL     OW18583   3.298   2.964   8.718 -0.4558  0.3735 -0.6250
 2374SOL    HW118584   3.250   3.025   8.663 -2.5884  0.2212  1.0750
 2374SOL    HW218585   3.243   2.886   8.721 -0.8929  0.8178  2.5643
 2375SOL     OW18586   2.719   3.479   0.622 -0.2368  0.0849  0.6063
 2375SOL    HW118587   2.684   3.496   0.710 -0.3805 -2.4894  1.0395
 2375SOL    HW218588   2.649   3.492   0.558  1.8608 -0.1531 -1.7539
 2376SOL     OW18589   4.307   0.852   6.223 -0.1477  0.1453 -0.3988
 2376SOL    HW118590   4.250   0.848   6.146  1.1262  0.4968 -1.3678
 2376SOL    HW218591   4.394   0.866   6.186  0.3826  1.8219  1.5225
 2377SOL     OW18592   3.472   0.276   3.154  0.3158  0.0077 -0.5101
 2377SOL    HW118593   3.482   0.181   3.159  2.4095  0.2726  0.3386
 2377SOL    HW218594   3.478   0.288   3.059  1.9453  0.4585 -0.3483
 2378SOL     OW18595   0.286   2.379   9.367  0.2338  0.1026  0.0811
 2378SOL    HW118596   0.241   2.377   9.282  0.1994 -0.0200  0.1023
 2378SOL    HW218597   0.310   2.471   9.374  0.3713  0.2542 -2.3625
 2379SOL     OW18598   2.792   2.696  15.373 -0.1522  0.0448  0.0964
 2379SOL    HW118599   2.702   2.678  15.401 -0.2712 -0.6275 -0.7005
 2379SOL    HW218600   2.790   2.791  15.363  1.7448  0.2379  1.7796
 2380SOL     OW18601   2.415   3.360   8.808  0.3407 -0.3903  0.1531
 2380SOL    HW118602   2.323   3.333   8.813 -0.2409  1.6552  0.6829
 2380SOL    HW218603   2.451   3.273   8.823  1.9938  0.4272  0.8922
 2381SOL     OW18604   0.385   0.859   5.487 -1.0421  0.2040  0.5091
 2381SOL    HW118605   0.300   0.849   5.443  1.1682 -1.7017 -3.4046
 2381SOL    HW218606   0.411   0.951   5.482 -0.5686  0.1332  1.7908
 2382SOL     OW18607   2.878   1.140   2.376 -0.4329  0.2793 -0.2046
 2382SOL    HW118608   2.853   1.130   2.467  1.5953 -0.0931  0.3155
 2382SOL    HW218609   2.829   1.063   2.345  1.9145 -1.2666 -0.0974
 2383SOL     OW18610   1.954   3.112  12.562 -0.2688 -0.0144 -0.3471
 2383SOL    HW118611   1.900   3.170  12.616  1.3529 -1.1449  2.4885
 2383SOL    HW218612   1.892   3.039  12.568 -0.1546 -0.2960 -2.8129
 2384SOL     OW18613   1.670   1.749   1.922  0.4707  0.6080  0.0267
 2384SOL    HW118614   1.575   1.753   1.935  0.7123  2.5682  1.2206
 2384SOL    HW218615   1.704   1.680   1.979 -2.0515 -0.4015  0.3176
 2385SOL     OW18616   1.793   1.484   7.368 -0.1718  0.4945  0.9109
 2385SOL    HW118617   1.767   1.396   7.395 -0.8770 -0.0104 -1.4039
 2385SOL    HW218618   1.869   1.504   7.422  0.2636 -0.1711  0.5492
 2386SOL     OW18619   1.669   4.097   3.740  0.1001  0.3552 -0.2664
 2386SOL    HW118620   1.624   4.181   3.737 -1.1905 -0.3449 -0.8632
 2386SOL    HW218621   1.593   4.039   3.735 -0.6989  1.3071  0.9098
 2387SOL     OW18622   1.114   3.314   4.690 -0.1352 -0.1070  0.1830
 2387SOL    HW118623   1.198   3.319   4.735  0.2331  3.0157 -0.7930
 2387SOL    HW218624   1.066   3.386   4.731 -1.7146 -0.5042 -0.9503
 2388SOL     OW18625   3.493   0.041   8.895  0.3335  0.5599  0.0765
 2388SOL    HW118626   3.563   0.089   8.940 -0.3223 -1.2207  2.9284
 2388SOL    HW218627   3.530   0.043   8.806  1.0609 -0.3901  0.3507
 2389SOL     OW18628   0.734   0.957   5.435  0.3801  0.1653  0.1560
 2389SOL    HW118629   0.690   1.041   5.425  0.0229 -0.5349 -4.1268
 2389SOL    HW218630   0.769   0.950   5.346 -0.1219 -0.3875  0.0033
 2390SOL     OW18631   2.201   0.480   0.055  0.7841  0.2069  0.2271
 2390SOL    HW118632   2.165   0.412  17.704  0.3124  0.2688  0.4447
 2390SOL    HW218633   2.187   0.566   0.015 -0.4036  0.1147  0.4318
 2391SOL     OW18634   3.026   2.871   3.395 -1.0154  0.6212  0.2738
 2391SOL    HW118635   3.002   2.943   3.454 -2.2314 -0.7195  1.4023
 2391SOL    HW218636   3.000   2.905   3.310 -3.4071 -0.1832  0.6972
 2392SOL     OW18637   3.640   2.104   7.734  0.4789  0.1026  0.3355
 2392SOL    HW118638   3.724   2.066   7.760  0.9730  1.6145  0.9416
 2392SOL    HW218639   3.586   2.082   7.810  0.1553  3.0802  0.9530
 2393SOL     OW18640   3.183   0.326   7.038 -0.5052 -0.0176 -0.0994
 2393SOL    HW118641   3.120   0.347   7.108  0.7771  4.1971 -0.2056
 2393SOL    HW218642   3.203   0.414   7.007  0.3375 -0.4333 -0.7064
 2394SOL     OW18643   3.092   0.050   7.207 -0.2984 -0.1606  0.3483
 2394SOL    HW118644   3.088   0.006   7.122  0.3898 -0.6211  0.5572
 2394SOL    HW218645   3.174   0.097   7.194 -0.5080  0.5790  1.6310
 2395SOL     OW18646   4.573   2.928  17.228 -0.2659 -0.3581 -0.1166
 2395SOL    HW118647   4.506   2.991  17.198 -0.5208 -0.6916 -0.2508
 2395SOL    HW218648   4.590   2.961  17.316 -1.0614 -1.6703  0.5349
 2396SOL     OW18649   0.854   2.353   3.414 -0.3354 -0.3776 -0.2520
 2396SOL    HW118650   0.812   2.276   3.454  0.3027  0.6299  2.3499
 2396SOL    HW218651   0.914   2.314   3.351  0.1005  1.1478 -0.7847
 2397SOL     OW18652   3.635   0.345   5.000 -0.7515  0.4232  0.1729
 2397SOL    HW118653   3.632   0.331   4.905 -0.3395 -0.3688  0.2766
 2397SOL    HW218654   3.647   0.255   5.031 -1.5896  0.5346  0.8200
 2398SOL     OW18655   2.956   0.356   9.662  0.1284 -0.0300  0.1184
 2398SOL    HW118656   2.866   0.340   9.634  0.2089  1.4318 -0.9436
 2398SOL    HW218657   2.991   0.377   9.576  3.3873  1.6206  1.8417
 2399SOL     OW18658   3.040   0.136   9.806  0.0001 -0.0812  0.2764
 2399SOL    HW118659   3.128   0.129   9.770 -0.5068 -1.6169 -0.6634
 2399SOL    HW218660   3.011   0.227   9.795 -0.7246 -0.1919  1.2722
 2400SOL     OW18661   2.193   0.820   5.942  0.0623  0.1616 -0.4143
 2400SOL    HW118662   2.191   0.914   5.924 -1.6753  0.7058  2.5363
 2400SOL    HW218663   2.285   0.804   5.962  0.0994  0.3860 -0.4114
 2401SOL     OW18664   1.790   0.688   8.907 -0.0869  0.2032  0.4848
 2401SOL    HW118665   1.731   0.614   8.915  2.1614 -1.7734 -1.2238
 2401SOL    HW218666   1.828   0.700   8.994 -0.1441 -1.4500  0.7294
 2402SOL     OW18667   0.050   3.296   4.726 -0.1686 -0.4481 -0.1969
 2402SOL    HW118668   4.702   3.342   4.689  0.3144  0.8682  0.4674
 2402SOL    HW218669   0.103   3.366   4.763  1.0489 -1.5630  0.1911
 2403SOL     OW18670   0.070   3.460  10.944  0.0907 -0.3051  0.3940
 2403SOL    HW118671   0.060   3.534  10.885  0.2226 -1.5154 -1.1346
 2403SOL    HW218672   0.049   3.390  10.882  0.6900  0.4261 -0.6325
 2404SOL     OW18673   0.889   4.236   6.053  0.4727  0.0728 -0.3955
 2404SOL    HW118674   0.922   4.147   6.038 -0.6350 -0.5202  0.6427
 2404SOL    HW218675   0.859   4.262   5.966 -1.2156 -1.8261 -0.3898
 2405SOL     OW18676   2.064   0.229   6.718  0.0849  0.3308 -0.0170
 2405SOL    HW118677   2.039   0.138   6.700  3.2613 -0.7527  0.9697
 2405SOL    HW218678   2.120   0.250   6.644  0.3845  0.0317  0.1231
 2406SOL     OW18679   1.816   2.067   9.899  0.1445 -1.0723  0.4141
 2406SOL    HW118680   1.809   1.979   9.936  2.0678 -2.2531 -1.9917
 2406SOL    HW218681   1.788   2.045   9.810 -0.1899  0.0957  0.2241
 2407SOL     OW18682   4.291   2.488   5.551 -0.4719 -0.0551 -0.0144
 2407SOL    HW118683   4.225   2.513   5.486  1.0761 -1.0723 -1.9404
 2407SOL    HW218684   4.244   2.525   5.626  1.0384 -0.1405  0.9593
 2408SOL     OW18685   1.189   3.388   3.411 -0.0798 -0.3502 -0.4040
 2408SOL    HW118686   1.241   3.408   3.334 -0.4962  3.0862  0.2134
 2408SOL    HW218687   1.149   3.303   3.391 -1.3731  0.3375 -0.7078
 2409SOL     OW18688   1.838   2.987   3.449  0.3764 -0.1601 -0.1952
 2409SOL    HW118689   1.846   2.892   3.437 -2.0794 -0.5549  1.4065
 2409SOL    HW218690   1.760   2.991   3.504 -1.5182  2.1566 -3.0472
 2410SOL     OW18691   2.733   2.714  17.296  0.0822 -0.0223  0.1970
 2410SOL    HW118692   2.740   2.757  17.381 -0.9529 -1.1158  0.8399
 2410SOL    HW218693   2.643   2.681  17.294  0.3609 -0.7257 -1.2386
 2411SOL     OW18694   4.429   2.957   4.460  0.5912  0.7200  0.2150
 2411SOL    HW118695   4.417   3.050   4.443 -3.1574 -0.0101 -1.0768
 2411SOL    HW218696   4.519   2.952   4.425  0.6589 -0.9454  0.6266
 2412SOL     OW18697   0.243   4.208   5.479 -0.0985 -0.2412  0.2420
 2412SOL    HW118698   0.291   4.142   5.429  1.3132  1.3767 -0.5103
 2412SOL    HW218699   0.170   4.161   5.520  2.0842 -1.0382  3.2119
 2413SOL     OW18700   2.876   2.429  15.354  0.0292  0.0131 -0.2870
 2413SOL    HW118701   2.785   2.400  15.348 -0.5580  1.4741  1.4894
 2413SOL    HW218702   2.872   2.524  15.346 -0.7590 -0.1898 -2.1918
 2414SOL     OW18703   0.157   2.923   7.361  0.0669  0.0364 -0.1101
 2414SOL    HW118704   0.135   2.969   7.280 -1.4061 -2.3262 -1.0648
 2414SOL    HW218705   0.186   2.841   7.321  0.9006  1.3559 -2.2107
 2415SOL     OW18706   1.955   3.023   7.307 -0.2804 -0.0712 -0.2808
 2415SOL    HW118707   1.964   3.021   7.402  0.1275  1.0277 -0.3009
 2415SOL    HW218708   2.030   3.072   7.273 -1.5680  1.9733 -0.2097
 2416SOL     OW18709   4.544   0.415   6.547  0.2045 -0.0438 -0.8396
 2416SOL    HW118710   4.509   0.342   6.598  0.3511 -0.2288 -1.0026
 2416SOL    HW218711   4.471   0.476   6.550  0.4031  0.0337  3.0002
 2417SOL     OW18712   0.189   1.374   2.871 -0.4505 -0.1899 -0.0139
 2417SOL    HW118713   0.210   1.413   2.787  2.9236  1.8062  1.7183
 2417SOL    HW218714   0.148   1.292   2.844 -1.0025  0.0634  0.0553
 2418SOL     OW18715   2.839   0.364   3.981 -0.2845 -0.1768  0.1553
 2418SOL    HW118716   2.745   0.379   3.968  0.0419  0.0881 -1.8600
 2418SOL    HW218717   2.846   0.289   3.921  0.6600  0.6814 -0.7944
 2419SOL     OW18718   3.011   2.463   8.700  0.0246  0.2879  0.5841
 2419SOL    HW118719   2.930   2.418   8.725 -0.2974  0.0539 -0.8748
 2419SOL    HW218720   3.072   2.394   8.724  0.9475  0.2101 -2.0338
 2420SOL     OW18721   2.556   4.315   9.819 -0.3234  0.5910 -0.5683
 2420SOL    HW118722   2.610   4.394   9.830 -0.6580  0.5555  1.3840
 2420SOL    HW218723   2.470   4.341   9.851  0.1907 -0.3557  1.5583
 2421SOL     OW18724   3.804   3.634   7.300 -0.0955  0.0428 -0.0021
 2421SOL    HW118725   3.765   3.547   7.313  2.1821 -0.8285  1.0141
 2421SOL    HW218726   3.833   3.652   7.390  0.0226 -2.7866  0.5207
 2422SOL     OW18727   4.262   4.637  11.532 -0.2464  0.1799  0.0059
 2422SOL    HW118728   4.319   4.573  11.489 -0.1544 -0.3917  0.9868
 2422SOL    HW218729   4.181   4.610  11.488 -0.0433  0.2159 -0.3917
 2423SOL     OW18730   1.209   2.467  15.296 -0.1050  0.1188 -0.2145
 2423SOL    HW118731   1.145   2.534  15.322 -1.7422 -2.2482  1.9050
 2423SOL    HW218732   1.224   2.429  15.383  0.1062  0.3004 -0.1734
 2424SOL     OW18733   1.133   4.027   4.008 -0.3929 -0.9922 -0.2122
 2424SOL    HW118734   1.057   4.049   3.955  0.6569 -0.3483 -1.4406
 2424SOL    HW218735   1.156   4.110   4.050 -1.4877 -0.7587 -0.0663
 2425SOL     OW18736   0.460   0.644   0.588  0.1375 -0.3428 -0.1883
 2425SOL    HW118737   0.474   0.604   0.503 -0.7966 -0.8227 -0.1206
 2425SOL    HW218738   0.501   0.578   0.645  0.5532 -1.1851 -1.4735
 2426SOL     OW18739   4.048   1.551  13.281 -0.2447 -0.0696 -0.2168
 2426SOL    HW118740   4.098   1.632  13.269  1.3594 -0.7214  2.1414
 2426SOL    HW218741   4.021   1.554  13.189 -3.6222 -0.2924  0.7620
 2427SOL     OW18742   0.885   2.648   1.516  0.0440 -0.0922 -0.0084
 2427SOL    HW118743   0.810   2.635   1.458 -0.0235 -0.7925  0.2412
 2427SOL    HW218744   0.848   2.626   1.601  1.9806 -1.9084  0.3598
 2428SOL     OW18745   1.674   0.444   9.075  0.2036  0.1386 -0.2541
 2428SOL    HW118746   1.640   0.523   9.117  2.4439  0.5063  0.8537
 2428SOL    HW218747   1.609   0.383   9.111  1.4596 -0.2132  1.4091
 2429SOL     OW18748   1.747   2.776  14.777 -0.1289 -0.6287 -0.2988
 2429SOL    HW118749   1.695   2.717  14.831 -0.8611  0.2636 -0.0220
 2429SOL    HW218750   1.688   2.852  14.776 -1.6587 -1.8243 -0.4117
 2430SOL     OW18751   0.293   3.081   6.209  0.7689 -0.4475 -0.0704
 2430SOL    HW118752   0.318   3.173   6.224 -0.9312 -0.0262  0.2372
 2430SOL    HW218753   0.378   3.045   6.185 -0.2328 -2.6943 -0.1818
 2431SOL     OW18754   0.756   3.148   7.759 -0.0247  0.6850 -0.5219
 2431SOL    HW118755   0.848   3.121   7.771  0.0370  1.5316  1.0460
 2431SOL    HW218756   0.729   3.151   7.851 -1.3423  1.1055 -0.9325
 2432SOL     OW18757   2.558   0.840   8.674  0.3242  0.4426  0.5102
 2432SOL    HW118758   2.560   0.928   8.637 -0.7006  0.2922  0.0967
 2432SOL    HW218759   2.487   0.804   8.619  0.0420  0.8585  0.6044
 2433SOL     OW18760   2.240   2.165   1.536  0.1065 -0.1500  0.0534
 2433SOL    HW118761   2.183   2.225   1.489  1.4707  1.1683  0.0778
 2433SOL    HW218762   2.320   2.217   1.531 -0.2682  0.4187 -0.0364
 2434SOL     OW18763   2.371   4.469  10.828  0.5276  0.4573 -0.2677
 2434SOL    HW118764   2.456   4.512  10.838  0.8349 -0.3713  0.7123
 2434SOL    HW218765   2.314   4.513  10.891  0.9571  0.0077  0.4292
 2435SOL     OW18766   0.403   3.161   4.198  0.2361 -0.0016 -0.2933
 2435SOL    HW118767   0.326   3.200   4.238 -0.8677 -1.3588 -1.0826
 2435SOL    HW218768   0.477   3.218   4.219 -0.5099  0.8727 -0.0617
 2436SOL     OW18769   1.370   2.729  16.437 -0.3518 -0.7641  0.0226
 2436SOL    HW118770   1.444   2.702  16.491 -0.5279 -0.1933  0.5392
 2436SOL    HW218771   1.347   2.814  16.473 -1.6377  0.2433 -3.1921
 2437SOL     OW18772   0.989   1.204   0.166  0.5284 -0.2763 -0.1975
 2437SOL    HW118773   1.081   1.220   0.189  0.6839  1.3848 -1.9700
 2437SOL    HW218774   1.020   1.134   0.108 -0.9427 -0.8790 -0.2418
 2438SOL     OW18775   1.585   2.624   4.108 -0.0788 -0.1847 -0.5387
 2438SOL    HW118776   1.667   2.620   4.157 -0.7163  1.3279  0.6550
 2438SOL    HW218777   1.572   2.534   4.080 -1.9014 -0.2758  0.5845
 2439SOL     OW18778   3.714   2.333   7.853  0.2999  0.3469 -0.2075
 2439SOL    HW118779   3.682   2.261   7.799 -1.0758  0.4468  0.4795
 2439SOL    HW218780   3.650   2.402   7.836  0.7722  0.9840  0.6279
 2440SOL     OW18781   1.355   0.009  17.061 -0.0994 -0.0901  0.6107
 2440SOL    HW118782   1.334   0.102  17.053  0.7110  0.2017  1.7697
 2440SOL    HW218783   1.419   0.025  17.131 -0.7696  2.1866  0.7023
 2441SOL     OW18784   0.364   1.534   5.521  0.3563  0.3623 -0.0320
 2441SOL    HW118785   0.457   1.532   5.499  0.0572  1.5749 -1.3601
 2441SOL    HW218786   0.360   1.459   5.581 -0.2446  2.8568  3.0805
 2442SOL     OW18787   0.978   1.738   5.364  0.1337 -0.0452 -0.3567
 2442SOL    HW118788   0.949   1.681   5.436  0.3283  1.0216  0.5567
 2442SOL    HW218789   1.007   1.669   5.304 -1.4231  0.3384 -1.5503
 2443SOL     OW18790   0.939   3.561   2.261  0.3293 -0.0483 -0.1739
 2443SOL    HW118791   0.985   3.478   2.273 -0.5974 -0.3787  1.0760
 2443SOL    HW218792   0.850   3.534   2.239  0.6060  0.2231 -1.6119
 2444SOL     OW18793   2.007   1.129   3.445  0.9295 -0.2276 -1.3135
 2444SOL    HW118794   2.086   1.079   3.463 -0.2826 -0.0087  4.6353
 2444SOL    HW218795   2.002   1.202   3.507  1.7092 -1.5913  0.3857
 2445SOL     OW18796   0.192   1.044   4.834  0.1842  0.4512  0.0220
 2445SOL    HW118797   0.109   1.005   4.805 -0.7025  2.3573  0.0256
 2445SOL    HW218798   0.185   1.051   4.929  2.0745  1.0065  0.1220
 2446SOL     OW18799   0.547   4.296   8.832  0.2988  0.2754  0.5097
 2446SOL    HW118800   0.486   4.224   8.818  0.1739  0.1601  1.6655
 2446SOL    HW218801   0.512   4.353   8.764  0.9374 -0.5318 -0.4843
 2447SOL     OW18802   3.167   4.063  11.491 -0.2484  0.0349 -0.6701
 2447SOL    HW118803   3.173   4.007  11.414  0.0390 -0.9315  0.0535
 2447SOL    HW218804   3.124   4.004  11.553 -1.3563  0.2302 -1.2435
 2448SOL     OW18805   3.786   2.342  15.092 -0.5589  0.4944 -0.2886
 2448SOL    HW118806   3.836   2.308  15.018  3.1393  2.7988  1.1826
 2448SOL    HW218807   3.701   2.364  15.051 -1.1458 -0.7753  0.2559
 2449SOL     OW18808   4.528   4.147   1.198 -0.0883 -0.3118 -0.1921
 2449SOL    HW118809   4.599   4.083   1.193  0.7871  0.5759  0.9402
 2449SOL    HW218810   4.454   4.092   1.224  0.3481 -1.2045 -0.8322
 2450SOL     OW18811   2.766   0.788   3.843  0.2821  0.8306  0.3146
 2450SOL    HW118812   2.730   0.811   3.929 -1.6282  0.2310 -0.3286
 2450SOL    HW218813   2.738   0.701   3.814 -2.2274  1.3129  1.2672
 2451SOL     OW18814   4.437   3.399   6.877  0.0860 -0.2988  0.2764
 2451SOL    HW118815   4.486   3.409   6.796  2.5093 -1.1614  1.6443
 2451SOL    HW218816   4.491   3.336   6.925 -1.4810 -1.0784  1.0362
 2452SOL     OW18817   1.425   4.253   7.703 -0.5050  0.2195 -0.8246
 2452SOL    HW118818   1.487   4.193   7.744 -0.0899  1.5298  0.4575
 2452SOL    HW218819   1.483   4.324   7.676  1.1035  0.1824  2.5484
 2453SOL     OW18820   0.926   3.060   8.718  0.1692 -0.1125  0.1540
 2453SOL    HW118821   0.834   3.085   8.711  0.4425  0.5448 -0.9342
 2453SOL    HW218822   0.975   3.141   8.713 -0.9627  0.4847 -1.1430
 2454SOL     OW18823   2.620   1.729  14.937  0.4253  0.1077 -0.6904
 2454SOL    HW118824   2.664   1.649  14.966 -0.5563 -0.1934 -0.0230
 2454SOL    HW218825   2.599   1.770  15.021  0.0073  0.3226 -0.9009
 2455SOL     OW18826   4.072   0.396  16.211 -0.9360  0.8632  0.0042
 2455SOL    HW118827   4.080   0.491  16.224 -1.6154  1.1494 -1.6602
 2455SOL    HW218828   4.079   0.362  16.300 -1.3506 -1.2861 -0.7959
 2456SOL     OW18829   0.913   3.946  13.051  0.1689 -0.3953  0.0608
 2456SOL    HW118830   0.889   4.006  12.981 -1.0706 -0.7179  0.2090
 2456SOL    HW218831   0.825   3.918  13.074  0.1285 -0.1078  0.2531
 2457SOL     OW18832   0.691   2.735   6.443  0.1519 -0.5035 -0.4118
 2457SOL    HW118833   0.709   2.644   6.419 -3.7474 -1.0711 -1.0969
 2457SOL    HW218834   0.753   2.789   6.395  0.5058  0.5834  1.2489
 2458SOL     OW18835   1.978   0.388   4.272  0.0703  0.1553  0.1808
 2458SOL    HW118836   1.975   0.350   4.360 -0.6195  1.4545  0.7182
 2458SOL    HW218837   2.032   0.467   4.281 -2.0278  1.1968  3.6368
 2459SOL     OW18838   0.686   2.724   0.255  0.5340 -0.1845 -0.1228
 2459SOL    HW118839   0.771   2.684   0.238  0.8843  1.0196 -1.1911
 2459SOL    HW218840   0.634   2.687   0.183  3.5733 -0.4209 -2.1771
 2460SOL     OW18841   3.621   3.115   0.301  0.0185 -0.2243 -0.3917
 2460SOL    HW118842   3.547   3.158   0.258  0.6667  2.2766  0.9780
 2460SOL    HW218843   3.594   3.024   0.314  0.9494 -0.5593 -0.7287
 2461SOL     OW18844   3.892   1.443  11.293  0.1578 -0.0440 -0.0302
 2461SOL    HW118845   3.820   1.383  11.307  0.3933 -0.8398 -2.1328
 2461SOL    HW218846   3.893   1.488  11.377 -1.8205  1.4485 -0.7932
 2462SOL     OW18847   2.391   2.015   6.391  0.2476  0.0073  0.2348
 2462SOL    HW118848   2.414   2.103   6.422  1.1702 -0.6881  1.5171
 2462SOL    HW218849   2.476   1.979   6.368  1.4353  2.6560  0.4779
 2463SOL     OW18850   4.075   3.026  12.249  0.6257  0.4711  0.3796
 2463SOL    HW118851   4.067   3.070  12.333 -1.5451 -1.0696  0.9868
 2463SOL    HW218852   4.061   3.107  12.200  0.3043 -0.0625 -0.4091
 2464SOL     OW18853   3.479   1.828   9.522  0.2859  0.3462  0.1902
 2464SOL    HW118854   3.391   1.837   9.487  1.3737 -1.9542 -3.1115
 2464SOL    HW218855   3.475   1.743   9.564  3.9800  0.5074  0.8663
 2465SOL     OW18856   2.777   0.914   7.599  0.3960 -0.2004  0.1352
 2465SOL    HW118857   2.815   0.998   7.574 -0.4082 -0.3682 -1.6603
 2465SOL    HW218858   2.814   0.911   7.687  0.2687  1.2378  0.2401
 2466SOL     OW18859   2.324   3.004  14.967 -0.0782  0.9981 -0.2695
 2466SOL    HW118860   2.294   2.915  14.945  2.6443  0.2569 -0.9571
 2466SOL    HW218861   2.295   2.992  15.058  0.1673  1.3163 -0.1520
 2467SOL     OW18862   0.586   3.649   5.327  0.5172 -0.6256  0.4865
 2467SOL    HW118863   0.659   3.589   5.341  0.1632 -0.9648  0.8910
 2467SOL    HW218864   0.626   3.730   5.295 -0.2287 -0.4386  0.0275
 2468SOL     OW18865   2.655   2.485   8.090  0.2725 -0.0019  0.3644
 2468SOL    HW118866   2.592   2.449   8.151 -2.1366 -1.5725 -3.0352
 2468SOL    HW218867   2.595   2.533   8.033 -0.3333 -1.5535 -0.2918
 2469SOL     OW18868   2.252   4.643   3.311  0.1977 -1.0334  0.2155
 2469SOL    HW118869   2.325   4.583   3.295 -0.5401 -2.1565  1.0416
 2469SOL    HW218870   2.290   4.720   3.270  0.7754 -1.4857 -0.0971
 2470SOL     OW18871   2.004   0.435   9.410 -0.1484 -0.2806  0.4059
 2470SOL    HW118872   2.084   0.487   9.414 -0.0620 -0.4762  1.1791
 2470SOL    HW218873   1.975   0.449   9.500  0.1330 -0.8906  0.5872
 2471SOL     OW18874   3.297   4.346   6.692  0.2163  0.0676  0.0632
 2471SOL    HW118875   3.242   4.415   6.729 -0.2412  0.3792 -1.2184
 2471SOL    HW218876   3.334   4.380   6.611  1.1451 -2.0452 -0.3991
 2472SOL     OW18877   1.334   2.217   6.688 -0.4118  0.1334 -0.1092
 2472SOL    HW118878   1.251   2.170   6.696 -0.9044  1.2444  1.3420
 2472SOL    HW218879   1.331   2.227   6.593 -2.1163 -0.0329 -0.0730
 2473SOL     OW18880   3.760   3.615   3.080 -0.7229 -0.6420  0.1954
 2473SOL    HW118881   3.823   3.679   3.046 -2.2692  0.0724 -1.3337
 2473SOL    HW218882   3.770   3.630   3.174 -3.3735  2.0027  0.0562
 2474SOL     OW18883   3.770   3.956   8.279  0.3925 -0.2392  0.4173
 2474SOL    HW118884   3.826   3.976   8.204  0.3939 -0.9810  0.2155
 2474SOL    HW218885   3.832   3.934   8.349  0.3042 -0.1821  0.5131
 2475SOL     OW18886   1.119   0.128   3.545 -0.2367  0.3258 -1.0266
 2475SOL    HW118887   1.108   0.059   3.479 -0.8405 -0.4190 -0.1415
 2475SOL    HW218888   1.159   0.194   3.489 -0.6841 -0.4506 -2.2709
 2476SOL     OW18889   4.049   2.593   9.577 -0.4285  0.5550  0.4487
 2476SOL    HW118890   4.004   2.509   9.566  1.7551 -0.5918  0.3117
 2476SOL    HW218891   4.131   2.580   9.530 -0.6826 -1.6629  0.6285
 2477SOL     OW18892   3.724   1.959   2.837  0.4518  0.4108  0.3384
 2477SOL    HW118893   3.681   2.044   2.825  2.6030  1.3005 -0.9043
 2477SOL    HW218894   3.681   1.930   2.918 -1.8779 -2.2320 -1.8474
 2478SOL     OW18895   3.151   2.020  10.166  0.3401  0.1551  0.2939
 2478SOL    HW118896   3.184   1.993  10.080  0.3660 -0.6830  0.5619
 2478SOL    HW218897   3.228   2.067  10.199  0.3256  1.4100 -1.4657
 2479SOL     OW18898   2.057   3.542   4.535 -0.6463  0.5385 -0.7932
 2479SOL    HW118899   2.110   3.620   4.519 -0.3414  0.5256  0.1804
 2479SOL    HW218900   2.037   3.545   4.628 -2.7552  3.5263 -1.3408
 2480SOL     OW18901   1.103   1.109   5.128 -0.4036  0.2493  0.1861
 2480SOL    HW118902   1.104   1.053   5.051 -0.5734 -0.4651  0.7046
 2480SOL    HW218903   1.076   1.046   5.195 -1.0943  1.3227  0.9228
 2481SOL     OW18904   4.262   2.136  13.172 -0.0694  0.2215  0.5481
 2481SOL    HW118905   4.265   2.117  13.266 -2.7919 -3.3622 -0.1000
 2481SOL    HW218906   4.332   2.201  13.167 -0.3461  0.8260  4.1509
 2482SOL     OW18907   2.442   0.978   7.513  0.2771 -0.6598  0.1455
 2482SOL    HW118908   2.519   0.983   7.455 -0.1343 -1.2301 -0.4612
 2482SOL    HW218909   2.430   0.883   7.514 -2.5254 -0.2907 -0.3295
 2483SOL     OW18910   3.664   4.087   2.058  0.2008 -0.6077 -0.0621
 2483SOL    HW118911   3.681   4.161   2.000 -2.9307  1.1742  1.2569
 2483SOL    HW218912   3.658   4.130   2.144 -0.2477  0.4481 -0.6192
 2484SOL     OW18913   0.314   0.363  16.216  0.1124 -0.3717  0.0548
 2484SOL    HW118914   0.382   0.356  16.149 -0.6534 -0.5183 -0.7088
 2484SOL    HW218915   0.382   0.340  16.280 -1.0293  0.0736  1.4167
 2485SOL     OW18916   2.867   0.499   6.573  0.3464  0.3018  0.8807
 2485SOL    HW118917   2.834   0.548   6.648  0.0524  0.3921  0.6886
 2485SOL    HW218918   2.939   0.556   6.545  1.3357  0.0209  2.7631
 2486SOL     OW18919   0.008   4.247   9.002 -0.0567  0.5460  0.6468
 2486SOL    HW118920   4.700   4.160   8.982  0.1304  0.5737  0.1975
 2486SOL    HW218921   4.647   4.283   8.988 -0.4706 -1.4712 -1.8837
 2487SOL     OW18922   3.619   2.652  16.781  0.3508  0.2379 -0.4409
 2487SOL    HW118923   3.703   2.622  16.745  0.3759  0.4023 -0.5175
 2487SOL    HW218924   3.562   2.599  16.725 -0.9622  1.5732 -0.3675
 2488SOL     OW18925   1.160   0.157  10.545 -0.2603  0.1621  0.0305
 2488SOL    HW118926   1.110   0.234  10.518 -0.4399 -0.5759 -1.7777
 2488SOL    HW218927   1.243   0.194  10.517 -0.2375  0.8055  0.9415
 2489SOL     OW18928   0.421   3.815   7.936 -0.2080 -0.0320  0.3885
 2489SOL    HW118929   0.483   3.830   8.007  0.9392  1.6928 -0.9576
 2489SOL    HW218930   0.454   3.860   7.858  4.0081  1.0029  2.7589
 2490SOL     OW18931   0.751   0.669   9.201 -0.0322 -0.2872  0.3395
 2490SOL    HW118932   0.802   0.748   9.184 -1.5497  0.7257  0.5051
 2490SOL    HW218933   0.775   0.661   9.293  0.4152  0.3121  0.2730
 2491SOL     OW18934   3.767   1.555  12.351 -0.0827 -0.4935 -0.0541
 2491SOL    HW118935   3.710   1.506  12.293 -0.4922  1.1360 -1.0410
 2491SOL    HW218936   3.854   1.519  12.335  0.6520  0.2841  2.0707
 2492SOL     OW18937   2.525   0.448   7.585  0.0969 -0.2882 -0.4572
 2492SOL    HW118938   2.569   0.528   7.615  2.2565 -2.8497  3.1694
 2492SOL    HW218939   2.539   0.448   7.490  1.4341 -2.1339 -0.2377
 2493SOL     OW18940   3.700   2.418  14.317 -0.1829 -0.1367 -0.2057
 2493SOL    HW118941   3.719   2.460  14.401 -2.8932 -0.0105  0.3330
 2493SOL    HW218942   3.735   2.487  14.260  1.0177  1.3264  2.2600
 2494SOL     OW18943   1.663   4.147   7.002  0.0077  0.1156  0.3190
 2494SOL    HW118944   1.656   4.176   7.093  0.1911 -0.3538  0.4787
 2494SOL    HW218945   1.756   4.134   6.989  0.1674  0.0921  1.4475
 2495SOL     OW18946   2.101   2.594  15.212 -0.3463 -0.0313 -0.4282
 2495SOL    HW118947   2.179   2.638  15.177  0.4908 -0.0466  1.4102
 2495SOL    HW218948   2.112   2.605  15.307  0.2858 -1.6734 -0.3241
 2496SOL     OW18949   1.094   1.296   8.117  0.3122  0.5043  0.9418
 2496SOL    HW118950   1.003   1.292   8.147  0.4186  1.1765  1.3488
 2496SOL    HW218951   1.103   1.391   8.112 -2.7966  0.7350 -0.0613
 2497SOL     OW18952   0.670   2.018   2.957 -0.1515 -0.1789 -0.2620
 2497SOL    HW118953   0.592   1.983   2.914  0.2796  1.1519 -2.1453
 2497SOL    HW218954   0.707   2.078   2.892 -1.2855  1.4953  0.6399
 2498SOL     OW18955   2.755   4.243   7.435  0.2834 -0.3307 -0.0562
 2498SOL    HW118956   2.771   4.280   7.522  2.9551 -3.5651  0.8397
 2498SOL    HW218957   2.840   4.275   7.405  0.9605 -0.5090  1.7070
 2499SOL     OW18958   3.886   4.412  11.605  0.0186  0.2681  0.0941
 2499SOL    HW118959   3.912   4.415  11.697 -2.6949 -0.9667  0.8941
 2499SOL    HW218960   3.812   4.353  11.620 -0.5240  0.2076 -2.8322
 2500SOL     OW18961   4.212   2.744   6.777 -0.2774 -0.2432  0.5549
 2500SOL    HW118962   4.229   2.817   6.717  4.1167  1.3922  3.7834
 2500SOL    HW218963   4.283   2.766   6.837  0.6062  0.7788 -0.8739
 2501SOL     OW18964   2.923   0.762   9.155  0.4554  0.6053 -0.3736
 2501SOL    HW118965   2.881   0.835   9.110 -0.0285  1.1869  0.9978
 2501SOL    HW218966   2.900   0.690   9.097 -1.1839 -0.3805  1.5144
 2502SOL     OW18967   3.696   2.621  10.904 -0.1833  1.0036  0.6917
 2502SOL    HW118968   3.729   2.531  10.909 -2.3863  0.1201 -0.6066
 2502SOL    HW218969   3.744   2.668  10.972 -1.3280  2.5759  0.3967
 2503SOL     OW18970   4.020   2.205   2.933 -0.1355 -0.2898 -0.1975
 2503SOL    HW118971   3.997   2.149   2.858 -2.0927  1.5983 -1.0253
 2503SOL    HW218972   3.966   2.162   2.999  0.8354 -0.4204  0.5145
 2504SOL     OW18973   3.720   1.930  11.778  0.7906  0.2631  0.6509
 2504SOL    HW118974   3.640   1.924  11.726  0.0892 -0.0436  1.7781
 2504SOL    HW218975   3.696   1.971  11.860 -2.5277  0.4423 -0.4213
 2505SOL     OW18976   0.876   0.415   8.297  0.6942  0.3133  0.2020
 2505SOL    HW118977   0.822   0.353   8.346 -0.1140  0.9234  0.0784
 2505SOL    HW218978   0.815   0.478   8.261  0.5967  0.3524  0.4352
 2506SOL     OW18979   2.719   2.320   2.592  0.0913 -0.5333 -0.0157
 2506SOL    HW118980   2.717   2.226   2.608  0.4345 -0.5294  0.0654
 2506SOL    HW218981   2.804   2.330   2.549 -0.0965 -2.0628 -0.7203
 2507SOL     OW18982   4.206   1.157  13.597  0.3479 -0.4541  0.1169
 2507SOL    HW118983   4.190   1.150  13.503 -3.7762 -0.9881  0.8559
 2507SOL    HW218984   4.281   1.217  13.600 -0.2901  0.3578 -0.2808
 2508SOL     OW18985   2.625   3.044  13.948  0.0340  0.6285 -0.3447
 2508SOL    HW118986   2.684   3.013  13.879 -1.8429 -2.3431 -0.6409
 2508SOL    HW218987   2.658   3.132  13.961 -0.0837  1.1237 -3.2061
 2509SOL     OW18988   2.346   2.600   4.572 -0.3485  0.5260 -0.0233
 2509SOL    HW118989   2.323   2.507   4.562  0.1257  0.5750 -1.5929
 2509SOL    HW218990   2.263   2.646   4.557 -0.7690  0.3778  1.9172
 2510SOL     OW18991   0.067   0.097   3.040  0.2647  0.2328  1.1072
 2510SOL    HW118992   0.161   0.102   3.022 -0.0571 -1.3119 -1.0369
 2510SOL    HW218993   0.043   0.008   3.012  0.5553  0.9536 -1.4038
 2511SOL     OW18994   2.597   3.670   0.377 -0.3862  0.3414  0.1847
 2511SOL    HW118995   2.512   3.677   0.335 -0.3549  1.8661  0.3541
 2511SOL    HW218996   2.621   3.585   0.341 -0.7730  0.9021 -1.4135
 2512SOL     OW18997   3.104   1.314   2.337 -0.0944  0.0599  0.0119
 2512SOL    HW118998   3.054   1.236   2.362  2.0620 -1.1437  0.6088
 2512SOL    HW218999   3.086   1.380   2.403 -1.4467  0.3646 -0.6443
 2513SOL     OW19000   0.674   3.966  10.705 -0.5431 -0.7009  0.3346
 2513SOL    HW119001   0.693   3.983  10.612 -1.7739  0.2721  0.2758
 2513SOL    HW219002   0.738   4.020  10.751  1.6171 -0.5298 -2.8151
 2514SOL     OW19003   3.564   0.103   2.551 -0.6018 -0.0711  0.0207
 2514SOL    HW119004   3.502   0.036   2.522 -0.0232 -0.2201 -0.9038
 2514SOL    HW219005   3.511   0.181   2.533 -1.8214 -1.4842 -2.5921
 2515SOL     OW19006   4.431   3.047   8.645  0.0844  0.4211 -0.3762
 2515SOL    HW119007   4.365   3.112   8.623 -1.6434 -1.1344  0.1887
 2515SOL    HW219008   4.508   3.104   8.638 -1.5403  2.7287  0.6573
 2516SOL     OW19009   4.508   1.171  12.082 -0.0782  0.1046 -0.6070
 2516SOL    HW119010   4.546   1.259  12.072 -1.5874  0.7247 -0.8947
 2516SOL    HW219011   4.485   1.155  11.990  0.3122  1.5363 -0.9583
 2517SOL     OW19012   2.478   0.355   6.070 -0.3249  0.5088 -0.0303
 2517SOL    HW119013   2.459   0.307   6.151  1.4541  0.1271  0.1608
 2517SOL    HW219014   2.391   0.379   6.039 -0.6261  1.8868  1.9193
 2518SOL     OW19015   2.787   3.141   3.893 -0.3485  0.2736 -0.1600
 2518SOL    HW119016   2.794   3.218   3.836 -2.2375  2.3696  2.4649
 2518SOL    HW219017   2.860   3.154   3.953 -0.3204  0.0912 -0.1549
 2519SOL     OW19018   2.927   3.811   6.685  0.0585  0.5119  0.0771
 2519SOL    HW119019   2.982   3.835   6.610  0.7843  1.1977  0.8331
 2519SOL    HW219020   2.999   3.812   6.747  0.1988  0.0917 -0.0795
 2520SOL     OW19021   3.264   2.416  16.875 -0.5130  0.0729 -0.3843
 2520SOL    HW119022   3.186   2.430  16.822 -0.6035 -0.7976 -0.4790
 2520SOL    HW219023   3.219   2.401  16.958  1.6729 -2.4091  0.3424
 2521SOL     OW19024   3.506   2.640   8.234 -0.6512 -0.5549  0.6777
 2521SOL    HW119025   3.520   2.735   8.232  1.0530 -0.8220  0.2015
 2521SOL    HW219026   3.457   2.619   8.154  0.3146  0.4183 -0.1837
 2522SOL     OW19027   2.361   0.018   8.813 -0.2817 -0.5540  0.4999
 2522SOL    HW119028   2.373   4.672   8.874 -0.2419  1.5248  2.9479
 2522SOL    HW219029   2.315   0.082   8.866 -2.9807 -3.7492  2.0551
 2523SOL     OW19030   2.756   2.338   4.784  0.0932  0.2155  0.1997
 2523SOL    HW119031   2.713   2.330   4.699 -0.0236 -1.0325  0.3719
 2523SOL    HW219032   2.816   2.411   4.766 -2.0110  2.1311  0.8691
 2524SOL     OW19033   3.872   0.946   6.311  0.3273  0.4983 -0.1576
 2524SOL    HW119034   3.908   0.913   6.229 -0.3002  1.6015 -0.8822
 2524SOL    HW219035   3.942   1.004   6.342 -0.1833  1.3189 -0.5331
 2525SOL     OW19036   3.061   1.923   5.358 -0.1873  0.3660 -0.5153
 2525SOL    HW119037   2.979   1.882   5.330 -0.5031 -0.5069  1.7427
 2525SOL    HW219038   3.063   1.916   5.453 -1.6904  0.7341 -0.4613
 2526SOL     OW19039   3.091   3.962   1.209 -0.2712 -0.5941  0.4737
 2526SOL    HW119040   3.009   3.971   1.160 -0.0012 -1.1376 -0.0775
 2526SOL    HW219041   3.090   4.040   1.265  0.4605 -0.0576 -0.2642
 2527SOL     OW19042   0.503   2.266  17.187  0.2914  0.7653 -0.0502
 2527SOL    HW119043   0.513   2.200  17.118 -3.9058 -1.4086  1.4467
 2527SOL    HW219044   0.409   2.284  17.187  0.3581  1.0958  0.8063
 2528SOL     OW19045   3.892   1.221   9.944  0.4609 -0.2681  0.1059
 2528SOL    HW119046   3.848   1.290   9.993  0.4340  0.3829 -0.8305
 2528SOL    HW219047   3.972   1.209   9.995 -0.2974 -0.8120  1.1646
 2529SOL     OW19048   4.044   0.208   4.180 -0.0379  0.1029 -0.0891
 2529SOL    HW119049   4.120   0.252   4.142 -0.2451  1.2493  0.8263
 2529SOL    HW219050   3.976   0.275   4.178  1.5180  1.6461 -1.0570
 2530SOL     OW19051   1.982   1.755   9.533  0.3885  0.2579  0.2149
 2530SOL    HW119052   2.038   1.778   9.459 -2.8196  1.7257 -1.8003
 2530SOL    HW219053   1.937   1.678   9.499 -0.5457  0.1387  1.7381
 2531SOL     OW19054   3.675   1.303   1.323  0.0101 -0.1112 -0.6164
 2531SOL    HW119055   3.619   1.284   1.398  0.7664  0.1677  0.0165
 2531SOL    HW219056   3.733   1.371   1.356  0.2626 -0.0439 -1.1999
 2532SOL     OW19057   0.463   0.526  15.261 -0.1460  0.3442  0.3975
 2532SOL    HW119058   0.446   0.520  15.167  1.2077 -0.7915  0.2120
 2532SOL    HW219059   0.437   0.439  15.291 -0.0056  0.7407  1.6748
 2533SOL     OW19060   0.856   1.385   6.573 -0.2952 -0.2960 -0.4405
 2533SOL    HW119061   0.945   1.416   6.559 -0.3297 -0.0371 -0.0739
 2533SOL    HW219062   0.861   1.293   6.548  2.0113 -0.3879  0.3575
 2534SOL     OW19063   1.488   0.406  17.307  0.0711  0.2506  0.2691
 2534SOL    HW119064   1.569   0.366  17.274  1.0567  1.2723  1.4312
 2534SOL    HW219065   1.437   0.360  17.241  0.5636 -2.0807  1.4991
 2535SOL     OW19066   4.168   1.851   1.157  0.2061 -0.5203  0.1033
 2535SOL    HW119067   4.167   1.763   1.193  0.6366 -1.2368 -1.6484
 2535SOL    HW219068   4.078   1.882   1.171  0.1914 -0.9588  0.9693
 2536SOL     OW19069   1.615   2.053  14.848 -0.0116 -0.1580  0.5628
 2536SOL    HW119070   1.577   1.970  14.878 -0.0106  0.0335  1.0898
 2536SOL    HW219071   1.654   2.033  14.763  1.1798 -2.1805  1.5793
 2537SOL     OW19072   3.400   3.968   9.225 -0.0954  0.3855 -0.2628
 2537SOL    HW119073   3.419   3.965   9.319 -1.9764  2.8853  0.1890
 2537SOL    HW219074   3.463   4.034   9.195  2.5032 -1.1430  1.8635
 2538SOL     OW19075   3.379   2.069   9.618 -0.2571  0.0309  0.1791
 2538SOL    HW119076   3.381   2.083   9.712 -0.0876  1.8452 -0.0848
 2538SOL    HW219077   3.415   1.981   9.610  0.3922  0.2526  0.7757
 2539SOL     OW19078   0.219   2.245   8.984  0.1097  0.2573  0.0589
 2539SOL    HW119079   0.152   2.187   8.950 -0.3254  0.9616 -0.2846
 2539SOL    HW219080   0.170   2.300   9.045 -0.5162  0.2200 -0.4162
 2540SOL     OW19081   0.160   1.489  16.719  0.7985 -0.0493  0.1679
 2540SOL    HW119082   0.065   1.493  16.730  0.7713 -1.0245  0.2492
 2540SOL    HW219083   0.169   1.464  16.627 -0.4600 -1.8845  0.5510
 2541SOL     OW19084   2.249   4.080   9.608 -0.2516 -0.2322 -0.4571
 2541SOL    HW119085   2.320   4.060   9.547 -0.2139  0.3964 -0.6233
 2541SOL    HW219086   2.246   4.175   9.620 -1.4203 -0.3910  0.4753
 2542SOL     OW19087   0.477   2.501  15.430 -0.3791  0.7217  0.5033
 2542SOL    HW119088   0.492   2.416  15.470 -1.3795  0.3089 -0.0142
 2542SOL    HW219089   0.382   2.499  15.431 -0.3427 -2.0254 -1.8774
 2543SOL     OW19090   3.297   2.019  11.350 -0.1974 -0.0585  0.3913
 2543SOL    HW119091   3.277   2.018  11.444 -0.4124  0.2441  0.3480
 2543SOL    HW219092   3.335   2.107  11.351 -0.0780 -0.1058 -0.7928
 2544SOL     OW19093   3.107   2.710   8.754 -0.6391 -0.6293 -0.0112
 2544SOL    HW119094   3.118   2.735   8.662  0.6514  1.7105  0.7767
 2544SOL    HW219095   3.058   2.628   8.757 -1.3581 -0.1671  0.8223
 2545SOL     OW19096   2.036   1.012  15.916 -0.0457  0.3516 -0.1374
 2545SOL    HW119097   2.032   1.063  15.835  2.5519 -0.4747 -0.7850
 2545SOL    HW219098   1.976   0.943  15.888 -0.3344  0.1131  1.0552
 2546SOL     OW19099   4.665   3.416   4.463  0.4362 -0.1007  0.2163
 2546SOL    HW119100   4.595   3.360   4.430  0.1697 -0.3774  1.2270
 2546SOL    HW219101   4.623   3.496   4.497  1.5652  0.6331 -0.1319
 2547SOL     OW19102   0.363   0.032   5.358  0.0297 -0.4641  0.2409
 2547SOL    HW119103   0.338   0.119   5.390  0.4297 -0.4915  0.6148
 2547SOL    HW219104   0.435   0.016   5.419  0.7834  2.4389  0.0860
 2548SOL     OW19105   0.262   4.283   8.943 -0.3521  0.0415 -0.3539
 2548SOL    HW119106   0.275   4.194   8.911 -1.6635 -0.2322 -0.1414
 2548SOL    HW219107   0.174   4.280   8.980 -0.3710  0.4051 -0.3705
 2549SOL     OW19108   1.956   0.272  13.390  0.2382  0.4051  0.7826
 2549SOL    HW119109   1.980   0.365  13.382  0.3311  0.1757 -1.8316
 2549SOL    HW219110   1.898   0.276  13.465 -1.6292 -1.5273 -0.5743
 2550SOL     OW19111   2.057   1.169   5.727 -0.4226 -0.0751  0.3096
 2550SOL    HW119112   2.003   1.114   5.784 -0.6855  0.2138  0.3364
 2550SOL    HW219113   2.017   1.140   5.644  0.7615 -2.1332  0.4461
 2551SOL     OW19114   2.194   1.747  13.229  0.1563  0.0308 -0.7087
 2551SOL    HW119115   2.121   1.688  13.210  0.0350  0.3779 -1.3231
 2551SOL    HW219116   2.257   1.680  13.255 -0.7138 -1.9888 -3.8020
 2552SOL     OW19117   1.332   0.040  11.908  0.1759 -0.0882  0.1505
 2552SOL    HW119118   1.281   0.004  11.836 -0.0017 -1.0787  0.7868
 2552SOL    HW219119   1.322   4.695  11.970 -0.7552 -1.2406 -1.3355
 2553SOL     OW19120   1.028   3.122  14.420 -0.3600  0.2287  0.2866
 2553SOL    HW119121   1.069   3.202  14.387  1.0447 -0.8679 -0.6252
 2553SOL    HW219122   1.031   3.135  14.515 -0.6939  0.2873  0.2862
 2554SOL     OW19123   1.953   1.413   6.563 -0.4409  0.3998 -0.2479
 2554SOL    HW119124   1.867   1.427   6.601 -0.1387  1.1308  0.1650
 2554SOL    HW219125   1.998   1.498   6.567  1.2114 -0.5605  1.5335
 2555SOL     OW19126   4.622   0.705   8.171  0.0574 -0.4719 -0.3641
 2555SOL    HW119127   4.716   0.721   8.180  0.6614 -3.0238 -2.2779
 2555SOL    HW219128   4.593   0.718   8.262  1.9052 -1.3480  0.3499
 2556SOL     OW19129   1.215   3.694   5.903 -0.0799  0.2862 -0.3244
 2556SOL    HW119130   1.211   3.736   5.817  1.3625  0.0061 -0.5366
 2556SOL    HW219131   1.276   3.757   5.942  0.4991  0.7377 -1.9400
 2557SOL     OW19132   2.447   3.598   3.432  0.0660 -0.6720  0.2311
 2557SOL    HW119133   2.404   3.680   3.456 -1.0829 -0.9172 -1.0228
 2557SOL    HW219134   2.524   3.625   3.382 -0.6721 -0.6948 -0.9064
 2558SOL     OW19135   4.527   1.396   8.852  0.1386  0.1290 -0.1244
 2558SOL    HW119136   4.453   1.446   8.818 -0.7600 -0.1343  1.4388
 2558SOL    HW219137   4.499   1.380   8.942 -0.4065 -0.3337 -0.3786
 2559SOL     OW19138   0.068   3.102  11.431  0.3789  1.0880 -0.3123
 2559SOL    HW119139   4.700   3.119  11.435  0.2003 -0.1971  0.9438
 2559SOL    HW219140   0.065   3.007  11.440  2.4178  1.0083 -0.4464
 2560SOL     OW19141   1.066   3.209  12.126 -0.1042  0.2841  0.4533
 2560SOL    HW119142   1.091   3.201  12.218 -0.8960  1.6332  0.7804
 2560SOL    HW219143   1.028   3.296  12.133  1.1149  0.6396  2.5821
 2561SOL     OW19144   0.520   3.467   0.580  0.2561 -0.2873  0.7246
 2561SOL    HW119145   0.583   3.538   0.597  0.1922  0.1992 -1.1300
 2561SOL    HW219146   0.441   3.517   0.561 -0.9079 -2.0316  0.9813
 2562SOL     OW19147   4.510   4.458  16.153 -0.5688  0.1941 -0.0095
 2562SOL    HW119148   4.594   4.488  16.189 -0.9980 -0.4675  1.5270
 2562SOL    HW219149   4.524   4.367  16.178  0.5376  0.3056 -0.2110
 2563SOL     OW19150   1.729   3.415   5.204 -0.1841  0.4060 -0.3173
 2563SOL    HW119151   1.640   3.382   5.214 -0.2196  1.4315  2.7047
 2563SOL    HW219152   1.743   3.401   5.110 -0.2094  0.6875 -0.3608
 2564SOL     OW19153   3.043   3.877  10.541 -0.3789 -0.4823  0.3147
 2564SOL    HW119154   3.078   3.959  10.508  0.8322  0.3231  3.6526
 2564SOL    HW219155   3.109   3.857  10.608 -1.4127  1.9142  2.0401
 2565SOL     OW19156   0.348   2.107  10.302  0.0078  0.0459 -0.8127
 2565SOL    HW119157   0.341   2.034  10.241  1.1707 -0.4221 -0.3832
 2565SOL    HW219158   0.279   2.158  10.260 -1.4810 -0.8633  0.5592
 2566SOL     OW19159   2.221   2.907   3.768 -0.1576 -0.5183  0.2171
 2566SOL    HW119160   2.206   2.833   3.709 -0.0632 -0.3443 -0.0263
 2566SOL    HW219161   2.169   2.975   3.725  0.6118  0.1021  0.2941
 2567SOL     OW19162   4.549   0.183  13.066  0.2234  0.1868  0.3589
 2567SOL    HW119163   4.482   0.115  13.066 -0.2578  0.6708  3.1612
 2567SOL    HW219164   4.489   0.249  13.032 -0.6097 -1.4112 -1.2746
 2568SOL     OW19165   4.542   3.432   9.291  0.4366 -0.2860 -0.4654
 2568SOL    HW119166   4.514   3.513   9.249 -0.0490 -0.0169  0.3660
 2568SOL    HW219167   4.633   3.445   9.317  0.3124 -2.3208  1.0209
 2569SOL     OW19168   1.549   3.817   4.970  0.2245 -0.2492  0.4450
 2569SOL    HW119169   1.544   3.859   4.884  2.0132  0.7920  0.8582
 2569SOL    HW219170   1.488   3.743   4.965 -3.1712  2.5051  0.7124
 2570SOL     OW19171   2.308   2.837   5.723  0.0762  0.1314 -0.4750
 2570SOL    HW119172   2.248   2.837   5.648 -1.3581 -1.2725  0.7023
 2570SOL    HW219173   2.320   2.743   5.735 -1.9807 -0.2829 -1.6620
 2571SOL     OW19174   3.947   1.548   9.276  0.6882  0.1797  0.4610
 2571SOL    HW119175   3.931   1.533   9.183  1.0447  3.3344 -0.0784
 2571SOL    HW219176   3.908   1.464   9.304  1.2448  0.0075  0.7278
 2572SOL     OW19177   4.648   2.857   5.622 -0.6987  0.0197  0.2966
 2572SOL    HW119178   4.605   2.898   5.697 -2.0729 -0.9420  0.0142
 2572SOL    HW219179   0.006   2.844   5.665  0.4710 -2.0492 -2.5953
 2573SOL     OW19180   1.751   2.705   5.954 -0.4869  0.2187 -0.1219
 2573SOL    HW119181   1.845   2.690   5.963 -0.4679  1.0359  0.9657
 2573SOL    HW219182   1.713   2.647   6.021 -1.3926  0.4292 -0.4548
 2574SOL     OW19183   1.615   0.569   8.212 -0.2664 -0.2145 -0.3517
 2574SOL    HW119184   1.588   0.632   8.278  0.5308 -0.7986  0.5306
 2574SOL    HW219185   1.662   0.633   8.157 -1.5786  2.2176  1.3590
 2575SOL     OW19186   3.705   4.568   6.460 -0.1645 -0.4787  0.3093
 2575SOL    HW119187   3.695   4.484   6.505 -2.3141  0.9319  2.3987
 2575SOL    HW219188   3.747   4.538   6.378 -1.0889 -0.8234 -0.0385
 2576SOL     OW19189   3.755   2.890   6.277 -0.0778  0.5633  0.0912
 2576SOL    HW119190   3.715   2.975   6.294 -1.6161  0.1586 -1.3806
 2576SOL    HW219191   3.796   2.901   6.191  1.0375  0.2393  0.5853
 2577SOL     OW19192   2.610   2.631  10.170 -0.4064  0.4910  0.8834
 2577SOL    HW119193   2.689   2.660  10.215  0.6780  0.7085 -1.1652
 2577SOL    HW219194   2.606   2.697  10.101  0.2746 -1.4542 -1.0083
 2578SOL     OW19195   2.987   2.557   3.859  0.1584  0.5025  0.1598
 2578SOL    HW119196   3.063   2.516   3.900 -1.0876 -1.1266  0.8483
 2578SOL    HW219197   3.017   2.648   3.857 -0.2919  0.6127 -1.4987
 2579SOL     OW19198   4.265   4.078   6.733 -0.1309  0.2292  0.1450
 2579SOL    HW119199   4.190   4.107   6.786  0.2651  3.1030 -0.8592
 2579SOL    HW219200   4.322   4.058   6.807 -1.4970  1.1886  1.4639
 2580SOL     OW19201   4.377   4.465   9.119  0.6589 -0.5730  0.2529
 2580SOL    HW119202   4.307   4.499   9.063  1.6458  0.2248 -0.4926
 2580SOL    HW219203   4.427   4.423   9.049  1.4620  0.8623 -0.0275
 2581SOL     OW19204   0.141   3.754   9.547  0.6442  0.5788 -0.8039
 2581SOL    HW119205   0.100   3.700   9.479  2.6766  0.5660 -2.0252
 2581SOL    HW219206   0.182   3.681   9.593  0.4082  2.0839  1.7436
 2582SOL     OW19207   3.520   4.636  15.066  0.0800 -0.3358 -0.1106
 2582SOL    HW119208   3.568   4.567  15.020  2.1203  1.2605 -0.3867
 2582SOL    HW219209   3.451   4.662  15.006  0.4170 -1.6623 -1.0744
 2583SOL     OW19210   0.480   1.345   1.989 -0.1353  0.0313  0.4725
 2583SOL    HW119211   0.498   1.423   1.936  1.4419  0.2572  1.3295
 2583SOL    HW219212   0.452   1.271   1.935  0.9953 -1.9751  2.6606
 2584SOL     OW19213   1.330   1.130   7.937 -0.2473 -0.2780  0.0152
 2584SOL    HW119214   1.394   1.162   8.000  0.0588  0.1536 -0.5178
 2584SOL    HW219215   1.252   1.181   7.958 -0.4408 -0.6464  0.1998
 2585SOL     OW19216   4.618   4.203   1.654 -0.4857 -0.2625  0.5505
 2585SOL    HW119217   4.605   4.183   1.562  1.1037 -1.7469  0.6425
 2585SOL    HW219218   4.686   4.270   1.645 -0.8670  0.1056  0.4289
 2586SOL     OW19219   0.708   4.053  15.289 -0.3870 -0.1890 -0.5364
 2586SOL    HW119220   0.704   4.015  15.201  0.3186  0.6221 -0.9147
 2586SOL    HW219221   0.689   4.146  15.283 -0.0138 -0.0173  1.0362
 2587SOL     OW19222   2.289   2.897   6.538 -0.3939 -0.2124 -0.1377
 2587SOL    HW119223   2.230   2.925   6.468  1.0427 -0.7715 -1.5643
 2587SOL    HW219224   2.243   2.828   6.587 -0.9498  1.3057  1.4900
 2588SOL     OW19225   0.391   2.121   9.377 -0.1728  0.0389 -0.1038
 2588SOL    HW119226   0.315   2.088   9.424  0.3020 -0.0418  0.5983
 2588SOL    HW219227   0.370   2.214   9.380 -1.4653 -0.2726  0.5685
 2589SOL     OW19228   0.606   1.190  10.633 -0.1125  0.2910 -0.0142
 2589SOL    HW119229   0.567   1.130  10.570  1.6568 -0.8413 -0.0056
 2589SOL    HW219230   0.675   1.139  10.675  0.5611  0.6151 -0.7406
 2590SOL     OW19231   4.289   1.624  17.178  0.0091 -0.0433  0.6421
 2590SOL    HW119232   4.205   1.654  17.143 -0.2842  0.7606  2.0449
 2590SOL    HW219233   4.273   1.530  17.180 -0.0874 -0.0768 -1.0126
 2591SOL     OW19234   0.891   2.833  11.925  0.9193  0.2346  0.2282
 2591SOL    HW119235   0.958   2.819  11.992  0.2915 -0.6601  0.6637
 2591SOL    HW219236   0.923   2.782  11.851  0.4649 -0.7920  0.7492
 2592SOL     OW19237   1.477   0.358   5.158 -0.2493 -0.1081  0.4228
 2592SOL    HW119238   1.490   0.268   5.188 -0.0228  0.3177  1.6360
 2592SOL    HW219239   1.555   0.367   5.102  0.0848 -2.8156  0.4557
 2593SOL     OW19240   2.472   2.102   2.979  0.2187  0.4368  0.5544
 2593SOL    HW119241   2.410   2.069   3.043  4.4534 -0.5785  4.1040
 2593SOL    HW219242   2.494   2.182   3.026  1.1305  1.5378 -1.7152
 2594SOL     OW19243   3.885   0.288  12.244  0.0396  0.2376 -0.0132
 2594SOL    HW119244   3.803   0.277  12.195 -0.6004 -0.4331  1.2390
 2594SOL    HW219245   3.855   0.337  12.320 -0.9832 -0.5545  0.0991
 2595SOL     OW19246   3.311   3.253  11.212 -0.0803  0.3586 -0.6141
 2595SOL    HW119247   3.292   3.328  11.155 -1.8328 -0.3461 -0.9640
 2595SOL    HW219248   3.266   3.281  11.292  2.1185 -0.4888  0.9207
 2596SOL     OW19249   0.594   3.345  10.206 -0.5366 -0.2676  0.2103
 2596SOL    HW119250   0.659   3.294  10.157  0.9414  2.0245 -0.2199
 2596SOL    HW219251   0.609   3.432  10.171 -1.0070 -0.8470 -1.4300
 2597SOL     OW19252   1.288   3.926   6.707 -0.3096  0.6821 -0.0831
 2597SOL    HW119253   1.219   3.910   6.771 -2.5011  0.1933 -2.5525
 2597SOL    HW219254   1.354   3.955   6.770 -0.1464  0.0885  0.0172
 2598SOL     OW19255   0.508   4.594   4.657  0.3942 -0.6503 -0.0428
 2598SOL    HW119256   0.494   4.501   4.639 -1.2632 -0.0476 -1.7967
 2598SOL    HW219257   0.602   4.589   4.671  0.5129  0.6021 -0.3790
 2599SOL     OW19258   3.804   2.854   6.789 -0.3467 -0.2225  0.2700
 2599SOL    HW119259   3.855   2.931   6.815 -0.4839  0.0754 -0.3553
 2599SOL    HW219260   3.780   2.820   6.876  0.0397 -0.1159  0.4182
 2600SOL     OW19261   1.617   1.670  15.534  0.7295  0.4650  0.0537
 2600SOL    HW119262   1.590   1.673  15.443 -3.6354 -1.0701  1.2948
 2600SOL    HW219263   1.542   1.696  15.587  0.2807 -0.3812 -0.1765
 2601SOL     OW19264   3.351   1.408   6.356 -0.5549 -0.5022 -0.3241
 2601SOL    HW119265   3.407   1.484   6.371 -1.2502 -0.0175 -0.1826
 2601SOL    HW219266   3.418   1.339   6.348 -1.9505 -1.9029  0.1579
 2602SOL     OW19267   2.623   0.501   2.923  0.0028 -1.0619 -0.0309
 2602SOL    HW119268   2.541   0.549   2.932  0.8611  0.5887 -0.9533
 2602SOL    HW219269   2.666   0.574   2.878 -0.7066  0.0415  1.0793
 2603SOL     OW19270   2.598   1.443   6.514  0.3980  0.5988 -0.1152
 2603SOL    HW119271   2.653   1.419   6.440 -0.6259  0.7269 -0.9275
 2603SOL    HW219272   2.564   1.359   6.543  0.5764  0.7782  0.6184
 2604SOL     OW19273   0.959   2.146   2.145  0.0660 -0.0242  0.8856
 2604SOL    HW119274   0.876   2.175   2.183  0.4555 -0.5314  2.1025
 2604SOL    HW219275   0.957   2.185   2.057 -1.7122  1.5609  1.6200
 2605SOL     OW19276   4.515   1.879  13.476  0.5286 -0.8604 -0.0063
 2605SOL    HW119277   4.513   1.787  13.452 -2.5016 -1.0377  0.8826
 2605SOL    HW219278   4.589   1.867  13.536  0.7289  0.0350 -0.0686
 2606SOL     OW19279   3.419   2.930   0.188 -0.4609 -0.3129 -0.2234
 2606SOL    HW119280   3.350   2.991   0.214 -1.1262 -1.7252  1.3239
 2606SOL    HW219281   3.456   2.975   0.112  3.6430 -0.5763  1.6046
 2607SOL     OW19282   1.731   3.200  15.385  0.0944 -0.0536  0.4685
 2607SOL    HW119283   1.806   3.236  15.339  1.6786 -2.2649  1.3145
 2607SOL    HW219284   1.662   3.255  15.348  0.1266 -0.2825  0.0718
 2608SOL     OW19285   3.406   3.742   4.254 -0.7804 -0.7942  0.0034
 2608SOL    HW119286   3.394   3.672   4.318  2.5309 -1.6863 -0.3818
 2608SOL    HW219287   3.399   3.810   4.321 -2.1555  0.1645 -1.1147
 2609SOL     OW19288   0.392   3.734   3.824  0.4561 -0.2905 -0.5552
 2609SOL    HW119289   0.455   3.684   3.773 -1.8170 -3.4208 -0.3269
 2609SOL    HW219290   0.449   3.760   3.896 -2.7253  1.7807  1.2351
 2610SOL     OW19291   2.498   1.470   3.558 -0.5816 -0.4703  0.0219
 2610SOL    HW119292   2.463   1.547   3.514 -0.5900 -0.0096  0.8478
 2610SOL    HW219293   2.581   1.461   3.510 -0.4596  0.3674  0.0691
 2611SOL     OW19294   2.982   4.674   3.554  0.2829  0.3637  0.0161
 2611SOL    HW119295   2.903   4.723   3.531  0.2400  0.6405  0.7259
 2611SOL    HW219296   3.041   0.022   3.557 -2.1622  2.3149  0.2685
 2612SOL     OW19297   0.411   1.064  14.136  0.0248  0.0052  0.3121
 2612SOL    HW119298   0.413   1.117  14.056  1.9986  1.4488  1.3328
 2612SOL    HW219299   0.505   1.059  14.154  0.5354 -1.6413 -2.7759
 2613SOL     OW19300   4.357   2.888  12.055  0.3254 -0.2385 -0.1554
 2613SOL    HW119301   4.351   2.960  12.118 -0.0513 -1.3543  1.0681
 2613SOL    HW219302   4.442   2.852  12.080  2.0010  2.5055 -1.9082
 2614SOL     OW19303   2.552   2.089   3.960  0.1622  0.5619  0.0661
 2614SOL    HW119304   2.551   2.001   3.922 -2.0955  0.0422  1.2825
 2614SOL    HW219305   2.463   2.092   3.995  0.1242 -1.7764  0.1249
 2615SOL     OW19306   0.415   2.047   6.261  0.9172  0.2811 -0.4196
 2615SOL    HW119307   0.393   1.953   6.261 -0.3456  0.5687 -0.1854
 2615SOL    HW219308   0.334   2.074   6.218  1.1856  0.9748 -0.4707
 2616SOL     OW19309   2.355   0.184   8.428  0.3915  0.4415 -0.0723
 2616SOL    HW119310   2.381   0.110   8.483 -1.3813 -0.5045 -0.5257
 2616SOL    HW219311   2.400   0.169   8.345 -1.4816 -1.0358 -0.8202
 2617SOL     OW19312   3.006   4.579   8.050 -0.2259 -0.8130 -0.1789
 2617SOL    HW119313   3.094   4.610   8.074 -0.5438  0.0343 -0.0844
 2617SOL    HW219314   3.026   4.499   8.001 -0.7872 -0.3718 -1.1196
 2618SOL     OW19315   2.135   1.246  16.101 -0.2407 -0.1095  0.1175
 2618SOL    HW119316   2.150   1.171  16.043 -0.3472 -0.3424  0.3924
 2618SOL    HW219317   2.066   1.292  16.053  0.8220  2.5445  1.1331
 2619SOL     OW19318   2.590   2.011   4.372 -0.1587 -1.1150  0.4318
 2619SOL    HW119319   2.563   1.921   4.392 -0.0184 -0.5763  3.1141
 2619SOL    HW219320   2.680   1.978   4.370  0.0334 -0.5273 -0.4993
 2620SOL     OW19321   1.211   4.578   1.505 -0.0751  0.4326 -0.8377
 2620SOL    HW119322   1.285   4.538   1.459 -0.2948 -1.1855  0.2055
 2620SOL    HW219323   1.130   4.532   1.483  1.6841 -3.4138  0.6889
 2621SOL     OW19324   2.220   0.931  17.230 -0.3496 -0.2789  0.1045
 2621SOL    HW119325   2.137   0.975  17.212 -0.4857  0.0893  1.6106
 2621SOL    HW219326   2.225   0.859  17.167  2.8850 -2.2114  2.5902
 2622SOL     OW19327   2.807   0.001   9.389  0.2283  0.4928 -0.4584
 2622SOL    HW119328   2.898   0.000   9.359  0.3227  1.5463 -0.2051
 2622SOL    HW219329   2.776   4.648   9.346 -0.1149  0.5224 -0.2632
 2623SOL     OW19330   3.312   2.988  17.447  0.5679  0.5948  0.7516
 2623SOL    HW119331   3.244   2.974  17.381  0.5605 -1.2410  1.1515
 2623SOL    HW219332   3.271   3.066  17.484 -3.0648 -0.4558 -1.0398
 2624SOL     OW19333   0.282   0.920   3.508 -0.1186 -0.5740 -0.2948
 2624SOL    HW119334   0.330   0.838   3.501 -0.5622 -0.7060 -1.9243
 2624SOL    HW219335   0.331   0.982   3.454 -0.8409 -0.4716 -0.8489
 2625SOL     OW19336   4.126   1.936   7.188 -0.0118 -0.4378 -0.1843
 2625SOL    HW119337   4.085   1.939   7.101  1.3939 -2.6603 -0.9407
 2625SOL    HW219338   4.050   1.952   7.243 -0.9083 -0.7373 -1.3211
 2626SOL     OW19339   0.007   3.064   2.300  0.0741 -0.3587  0.0156
 2626SOL    HW119340   4.680   3.094   2.373  1.6772  1.2302  0.5539
 2626SOL    HW219341   4.661   3.021   2.255 -1.2446  0.1995  1.5999
 2627SOL     OW19342   3.824   1.852   0.958  0.1829  0.0961  0.6085
 2627SOL    HW119343   3.830   1.793   1.033 -0.6701 -1.6783 -0.7332
 2627SOL    HW219344   3.741   1.893   0.983  0.2380  1.8235 -2.0373
 2628SOL     OW19345   0.250   3.952   7.339  0.1726  0.1617  0.2967
 2628SOL    HW119346   0.316   4.008   7.298  0.4190  0.2852  0.8531
 2628SOL    HW219347   0.206   3.918   7.261 -0.2927 -2.2419  1.6236
 2629SOL     OW19348   2.826   2.313  13.593  0.1760 -0.0534 -0.1483
 2629SOL    HW119349   2.856   2.242  13.536  3.1323  0.5922  0.5999
 2629SOL    HW219350   2.823   2.260  13.672  0.6310  0.5216  0.2485
 2630SOL     OW19351   4.116   2.931   5.743 -0.1454 -0.1227  0.5430
 2630SOL    HW119352   4.154   2.862   5.797  1.7069  2.2022  2.1786
 2630SOL    HW219353   4.170   3.009   5.746  0.3267 -0.3083 -2.5618
 2631SOL     OW19354   0.770   3.309   0.186  0.3324  0.0928 -0.2422
 2631SOL    HW119355   0.741   3.313   0.095 -1.8491 -3.5653  0.2947
 2631SOL    HW219356   0.746   3.390   0.232 -0.9162 -0.3177 -0.1570
 2632SOL     OW19357   2.969   0.671   7.548 -0.0182  0.2081  0.4879
 2632SOL    HW119358   2.906   0.738   7.573 -0.0881 -0.4601  2.0771
 2632SOL    HW219359   2.945   0.621   7.626 -2.4010 -0.6375 -0.7982
 2633SOL     OW19360   2.953   2.371   5.594  0.2027 -0.1349  0.0453
 2633SOL    HW119361   2.970   2.332   5.508  0.6309  0.8896 -0.3392
 2633SOL    HW219362   2.886   2.314   5.632  1.2512  0.0648  2.1582
 2634SOL     OW19363   4.055   2.988   9.614 -0.1495  0.2405  0.0031
 2634SOL    HW119364   3.997   2.942   9.676  0.9167  1.4463  1.8935
 2634SOL    HW219365   4.076   3.068   9.662 -0.6932  0.7874 -0.6656
 2635SOL     OW19366   3.085   4.038  16.842 -0.2096 -0.5792 -0.1904
 2635SOL    HW119367   2.990   4.048  16.835 -0.2788  1.0526  2.8753
 2635SOL    HW219368   3.098   3.947  16.868  0.1463 -0.7237 -0.9031
 2636SOL     OW19369   1.982   2.759   2.088 -0.7824  0.5009 -0.1534
 2636SOL    HW119370   2.057   2.798   2.133  0.1015  0.1324 -1.3233
 2636SOL    HW219371   2.021   2.679   2.054 -0.3418 -0.1391  1.8746
 2637SOL     OW19372   1.471   3.942   7.262 -0.1846 -0.1516  0.0166
 2637SOL    HW119373   1.395   3.891   7.291  1.0107 -1.2304  1.2414
 2637SOL    HW219374   1.443   4.030   7.289 -3.2594 -0.5337 -1.9559
 2638SOL     OW19375   1.486   3.844  13.587 -0.6291  0.2711  0.4600
 2638SOL    HW119376   1.462   3.822  13.677 -0.9253 -0.5417  0.1764
 2638SOL    HW219377   1.574   3.806  13.588 -0.1203  1.4168  0.5246
 2639SOL     OW19378   1.125   0.813   5.717 -0.6502 -0.4363 -0.5568
 2639SOL    HW119379   1.031   0.830   5.712 -0.6295  0.3967  1.7825
 2639SOL    HW219380   1.147   0.870   5.791  0.6571 -1.5316 -0.1091
 2640SOL     OW19381   2.889   3.102   6.711 -0.0007 -0.2897  0.1369
 2640SOL    HW119382   2.954   3.054   6.660  2.3246  1.5108  1.4038
 2640SOL    HW219383   2.820   3.037   6.715 -0.8565  0.7256  1.8219
 2641SOL     OW19384   4.018   4.671   1.995  1.1135  0.2983 -0.3662
 2641SOL    HW119385   3.933   4.703   1.965  0.4057 -0.7112  0.5697
 2641SOL    HW219386   4.027   4.592   1.942  0.4273 -0.3117  0.4172
 2642SOL     OW19387   1.414   1.090   7.254 -0.1003  0.2720 -0.1374
 2642SOL    HW119388   1.372   1.015   7.212  2.7400 -0.7551 -1.1417
 2642SOL    HW219389   1.354   1.161   7.233 -0.2768  0.9462  2.6666
 2643SOL     OW19390   3.309   3.429  14.392  0.6172 -0.2159 -0.4315
 2643SOL    HW119391   3.289   3.459  14.481  1.1142  0.8087 -0.6684
 2643SOL    HW219392   3.224   3.409  14.353  0.8198  0.1291 -1.0429
 2644SOL     OW19393   1.262   0.561  16.977 -0.1364 -0.0375  0.5774
 2644SOL    HW119394   1.356   0.570  16.989  0.3411  0.3217 -3.2547
 2644SOL    HW219395   1.256   0.625  16.906  0.5615 -0.0638  0.4982
 2645SOL     OW19396   0.653   0.895  14.876 -0.2662 -0.1095 -0.5928
 2645SOL    HW119397   0.595   0.950  14.822  0.9896  2.3873  0.5810
 2645SOL    HW219398   0.673   0.957  14.946 -1.1519 -0.2746 -0.1923
 2646SOL     OW19399   1.861   1.915   4.004  0.3973  0.0693  0.5676
 2646SOL    HW119400   1.872   1.948   4.094 -0.4126 -1.3109  1.1778
 2646SOL    HW219401   1.776   1.872   4.015 -0.6591  1.4106 -2.4588
 2647SOL     OW19402   0.049   3.638  13.575  0.5011  0.2551  0.2744
 2647SOL    HW119403   0.103   3.646  13.653  1.8555  0.1817 -0.6449
 2647SOL    HW219404   0.079   3.554  13.541 -0.4162 -0.1410  0.4565
 2648SOL     OW19405   0.975   4.184   6.735 -0.0962 -0.3673 -0.2577
 2648SOL    HW119406   1.028   4.137   6.671 -1.6313 -0.8346 -1.1653
 2648SOL    HW219407   0.986   4.144   6.822  1.6751  1.8489  0.5711
 2649SOL     OW19408   0.525   2.965   6.111 -0.7500 -0.5999 -0.3643
 2649SOL    HW119409   0.542   3.037   6.050  1.1957 -0.9864 -0.2702
 2649SOL    HW219410   0.598   2.908   6.088 -0.7683 -0.6678 -0.2555
 2650SOL     OW19411   2.190   3.406   1.745  0.5840  0.4748  0.1582
 2650SOL    HW119412   2.163   3.326   1.699 -0.5722 -0.4693  2.4727
 2650SOL    HW219413   2.282   3.383   1.760  0.0010 -1.5393  0.7476
 2651SOL     OW19414   4.001   1.783   0.763  0.5687 -0.2245  0.1021
 2651SOL    HW119415   3.929   1.790   0.825  1.2245 -1.2911  0.9859
 2651SOL    HW219416   3.967   1.839   0.693 -0.4155 -0.3871  0.4601
 2652SOL     OW19417   1.726   0.979   3.777  0.1915 -0.7478  0.1156
 2652SOL    HW119418   1.756   0.997   3.688 -1.5380  1.2734 -0.0554
 2652SOL    HW219419   1.793   1.016   3.835  0.1523  0.4720 -0.6298
 2653SOL     OW19420   3.232   3.844   7.951  0.4835 -0.0511 -0.0597
 2653SOL    HW119421   3.288   3.845   7.873 -0.6747 -2.6027 -0.9394
 2653SOL    HW219422   3.175   3.768   7.937 -0.9004  1.0841 -0.5768
 2654SOL     OW19423   0.361   2.318  13.381  0.4644  0.8945  0.2676
 2654SOL    HW119424   0.266   2.325  13.379  0.4559  1.0080  1.1599
 2654SOL    HW219425   0.385   2.355  13.296  0.5183 -1.3481 -0.7091
 2655SOL     OW19426   4.012   4.355  16.085 -0.1798  0.5062  0.7718
 2655SOL    HW119427   4.091   4.341  16.138  0.0733  2.2709  0.8534
 2655SOL    HW219428   3.946   4.298  16.125  0.5652 -2.5843 -2.3850
 2656SOL     OW19429   3.244   2.006   3.552  0.3511  0.4538 -0.2610
 2656SOL    HW119430   3.155   2.035   3.528 -0.2688 -0.6945  0.6670
 2656SOL    HW219431   3.283   2.088   3.581 -1.7244  1.1992  0.4298
 2657SOL     OW19432   0.523   3.149   4.665  0.0652  0.2504  0.6220
 2657SOL    HW119433   0.521   3.176   4.757 -2.3368  2.9926 -0.2432
 2657SOL    HW219434   0.595   3.202   4.629 -0.3404  0.3887  0.0231
 2658SOL     OW19435   0.581   4.450   8.315 -0.5521 -0.2319  0.0993
 2658SOL    HW119436   0.609   4.363   8.288  0.2275  0.6343 -1.8780
 2658SOL    HW219437   0.626   4.501   8.248 -0.8301  1.6462  1.3367
 2659SOL     OW19438   2.675   2.365   9.416  0.1754  0.8768 -0.0242
 2659SOL    HW119439   2.639   2.345   9.502 -0.7295  0.2442 -0.5502
 2659SOL    HW219440   2.601   2.350   9.357  0.0768 -1.7584  0.7533
 2660SOL     OW19441   2.652   0.974   7.315  0.7721 -0.2141  0.2853
 2660SOL    HW119442   2.701   0.923   7.380 -0.1323 -0.1451  1.0110
 2660SOL    HW219443   2.658   0.917   7.239  0.5662 -0.1143  0.1953
 2661SOL     OW19444   0.506   2.578   7.884 -0.3343 -0.7766  0.0809
 2661SOL    HW119445   0.571   2.536   7.828  0.3801 -0.5873  0.7756
 2661SOL    HW219446   0.557   2.644   7.931  0.5175  0.7378 -2.9617
 2662SOL     OW19447   3.792   1.719   2.759 -0.4386  0.0390  0.2131
 2662SOL    HW119448   3.796   1.801   2.808 -1.0936  1.3587 -1.9191
 2662SOL    HW219449   3.773   1.755   2.672 -0.4220 -0.3561  0.0427
 2663SOL     OW19450   0.707   1.403  12.718  0.0208 -0.2585 -0.1027
 2663SOL    HW119451   0.796   1.435  12.730 -0.7259  1.8454 -0.1548
 2663SOL    HW219452   0.705   1.397  12.622 -0.4043 -0.2728 -0.0928
 2664SOL     OW19453   3.541   4.201   4.848 -0.0661  0.5155 -0.2144
 2664SOL    HW119454   3.576   4.149   4.775  0.3386  0.7186 -0.1627
 2664SOL    HW219455   3.465   4.146   4.867 -0.6204  0.4014 -2.6555
 2665SOL     OW19456   3.795   1.107   3.572 -0.2510 -0.2177 -0.1289
 2665SOL    HW119457   3.833   1.179   3.522 -0.5951  0.3188  0.3784
 2665SOL    HW219458   3.723   1.086   3.514  0.2496 -0.0626 -0.8056
 2666SOL     OW19459   3.175   0.431   8.504  0.1859  0.6036 -0.2823
 2666SOL    HW119460   3.143   0.443   8.594  2.7895  1.8094  0.5059
 2666SOL    HW219461   3.170   0.336   8.500  0.9649  0.4518  2.1089
 2667SOL     OW19462   1.737   2.628   8.132 -0.5190 -0.1586  0.4156
 2667SOL    HW119463   1.816   2.647   8.082 -0.8315 -1.5231 -0.5849
 2667SOL    HW219464   1.743   2.669   8.219 -1.7783  0.7401  0.0792
 2668SOL     OW19465   0.620   1.176  10.301  0.2479 -0.2168 -0.1291
 2668SOL    HW119466   0.528   1.150  10.299  0.2484 -0.3335  1.5671
 2668SOL    HW219467   0.646   1.107  10.363 -0.8304 -1.4582 -1.0665
 2669SOL     OW19468   2.571   3.957   6.118  0.0340  0.3168 -0.1173
 2669SOL    HW119469   2.598   4.031   6.064  3.0850 -0.9093 -0.2734
 2669SOL    HW219470   2.640   3.965   6.184 -0.2495 -0.2380  0.2489
 2670SOL     OW19471   3.459   1.630   5.272  0.1375  0.1243  0.4319
 2670SOL    HW119472   3.526   1.574   5.310  0.2449 -0.7074 -0.9795
 2670SOL    HW219473   3.455   1.697   5.340 -2.7982  1.7961 -1.3833
 2671SOL     OW19474   3.225   0.642  14.724  0.0101 -0.1380  0.9491
 2671SOL    HW119475   3.219   0.732  14.690 -0.8827 -0.1246  1.1447
 2671SOL    HW219476   3.159   0.589  14.678  0.2835  0.6135 -0.3242
 2672SOL     OW19477   4.492   0.873   6.946 -0.6877  0.8004 -0.0320
 2672SOL    HW119478   4.538   0.808   6.894  1.2191  3.3942 -1.6232
 2672SOL    HW219479   4.450   0.924   6.877 -4.0359  0.3565  1.7087
 2673SOL     OW19480   3.810   4.325   2.286  0.6001  0.3516  0.0952
 2673SOL    HW119481   3.719   4.297   2.297  0.3917  1.0307  0.1140
 2673SOL    HW219482   3.860   4.279   2.354  1.3281 -1.2170 -1.5149
 2674SOL     OW19483   3.364   2.058   7.460  0.4779  0.2319 -0.3546
 2674SOL    HW119484   3.289   2.029   7.408  0.5056  0.9977 -0.8231
 2674SOL    HW219485   3.429   2.020   7.401 -1.3692  0.2432 -2.3842
 2675SOL     OW19486   1.755   3.397  14.130 -0.4029  0.1575  0.0337
 2675SOL    HW119487   1.759   3.303  14.114 -0.8247 -0.2005  1.9859
 2675SOL    HW219488   1.767   3.441  14.046  1.2344 -0.1335  0.1142
 2676SOL     OW19489   4.684   4.523   1.238 -0.0844  0.1591  0.1961
 2676SOL    HW119490   4.653   4.559   1.155 -1.0564  1.0216  0.9260
 2676SOL    HW219491   0.040   4.477   1.224  1.2243  2.3683  0.6482
 2677SOL     OW19492   3.178   1.693   8.446  0.0422 -0.0761 -0.0904
 2677SOL    HW119493   3.120   1.718   8.374  0.9763  3.1324  0.2997
 2677SOL    HW219494   3.238   1.623   8.417  1.1907 -0.3826  3.1017
 2678SOL     OW19495   2.660   1.154   8.275 -0.6278 -0.2466  0.2479
 2678SOL    HW119496   2.653   1.234   8.223 -2.5284  0.2950  1.3527
 2678SOL    HW219497   2.585   1.105   8.242 -1.1490  0.6172  0.1449
 2679SOL     OW19498   2.374   2.775  12.755  0.1081 -0.3812  0.5049
 2679SOL    HW119499   2.292   2.726  12.760 -0.8104  1.1404  0.1541
 2679SOL    HW219500   2.346   2.864  12.735  1.1493  0.4199  2.5735
 2680SOL     OW19501   4.645   4.276   5.869 -0.7689 -0.8988  0.2606
 2680SOL    HW119502   4.612   4.321   5.947 -0.6043  0.1818 -0.2963
 2680SOL    HW219503   4.606   4.189   5.878 -2.2180 -0.3966 -1.1959
 2681SOL     OW19504   2.803   0.940   1.320 -0.0643 -0.1361 -0.0010
 2681SOL    HW119505   2.782   0.907   1.407  2.1584  1.3147  1.1083
 2681SOL    HW219506   2.829   1.028   1.345 -2.2651  0.4799  0.1024
 2682SOL     OW19507   3.444   1.894   1.483  0.2856  0.1279 -0.6215
 2682SOL    HW119508   3.417   1.835   1.413 -2.2338  2.0363 -1.2886
 2682SOL    HW219509   3.535   1.912   1.463  0.0261  1.7708 -0.3444
 2683SOL     OW19510   0.294   0.490  17.369  0.4119 -0.2071 -0.2416
 2683SOL    HW119511   0.248   0.407  17.352 -2.7876  2.2232 -3.6251
 2683SOL    HW219512   0.234   0.552  17.328  1.2184  1.3986  1.0524
 2684SOL     OW19513   0.741   4.378   4.484  0.1181 -0.1324  0.1417
 2684SOL    HW119514   0.759   4.417   4.399  2.5211 -0.7467  0.3796
 2684SOL    HW219515   0.775   4.441   4.549 -1.9022  0.5522  0.5362
 2685SOL     OW19516   2.351   4.403   7.544 -0.1169 -0.7933 -0.2173
 2685SOL    HW119517   2.412   4.339   7.505 -0.0639  0.3495 -2.0283
 2685SOL    HW219518   2.269   4.354   7.541 -0.8266  0.4796 -1.7579
 2686SOL     OW19519   3.543   0.016   7.447  0.2588 -0.8227 -0.8533
 2686SOL    HW119520   3.527   0.031   7.540 -1.3901  0.6761 -1.3767
 2686SOL    HW219521   3.530   4.649   7.428 -0.2157 -0.8385 -0.4589
 2687SOL     OW19522   2.022   1.853   2.590  0.7415  0.7298 -0.1459
 2687SOL    HW119523   1.965   1.778   2.573 -1.4599  2.1086  1.0899
 2687SOL    HW219524   2.064   1.834   2.674  1.5368 -2.1312 -1.1807
 2688SOL     OW19525   1.634   2.162  13.509  0.6284 -0.1282  0.0915
 2688SOL    HW119526   1.575   2.234  13.529  1.6135  0.5236  0.6483
 2688SOL    HW219527   1.587   2.083  13.536  0.8626 -0.3556 -0.1676
 2689SOL     OW19528   4.425   1.112   2.154 -0.0654  0.1672 -0.1871
 2689SOL    HW119529   4.359   1.149   2.096 -0.8151 -2.7950 -1.2533
 2689SOL    HW219530   4.501   1.150   2.111 -0.3990 -0.0119 -0.9422
 2690SOL     OW19531   3.688   1.882  11.016 -0.0976  0.2013  0.1232
 2690SOL    HW119532   3.606   1.859  11.060  0.6190  0.1568  1.4236
 2690SOL    HW219533   3.643   1.926  10.944 -0.7832 -1.0713 -0.2306
 2691SOL     OW19534   3.481   2.154  15.452 -0.0561 -0.4461  0.7254
 2691SOL    HW119535   3.429   2.232  15.432  0.3507 -0.1229  0.9147
 2691SOL    HW219536   3.564   2.186  15.416  1.3302 -1.8087  2.6719
 2692SOL     OW19537   0.927   3.344   8.510 -0.4192  0.2424 -0.8875
 2692SOL    HW119538   0.969   3.366   8.593  0.9675 -0.8599 -1.3007
 2692SOL    HW219539   0.957   3.415   8.454  2.1534  0.6704  1.0300
 2693SOL     OW19540   2.142   0.816  13.712  0.1196  0.0654  0.0298
 2693SOL    HW119541   2.178   0.751  13.651 -1.4699 -0.4096 -0.3919
 2693SOL    HW219542   2.097   0.759  13.775 -2.2475  3.2944  1.2278
 2694SOL     OW19543   2.214   3.032   7.729  0.1096 -0.1472  0.7660
 2694SOL    HW119544   2.118   3.033   7.730  0.0986 -0.6372 -0.2028
 2694SOL    HW219545   2.229   2.986   7.647  0.3759 -0.6121  1.0738
 2695SOL     OW19546   4.571   4.530   8.079 -0.5996 -0.0277 -0.1374
 2695SOL    HW119547   4.589   4.510   8.171 -0.4536 -2.7652 -0.7580
 2695SOL    HW219548   4.476   4.538   8.069 -0.6377 -0.0755  0.1834
 2696SOL     OW19549   0.492   3.815   8.779 -0.0466  0.0221 -0.6136
 2696SOL    HW119550   0.493   3.741   8.840 -0.5395  1.0494  0.6515
 2696SOL    HW219551   0.575   3.800   8.733  0.2072 -2.7277  0.6936
 2697SOL     OW19552   0.011   2.869   0.556  0.4789  0.2745  0.1627
 2697SOL    HW119553   0.068   2.876   0.633 -0.9652  1.6743  1.1077
 2697SOL    HW219554   0.074   2.843   0.488  0.4995  1.3054 -0.2102
 2698SOL     OW19555   2.656   3.907   0.480  0.1053  0.2370  0.2267
 2698SOL    HW119556   2.628   3.823   0.444 -0.6279  0.5494  0.0619
 2698SOL    HW219557   2.626   3.963   0.409 -0.0633 -2.1090 -1.5711
 2699SOL     OW19558   2.157   3.198  14.872  0.1316 -0.1249 -0.3472
 2699SOL    HW119559   2.146   3.136  14.800 -0.5257  0.0137 -0.3661
 2699SOL    HW219560   2.232   3.154  14.912  1.9469  2.1020 -1.2580
 2700SOL     OW19561   2.825   1.332   7.910  0.4241 -0.5264 -0.0647
 2700SOL    HW119562   2.774   1.320   7.831  0.4290  1.3034 -0.3524
 2700SOL    HW219563   2.913   1.307   7.880 -0.9803 -3.0892 -1.9605
 2701SOL     OW19564   3.467   0.119   8.021 -0.8500  0.4926 -0.0269
 2701SOL    HW119565   3.513   0.157   7.946  0.1561 -1.5361 -0.4510
 2701SOL    HW219566   3.428   0.198   8.057 -2.0103  0.1371 -0.5156
 2702SOL     OW19567   0.233   0.935   8.846 -0.0141  0.0046 -0.6318
 2702SOL    HW119568   0.231   0.915   8.752 -1.4033 -1.4818 -0.2790
 2702SOL    HW219569   0.175   1.012   8.846 -0.0246  0.0052  2.1384
 2703SOL     OW19570   2.277   1.014   5.398  0.5624 -0.7738 -0.3238
 2703SOL    HW119571   2.325   0.972   5.469  0.3239 -0.2284  0.1612
 2703SOL    HW219572   2.296   1.105   5.419  0.0561 -0.7501  0.0315
 2704SOL     OW19573   4.543   1.402   9.143  0.4639  0.4460  0.2536
 2704SOL    HW119574   4.513   1.438   9.226 -0.2542  2.4595 -0.8808
 2704SOL    HW219575   4.636   1.422   9.150 -0.0886  2.2794  2.0900
 2705SOL     OW19576   1.970   0.419   8.071  0.4699  0.4278  0.2537
 2705SOL    HW119577   1.955   0.478   7.997  0.6259 -0.4532 -0.4805
 2705SOL    HW219578   1.917   0.346   8.040 -0.8792  0.4442  2.5338
 2706SOL     OW19579   3.591   0.889   6.820  0.3991 -0.1893  0.5838
 2706SOL    HW119580   3.569   0.971   6.864 -0.7820 -0.6510  0.8612
 2706SOL    HW219581   3.648   0.919   6.750  0.0544 -0.3211  0.2416
 2707SOL     OW19582   2.396   2.527   3.754 -0.0259 -0.3985  0.1607
 2707SOL    HW119583   2.438   2.586   3.817 -2.9158  0.2753  1.4462
 2707SOL    HW219584   2.346   2.479   3.820 -2.8447  1.7712 -0.3704
 2708SOL     OW19585   1.037   1.047   3.018 -1.1352 -0.6647 -0.7975
 2708SOL    HW119586   1.053   0.983   3.088 -1.6062  1.0811  0.8985
 2708SOL    HW219587   1.021   1.131   3.061 -0.3208 -0.8922 -0.0560
 2709SOL     OW19588   4.034   4.100   6.919  0.0912 -0.2532 -0.4380
 2709SOL    HW119589   3.945   4.069   6.934  0.0723 -1.9198 -3.9503
 2709SOL    HW219590   4.082   4.070   6.996  0.5499 -0.4380 -0.7989
 2710SOL     OW19591   1.390   2.488   6.587 -0.1828 -0.1115  0.0525
 2710SOL    HW119592   1.385   2.412   6.646  0.5828  2.8823  3.9837
 2710SOL    HW219593   1.430   2.551   6.647 -1.8737 -0.8679  2.0235
 2711SOL     OW19594   2.432   0.965   6.687  0.6207  0.1455 -0.8392
 2711SOL    HW119595   2.462   0.878   6.659  0.1209 -0.3976  0.3335
 2711SOL    HW219596   2.343   0.933   6.701  2.3555 -3.7921  1.2466
 2712SOL     OW19597   0.733   3.521   0.330  0.0773 -0.0970  0.0381
 2712SOL    HW119598   0.753   3.550   0.419 -1.5012 -1.5907  0.9000
 2712SOL    HW219599   0.672   3.586   0.294  0.3931 -0.0342 -0.3793
 2713SOL     OW19600   0.698   1.763   8.338 -0.2517 -0.0633 -0.2075
 2713SOL    HW119601   0.625   1.717   8.379  0.8851 -0.6011  1.1939
 2713SOL    HW219602   0.757   1.688   8.326  1.4382  1.2756 -0.3727
 2714SOL     OW19603   2.008   2.449   2.293 -0.1330  0.9983 -0.0805
 2714SOL    HW119604   2.081   2.469   2.353 -0.1405  0.3518  0.1479
 2714SOL    HW219605   2.058   2.453   2.212  0.3454  0.1709  0.1637
 2715SOL     OW19606   4.022   0.046  14.074  0.3018 -0.1892  0.1424
 2715SOL    HW119607   4.087   0.115  14.065 -0.8094  0.7822 -0.5779
 2715SOL    HW219608   3.942   0.097  14.089  0.2093 -0.1703 -0.4202
 2716SOL     OW19609   1.706   1.581   5.668 -0.0807  0.3364 -0.2311
 2716SOL    HW119610   1.663   1.617   5.591  0.7495  0.4871 -0.6173
 2716SOL    HW219611   1.652   1.625   5.733 -0.7818 -0.8179 -0.0234
 2717SOL     OW19612   0.592   1.124  11.540  0.0174  0.0710 -0.1570
 2717SOL    HW119613   0.595   1.056  11.473  0.2158 -1.4170  1.3812
 2717SOL    HW219614   0.499   1.122  11.562  0.2338 -0.6329  0.6777
 2718SOL     OW19615   1.504   1.032  10.369 -0.1743 -0.3671 -0.5100
 2718SOL    HW119616   1.468   1.120  10.359 -0.1306 -0.4804 -1.7310
 2718SOL    HW219617   1.454   1.010  10.446  1.1768  0.7262  0.6879
 2719SOL     OW19618   2.617   2.256   8.908 -0.2050  0.0951 -0.1742
 2719SOL    HW119619   2.674   2.318   8.954  0.9155 -1.4785  0.5730
 2719SOL    HW219620   2.541   2.308   8.882 -0.1236  0.8685  1.0909
 2720SOL     OW19621   3.348   2.646   9.244  0.2120  0.2955 -0.0731
 2720SOL    HW119622   3.361   2.655   9.149 -3.8647  2.1650 -0.4711
 2720SOL    HW219623   3.404   2.715   9.277 -0.7474  2.1231 -2.2215
 2721SOL     OW19624   3.506   0.911  11.362  0.3882  0.0250  0.1508
 2721SOL    HW119625   3.481   0.870  11.279  0.2696  0.4378 -0.0153
 2721SOL    HW219626   3.601   0.899  11.360  0.2952 -0.3359 -2.1636
 2722SOL     OW19627   0.270   2.723   8.658  0.5006  0.2263  0.2715
 2722SOL    HW119628   0.207   2.781   8.701  2.7440  2.2902  0.7464
 2722SOL    HW219629   0.341   2.728   8.722  0.3104 -0.5001  0.5475
 2723SOL     OW19630   4.640   2.701   9.881  0.2777 -0.2580 -0.2691
 2723SOL    HW119631   4.562   2.726   9.832 -0.0815 -0.8658 -0.0130
 2723SOL    HW219632   4.705   2.763   9.848 -1.2911 -0.2722 -3.4143
 2724SOL     OW19633   0.336   1.759   4.461  0.1703 -0.0938 -0.1520
 2724SOL    HW119634   0.351   1.815   4.384  0.6028 -0.6973 -0.5123
 2724SOL    HW219635   0.416   1.788   4.506 -1.8722  2.0260  2.0917
 2725SOL     OW19636   0.226   3.338  10.594 -0.1768  0.0956 -0.0648
 2725SOL    HW119637   0.140   3.298  10.607 -0.5142  0.6437 -0.6146
 2725SOL    HW219638   0.286   3.291  10.652  1.2838 -0.0075 -1.6838
 2726SOL     OW19639   3.620   4.525   6.865 -0.2636 -0.3797  0.2112
 2726SOL    HW119640   3.667   4.456   6.912  0.6345  0.1809  0.1236
 2726SOL    HW219641   3.680   4.555   6.798 -1.4420 -3.3798 -2.1644
 2727SOL     OW19642   3.775   4.605  15.202  0.0287  0.2245 -0.2212
 2727SOL    HW119643   3.824   4.679  15.167 -1.4247  1.1874 -0.2355
 2727SOL    HW219644   3.686   4.631  15.178  0.0208  0.6065  0.2163
 2728SOL     OW19645   2.814   3.931   1.107  0.1468 -0.1625 -0.1902
 2728SOL    HW119646   2.782   3.890   1.187 -0.3213  0.2129 -0.1812
 2728SOL    HW219647   2.736   3.932   1.053 -0.7713  1.5002  1.1441
 2729SOL     OW19648   3.155   3.406   7.488 -0.3311  0.0510 -0.2833
 2729SOL    HW119649   3.236   3.432   7.533 -1.8142 -0.3319  2.6187
 2729SOL    HW219650   3.087   3.404   7.555 -1.6904 -0.9582 -1.6999
 2730SOL     OW19651   1.974   1.484   8.180 -0.1307 -0.5660 -0.3408
 2730SOL    HW119652   2.024   1.445   8.252  0.4944 -0.6528 -0.8220
 2730SOL    HW219653   2.003   1.575   8.187 -0.7349 -0.3019 -1.2903
 2731SOL     OW19654   1.187   2.573   1.900  0.0921  0.4190 -0.2487
 2731SOL    HW119655   1.199   2.483   1.929 -0.2065  0.5937  0.4167
 2731SOL    HW219656   1.092   2.580   1.888 -0.1058  0.6595  1.4402
 2732SOL     OW19657   4.487   0.464  17.139  0.4408  0.4474 -0.1569
 2732SOL    HW119658   4.548   0.407  17.186 -1.2957 -0.4761  0.9853
 2732SOL    HW219659   4.426   0.484  17.210  1.4261 -2.0626  1.3668
 2733SOL     OW19660   1.742   0.496  11.443  0.1809  0.2627 -0.4240
 2733SOL    HW119661   1.732   0.491  11.348 -1.0988 -0.3854 -0.2641
 2733SOL    HW219662   1.668   0.445  11.476  1.5880  0.2960  2.7840
 2734SOL     OW19663   2.397   3.364   2.791  0.0228  0.0249  0.2771
 2734SOL    HW119664   2.400   3.333   2.882  0.5624 -1.1371 -0.1435
 2734SOL    HW219665   2.377   3.285   2.741  0.2864  1.1562 -1.6013
 2735SOL     OW19666   0.394   0.512   8.879  0.3500  0.5373  0.1308
 2735SOL    HW119667   0.360   0.516   8.968  0.2030  0.3518  0.0833
 2735SOL    HW219668   0.315   0.533   8.829 -1.3750 -2.9154  1.3915
 2736SOL     OW19669   2.023   4.492   5.795  0.1680  0.2516 -0.0250
 2736SOL    HW119670   1.984   4.470   5.880  1.4602 -1.1231  0.2187
 2736SOL    HW219671   2.100   4.538   5.830  0.9042 -1.4576  0.6378
 2737SOL     OW19672   2.338   1.714  12.594  0.2960  0.2233 -0.2894
 2737SOL    HW119673   2.372   1.630  12.563  1.6671  0.0962  1.5523
 2737SOL    HW219674   2.366   1.756  12.513  2.0669  0.7862  0.6009
 2738SOL     OW19675   0.788   0.099   2.077  0.1926  0.2679  0.3178
 2738SOL    HW119676   0.788   0.192   2.053  0.4776  0.5340  1.3667
 2738SOL    HW219677   0.706   0.068   2.039  0.6579 -1.9486  1.0878
 2739SOL     OW19678   2.012   1.434   9.732 -0.4950  0.2355 -0.8500
 2739SOL    HW119679   1.973   1.358   9.688  0.0641 -0.1046 -0.7571
 2739SOL    HW219680   1.942   1.497   9.716 -1.3762 -0.9561 -1.6943
 2740SOL     OW19681   1.368   1.000   9.761  0.0299  0.5334  0.3193
 2740SOL    HW119682   1.446   1.030   9.807  0.1696  1.3301 -0.4382
 2740SOL    HW219683   1.319   1.011   9.842 -1.2759  2.6233 -0.7221
 2741SOL     OW19684   3.054   3.376   0.503  0.0130  0.0354 -0.7190
 2741SOL    HW119685   3.011   3.425   0.574 -1.3767 -1.4744 -0.5376
 2741SOL    HW219686   2.982   3.345   0.449 -1.0725 -0.5049  1.0371
 2742SOL     OW19687   1.323   0.284  17.083  0.4456  0.0187  0.0851
 2742SOL    HW119688   1.277   0.353  17.034  0.3058 -0.2175 -0.1176
 2742SOL    HW219689   1.244   0.240  17.115  0.5778 -0.1270  0.2071
 2743SOL     OW19690   4.184   3.372  13.026 -0.9659  0.0099  0.2533
 2743SOL    HW119691   4.148   3.386  12.938  0.3479  2.2888  0.0565
 2743SOL    HW219692   4.118   3.421  13.075 -0.7565  1.0042 -0.4401
 2744SOL     OW19693   3.298   0.865   9.075 -0.1400 -0.6076  0.4012
 2744SOL    HW119694   3.255   0.866   9.160 -0.3616 -2.5107  0.3064
 2744SOL    HW219695   3.385   0.853   9.115 -0.8414 -0.8088  1.8652
 2745SOL     OW19696   0.162   3.911   5.785 -0.1245  0.2835  0.0199
 2745SOL    HW119697   0.070   3.937   5.779 -0.6370 -0.9886  2.2179
 2745SOL    HW219698   0.215   3.987   5.811 -1.3914  1.7097 -1.5942
 2746SOL     OW19699   0.711   4.302   7.460  0.0161  0.2606 -0.6448
 2746SOL    HW119700   0.647   4.321   7.529 -1.2505 -2.5801 -1.0789
 2746SOL    HW219701   0.761   4.235   7.507 -0.2967 -0.5421 -1.4689
 2747SOL     OW19702   0.600   4.002   7.791 -0.3099  0.1353 -0.0930
 2747SOL    HW119703   0.646   4.005   7.875  1.0409 -0.0313 -0.8384
 2747SOL    HW219704   0.662   4.057   7.744  1.6128 -1.2182  0.9025
 2748SOL     OW19705   0.999   4.102  14.106  0.2505  0.2045  0.1785
 2748SOL    HW119706   0.970   4.177  14.158  2.0262  0.1621  1.2096
 2748SOL    HW219707   1.041   4.048  14.172  1.0826  1.1236  0.3980
 2749SOL     OW19708   2.500   0.250  15.194 -0.6201  0.3754  0.0379
 2749SOL    HW119709   2.407   0.231  15.185 -1.0880  2.6602  0.1461
 2749SOL    HW219710   2.492   0.300  15.275  0.2695 -1.2969  1.1729
 2750SOL     OW19711   3.861   4.565   9.987  0.2579  0.5205  0.9225
 2750SOL    HW119712   3.791   4.607  10.037 -0.9880 -2.2575  1.4853
 2750SOL    HW219713   3.933   4.552  10.048  0.4959  0.7305  0.6872
 2751SOL     OW19714   4.323   3.746  14.807  0.0007 -0.1035  0.3951
 2751SOL    HW119715   4.247   3.745  14.865  0.8318  1.3637  1.5036
 2751SOL    HW219716   4.374   3.667  14.824  0.1565  0.5058  2.6770
 2752SOL     OW19717   3.869   0.946  15.479 -0.0746 -0.1350  0.0240
 2752SOL    HW119718   3.842   0.918  15.567  1.8350 -2.6228 -0.1681
 2752SOL    HW219719   3.964   0.962  15.483  0.0895 -1.4247  1.6694
 2753SOL     OW19720   4.468   1.196   2.402 -0.9602 -0.2682  0.2884
 2753SOL    HW119721   4.449   1.166   2.313  0.0697  0.0598 -0.0382
 2753SOL    HW219722   4.563   1.197   2.398 -1.0687  1.1273 -2.0657
 2754SOL     OW19723   2.277   4.711   5.673  0.4330 -0.0037 -0.2048
 2754SOL    HW119724   2.301   4.627   5.634 -1.1297 -0.8268  0.6007
 2754SOL    HW219725   2.299   0.036   5.595 -0.6867 -0.6432 -0.9513
 2755SOL     OW19726   0.657   1.671  11.695  0.0011  0.6531 -0.1955
 2755SOL    HW119727   0.582   1.662  11.753  0.3056  1.2883  0.2971
 2755SOL    HW219728   0.643   1.600  11.632  0.3287  1.6631 -1.4028
 2756SOL     OW19729   1.805   4.077   4.203  0.1840  0.5759 -0.0605
 2756SOL    HW119730   1.778   4.006   4.145  0.7861 -0.2405  0.6607
 2756SOL    HW219731   1.747   4.145   4.169 -2.3213 -1.4637  0.1813
 2757SOL     OW19732   1.505   4.427   9.641  0.0620 -0.1617 -0.2535
 2757SOL    HW119733   1.477   4.367   9.710 -0.3174  1.9408  1.4112
 2757SOL    HW219734   1.561   4.362   9.599  2.6512  2.8140 -1.3784
 2758SOL     OW19735   3.860   3.970   6.653  0.2942 -0.2324  0.0805
 2758SOL    HW119736   3.948   3.936   6.635 -0.0411 -1.4267  0.7039
 2758SOL    HW219737   3.831   3.914   6.725 -1.8844 -0.4770 -0.9828
 2759SOL     OW19738   4.462   1.406   7.351  0.0664 -0.0585  0.0334
 2759SOL    HW119739   4.402   1.481   7.349 -1.2208 -1.0993 -0.5429
 2759SOL    HW219740   4.418   1.352   7.416 -1.0094  1.6656  0.7231
 2760SOL     OW19741   4.430   1.824   5.690 -0.3234  0.1513  0.1860
 2760SOL    HW119742   4.492   1.895   5.677 -1.9638  1.6064  0.3782
 2760SOL    HW219743   4.446   1.796   5.780  1.6129  1.3249  0.1903
 2761SOL     OW19744   1.315   2.886   6.350  0.0151 -0.1950 -0.2088
 2761SOL    HW119745   1.259   2.961   6.372 -0.5363 -0.5230 -0.5024
 2761SOL    HW219746   1.304   2.877   6.255  0.1082  2.7419 -0.4985
 2762SOL     OW19747   2.754   2.928   6.987 -0.1947  0.0029 -0.0732
 2762SOL    HW119748   2.849   2.920   6.972  0.0314  1.1209  0.7515
 2762SOL    HW219749   2.719   2.843   6.961  1.3402 -0.4853 -0.5388
 2763SOL     OW19750   2.264   2.464   2.428 -0.0007  0.3918  0.2175
 2763SOL    HW119751   2.296   2.408   2.358 -0.7283  2.0088 -1.4124
 2763SOL    HW219752   2.340   2.481   2.485 -2.3010 -1.0141  3.7118
 2764SOL     OW19753   2.529   0.270  11.815 -0.3561 -0.0678  0.3755
 2764SOL    HW119754   2.611   0.289  11.770 -0.0543  0.0924  0.9928
 2764SOL    HW219755   2.460   0.291  11.752 -2.5600 -0.0966  2.8023
 2765SOL     OW19756   2.371   4.630   9.248  0.4532  0.6462  0.6102
 2765SOL    HW119757   2.292   4.656   9.296 -0.2975  0.5118 -0.5534
 2765SOL    HW219758   2.388   4.546   9.289  1.6123  1.1009  1.0676
 2766SOL     OW19759   2.535   3.046   1.618  0.3883  0.3059 -0.3890
 2766SOL    HW119760   2.454   3.080   1.578  0.1720  0.2553  0.0110
 2766SOL    HW219761   2.533   2.964   1.569 -1.8426 -0.6262  1.2696
 2767SOL     OW19762   0.393   0.194   7.700 -0.2519 -0.0808  0.8914
 2767SOL    HW119763   0.479   0.234   7.713 -0.3124 -0.4767  2.5696
 2767SOL    HW219764   0.386   0.147   7.783 -0.2774 -0.2274  0.8065
 2768SOL     OW19765   2.794   3.001   8.864  0.2909 -0.4336  0.5077
 2768SOL    HW119766   2.840   3.014   8.947 -0.5717  1.9046  0.6114
 2768SOL    HW219767   2.835   3.062   8.802  0.4773 -0.9647  0.1041
 2769SOL     OW19768   4.313   1.517   1.087 -0.6508  0.0057 -0.1958
 2769SOL    HW119769   4.304   1.443   1.148  4.0278  0.7240  1.4021
 2769SOL    HW219770   4.397   1.543   1.125 -0.8185  0.5212 -0.1862
 2770SOL     OW19771   2.646   3.234   7.692 -0.5111  0.0981  0.8531
 2770SOL    HW119772   2.675   3.235   7.600 -1.1859 -0.0532  0.6428
 2770SOL    HW219773   2.551   3.236   7.695 -0.4936  0.2441  1.2515
 2771SOL     OW19774   0.334   2.304  14.104 -0.1946 -0.3508 -0.4002
 2771SOL    HW119775   0.258   2.245  14.096 -0.4230 -0.1342  0.2087
 2771SOL    HW219776   0.340   2.329  14.011  0.8032  0.2506 -0.1704
 2772SOL     OW19777   0.243   4.256   9.292  0.3339 -0.2349  0.0296
 2772SOL    HW119778   0.184   4.199   9.342  1.2049 -0.3822  0.8810
 2772SOL    HW219779   0.182   4.329   9.279 -0.2564 -1.2178 -2.7648
 2773SOL     OW19780   1.110   4.085   2.306  0.2977 -0.0303 -0.1202
 2773SOL    HW119781   1.044   4.124   2.362 -1.7767  0.7800 -3.1451
 2773SOL    HW219782   1.057   4.095   2.227 -3.2177 -1.6974  2.0353
 2774SOL     OW19783   1.761   3.052  10.269  0.0994 -0.6008  0.1130
 2774SOL    HW119784   1.788   3.105  10.194 -0.0544 -2.0472 -0.9602
 2774SOL    HW219785   1.843   3.038  10.316 -0.4497  0.6932  1.4603
 2775SOL     OW19786   0.944   0.336   8.666 -0.1642 -0.2373  0.7192
 2775SOL    HW119787   0.928   0.258   8.613 -0.0928  0.4355 -0.2991
 2775SOL    HW219788   1.009   0.370   8.605 -1.0473 -0.3712 -0.3200
 2776SOL     OW19789   4.009   3.193   4.294 -0.1405 -0.2415  0.1177
 2776SOL    HW119790   4.102   3.213   4.283 -0.4642  0.8090 -0.6339
 2776SOL    HW219791   3.969   3.280   4.298  1.5378  0.4940  1.0626
 2777SOL     OW19792   0.692   2.501   0.590 -0.4895  0.4624 -0.2318
 2777SOL    HW119793   0.655   2.589   0.579  0.8079  1.0157 -0.2611
 2777SOL    HW219794   0.733   2.501   0.676  2.2692 -2.4908 -1.5209
 2778SOL     OW19795   4.504   1.075   7.454  0.5647 -0.8608 -1.2313
 2778SOL    HW119796   4.500   1.001   7.393  2.0054 -1.3498 -0.7337
 2778SOL    HW219797   4.593   1.106   7.443  0.1586 -0.0922 -2.3382
 2779SOL     OW19798   0.818   1.746  17.660 -0.1409 -0.4535  0.4239
 2779SOL    HW119799   0.798   1.656  17.686 -0.0220 -0.2606  1.1895
 2779SOL    HW219800   0.742   1.774  17.610 -0.0122  0.4035  0.7201
 2780SOL     OW19801   2.329   1.501   6.749  0.7979  1.2672 -0.4685
 2780SOL    HW119802   2.340   1.411   6.719 -1.0715  1.1241 -0.7395
 2780SOL    HW219803   2.395   1.498   6.818 -1.5259 -1.2366  1.6339
 2781SOL     OW19804   4.267   3.181   5.693 -0.0976  0.3708 -0.6036
 2781SOL    HW119805   4.333   3.158   5.627  0.7287 -0.6222  0.5711
 2781SOL    HW219806   4.281   3.275   5.697  1.1320  0.1513  0.1244
 2782SOL     OW19807   1.622   2.180   3.869  0.1642  0.2125 -0.0435
 2782SOL    HW119808   1.633   2.266   3.910 -0.0802  0.1001  0.2539
 2782SOL    HW219809   1.639   2.115   3.937  0.2668 -0.0220 -0.2944
 2783SOL     OW19810   3.380   0.364   9.465 -0.2525 -0.3470 -0.0694
 2783SOL    HW119811   3.330   0.426   9.518 -0.3906 -0.7454  0.2669
 2783SOL    HW219812   3.463   0.376   9.510  1.2103  0.4626 -2.9958
 2784SOL     OW19813   2.442   4.000   3.663  0.3145  0.5459  0.2861
 2784SOL    HW119814   2.359   3.975   3.704  0.7390 -1.9107 -0.3180
 2784SOL    HW219815   2.420   4.076   3.609 -0.0292  1.3998  1.6235
 2785SOL     OW19816   0.349   0.150   4.174  0.4208 -0.3268  0.7186
 2785SOL    HW119817   0.294   0.175   4.248  2.2862  0.6290  1.7971
 2785SOL    HW219818   0.276   0.142   4.113  1.3969  2.4468 -0.8468
 2786SOL     OW19819   1.531   3.814   3.307  0.3851  0.1194 -0.3276
 2786SOL    HW119820   1.548   3.907   3.318  0.9153 -0.4095  3.1440
 2786SOL    HW219821   1.580   3.791   3.228  1.9857 -1.7636  1.2184
 2787SOL     OW19822   4.395   1.283   7.808 -0.2640  0.0122 -0.2392
 2787SOL    HW119823   4.363   1.357   7.860 -1.2818 -0.2853 -0.4479
 2787SOL    HW219824   4.464   1.255   7.868 -1.2545 -1.8846 -0.0029
 2788SOL     OW19825   2.168   4.067   3.744 -0.1405  0.4547  0.9776
 2788SOL    HW119826   2.216   4.150   3.747 -0.2727  0.5939 -1.2300
 2788SOL    HW219827   2.091   4.080   3.800 -1.6098 -1.0878 -0.6753
 2789SOL     OW19828   3.134   4.699   7.635  0.0107 -0.0862  0.2740
 2789SOL    HW119829   3.153   4.615   7.677 -3.1360 -0.6613  0.6098
 2789SOL    HW219830   3.039   4.686   7.629  0.1687 -0.8971 -0.3692
 2790SOL     OW19831   2.809   3.033   1.762 -0.1407 -0.2908 -0.7907
 2790SOL    HW119832   2.722   3.050   1.726  0.4334  1.7406 -1.2221
 2790SOL    HW219833   2.806   3.061   1.854  0.9174 -0.5857 -0.6614
 2791SOL     OW19834   3.871   3.207   6.141  0.8563 -0.0164  0.7294
 2791SOL    HW119835   3.778   3.219   6.162  0.5219 -1.9381  0.3031
 2791SOL    HW219836   3.904   3.162   6.219 -0.6366  0.3181  1.5566
 2792SOL     OW19837   4.593   3.112   2.540  0.2045  0.1950 -0.2749
 2792SOL    HW119838   4.592   3.046   2.609 -0.0956  1.2983  0.7653
 2792SOL    HW219839   4.504   3.143   2.557 -1.0128 -2.6535 -1.3694
 2793SOL     OW19840   3.939   0.618   5.499  0.0368 -0.0297  0.0527
 2793SOL    HW119841   3.991   0.539   5.516 -0.1376  0.0902  1.1681
 2793SOL    HW219842   3.888   0.599   5.421  1.9881 -2.9295 -0.5393
 2794SOL     OW19843   2.412   0.747  17.058 -0.1145 -0.6437  0.0982
 2794SOL    HW119844   2.434   0.825  17.008 -1.7377  0.8363  1.6697
 2794SOL    HW219845   2.450   0.772  17.142 -1.2765  0.0334  0.4256
 2795SOL     OW19846   2.863   0.665   7.013 -0.4351 -0.7490 -0.1802
 2795SOL    HW119847   2.931   0.696   6.953  1.1869 -1.2331  1.4135
 2795SOL    HW219848   2.912   0.645   7.092  1.3718  0.9269 -0.8668
 2796SOL     OW19849   3.301   1.910  16.823 -0.1133  0.1668 -0.0559
 2796SOL    HW119850   3.250   1.972  16.875 -1.8845 -1.4869  0.1894
 2796SOL    HW219851   3.330   1.854  16.896  0.0328  0.7714  0.3453
 2797SOL     OW19852   1.966   3.375   7.781 -0.1621  0.1062 -0.1555
 2797SOL    HW119853   1.891   3.421   7.744 -0.4470 -1.2482 -1.2521
 2797SOL    HW219854   1.951   3.379   7.876  2.7616  2.1748  0.2111
 2798SOL     OW19855   4.725   4.315  15.989 -0.1698 -0.2788  0.5387
 2798SOL    HW119856   4.662   4.367  15.938  0.2023 -1.0416 -0.7069
 2798SOL    HW219857   4.682   4.297  16.072 -1.6673  1.6604  0.2067
 2799SOL     OW19858   3.116   3.103   5.001  0.4681 -0.3433  1.0403
 2799SOL    HW119859   3.111   3.109   4.906 -0.7349  1.3501  1.1943
 2799SOL    HW219860   3.179   3.171   5.025  1.0716 -0.6702  0.3616
 2800SOL     OW19861   1.228   4.208   8.876  0.0451 -0.5198  0.0777
 2800SOL    HW119862   1.161   4.212   8.944  0.8994  1.2256  0.8222
 2800SOL    HW219863   1.288   4.145   8.916  0.1556 -0.1562  0.4880
 2801SOL     OW19864   1.004   3.752   8.449  0.5376  0.0737  0.0421
 2801SOL    HW119865   1.049   3.675   8.484  0.7378 -1.1134 -2.8012
 2801SOL    HW219866   0.957   3.779   8.528  1.7380  0.1854  0.7241
 2802SOL     OW19867   2.772   3.271   7.447  0.6369 -0.1541  0.1492
 2802SOL    HW119868   2.863   3.245   7.434  0.8913  1.0581 -0.5010
 2802SOL    HW219869   2.772   3.365   7.428  1.3764  0.2851  2.3132
 2803SOL     OW19870   1.948   2.027   2.993  0.4650  0.2351 -0.1872
 2803SOL    HW119871   1.952   2.034   3.089  1.6759 -1.0671 -0.1389
 2803SOL    HW219872   1.855   2.039   2.973  0.6025 -1.2272 -1.7229
 2804SOL     OW19873   0.656   3.583   7.042  0.4644 -0.0024 -0.0697
 2804SOL    HW119874   0.645   3.668   7.084 -1.6921 -0.1578 -0.3051
 2804SOL    HW219875   0.660   3.520   7.114  0.0769 -0.1658 -0.1888
 2805SOL     OW19876   0.826   3.278   0.564 -0.3580  0.7544  0.6836
 2805SOL    HW119877   0.804   3.185   0.569  1.5326  0.3104  1.0095
 2805SOL    HW219878   0.744   3.327   0.556 -1.3290 -0.9903  0.1293
 2806SOL     OW19879   3.058   2.524   6.977  0.2127 -0.0970 -0.2440
 2806SOL    HW119880   3.141   2.510   7.021 -0.3313 -0.3941  0.6763
 2806SOL    HW219881   3.010   2.442   6.987 -0.2817  0.2227  0.0446
 2807SOL     OW19882   0.458   3.931   3.140  0.4732 -0.1318 -0.7878
 2807SOL    HW119883   0.525   3.976   3.089  2.2267 -2.1472 -0.2690
 2807SOL    HW219884   0.468   3.837   3.122  0.3030 -0.5966  1.5423
 2808SOL     OW19885   2.311   0.977   8.937 -0.1512  0.3126  0.0213
 2808SOL    HW119886   2.396   0.946   8.970 -0.7214 -0.5185  0.7150
 2808SOL    HW219887   2.328   1.001   8.846  1.1914 -0.9861 -0.0827
 2809SOL     OW19888   0.160   2.304   0.657 -0.2818 -0.4082  0.2640
 2809SOL    HW119889   0.165   2.209   0.649 -2.2273 -0.4167 -0.8295
 2809SOL    HW219890   0.236   2.328   0.603  0.5964 -1.5482  0.9923
 2810SOL     OW19891   3.121   2.955   8.161  0.5390  0.0179 -0.2092
 2810SOL    HW119892   3.058   2.896   8.120 -0.6611  1.6418 -0.7095
 2810SOL    HW219893   3.171   2.976   8.083  0.2545  0.1086 -0.3678
 2811SOL     OW19894   0.046   3.934   2.569 -0.6951 -0.1293 -0.6500
 2811SOL    HW119895   4.680   3.960   2.567 -0.1233  1.8429 -1.3087
 2811SOL    HW219896   0.069   3.950   2.660 -1.6426 -1.2439 -0.2166
 2812SOL     OW19897   1.954   4.486  15.517  0.4418 -0.3770  0.3615
 2812SOL    HW119898   1.989   4.528  15.439  2.7214 -1.9778  0.5092
 2812SOL    HW219899   2.037   4.457  15.555 -0.6192 -2.8751  0.7886
 2813SOL     OW19900   2.756   3.133   8.501  0.1054  0.0559 -0.0557
 2813SOL    HW119901   2.725   3.192   8.569  0.6090  1.7238 -1.2967
 2813SOL    HW219902   2.724   3.171   8.419 -0.2056 -0.1414 -0.0266
 2814SOL     OW19903   0.016   1.168   2.714 -0.0261 -0.2719 -0.2932
 2814SOL    HW119904   4.659   1.173   2.761 -0.8166  1.5881 -1.8652
 2814SOL    HW219905   4.714   1.149   2.624 -3.0324 -0.2781  0.6507
 2815SOL     OW19906   3.954   3.496  10.955 -0.2555  0.1233 -0.2803
 2815SOL    HW119907   4.004   3.453  10.886  2.5537  2.2300  0.4373
 2815SOL    HW219908   3.967   3.429  11.022 -0.1434  1.2585  0.8315
 2816SOL     OW19909   3.048   3.873   8.243  0.0062  0.0831 -0.5094
 2816SOL    HW119910   3.093   3.797   8.206 -1.2136 -1.8257  1.8932
 2816SOL    HW219911   3.007   3.898   8.160 -0.7869  1.1086  0.1857
 2817SOL     OW19912   2.453   4.292  12.802 -0.2187  0.2679 -0.0546
 2817SOL    HW119913   2.387   4.335  12.856 -1.3294  0.5020 -1.6051
 2817SOL    HW219914   2.458   4.211  12.852 -0.8960  0.4783  0.3586
 2818SOL     OW19915   1.054   4.128   2.690  0.0726  0.1550 -0.4925
 2818SOL    HW119916   1.016   4.161   2.608  0.2649 -0.2697 -0.7515
 2818SOL    HW219917   1.145   4.153   2.676  0.4816 -2.4475 -2.5025
 2819SOL     OW19918   2.499   0.300   0.293 -0.3298  0.1225 -0.4131
 2819SOL    HW119919   2.498   0.293   0.389 -0.7703  0.3014 -0.4061
 2819SOL    HW219920   2.413   0.260   0.282 -0.4856 -0.2730  2.2168
 2820SOL     OW19921   1.926   3.174  17.050  0.4439  0.2115 -0.3348
 2820SOL    HW119922   1.967   3.092  17.023  1.5753  0.4712  0.5653
 2820SOL    HW219923   1.841   3.159  17.009  0.8382 -1.0565 -0.6857
 2821SOL     OW19924   0.517   3.308   0.874 -0.5064 -0.2463 -0.3224
 2821SOL    HW119925   0.514   3.220   0.836 -2.4927 -0.6626  0.7845
 2821SOL    HW219926   0.540   3.363   0.799 -1.2424 -0.3829 -0.6463
 2822SOL     OW19927   2.728   0.627   6.753 -0.4277  0.2283 -0.3884
 2822SOL    HW119928   2.761   0.660   6.837 -1.7110 -0.5509  0.4278
 2822SOL    HW219929   2.703   0.537   6.777 -1.0765  0.5306  0.0880
 2823SOL     OW19930   0.314   1.644  15.915  0.2418  0.4096 -0.1004
 2823SOL    HW119931   0.350   1.716  15.864  0.8970  1.1775  1.4453
 2823SOL    HW219932   0.260   1.597  15.852 -0.0528  1.6649 -0.7843
 2824SOL     OW19933   1.982   3.408   3.314  0.1512  0.1676  0.1094
 2824SOL    HW119934   2.027   3.490   3.337  1.0608  0.2448 -1.9266
 2824SOL    HW219935   1.913   3.447   3.260 -0.6232 -0.6111  0.5422
 2825SOL     OW19936   3.853   2.225   7.519  0.0549 -0.3211  0.2068
 2825SOL    HW119937   3.875   2.172   7.443 -1.6155 -0.8766  0.1322
 2825SOL    HW219938   3.889   2.168   7.588  1.7619 -2.0428 -2.0785
 2826SOL     OW19939   0.975   4.720   4.513 -0.1865  0.4669 -0.2158
 2826SOL    HW119940   0.966   0.072   4.459  3.6150 -0.4512 -2.1634
 2826SOL    HW219941   0.887   4.704   4.548  0.6731 -2.0348  0.8039
 2827SOL     OW19942   1.224   2.103   2.241 -0.7553 -0.4590  0.3888
 2827SOL    HW119943   1.137   2.092   2.202 -0.7856 -0.3954  0.4389
 2827SOL    HW219944   1.222   2.031   2.304 -0.6190 -0.2050  0.6845
 2828SOL     OW19945   1.055   1.275  12.465  0.3338 -0.2379 -0.3145
 2828SOL    HW119946   1.022   1.346  12.520  2.6596  1.3446 -0.9799
 2828SOL    HW219947   1.032   1.200  12.520  1.3912  1.3870  2.3328
 2829SOL     OW19948   2.337   4.245   6.863 -0.2061  0.6207 -0.2476
 2829SOL    HW119949   2.360   4.335   6.841  1.6937 -0.0678 -1.1227
 2829SOL    HW219950   2.320   4.202   6.779  2.4105 -2.0653  0.6002
 2830SOL     OW19951   2.533   1.075   8.561  0.1317  0.1069  0.4525
 2830SOL    HW119952   2.580   1.095   8.480 -1.3927  1.5312 -0.0753
 2830SOL    HW219953   2.450   1.120   8.542 -0.0603 -0.5553 -0.2689
 2831SOL     OW19954   2.015   1.578   0.453 -0.0590  0.3394  0.2999
 2831SOL    HW119955   2.043   1.650   0.508 -1.8816  1.5663 -0.3852
 2831SOL    HW219956   2.008   1.514   0.524  2.2741  1.1182  1.2280
 2832SOL     OW19957   0.207   1.474  16.438 -0.1750 -0.4784  0.2050
 2832SOL    HW119958   0.250   1.516  16.364 -0.6521 -0.1500  0.1186
 2832SOL    HW219959   0.130   1.434  16.398 -0.0225 -0.1310 -0.4337
 2833SOL     OW19960   0.995   1.313   2.429  0.6182  0.0428  0.1125
 2833SOL    HW119961   0.965   1.372   2.360 -0.2358  0.6682  1.0202
 2833SOL    HW219962   0.912   1.309   2.476  1.0649 -0.8848  0.8341
 2834SOL     OW19963   0.146   2.019   4.014  0.1143  0.1461 -0.2943
 2834SOL    HW119964   0.173   1.949   3.956 -0.1298 -1.4264  1.4809
 2834SOL    HW219965   0.222   2.078   4.018  1.4012 -1.5405  0.2883
 2835SOL     OW19966   0.511   2.080  16.995 -0.1554 -0.1215  0.5809
 2835SOL    HW119967   0.563   2.026  16.935  1.7472  2.9793 -0.5284
 2835SOL    HW219968   0.428   2.032  16.994  0.5022 -1.2656  0.3650
 2836SOL     OW19969   0.079   4.565  10.637  0.0730 -0.2347  0.1232
 2836SOL    HW119970   0.081   4.594  10.546  1.4945  0.8915  0.5090
 2836SOL    HW219971   0.018   4.492  10.640 -1.9383  1.4013 -1.3910
 2837SOL     OW19972   2.118   1.510   7.122  0.2063 -0.3445 -0.3228
 2837SOL    HW119973   2.170   1.590   7.114 -3.6585  2.1593 -0.5646
 2837SOL    HW219974   2.155   1.472   7.201  1.6174  1.8987  0.0929
 2838SOL     OW19975   1.941   3.565   5.313 -0.1336  0.2604 -0.1406
 2838SOL    HW119976   1.868   3.508   5.289  0.5525 -0.4063 -0.6494
 2838SOL    HW219977   1.896   3.645   5.341 -0.9231  0.8246 -2.9746
 2839SOL     OW19978   4.369   4.404  17.022 -0.1451 -0.0507  0.0317
 2839SOL    HW119979   4.336   4.347  16.952 -0.1578  0.4029 -0.3363
 2839SOL    HW219980   4.363   4.483  16.968  2.6674  1.0055  1.2726
 2840SOL     OW19981   3.061   4.179  13.544 -0.1407  0.3272  0.3984
 2840SOL    HW119982   3.099   4.141  13.465 -4.8253 -2.8724 -0.3543
 2840SOL    HW219983   3.020   4.111  13.598  0.6595 -0.2998  0.2051
 2841SOL     OW19984   1.539   3.839   6.212  0.3954 -0.3932 -0.0026
 2841SOL    HW119985   1.509   3.848   6.303  0.7207 -2.6307  0.3194
 2841SOL    HW219986   1.612   3.899   6.198 -0.3118  0.8403  1.6099
 2842SOL     OW19987   0.774   1.460  12.445 -0.2620  0.2768  0.2411
 2842SOL    HW119988   0.756   1.390  12.382 -0.0701 -0.1459  0.6499
 2842SOL    HW219989   0.693   1.509  12.433 -0.5550  0.3371  2.3782
 2843SOL     OW19990   2.694   0.510  10.090 -0.1124 -1.0270 -0.9204
 2843SOL    HW119991   2.601   0.490  10.075  0.0658 -2.2730 -0.3609
 2843SOL    HW219992   2.735   0.516  10.004  1.5597  2.3216  0.1071
 2844SOL     OW19993   1.262   3.035   5.976  0.0320 -0.1985 -0.6181
 2844SOL    HW119994   1.281   3.075   5.891  1.1764  1.5814  0.4820
 2844SOL    HW219995   1.338   3.066   6.024 -1.4795 -1.4331  2.5562
 2845SOL     OW19996   1.294   4.568   1.140 -0.1317 -0.0624 -0.2285
 2845SOL    HW119997   1.309   4.535   1.228 -0.8285  1.3983  0.4409
 2845SOL    HW219998   1.383   4.598   1.120  0.0026  0.9892  1.9607
 2846SOL     OW19999   0.391   1.527   3.394  0.0597  0.3489  0.4226
 2846SOL    HW120000   0.410   1.449   3.342 -1.4851  0.1932  0.1013
 2846SOL    HW220001   0.330   1.495   3.461 -0.2569 -0.9056 -0.4844
 2847SOL     OW20002   1.200   1.854   3.009 -0.7536 -0.0943 -0.2361
 2847SOL    HW120003   1.124   1.807   2.975 -0.8918 -0.2218  0.2404
 2847SOL    HW220004   1.255   1.860   2.931  2.4514 -1.9914  1.8572
 2848SOL     OW20005   2.547   1.425   8.477 -0.1292  0.3057  0.0801
 2848SOL    HW120006   2.640   1.441   8.488 -0.4982  2.2833  0.3525
 2848SOL    HW220007   2.548   1.393   8.387 -1.3717  1.6798 -0.4322
 2849SOL     OW20008   0.532   0.956   0.940 -0.1949 -0.2194  0.0878
 2849SOL    HW120009   0.617   0.967   0.981 -0.3720 -0.3502  0.4893
 2849SOL    HW220010   0.557   0.947   0.848  0.1748 -0.8868  0.2545
 2850SOL     OW20011   4.085   1.934   2.106  0.0140  0.0026 -1.1359
 2850SOL    HW120012   4.121   1.929   2.017  0.0537 -1.4303 -1.0514
 2850SOL    HW220013   4.003   1.983   2.101 -0.0509 -0.3238 -3.2334
 2851SOL     OW20014   3.581   1.324  12.640  0.7499 -0.0435  0.7576
 2851SOL    HW120015   3.536   1.389  12.586  2.7314 -0.1327 -1.0037
 2851SOL    HW220016   3.647   1.376  12.687  0.2788  0.2660  1.0778
 2852SOL     OW20017   2.746   1.142   4.474 -0.0542  0.2969  0.1742
 2852SOL    HW120018   2.689   1.190   4.535 -0.9382  1.3853 -1.5166
 2852SOL    HW220019   2.736   1.203   4.401 -1.0325 -2.0268 -1.6400
 2853SOL     OW20020   2.765   3.311   7.123 -0.2335 -0.6990  0.8558
 2853SOL    HW120021   2.770   3.394   7.076  1.0378 -1.0044  0.4516
 2853SOL    HW220022   2.852   3.305   7.160 -0.8249  1.5776  2.5784
 2854SOL     OW20023   1.064   4.434   6.640  0.2623 -0.6923  0.5955
 2854SOL    HW120024   1.111   4.448   6.722  0.8310  2.0977 -0.2024
 2854SOL    HW220025   1.013   4.355   6.657  0.2157 -0.6403  0.6934
 2855SOL     OW20026   0.065   3.597  12.824 -0.2630  0.1517  0.4100
 2855SOL    HW120027   0.063   3.522  12.883  0.0009 -2.4561 -2.9430
 2855SOL    HW220028   0.095   3.667  12.883 -1.4314  0.5626  0.5255
 2856SOL     OW20029   2.980   0.100   0.057 -0.5330  0.3919 -0.3807
 2856SOL    HW120030   2.916   0.165   0.026  1.5101  3.8079  2.5057
 2856SOL    HW220031   2.964   0.119   0.149  1.6662  0.0199  0.0806
 2857SOL     OW20032   1.137   4.149   7.673 -0.4625 -0.4843 -0.3070
 2857SOL    HW120033   1.229   4.159   7.651 -0.0684 -2.5951  0.3279
 2857SOL    HW220034   1.148   4.081   7.740  2.5973  0.4846  0.1620
 2858SOL     OW20035   3.542   2.700  17.058 -0.0872 -0.3904  0.8670
 2858SOL    HW120036   3.563   2.715  16.965 -1.2637  0.0989  0.6781
 2858SOL    HW220037   3.515   2.781  17.100  0.0936 -0.9754  2.1129
 2859SOL     OW20038   2.888   0.373  16.328  0.2830 -0.2972  0.4935
 2859SOL    HW120039   2.966   0.403  16.281 -0.2108  0.0688 -0.0906
 2859SOL    HW220040   2.852   0.453  16.366 -0.6141 -1.9046  3.0751
 2860SOL     OW20041   3.704   3.556  16.897 -0.0060 -0.1081  0.0508
 2860SOL    HW120042   3.778   3.616  16.885 -1.4840  2.0709  1.7868
 2860SOL    HW220043   3.632   3.611  16.866  0.0678 -0.9366 -1.6039
 2861SOL     OW20044   3.189   2.794   1.932 -0.3630 -0.4966  0.4084
 2861SOL    HW120045   3.097   2.791   1.907  0.1352 -0.4028 -1.4428
 2861SOL    HW220046   3.209   2.703   1.952 -1.6176 -1.3310 -2.1621
 2862SOL     OW20047   0.038   4.331   2.193 -0.3971 -0.4678 -0.0152
 2862SOL    HW120048   0.132   4.310   2.196 -0.7539 -2.0288  0.4479
 2862SOL    HW220049   0.052   4.415   2.150 -3.8544 -0.6790 -1.5273
 2863SOL     OW20050   1.686   3.117  15.668  0.3747  0.1096  0.6025
 2863SOL    HW120051   1.707   3.114  15.575 -1.7284 -0.8451  0.1402
 2863SOL    HW220052   1.607   3.064  15.681 -0.0650  0.4387 -0.7137
 2864SOL     OW20053   4.675   1.930   4.738  0.2709  0.4827 -0.2292
 2864SOL    HW120054   4.648   1.938   4.830  0.0643  2.1572 -0.4457
 2864SOL    HW220055   4.717   1.845   4.753 -0.7499  0.1459  0.7420
 2865SOL     OW20056   3.238   1.547   6.030 -0.0242 -0.4095  0.2012
 2865SOL    HW120057   3.192   1.599   6.096  0.2640  0.1665 -0.0595
 2865SOL    HW220058   3.327   1.568   6.058  0.1418  0.3145 -0.8885
 2866SOL     OW20059   1.356   2.627  17.490  0.0546  0.5416  0.4544
 2866SOL    HW120060   1.337   2.652  17.399 -1.7898  0.2065  0.7496
 2866SOL    HW220061   1.324   2.537  17.480 -4.0324  1.8340  2.1998
 2867SOL     OW20062   2.608   2.962   6.692 -0.4582 -0.1650  0.5886
 2867SOL    HW120063   2.667   2.887   6.693  2.5360  2.1858 -0.0967
 2867SOL    HW220064   2.568   2.948   6.606  1.5417  0.5582 -0.4600
 2868SOL     OW20065   1.369   3.182  14.268  0.2592  0.4689  0.6462
 2868SOL    HW120066   1.321   3.251  14.313  1.7015  0.2983  2.4341
 2868SOL    HW220067   1.364   3.220  14.180 -1.4811  2.6064  1.6838
 2869SOL     OW20068   3.118   1.349   8.603 -0.1147  0.6246 -0.9460
 2869SOL    HW120069   3.155   1.392   8.681 -1.8926 -0.2719  0.3966
 2869SOL    HW220070   3.117   1.259   8.635 -0.8431  1.5123  1.5031
 2870SOL     OW20071   3.844   0.204  11.962  0.0608 -0.4262 -0.2905
 2870SOL    HW120072   3.933   0.218  11.995 -0.6125  0.8746  1.0046
 2870SOL    HW220073   3.859   0.138  11.894 -2.5016 -0.4786 -0.7948
 2871SOL     OW20074   3.599   0.416   0.762 -0.2366 -0.2180 -0.3518
 2871SOL    HW120075   3.531   0.478   0.789 -2.6936 -2.7274 -0.7646
 2871SOL    HW220076   3.554   0.338   0.797  1.7409 -1.3836 -0.3933
 2872SOL     OW20077   1.041   1.084   2.577  0.0726  0.1457 -0.9056
 2872SOL    HW120078   1.071   1.110   2.664  0.4637 -0.6293 -0.8050
 2872SOL    HW220079   1.018   1.169   2.540 -0.1707  0.0023 -1.0777
 2873SOL     OW20080   4.038   1.315   7.886  0.9072  0.0599 -0.2650
 2873SOL    HW120081   4.010   1.257   7.956 -1.0105  1.6902  0.3319
 2873SOL    HW220082   4.084   1.381   7.939 -2.1723  0.9619  1.2497
 2874SOL     OW20083   1.640   1.152  15.471  0.0444 -0.1562  0.0464
 2874SOL    HW120084   1.680   1.227  15.515  2.4609 -1.9646  0.9195
 2874SOL    HW220085   1.598   1.192  15.395  0.0489  1.3300  0.8095
 2875SOL     OW20086   1.426   4.051  15.848  0.2052  0.7043  0.1392
 2875SOL    HW120087   1.406   3.980  15.786 -0.4119  2.4682 -1.6578
 2875SOL    HW220088   1.458   4.116  15.786  1.0734  1.0107  0.9138
 2876SOL     OW20089   2.404   4.564   8.279 -0.1043  0.2831  0.0961
 2876SOL    HW120090   2.402   4.602   8.367  2.6842  0.9192 -0.1328
 2876SOL    HW220091   2.384   4.643   8.229 -0.8084  0.3035  0.4072
 2877SOL     OW20092   0.465   2.747   8.825  0.2675 -0.5334 -0.0494
 2877SOL    HW120093   0.508   2.825   8.860  0.4207 -0.7863  0.3356
 2877SOL    HW220094   0.501   2.676   8.878  0.5259 -0.4685 -0.1373
 2878SOL     OW20095   0.143   4.696  17.118 -0.4119  0.2564 -0.3421
 2878SOL    HW120096   0.199   0.047  17.119 -0.5263  0.3339 -0.0340
 2878SOL    HW220097   0.108   4.700  17.207  3.0451  1.2806  0.9798
 2879SOL     OW20098   1.155   0.211  14.697 -0.5681 -0.2916  0.5739
 2879SOL    HW120099   1.101   0.154  14.643 -1.6030  1.0836  0.1335
 2879SOL    HW220100   1.103   0.291  14.689  1.0574  0.6708 -0.3861
 2880SOL     OW20101   0.184   2.646  15.656 -0.3076 -0.3701 -0.0160
 2880SOL    HW120102   0.180   2.683  15.568 -0.2282  0.8256  0.4872
 2880SOL    HW220103   0.279   2.640  15.659 -0.0195  2.0132 -3.5693
 2881SOL     OW20104   1.642   3.752   3.070 -0.4491 -0.1247  0.5269
 2881SOL    HW120105   1.563   3.699   3.078 -0.1245 -0.6768  0.0547
 2881SOL    HW220106   1.632   3.784   2.980  2.4243 -1.8895 -0.4242
 2882SOL     OW20107   4.060   0.692   9.747  0.2458  0.3154  0.2520
 2882SOL    HW120108   4.131   0.700   9.811 -0.0307 -0.4343  0.6565
 2882SOL    HW220109   4.004   0.627   9.789 -0.4795  2.5526  2.7204
 2883SOL     OW20110   2.747   2.123   5.413  0.3746  0.0415  0.2290
 2883SOL    HW120111   2.755   2.047   5.354  1.2118  0.3777 -0.0913
 2883SOL    HW220112   2.776   2.190   5.351  0.7852  1.1082  1.5778
 2884SOL     OW20113   4.565   0.886   6.141 -0.5743 -0.2313 -0.0899
 2884SOL    HW120114   4.658   0.869   6.130 -0.3293  1.6777 -0.9669
 2884SOL    HW220115   4.564   0.970   6.187  2.0359  0.8011 -1.9742
 2885SOL     OW20116   3.423   1.345   8.133  0.3330  0.1666 -0.1672
 2885SOL    HW120117   3.384   1.404   8.197  0.3458 -0.2306  0.2041
 2885SOL    HW220118   3.509   1.387   8.133  1.0431 -1.2840 -0.4455
 2886SOL     OW20119   3.587   1.238   9.442 -0.4372  0.1146  0.1600
 2886SOL    HW120120   3.611   1.281   9.524  0.9303  0.4064 -0.3758
 2886SOL    HW220121   3.557   1.310   9.386 -2.2391  0.0534  1.0687
 2887SOL     OW20122   3.393   2.436   0.974  0.0670 -0.2884  0.3618
 2887SOL    HW120123   3.324   2.470   0.916  1.6015  0.3004 -1.1133
 2887SOL    HW220124   3.342   2.433   1.055  2.5000  3.3231  2.0330
 2888SOL     OW20125   0.897   3.726   5.477  0.1143 -0.1156  0.4690
 2888SOL    HW120126   0.837   3.696   5.409 -1.1346  1.2568  0.9468
 2888SOL    HW220127   0.962   3.657   5.466 -0.9033 -0.7858 -1.2835
 2889SOL     OW20128   0.744   4.719  17.170 -0.7076  0.2070 -0.2233
 2889SOL    HW120129   0.807   4.674  17.113  0.4187  2.5294 -0.8206
 2889SOL    HW220130   0.782   4.706  17.257 -0.6289 -0.5556 -0.3729
 2890SOL     OW20131   2.467   0.139   7.667  0.1764 -0.6938 -0.0166
 2890SOL    HW120132   2.412   0.139   7.745 -0.8119 -0.0668 -0.7128
 2890SOL    HW220133   2.520   0.218   7.677  0.2652 -0.4504 -2.3751
 2891SOL     OW20134   2.123   3.808   5.240 -0.1960  0.0586 -0.1803
 2891SOL    HW120135   2.196   3.806   5.302 -2.0560 -3.1352  1.9114
 2891SOL    HW220136   2.072   3.728   5.255  0.0616 -0.0817 -0.0571
 2892SOL     OW20137   3.909   0.594   3.041 -0.4247 -0.4951 -0.2799
 2892SOL    HW120138   3.968   0.602   2.966 -0.7320  0.9895 -0.3586
 2892SOL    HW220139   3.844   0.662   3.024 -0.0787  0.2297  1.2909
 2893SOL     OW20140   4.507   0.512   7.792  0.0540 -0.7871 -0.3303
 2893SOL    HW120141   4.473   0.565   7.864  1.0523  0.1562 -0.5364
 2893SOL    HW220142   4.507   0.581   7.725 -0.3658  0.2463  0.7408
 2894SOL     OW20143   2.476   2.145   8.539 -0.3029  0.3653  0.3883
 2894SOL    HW120144   2.503   2.195   8.615  0.4872  1.1098 -0.3826
 2894SOL    HW220145   2.381   2.155   8.553 -0.3463  1.0108 -0.3520
 2895SOL     OW20146   3.800   0.994  14.098 -0.2221 -0.6436  0.2012
 2895SOL    HW120147   3.851   0.977  14.019 -0.1736  0.9540 -0.1202
 2895SOL    HW220148   3.873   0.994  14.159  0.3143 -1.0224 -0.4386
 2896SOL     OW20149   0.218   3.065  16.534  0.0139 -0.2197 -0.1791
 2896SOL    HW120150   0.256   3.152  16.531 -2.2540  0.6783 -2.5910
 2896SOL    HW220151   0.124   3.084  16.531 -0.1590 -1.1928 -0.8522
 2897SOL     OW20152   1.585   2.703   5.751 -0.4649 -0.5207  0.3490
 2897SOL    HW120153   1.522   2.761   5.795 -1.6517 -1.3501 -0.2383
 2897SOL    HW220154   1.652   2.713   5.818 -1.0663 -3.2939  1.3651
 2898SOL     OW20155   1.573   2.826   5.521 -0.0560  0.7581 -0.6095
 2898SOL    HW120156   1.585   2.768   5.596 -0.9201  1.3391 -0.0217
 2898SOL    HW220157   1.625   2.900   5.550 -0.1617  0.0166  1.5090
 2899SOL     OW20158   3.021   3.770   7.089 -0.2093 -0.4020 -0.5551
 2899SOL    HW120159   3.054   3.815   7.011 -0.0299  0.1127 -0.1891
 2899SOL    HW220160   3.083   3.697   7.088  0.7574  0.3689  1.8521
 2900SOL     OW20161   4.358   0.318  12.559 -0.9521  0.2854  0.0874
 2900SOL    HW120162   4.266   0.303  12.582 -0.4047  0.9061  2.6362
 2900SOL    HW220163   4.400   0.244  12.602 -0.4593  0.1724 -0.5711
 2901SOL     OW20164   1.666   2.347   7.794  0.0281 -0.3967  0.1176
 2901SOL    HW120165   1.761   2.357   7.796  0.1235 -1.5323  1.4705
 2901SOL    HW220166   1.652   2.298   7.713  0.3461 -0.6371  0.2084
 2902SOL     OW20167   3.226   3.303   1.546 -0.1243 -0.4989 -0.6453
 2902SOL    HW120168   3.319   3.325   1.548  0.1015 -1.3808 -1.6642
 2902SOL    HW220169   3.201   3.326   1.457  0.5607 -0.3976 -0.8116
 2903SOL     OW20170   1.455   3.482   7.148 -0.6253 -0.3991  0.0561
 2903SOL    HW120171   1.396   3.504   7.076  0.5541  3.7670  0.3712
 2903SOL    HW220172   1.400   3.494   7.225 -0.7672  0.3194 -0.1604
 2904SOL     OW20173   2.588   1.697   3.925 -0.0700  0.2631 -0.3626
 2904SOL    HW120174   2.606   1.720   3.834  3.1924 -1.5632 -0.1819
 2904SOL    HW220175   2.677   1.717   3.955 -0.1995 -2.1330  1.6149
 2905SOL     OW20176   3.277   1.184   0.726 -0.1325 -0.0860  0.3101
 2905SOL    HW120177   3.208   1.244   0.697 -0.1763  0.8422  2.3532
 2905SOL    HW220178   3.226   1.151   0.799 -1.3905 -3.3147 -2.0293
 2906SOL     OW20179   0.689   3.031   6.680  0.8840 -0.3389  0.4403
 2906SOL    HW120180   0.602   3.020   6.642  1.9586  0.2335 -2.1501
 2906SOL    HW220181   0.702   2.952   6.733  0.2897 -0.8157 -0.1184
 2907SOL     OW20182   2.448   0.452   7.253 -0.7462  0.2220 -0.0181
 2907SOL    HW120183   2.434   0.360   7.275 -0.5930  0.6525  1.8876
 2907SOL    HW220184   2.406   0.450   7.167 -2.7297 -0.6865  0.9676
 2908SOL     OW20185   2.567   0.703   9.643 -0.6166  0.0746  0.5040
 2908SOL    HW120186   2.625   0.721   9.569  0.0640  0.3432  1.1029
 2908SOL    HW220187   2.575   0.792   9.678 -0.4379  0.7143 -1.1665
 2909SOL     OW20188   4.088   1.694  10.700  0.6655 -0.1662 -0.4123
 2909SOL    HW120189   4.158   1.629  10.694 -0.0622 -1.1118  1.3468
 2909SOL    HW220190   4.094   1.722  10.608  0.3473  1.0826 -0.0419
 2910SOL     OW20191   0.809   2.766   3.922 -0.3481 -0.5321  0.5562
 2910SOL    HW120192   0.848   2.724   3.845 -1.7206 -2.1890  0.7715
 2910SOL    HW220193   0.860   2.710   3.981 -3.3183 -2.5561  1.1916
 2911SOL     OW20194   4.651   1.613  10.644  0.2959  0.4621  0.0550
 2911SOL    HW120195   4.590   1.625  10.571 -0.4372  0.1905  0.6280
 2911SOL    HW220196   4.599   1.588  10.719 -0.5141  1.1847 -0.2702
 2912SOL     OW20197   3.890   3.997   2.395 -0.0175 -0.1902  0.4885
 2912SOL    HW120198   3.891   3.901   2.393  1.4725 -0.1230 -1.9533
 2912SOL    HW220199   3.932   4.017   2.311 -1.5584  1.7539  0.1795
 2913SOL     OW20200   2.661   3.304  11.851  0.0898 -0.3071  0.3559
 2913SOL    HW120201   2.570   3.295  11.882  0.6396 -0.9333  1.8131
 2913SOL    HW220202   2.638   3.314  11.759 -1.5299 -0.9733  0.6779
 2914SOL     OW20203   0.176   1.026   1.407 -0.4297  0.0398 -0.5810
 2914SOL    HW120204   0.114   0.995   1.342 -0.4079 -1.1658 -0.0222
 2914SOL    HW220205   0.230   1.090   1.359 -0.2128 -0.8926 -1.5686
 2915SOL     OW20206   3.246   2.134   1.219 -0.4601 -0.0478  0.4121
 2915SOL    HW120207   3.152   2.134   1.241 -0.5995  1.2818 -0.1865
 2915SOL    HW220208   3.248   2.222   1.183 -0.3295  0.8694  2.6728
 2916SOL     OW20209   0.815   4.152   4.995 -0.2159 -0.6360 -0.1409
 2916SOL    HW120210   0.859   4.237   4.991 -1.7485  0.2358  1.4669
 2916SOL    HW220211   0.730   4.175   5.032  0.9518 -0.9609  2.7446
 2917SOL     OW20212   3.022   0.384   3.143 -0.0317 -0.0617 -0.2781
 2917SOL    HW120213   3.104   0.415   3.104 -0.3740 -0.0624 -0.9999
 2917SOL    HW220214   3.024   0.288   3.142  0.0971 -0.0689  0.6889
 2918SOL     OW20215   2.198   4.249   5.668 -0.1939 -0.1507 -0.4328
 2918SOL    HW120216   2.274   4.300   5.640  1.7416 -1.4051  2.5127
 2918SOL    HW220217   2.130   4.309   5.639 -1.1754 -0.8145  0.4910
 2919SOL     OW20218   1.200   1.086   8.243 -0.4651  0.6732 -0.0183
 2919SOL    HW120219   1.175   1.162   8.192 -0.3158  1.8005  1.5758
 2919SOL    HW220220   1.198   1.023   8.171  2.0860 -1.2925  1.6464
 2920SOL     OW20221   1.051   1.116   5.631 -0.0284 -0.1929 -0.0876
 2920SOL    HW120222   1.104   1.102   5.709 -0.3645 -1.5447 -0.1054
 2920SOL    HW220223   0.982   1.050   5.634 -0.7124  0.4987 -0.5419
 2921SOL     OW20224   0.575   3.853   0.669 -0.0262  0.2344  0.6383
 2921SOL    HW120225   0.552   3.851   0.762  0.2131 -1.1269  0.6764
 2921SOL    HW220226   0.666   3.881   0.682 -0.2384  0.9536  0.5331
 2922SOL     OW20227   0.264   0.272   0.633  0.0736  0.5074  0.3513
 2922SOL    HW120228   0.197   0.340   0.635  0.4295  0.9113 -1.8154
 2922SOL    HW220229   0.319   0.283   0.556 -1.4823  2.1132 -0.5210
 2923SOL     OW20230   0.036   2.439   4.286 -0.8674 -0.4217 -0.1349
 2923SOL    HW120231   4.686   2.496   4.298  0.8843  1.2614  2.9580
 2923SOL    HW220232   0.007   2.359   4.331  0.3463 -0.7382  0.0841
 2924SOL     OW20233   3.932   2.641   1.973 -0.3904 -0.1357 -0.2415
 2924SOL    HW120234   3.942   2.549   1.948 -0.0030 -0.2308  0.2520
 2924SOL    HW220235   3.916   2.641   2.067  0.3304  2.8867 -0.1179
 2925SOL     OW20236   0.208   4.045   7.956  0.4322  0.4782  0.3221
 2925SOL    HW120237   0.243   3.957   7.967  1.4625  0.5519 -2.3660
 2925SOL    HW220238   0.144   4.031   7.887 -0.2644 -2.8419  1.6520
 2926SOL     OW20239   1.752   0.383   8.348 -0.5833  0.0556 -0.0050
 2926SOL    HW120240   1.844   0.411   8.351 -0.3730 -0.3436 -3.1428
 2926SOL    HW220241   1.717   0.439   8.279  0.1695  0.0581 -0.3862
 2927SOL     OW20242   4.095   3.339   8.934 -0.5185 -0.1824 -0.0601
 2927SOL    HW120243   4.006   3.312   8.910 -0.0325  0.2391 -2.3878
 2927SOL    HW220244   4.113   3.290   9.014  0.2109 -0.0530 -0.1391
 2928SOL     OW20245   3.747   0.306   8.606  0.2916  0.0215  0.0273
 2928SOL    HW120246   3.809   0.346   8.545 -1.1605  0.6548 -1.0407
 2928SOL    HW220247   3.703   0.382   8.646 -0.3885 -0.1611 -0.3698
 2929SOL     OW20248   4.538   1.165   8.258  0.0381 -0.3784 -0.8737
 2929SOL    HW120249   4.476   1.236   8.276  1.0694  0.5825 -1.1260
 2929SOL    HW220250   4.494   1.097   8.310  3.2743 -1.4593  0.3995
 2930SOL     OW20251   0.935   4.473   7.409  0.5526  0.4499 -0.1980
 2930SOL    HW120252   0.840   4.468   7.402  0.5921 -0.1633 -0.2761
 2930SOL    HW220253   0.961   4.386   7.378  0.7785 -0.0147  1.2742
 2931SOL     OW20254   3.159   0.443   6.371  0.4335 -0.1828 -0.9505
 2931SOL    HW120255   3.252   0.446   6.345  0.9761  0.7544  1.0804
 2931SOL    HW220256   3.165   0.355   6.407  0.2117  0.5879  0.9665
 2932SOL     OW20257   4.428   4.615   3.429  0.1405  0.1270  0.1024
 2932SOL    HW120258   4.490   4.676   3.389  0.1297 -0.0283 -0.1502
 2932SOL    HW220259   4.478   4.534   3.435  1.8958  0.9823 -2.8441
 2933SOL     OW20260   0.930   0.210   4.820  0.4709  0.4550  0.0965
 2933SOL    HW120261   0.986   0.277   4.779  1.9039 -0.9885 -0.2915
 2933SOL    HW220262   0.912   0.261   4.899 -0.1344  1.9175 -0.9598
 2934SOL     OW20263   0.965   4.248   9.001  0.1214  0.0793 -0.3943
 2934SOL    HW120264   0.992   4.172   9.052  0.4013  2.2127  2.6343
 2934SOL    HW220265   0.909   4.197   8.943 -2.1892  0.2269  1.6991
 2935SOL     OW20266   0.077   2.774   4.815  0.2282 -0.0450  0.3654
 2935SOL    HW120267   0.068   2.838   4.744  2.5038 -1.9417 -1.6112
 2935SOL    HW220268   4.715   2.741   4.799  0.7125 -0.4323 -1.4955
 2936SOL     OW20269   0.264   2.229   6.067  0.4775 -0.0602  0.3069
 2936SOL    HW120270   0.211   2.257   5.993  0.9125  2.1265  0.8204
 2936SOL    HW220271   0.319   2.168   6.018 -1.1906 -1.0213 -0.3374
 2937SOL     OW20272   0.679   1.684   7.969 -0.1089 -0.2209  0.3243
 2937SOL    HW120273   0.628   1.695   8.050  0.9481  0.6422  0.8797
 2937SOL    HW220274   0.762   1.694   8.015 -1.9005  0.1078  3.5165
 2938SOL     OW20275   3.722   2.548   3.704 -0.6843  0.4261  0.0272
 2938SOL    HW120276   3.716   2.613   3.634  3.0253  2.0282  1.2281
 2938SOL    HW220277   3.710   2.468   3.652  1.4369  0.0305  0.1436
 2939SOL     OW20278   0.038   3.269   3.936 -0.0303  0.3495 -0.1541
 2939SOL    HW120279   0.122   3.313   3.924  0.0872  0.9634  2.7529
 2939SOL    HW220280   0.028   3.310   4.022  2.6351  1.1220 -0.2122
 2940SOL     OW20281   0.843   0.177  17.642 -0.1393 -0.6277  0.5270
 2940SOL    HW120282   0.923   0.129  17.662  0.3737  0.7320  1.7736
 2940SOL    HW220283   0.834   0.244   0.003 -2.1822 -0.8628  0.5047
 2941SOL     OW20284   2.236   3.363   0.676  0.1013  0.9221 -0.1696
 2941SOL    HW120285   2.242   3.415   0.757 -0.1340 -0.9958  1.0919
 2941SOL    HW220286   2.144   3.370   0.650  0.2554  0.4368 -0.8355
 2942SOL     OW20287   1.097   4.345   4.694 -0.2651  0.7459 -0.3035
 2942SOL    HW120288   1.161   4.300   4.638 -1.4825  0.4819 -1.4753
 2942SOL    HW220289   1.043   4.270   4.719 -2.4139  2.5297  0.4015
 2943SOL     OW20290   3.977   1.378   3.025 -0.4024 -0.1325  0.0690
 2943SOL    HW120291   3.963   1.425   2.942  1.0516 -1.5954 -0.9877
 2943SOL    HW220292   4.068   1.352   3.019  0.0631  1.6248 -0.6553
 2944SOL     OW20293   1.716   1.906  15.643 -0.0183  0.2532 -0.2975
 2944SOL    HW120294   1.683   1.817  15.650 -0.4746  0.5056  0.7702
 2944SOL    HW220295   1.710   1.921  15.549 -1.7800 -0.6297 -0.3095
 2945SOL     OW20296   1.970   4.358  17.226 -1.0297 -0.1740  0.0803
 2945SOL    HW120297   2.021   4.293  17.177  0.1386  1.1208 -0.4359
 2945SOL    HW220298   1.999   4.345  17.316 -0.2261  2.1690  0.1430
 2946SOL     OW20299   3.415   0.983  16.896  0.2090  0.4072  0.9378
 2946SOL    HW120300   3.453   1.044  16.958  1.2766  1.9817 -1.2609
 2946SOL    HW220301   3.463   0.910  16.935 -0.1149 -0.4433 -0.2499
 2947SOL     OW20302   4.399   4.510   8.611  0.0444  0.3313  0.3699
 2947SOL    HW120303   4.419   4.448   8.541 -0.3360  0.4116  0.1896
 2947SOL    HW220304   4.311   4.533   8.583 -0.1562  2.1051  2.4223
 2948SOL     OW20305   1.003   1.338   2.044  0.5247  0.9259  0.1504
 2948SOL    HW120306   1.080   1.281   2.034  0.2425  0.3513  1.2560
 2948SOL    HW220307   0.938   1.298   1.987  0.6569  0.8891  0.0258
 2949SOL     OW20308   4.291   2.824  10.811  0.4246 -0.2359  0.3596
 2949SOL    HW120309   4.249   2.865  10.886  0.9745 -0.5351  0.8327
 2949SOL    HW220310   4.251   2.737  10.818 -0.1704  0.0606  0.5915
 2950SOL     OW20311   1.324   4.613  10.894 -0.7887  0.3751  0.2684
 2950SOL    HW120312   1.286   4.561  10.966 -1.7339  0.6436 -0.0335
 2950SOL    HW220313   1.315   4.698  10.937  2.6574 -0.5953  2.8587
 2951SOL     OW20314   1.699   3.120   8.388 -0.3120 -0.4378 -0.1808
 2951SOL    HW120315   1.737   3.200   8.425  0.1387 -0.0190 -1.5531
 2951SOL    HW220316   1.608   3.113   8.416  0.0534  1.0632  1.4282
 2952SOL     OW20317   1.174   2.282   3.563 -0.0932 -0.2317 -0.4008
 2952SOL    HW120318   1.102   2.235   3.522 -0.0329 -0.7899  0.1237
 2952SOL    HW220319   1.189   2.226   3.639 -1.3615  2.9114  2.1681
 2953SOL     OW20320   2.342   0.899   4.098  0.4024 -0.3138  0.3422
 2953SOL    HW120321   2.363   0.806   4.099 -0.7399 -0.5530  1.3534
 2953SOL    HW220322   2.427   0.941   4.087  1.2553 -1.8688  1.0647
 2954SOL     OW20323   3.801   1.121   1.165  0.3505 -0.8662 -0.3813
 2954SOL    HW120324   3.789   1.204   1.211  2.5700  1.2391 -3.5968
 2954SOL    HW220325   3.730   1.134   1.102  0.1858  0.7962  0.1478
 2955SOL     OW20326   2.284   1.842  15.307 -0.5758  0.0851 -0.1227
 2955SOL    HW120327   2.340   1.858  15.383  0.0460 -2.4373 -0.0545
 2955SOL    HW220328   2.226   1.769  15.328 -0.5161  0.3788  1.0470
 2956SOL     OW20329   0.673   1.097   6.026 -0.8088  0.0345  0.1080
 2956SOL    HW120330   0.658   1.124   6.116 -2.2572 -0.5297  0.0429
 2956SOL    HW220331   0.762   1.126   6.007 -0.2332 -1.4615  0.5067
 2957SOL     OW20332   4.399   4.411  16.464 -0.2834  0.7392 -0.3290
 2957SOL    HW120333   4.463   4.342  16.444 -1.8952 -1.1701  1.0802
 2957SOL    HW220334   4.421   4.448  16.549 -1.2109  1.0240 -0.2155
 2958SOL     OW20335   4.491   0.959   7.203 -0.2874 -0.1926  0.2102
 2958SOL    HW120336   4.582   0.948   7.232  0.0185 -0.5496 -0.8882
 2958SOL    HW220337   4.497   0.925   7.114 -0.7288  1.3902 -0.4281
 2959SOL     OW20338   1.042   0.189  17.088 -0.2596 -0.0093 -0.4625
 2959SOL    HW120339   1.076   0.254  17.026  1.4257 -0.6575 -0.2399
 2959SOL    HW220340   0.951   0.202  17.064 -0.3352  2.2502  1.1169
 2960SOL     OW20341   3.386   0.145  13.910  0.1403 -0.3168 -0.3870
 2960SOL    HW120342   3.372   0.181  13.998 -0.3189 -1.4913  0.0117
 2960SOL    HW220343   3.419   0.222  13.862  1.8073 -0.9670 -0.2787
 2961SOL     OW20344   2.106   2.791  15.675  0.1165  0.3627  0.2383
 2961SOL    HW120345   2.131   2.850  15.603  1.0444 -0.8111 -0.3941
 2961SOL    HW220346   2.049   2.845  15.729  1.7278  3.4111 -1.0841
 2962SOL     OW20347   3.745   0.039   8.705  0.0032 -0.2543  0.0162
 2962SOL    HW120348   3.760   0.131   8.681 -1.7317  0.4863  1.7118
 2962SOL    HW220349   3.809   0.028   8.776  1.1484  0.6910 -0.8711
 2963SOL     OW20350   2.514   0.653   3.849  0.3067  0.1902 -0.1507
 2963SOL    HW120351   2.506   0.570   3.803  2.1772 -0.4728  0.7496
 2963SOL    HW220352   2.549   0.626   3.933  0.4273  1.9267  0.3706
 2964SOL     OW20353   0.704   3.536   4.688  0.0131  0.4607 -0.4089
 2964SOL    HW120354   0.631   3.505   4.742 -0.9297  2.0814 -0.7542
 2964SOL    HW220355   0.754   3.598   4.741  1.2010  0.1207 -1.1316
 2965SOL     OW20356   0.902   0.219  12.071 -0.1537  0.0218 -0.3960
 2965SOL    HW120357   0.967   0.256  12.130 -2.1576  0.0560  1.8042
 2965SOL    HW220358   0.938   0.134  12.045 -1.1522 -0.3326 -0.6319
 2966SOL     OW20359   0.094   4.440   8.775  0.0859 -0.0040  0.0865
 2966SOL    HW120360   0.131   4.358   8.807 -0.9286 -0.2843  0.5330
 2966SOL    HW220361   0.172   4.496   8.766  0.3447 -0.6976 -1.9779
 2967SOL     OW20362   1.570   0.719  14.500 -0.1078 -0.3438  0.6447
 2967SOL    HW120363   1.580   0.665  14.422 -1.0624  0.2308  0.1270
 2967SOL    HW220364   1.510   0.664  14.550  1.4832 -0.8989  1.9503
 2968SOL     OW20365   1.512   0.611  17.049 -0.4480 -1.4647 -0.9161
 2968SOL    HW120366   1.524   0.523  17.085  1.1159 -1.7003 -2.0353
 2968SOL    HW220367   1.592   0.611  16.996 -0.2791  1.4606 -0.6907
 2969SOL     OW20368   4.694   4.069   3.841 -0.0675 -0.1048 -0.0081
 2969SOL    HW120369   0.052   4.069   3.886 -1.0078  1.7812  1.7800
 2969SOL    HW220370   4.659   3.983   3.861  0.2077  0.3484  2.4214
 2970SOL     OW20371   3.242   2.295   4.401 -0.5811  0.2076  0.4764
 2970SOL    HW120372   3.318   2.275   4.455 -0.6202  2.8095  1.5223
 2970SOL    HW220373   3.171   2.269   4.459 -1.3626  1.2836  0.0066
 2971SOL     OW20374   0.993   4.335  16.186  0.0439 -0.3409 -0.0989
 2971SOL    HW120375   0.901   4.336  16.210  0.6650 -1.1871  2.3636
 2971SOL    HW220376   0.987   4.248  16.145  0.6945 -0.8618  0.8882
 2972SOL     OW20377   0.234   3.464   2.443 -0.3111  0.2199  0.4212
 2972SOL    HW120378   0.178   3.403   2.491  1.0954 -1.9900 -0.7435
 2972SOL    HW220379   0.247   3.544   2.495  0.9319  1.0326 -1.1471
 2973SOL     OW20380   1.140   1.008   5.904 -0.0829  0.6718 -0.6349
 2973SOL    HW120381   1.079   0.973   5.969 -0.1368  0.5449 -0.7533
 2973SOL    HW220382   1.196   1.065   5.956 -0.6252 -1.7384  2.6332
 2974SOL     OW20383   0.185   2.028   3.672 -0.4760  0.5782 -0.3148
 2974SOL    HW120384   0.251   1.978   3.624 -0.7268  0.4081 -0.4883
 2974SOL    HW220385   0.238   2.085   3.727  0.7118 -1.2923  0.4659
 2975SOL     OW20386   0.987   1.266   4.360 -0.1652 -0.4115 -0.4588
 2975SOL    HW120387   1.025   1.220   4.285  2.1643  0.6270  0.0958
 2975SOL    HW220388   1.043   1.241   4.433  1.8611 -0.5428 -2.0533
 2976SOL     OW20389   0.972   2.090   4.551 -0.1187 -0.4403  0.2299
 2976SOL    HW120390   1.058   2.130   4.565 -0.0853 -0.1792 -0.7296
 2976SOL    HW220391   0.916   2.166   4.569  0.3851  0.0628 -0.3004
 2977SOL     OW20392   1.518   2.345   7.534  0.0336  0.3393  0.3966
 2977SOL    HW120393   1.562   2.309   7.456  2.1272 -0.7010  2.0527
 2977SOL    HW220394   1.478   2.420   7.491  0.0926 -0.4013 -0.9635
 2978SOL     OW20395   0.550   3.128  17.544  0.2511  0.0195 -0.2511
 2978SOL    HW120396   0.594   3.065  17.602 -1.1142 -0.7445 -0.0393
 2978SOL    HW220397   0.461   3.104  17.571  0.6464 -1.4001 -0.2332
 2979SOL     OW20398   2.911   0.107   0.759  0.2502 -0.1832 -0.0071
 2979SOL    HW120399   2.956   0.044   0.814 -0.8289 -0.4710  0.5369
 2979SOL    HW220400   2.940   0.091   0.669  3.8323 -0.2373  1.1663
 2980SOL     OW20401   2.645   4.134   1.372 -0.2677  0.0155  0.0405
 2980SOL    HW120402   2.599   4.179   1.443 -0.2507 -1.3560  0.9254
 2980SOL    HW220403   2.720   4.103   1.423 -1.2382 -0.0003  1.4680
 2981SOL     OW20404   2.740   0.026   6.926 -0.5366  0.8571  0.1875
 2981SOL    HW120405   2.807   0.059   6.866 -0.7956 -2.9031 -2.1545
 2981SOL    HW220406   2.762   0.078   7.004  4.6195 -0.3232 -0.4835
 2982SOL     OW20407   1.815   2.830   7.833  0.2159  0.3917  0.3351
 2982SOL    HW120408   1.871   2.753   7.831 -1.0466 -0.4645 -2.0677
 2982SOL    HW220409   1.868   2.903   7.803 -0.9989  0.4852 -1.5759
 2983SOL     OW20410   0.686   3.007   0.663  0.1124 -0.2046 -0.3314
 2983SOL    HW120411   0.691   3.044   0.751 -1.8995  3.8502 -1.9560
 2983SOL    HW220412   0.604   3.047   0.634 -0.6513 -1.7494 -0.3269
 2984SOL     OW20413   0.241   1.046   2.793 -0.2723 -0.4366 -0.4251
 2984SOL    HW120414   0.153   1.081   2.779  1.4935  4.6662  1.3150
 2984SOL    HW220415   0.244   0.987   2.718 -0.3356 -1.2960  0.2476
 2985SOL     OW20416   0.563   4.263   6.235 -0.0780 -0.5493  0.0626
 2985SOL    HW120417   0.575   4.334   6.172  3.1746  0.2198  1.5603
 2985SOL    HW220418   0.628   4.195   6.212 -1.5256 -1.7545 -0.4548
 2986SOL     OW20419   4.012   4.465   5.845 -0.0941 -0.2219  0.3460
 2986SOL    HW120420   3.994   4.509   5.928 -1.0715  0.0130  0.0017
 2986SOL    HW220421   4.020   4.531   5.776 -1.6271 -0.1649  0.2158
 2987SOL     OW20422   4.177   4.560   5.512 -0.1457 -0.4426 -0.1234
 2987SOL    HW120423   4.261   4.549   5.557 -0.6671  0.6041  1.1235
 2987SOL    HW220424   4.151   4.469   5.498 -0.3977 -0.7316  2.1344
 2988SOL     OW20425   3.118   2.611  14.354 -0.1467  0.7629  0.3348
 2988SOL    HW120426   3.185   2.674  14.329  1.9533 -2.2042 -1.4806
 2988SOL    HW220427   3.053   2.611  14.284 -1.7672  1.6695  1.8096
 2989SOL     OW20428   3.739   1.757  16.919  0.1410 -0.1646 -0.3003
 2989SOL    HW120429   3.643   1.761  16.920  0.2022  1.2758 -0.0178
 2989SOL    HW220430   3.763   1.850  16.911 -0.7912  0.1081  0.0276
 2990SOL     OW20431   3.671   2.371   3.234  0.9427 -0.1372 -0.1829
 2990SOL    HW120432   3.594   2.424   3.253  0.3570 -1.2361  0.5563
 2990SOL    HW220433   3.647   2.295   3.288 -0.7836  0.3319 -0.2923
 2991SOL     OW20434   2.562   4.243   1.637 -0.1487  0.2391  0.5074
 2991SOL    HW120435   2.584   4.333   1.615 -2.7841  0.0074 -3.1411
 2991SOL    HW220436   2.619   4.224   1.712  0.1870 -2.3578 -0.3937
 2992SOL     OW20437   3.876   0.694   2.613 -0.0620  0.0275  0.5960
 2992SOL    HW120438   3.915   0.735   2.536  1.6463 -1.6137  0.5860
 2992SOL    HW220439   3.892   0.755   2.685 -2.1897  0.3345  0.8314
 2993SOL     OW20440   0.801   1.670  14.018  0.2344  0.1139 -0.1259
 2993SOL    HW120441   0.795   1.730  13.944  2.0695  0.3289 -0.0996
 2993SOL    HW220442   0.887   1.688  14.056 -0.8568  0.1696  2.3460
 2994SOL     OW20443   3.139   4.324   9.886  0.2490  0.5206 -0.4098
 2994SOL    HW120444   3.222   4.315   9.933  0.0065  1.1046  0.1431
 2994SOL    HW220445   3.127   4.419   9.895  0.1754  0.7235 -2.6027
 2995SOL     OW20446   0.819   0.062   7.552 -0.2847 -0.1790  0.7150
 2995SOL    HW120447   0.821   0.017   7.468 -2.1852  1.6793 -0.3218
 2995SOL    HW220448   0.913   0.081   7.557 -0.3923  0.4027  0.5847
 2996SOL     OW20449   0.471   4.422  10.071  0.5534 -0.1247  0.2826
 2996SOL    HW120450   0.414   4.387  10.139  0.0558  1.3217  0.6207
 2996SOL    HW220451   0.544   4.462  10.119  1.4494 -0.5565 -0.7145
 2997SOL     OW20452   0.591   1.684   2.676  0.0077  0.7914  0.0311
 2997SOL    HW120453   0.573   1.637   2.595  0.0334 -0.2064  0.6032
 2997SOL    HW220454   0.580   1.773   2.645 -1.0546  0.9671  0.8955
 2998SOL     OW20455   0.311   4.670  13.032  0.2921 -0.6164 -0.0960
 2998SOL    HW120456   0.230   4.720  13.038 -0.1755 -1.2182 -1.4267
 2998SOL    HW220457   0.281   4.596  12.980  1.3817  0.1236 -1.7771
 2999SOL     OW20458   4.676   1.748   2.398  0.0801  0.1133  0.4967
 2999SOL    HW120459   0.000   1.736   2.318 -2.5074  1.2358 -1.2884
 2999SOL    HW220460   0.024   1.755   2.458  1.2886  1.1714 -1.1396
 3000SOL     OW20461   1.093   2.583  15.622  0.3307 -0.0783 -0.0152
 3000SOL    HW120462   1.082   2.620  15.535  1.3324 -0.2699 -0.2183
 3000SOL    HW220463   1.164   2.642  15.647 -0.3011  0.9287 -0.5932
 3001SOL     OW20464   3.945   2.891   4.683  0.7135 -0.2254 -0.2336
 3001SOL    HW120465   3.926   2.821   4.621  0.1260 -0.3761  0.1115
 3001SOL    HW220466   3.995   2.838   4.745  0.9209 -0.9936 -1.0687
 3002SOL     OW20467   0.536   2.058   6.857  0.0117 -0.3064 -0.3574
 3002SOL    HW120468   0.632   2.065   6.856  0.1300 -2.0494 -0.1531
 3002SOL    HW220469   0.523   1.964   6.854 -0.2908 -0.2967  0.5974
 3003SOL     OW20470   1.474   1.936  13.589 -0.2636  0.2244 -0.1647
 3003SOL    HW120471   1.399   1.995  13.599  1.5021  2.2145  1.3094
 3003SOL    HW220472   1.477   1.889  13.672  2.0878 -2.0524 -1.5333
 3004SOL     OW20473   3.144   2.340   7.271  0.7358  0.1168 -0.0685
 3004SOL    HW120474   3.103   2.427   7.268 -0.0479 -0.2676 -0.3500
 3004SOL    HW220475   3.222   2.361   7.220  1.6288 -0.4808  1.0453
 3005SOL     OW20476   2.323   3.802   5.887  0.2764  0.0011 -0.1326
 3005SOL    HW120477   2.240   3.755   5.887  0.0119  0.4770  0.5079
 3005SOL    HW220478   2.292   3.892   5.898  0.9757  0.0472  1.4059
 3006SOL     OW20479   4.524   2.288   0.184  0.1189 -0.1369 -0.3669
 3006SOL    HW120480   4.447   2.331   0.221  1.2899 -0.4351  2.3711
 3006SOL    HW220481   4.577   2.282   0.263  0.2985  2.4808 -0.2968
 3007SOL     OW20482   2.029   3.893   9.712  0.5105  0.1704 -0.5505
 3007SOL    HW120483   2.071   3.814   9.679 -1.6616 -0.1448 -2.6111
 3007SOL    HW220484   2.092   3.965   9.705 -1.9624  2.3036 -1.2231
 3008SOL     OW20485   4.603   0.516   4.347  0.4727  0.3561 -0.0138
 3008SOL    HW120486   4.639   0.549   4.429  0.5649 -0.1786  0.1615
 3008SOL    HW220487   4.512   0.548   4.346  0.7837  1.2068 -0.9186
 3009SOL     OW20488   2.580   2.932  10.505 -1.2722 -0.4247 -0.1897
 3009SOL    HW120489   2.529   2.852  10.488  1.8275 -1.7580 -3.3121
 3009SOL    HW220490   2.529   2.987  10.445  2.2267  1.3004 -1.5867
 3010SOL     OW20491   2.141   3.485   5.512 -0.2131 -0.1149 -0.2360
 3010SOL    HW120492   2.071   3.513   5.453 -1.7614  1.0417  2.1644
 3010SOL    HW220493   2.125   3.543   5.586 -3.4329  0.2079 -1.1602
 3011SOL     OW20494   0.239   4.693   6.677  0.2683  0.5299  0.1401
 3011SOL    HW120495   0.278   4.672   6.762  0.5995 -0.6984 -0.3308
 3011SOL    HW220496   0.212   0.057   6.694  1.3658  0.9326 -0.2198
 3012SOL     OW20497   0.264   0.514   7.508 -0.0557 -0.3837  0.1408
 3012SOL    HW120498   0.260   0.565   7.589 -0.5507  0.7976 -0.6295
 3012SOL    HW220499   0.217   0.435   7.534  2.2447 -1.7003  0.3017
 3013SOL     OW20500   1.078   4.040  13.222  0.8920 -0.2780  0.0075
 3013SOL    HW120501   1.003   4.016  13.168 -0.6712  1.4044  1.3974
 3013SOL    HW220502   1.033   4.094  13.288 -0.4123 -0.0547 -1.0763
 3014SOL     OW20503   0.889   1.560  15.927 -0.3787  0.3005  0.7487
 3014SOL    HW120504   0.800   1.574  15.894 -0.3240  0.3203  0.6113
 3014SOL    HW220505   0.893   1.470  15.958 -0.5474 -0.1247 -0.4810
 3015SOL     OW20506   4.109   1.806  10.445  0.4918 -0.1971 -0.0280
 3015SOL    HW120507   4.037   1.765  10.398  0.9111  0.1716 -0.9862
 3015SOL    HW220508   4.109   1.893  10.406 -2.1099  0.6237  1.8406
 3016SOL     OW20509   3.242   0.125   8.906 -0.2128 -0.0389  0.4150
 3016SOL    HW120510   3.264   0.210   8.945  0.4065  0.2373 -0.5559
 3016SOL    HW220511   3.327   0.083   8.894 -0.1437 -0.0225  0.8433
 3017SOL     OW20512   4.624   1.978   6.102 -0.4082  0.0321 -0.3273
 3017SOL    HW120513   4.640   2.067   6.070 -2.9465  0.8978  0.8985
 3017SOL    HW220514   4.639   1.990   6.196  1.5515  2.4297 -0.9386
 3018SOL     OW20515   3.972   3.351   9.790  0.1052  0.2539  0.2134
 3018SOL    HW120516   3.900   3.406   9.758 -0.7071 -0.5857  0.5861
 3018SOL    HW220517   4.027   3.408   9.845 -0.3013  0.7453  0.1154
 3019SOL     OW20518   1.459   1.378   3.341 -0.1296 -0.1898 -0.0946
 3019SOL    HW120519   1.506   1.456   3.312  1.6578 -0.6241  1.6872
 3019SOL    HW220520   1.510   1.311   3.294  0.2307  1.5824 -2.2048
 3020SOL     OW20521   2.769   2.104   2.910 -0.6786 -0.4115  0.5275
 3020SOL    HW120522   2.817   2.029   2.945  0.4925  0.7993  1.5449
 3020SOL    HW220523   2.680   2.068   2.920 -1.4920  0.8538 -2.2524
 3021SOL     OW20524   2.647   0.928   5.390  0.3867 -0.0717 -0.0782
 3021SOL    HW120525   2.635   1.020   5.368  4.2466 -0.2209 -2.8665
 3021SOL    HW220526   2.592   0.891   5.321  0.3458 -0.4440  0.1555
 3022SOL     OW20527   3.615   2.219   4.783 -0.7971 -0.0597 -0.0410
 3022SOL    HW120528   3.574   2.225   4.697 -3.1458 -1.3751  0.9731
 3022SOL    HW220529   3.690   2.162   4.762 -0.1450  0.1416  1.7386
 3023SOL     OW20530   3.800   3.920   5.271 -0.7944  0.0650 -0.1906
 3023SOL    HW120531   3.721   3.879   5.234 -1.5101 -0.6486  2.1540
 3023SOL    HW220532   3.862   3.912   5.198 -0.1042 -0.3960  0.4440
 3024SOL     OW20533   0.604   1.645   7.488 -0.7042 -0.1137 -0.0899
 3024SOL    HW120534   0.567   1.569   7.443 -0.5159  0.0733 -0.5611
 3024SOL    HW220535   0.652   1.610   7.564  0.3308 -2.1483 -1.6851
 3025SOL     OW20536   1.531   4.484   7.610 -0.1239 -0.0513 -0.1792
 3025SOL    HW120537   1.496   4.527   7.532 -1.4533 -3.2241 -1.3450
 3025SOL    HW220538   1.510   4.550   7.676  1.7073  0.0027  0.3438
 3026SOL     OW20539   3.560   4.548   4.189 -0.0319 -0.0950  0.2998
 3026SOL    HW120540   3.521   4.594   4.115  0.9604 -0.7772 -0.6457
 3026SOL    HW220541   3.574   4.457   4.162 -2.2320 -1.1361  2.7136
 3027SOL     OW20542   0.348   3.185   8.517 -0.4201 -0.2980 -0.1652
 3027SOL    HW120543   0.362   3.164   8.609  0.3408  0.5540 -0.0837
 3027SOL    HW220544   0.350   3.281   8.521  1.7981 -0.3437  0.0655
 3028SOL     OW20545   1.585   3.436  15.277  0.4021  0.5036 -0.0508
 3028SOL    HW120546   1.538   3.436  15.194  1.5397  1.5425 -0.6992
 3028SOL    HW220547   1.636   3.518  15.282 -0.0088  0.7412  0.2142
 3029SOL     OW20548   0.395   1.112   6.383  0.2282  0.0560  0.1017
 3029SOL    HW120549   0.434   1.141   6.465 -0.6295  0.0618  0.5091
 3029SOL    HW220550   0.302   1.124   6.403 -0.2705 -1.2911 -1.3919
 3030SOL     OW20551   3.953   0.146   6.687 -0.0009  0.4499  0.1905
 3030SOL    HW120552   3.926   0.147   6.779 -1.6166  1.8538 -0.2917
 3030SOL    HW220553   4.043   0.177   6.695  1.1662 -3.0916  0.5402
 3031SOL     OW20554   1.286   2.033   8.874 -0.2635  0.1114 -0.3311
 3031SOL    HW120555   1.288   1.969   8.803  1.6925  1.6695 -1.6945
 3031SOL    HW220556   1.239   1.991   8.946  1.1689 -0.7458  0.0809
 3032SOL     OW20557   3.271   4.471   4.672  0.6912 -1.0995 -0.5070
 3032SOL    HW120558   3.313   4.386   4.677  0.2327 -1.2329  1.2331
 3032SOL    HW220559   3.253   4.473   4.578 -0.5351  1.2586 -0.2257
 3033SOL     OW20560   1.654   4.420  13.983  0.1349 -0.0806  0.3464
 3033SOL    HW120561   1.617   4.339  14.017 -1.9610 -0.0130 -1.7428
 3033SOL    HW220562   1.578   4.478  13.995 -0.4705 -0.9688  0.7392
 3034SOL     OW20563   0.678   1.238   3.154  0.3807  0.4619  0.1087
 3034SOL    HW120564   0.763   1.205   3.123  0.4994  0.5068  0.3882
 3034SOL    HW220565   0.689   1.240   3.249 -0.5707 -1.3434  0.2613
 3035SOL     OW20566   1.565   2.147   8.580 -0.3327  0.4152  0.0106
 3035SOL    HW120567   1.613   2.230   8.580 -0.3829  0.4431 -0.8896
 3035SOL    HW220568   1.486   2.171   8.629  0.0365 -2.5878  2.0612
 3036SOL     OW20569   0.552   1.584   2.440  0.0153 -0.0092  0.0704
 3036SOL    HW120570   0.580   1.600   2.350  0.2475 -3.5118 -0.4700
 3036SOL    HW220571   0.499   1.506   2.431 -0.4595  0.2814  0.3362
 3037SOL     OW20572   2.656   3.679   1.934 -0.2459  0.3724 -0.6325
 3037SOL    HW120573   2.720   3.630   1.882  0.7435 -1.6734  2.4598
 3037SOL    HW220574   2.681   3.769   1.914  2.2509  0.2612  1.9507
 3038SOL     OW20575   0.573   1.307   8.240  0.2439 -0.1687 -0.0228
 3038SOL    HW120576   0.545   1.369   8.173  0.3958 -0.9788 -0.8196
 3038SOL    HW220577   0.489   1.286   8.281 -1.0637  1.7125 -1.7236
 3039SOL     OW20578   0.607   4.414  14.030  0.2215 -0.0557 -0.6287
 3039SOL    HW120579   0.553   4.362  14.090  1.4728 -1.4434 -0.7027
 3039SOL    HW220580   0.559   4.403  13.948 -0.2572  0.3637 -0.4029
 3040SOL     OW20581   1.563   3.375   4.934 -0.4552 -0.5284 -0.2143
 3040SOL    HW120582   1.498   3.435   4.971 -1.4016 -1.5810 -0.1595
 3040SOL    HW220583   1.565   3.300   4.993 -2.0679 -0.1924  0.2862
 3041SOL     OW20584   0.085   2.412   2.770 -0.0798  0.9535  0.0607
 3041SOL    HW120585   0.040   2.334   2.804  2.2098 -0.4098 -0.0738
 3041SOL    HW220586   0.079   2.474   2.843  2.0829  0.1811  0.8972
 3042SOL     OW20587   3.596   3.021  13.914  0.0337 -0.0102  0.0760
 3042SOL    HW120588   3.519   3.076  13.899 -0.0815 -0.1167  0.2674
 3042SOL    HW220589   3.633   3.065  13.991 -1.7656 -0.8512  1.4465
 3043SOL     OW20590   1.701   3.536  17.559  0.0142 -0.2338 -0.0112
 3043SOL    HW120591   1.776   3.498  17.605 -0.1959 -0.3279  0.2517
 3043SOL    HW220592   1.745   3.585  17.490 -0.0987 -1.0967 -0.7095
 3044SOL     OW20593   3.811   4.084   8.021 -0.3347 -0.1275  0.1697
 3044SOL    HW120594   3.725   4.042   8.015 -0.7779  1.2003 -2.7016
 3044SOL    HW220595   3.782   4.168   7.986 -0.6771 -0.8820 -1.3882
 3045SOL     OW20596   2.835   2.946  13.808  0.2478 -0.1123 -0.1013
 3045SOL    HW120597   2.859   2.853  13.816 -0.1595 -0.2876 -0.9590
 3045SOL    HW220598   2.901   2.983  13.866  1.9624  0.1990 -2.2513
 3046SOL     OW20599   2.038   1.750   8.270  0.1944 -0.1914 -0.8083
 3046SOL    HW120600   2.098   1.777   8.339 -0.9474  1.3493 -0.4220
 3046SOL    HW220601   1.954   1.793   8.288  0.6833  0.6188 -0.4888
 3047SOL     OW20602   0.481   0.923  12.138  0.6581  0.1178 -0.8309
 3047SOL    HW120603   0.416   0.919  12.069 -1.6971  2.2527  1.2476
 3047SOL    HW220604   0.558   0.895  12.088  2.3542 -1.8962  2.9013
 3048SOL     OW20605   0.137   2.853   2.653  0.8541 -0.1407 -0.0508
 3048SOL    HW120606   0.051   2.884   2.682  1.1359 -0.5734  1.2568
 3048SOL    HW220607   0.186   2.933   2.671 -1.6910  1.4670 -0.3027
 3049SOL     OW20608   3.174   3.948   5.948 -0.5201 -0.2766  0.8406
 3049SOL    HW120609   3.145   4.037   5.966 -0.7707  0.0096 -0.9171
 3049SOL    HW220610   3.258   3.963   5.904 -0.8240 -0.6879  0.1171
 3050SOL     OW20611   3.667   2.652  10.331 -0.2065 -0.4146 -0.0013
 3050SOL    HW120612   3.734   2.624  10.393  0.3926 -0.1872 -0.5468
 3050SOL    HW220613   3.714   2.724  10.288 -1.3047  0.7199  0.7024
 3051SOL     OW20614   4.352   2.078  14.196 -0.2758  0.1799 -0.0384
 3051SOL    HW120615   4.382   1.988  14.184 -0.3700  0.0943  0.3521
 3051SOL    HW220616   4.280   2.065  14.257  1.4165  0.4871  2.0391
 3052SOL     OW20617   2.544   1.140   6.141 -0.1324 -0.2793 -0.1437
 3052SOL    HW120618   2.623   1.186   6.167 -0.9473  1.1241 -0.1357
 3052SOL    HW220619   2.524   1.089   6.220 -0.4065 -0.5358 -0.3800
 3053SOL     OW20620   2.840   3.342   9.306  0.1511 -0.0103 -0.1981
 3053SOL    HW120621   2.901   3.388   9.249 -0.5617  1.2667  0.0608
 3053SOL    HW220622   2.810   3.416   9.359 -1.6484 -1.4287  0.7608
 3054SOL     OW20623   3.577   3.428  10.901  0.1592 -0.0686 -0.0539
 3054SOL    HW120624   3.494   3.451  10.858 -0.6576  1.1617  2.1859
 3054SOL    HW220625   3.559   3.340  10.935 -0.4962  0.4200  0.8464
 3055SOL     OW20626   1.586   1.503  10.113 -0.3887 -0.0048 -0.4926
 3055SOL    HW120627   1.515   1.457  10.068  0.2099 -0.4341 -1.0042
 3055SOL    HW220628   1.551   1.483  10.199 -1.3754 -0.6817 -1.0446
 3056SOL     OW20629   3.062   0.971  16.522 -0.1166 -0.1109 -0.1138
 3056SOL    HW120630   3.005   1.044  16.495  0.0421 -0.0206 -0.2081
 3056SOL    HW220631   3.115   1.005  16.594  1.5362 -0.7864 -1.0113
 3057SOL     OW20632   4.670   2.874  15.557 -0.3147  0.0022  0.0526
 3057SOL    HW120633   4.699   2.887  15.466 -1.0820 -0.2881 -0.2393
 3057SOL    HW220634   4.654   2.964  15.585  2.2147  1.2195 -2.4792
 3058SOL     OW20635   0.952   0.848  11.417 -0.2942  0.3852  0.0652
 3058SOL    HW120636   0.892   0.779  11.386  0.0280  0.8144 -1.5271
 3058SOL    HW220637   1.003   0.873  11.340  1.3572 -1.2109  0.6467
 3059SOL     OW20638   2.138   2.945  14.611 -0.1780  0.0212 -0.8989
 3059SOL    HW120639   2.043   2.953  14.604 -0.3732 -1.3757  0.0855
 3059SOL    HW220640   2.142   2.850  14.594  2.1513 -0.0287 -0.1438
 3060SOL     OW20641   2.293   1.829   8.411 -0.6235 -0.2010 -0.4112
 3060SOL    HW120642   2.336   1.791   8.335  0.1411  1.4358 -0.7950
 3060SOL    HW220643   2.339   1.790   8.485  1.2839  3.3902  0.3033
 3061SOL     OW20644   1.474   1.429   9.845  0.6162 -0.0888 -0.1854
 3061SOL    HW120645   1.390   1.471   9.863  0.9303  0.5259 -0.1708
 3061SOL    HW220646   1.445   1.368   9.777  3.2309 -0.5654 -0.8480
 3062SOL     OW20647   1.475   1.618  14.908  0.0413  0.1578 -0.0655
 3062SOL    HW120648   1.440   1.697  14.948  0.5173  1.1438 -1.6387
 3062SOL    HW220649   1.567   1.622  14.936 -0.1370 -0.4612  0.6146
 3063SOL     OW20650   3.002   3.390   7.728  0.1367  0.1779  0.4546
 3063SOL    HW120651   2.925   3.442   7.706 -0.5008 -0.6916  0.6431
 3063SOL    HW220652   2.957   3.306   7.734 -1.4201  0.8156 -2.3983
 3064SOL     OW20653   3.818   1.717   1.196  0.1018 -0.1617  0.0423
 3064SOL    HW120654   3.899   1.667   1.197 -0.5281 -1.1564  0.8577
 3064SOL    HW220655   3.774   1.641   1.157  1.0627 -0.4687 -0.4398
 3065SOL     OW20656   0.828   2.778  13.674  0.3491  0.0181 -0.2222
 3065SOL    HW120657   0.845   2.778  13.768  0.9002  0.9584 -0.3208
 3065SOL    HW220658   0.853   2.687  13.658 -1.5477 -0.2878 -1.4191
 3066SOL     OW20659   0.112   3.365   1.887  0.0274  0.3699 -0.7031
 3066SOL    HW120660   0.063   3.430   1.937 -0.0011 -1.0096  1.0619
 3066SOL    HW220661   0.150   3.335   1.970  2.0592  3.6955 -0.4206
 3067SOL     OW20662   0.862   4.435   5.014 -0.0785 -0.7780 -0.6216
 3067SOL    HW120663   0.771   4.463   5.002  0.5967  1.7499  0.1496
 3067SOL    HW220664   0.904   4.488   4.947  1.9984  0.2779  1.5025
 3068SOL     OW20665   0.428   4.442   4.927  0.2199 -0.0849 -0.1815
 3068SOL    HW120666   0.373   4.489   4.989 -0.5747 -0.6034 -0.4885
 3068SOL    HW220667   0.501   4.504   4.925 -0.8298  1.1333 -0.2450
 3069SOL     OW20668   2.440   4.220   3.310 -0.1606 -0.1478  0.2419
 3069SOL    HW120669   2.506   4.196   3.376 -0.8945 -1.8095  0.3710
 3069SOL    HW220670   2.456   4.314   3.302  0.1806 -0.3601 -1.6396
 3070SOL     OW20671   2.802   2.876  17.093  0.1251 -0.3019 -0.0857
 3070SOL    HW120672   2.760   2.837  17.016  1.5574  0.4254 -1.2379
 3070SOL    HW220673   2.775   2.825  17.169  0.7313 -0.5797 -0.0585
 3071SOL     OW20674   0.038   0.907   8.419 -0.1126  0.1130 -0.4577
 3071SOL    HW120675   4.712   0.961   8.478 -0.8089 -0.7799 -0.2473
 3071SOL    HW220676   0.127   0.927   8.448 -0.1406 -1.3820  0.6525
 3072SOL     OW20677   2.489   1.558   4.268  0.0474 -0.3097  0.7444
 3072SOL    HW120678   2.404   1.573   4.226  0.6946 -2.1597 -1.1988
 3072SOL    HW220679   2.537   1.500   4.209  2.1203  0.4460  1.6763
 3073SOL     OW20680   1.981   0.095   4.986  0.7381 -0.1447  0.5476
 3073SOL    HW120681   2.031   0.108   5.067 -1.4805 -0.0048  1.8775
 3073SOL    HW220682   2.003   0.173   4.935  2.4451 -0.7298  0.3685
 3074SOL     OW20683   0.851   3.658   2.510 -0.3934  0.1090 -0.1150
 3074SOL    HW120684   0.891   3.744   2.499 -0.6054 -0.0196 -1.8639
 3074SOL    HW220685   0.867   3.616   2.426 -0.1355  1.4251 -0.7145
 3075SOL     OW20686   2.787   0.589  16.476  0.6077  0.8712 -0.0015
 3075SOL    HW120687   2.714   0.641  16.511  0.1861  0.7729 -0.7298
 3075SOL    HW220688   2.855   0.603  16.542  2.4944  0.7346 -1.9037
 3076SOL     OW20689   0.498   3.482   6.693 -0.8261 -0.0800 -0.3393
 3076SOL    HW120690   0.407   3.455   6.686 -0.1347 -2.2823 -0.8252
 3076SOL    HW220691   0.541   3.401   6.722  1.6810  1.0140 -1.0143
 3077SOL     OW20692   4.327   4.556   1.125 -0.0462 -0.1107  0.3575
 3077SOL    HW120693   4.314   4.466   1.155  1.6776 -0.7265 -0.7306
 3077SOL    HW220694   4.332   4.604   1.207 -0.4567  1.0139 -0.2777
 3078SOL     OW20695   4.026   1.532   1.161 -0.1173 -0.1965  0.1837
 3078SOL    HW120696   3.989   1.470   1.098 -0.9119  0.8462 -0.3803
 3078SOL    HW220697   4.116   1.520   1.132 -0.6580 -3.4056 -0.1876
 3079SOL     OW20698   0.922   3.535   6.943 -0.7297  0.5129  0.2089
 3079SOL    HW120699   0.932   3.501   7.032 -4.2862  1.7776  1.0920
 3079SOL    HW220700   0.827   3.540   6.949 -0.7373  0.6211 -0.0239
 3080SOL     OW20701   0.137   0.712  11.957  0.1473  0.0507 -0.0482
 3080SOL    HW120702   0.072   0.735  12.025 -1.4831 -2.3263 -0.8301
 3080SOL    HW220703   0.187   0.642  11.997  0.6242 -0.4875 -1.6196
 3081SOL     OW20704   3.302   1.287   5.689 -0.3232  0.5546  0.8058
 3081SOL    HW120705   3.300   1.278   5.785 -0.4724  1.9749  0.9482
 3081SOL    HW220706   3.361   1.362   5.682  0.4671 -0.3115 -1.6909
 3082SOL     OW20707   4.005   4.016  15.619  0.3688 -0.5692  0.0285
 3082SOL    HW120708   4.037   4.044  15.706  3.8794  0.1655 -1.4925
 3082SOL    HW220709   3.955   4.094  15.595  0.6558 -0.9009 -1.6175
 3083SOL     OW20710   2.486   3.518   3.898 -0.6378 -0.3352 -0.1054
 3083SOL    HW120711   2.580   3.538   3.908 -1.6173  3.4785  1.4369
 3083SOL    HW220712   2.488   3.436   3.948  2.4169  0.6463  1.4179
 3084SOL     OW20713   3.459   0.495  13.919  0.5096 -0.2890 -0.3953
 3084SOL    HW120714   3.367   0.483  13.939  0.4427  2.7620  1.1975
 3084SOL    HW220715   3.463   0.434  13.846 -0.6173 -0.2312 -0.4934
 3085SOL     OW20716   2.367   2.675   0.591 -0.8192 -0.2818 -0.7050
 3085SOL    HW120717   2.397   2.587   0.569  0.1480 -0.6351  1.9625
 3085SOL    HW220718   2.438   2.725   0.550  0.5306 -0.5526  1.2918
 3086SOL     OW20719   1.191   4.702  11.689  0.0723  0.2315 -0.4198
 3086SOL    HW120720   1.229   0.033  11.623 -0.4299  1.1278  0.0794
 3086SOL    HW220721   1.098   4.712  11.668 -0.2041  1.6342  1.4865
 3087SOL     OW20722   0.386   3.233  11.569  0.3604 -0.0542 -0.0395
 3087SOL    HW120723   0.415   3.228  11.660 -0.8695 -0.4784  0.3219
 3087SOL    HW220724   0.351   3.322  11.575 -1.4591 -0.5867 -2.4422
 3088SOL     OW20725   3.327   2.565   8.655  0.0833  0.4942 -0.1543
 3088SOL    HW120726   3.308   2.595   8.744  0.4229  1.2879 -0.3428
 3088SOL    HW220727   3.291   2.629   8.594  0.9432  1.3813  0.2676
 3089SOL     OW20728   2.379   2.325   8.760 -0.1668 -0.1389  0.0692
 3089SOL    HW120729   2.323   2.398   8.786 -0.7896 -0.5249 -0.1857
 3089SOL    HW220730   2.314   2.268   8.719  2.1815 -1.7700 -1.3037
 3090SOL     OW20731   4.440   2.787   6.955  0.1486  0.5710  0.0822
 3090SOL    HW120732   4.476   2.838   7.027  0.6315  0.6104 -0.1804
 3090SOL    HW220733   4.510   2.799   6.890  0.3291  0.8629  0.3324
 3091SOL     OW20734   3.447   0.369   8.258 -0.2627 -0.0301  0.1637
 3091SOL    HW120735   3.513   0.311   8.296  1.8768  1.5933 -1.0836
 3091SOL    HW220736   3.489   0.399   8.178  1.3880 -1.3253  0.5458
 3092SOL     OW20737   0.669   4.619   4.020  0.4051  0.2631 -0.4918
 3092SOL    HW120738   0.622   4.571   3.952  0.3046 -2.1631  1.2540
 3092SOL    HW220739   0.750   4.646   3.977  0.1508 -0.1307 -1.2185
 3093SOL     OW20740   3.373   0.573   1.165  0.2991  0.1604  0.3958
 3093SOL    HW120741   3.413   0.549   1.249 -0.2637  3.3596  1.5610
 3093SOL    HW220742   3.281   0.561   1.186  0.7479 -1.8727  1.2933
 3094SOL     OW20743   2.527   4.580  13.572  0.4097  0.2578  0.0859
 3094SOL    HW120744   2.501   4.670  13.591 -0.1322  0.1373 -0.0782
 3094SOL    HW220745   2.614   4.598  13.536  1.2371 -1.0429  1.4907
 3095SOL     OW20746   1.586   1.162   3.957  0.5807 -0.3357  0.4597
 3095SOL    HW120747   1.680   1.144   3.948  0.8867 -1.7084  6.4262
 3095SOL    HW220748   1.568   1.218   3.882 -2.6608 -1.1576  0.6060
 3096SOL     OW20749   0.973   0.762   6.531 -0.2609  0.0686 -1.3226
 3096SOL    HW120750   1.057   0.774   6.487 -0.0843  0.9742 -0.7200
 3096SOL    HW220751   0.989   0.824   6.602  0.0642 -1.7755  0.2092
 3097SOL     OW20752   4.291   3.659   6.355 -0.6135  0.1332  0.4223
 3097SOL    HW120753   4.243   3.731   6.316  1.2916  0.6175 -1.0169
 3097SOL    HW220754   4.285   3.599   6.281  1.3565 -0.5719  0.8195
 3098SOL     OW20755   2.079   1.082  10.597 -0.1377  0.4602  0.0719
 3098SOL    HW120756   2.137   1.133  10.541  0.4393  0.6347  0.8310
 3098SOL    HW220757   1.996   1.103  10.554  1.5462  1.4986 -2.6152
 3099SOL     OW20758   4.262   0.991   1.085 -0.6855 -0.4957  0.1456
 3099SOL    HW120759   4.203   1.065   1.069  0.5603  0.4812  0.1378
 3099SOL    HW220760   4.198   0.921   1.093  0.2813 -1.4065 -0.1202
 3100SOL     OW20761   2.255   1.079  15.241  0.0034  0.4378  0.1724
 3100SOL    HW120762   2.285   1.074  15.150 -1.8708  0.5790 -0.4685
 3100SOL    HW220763   2.259   0.988  15.270 -1.6621  0.6568  1.0941
 3101SOL     OW20764   0.935   4.109   4.746  0.6184  0.8115 -0.0577
 3101SOL    HW120765   0.875   4.102   4.821 -1.2300  2.2778 -1.4115
 3101SOL    HW220766   0.871   4.111   4.675 -0.1783 -0.4054  0.6298
 3102SOL     OW20767   4.017   1.769   7.855 -0.2078 -0.4807  0.9135
 3102SOL    HW120768   4.091   1.787   7.912  0.9957  0.3904 -0.9204
 3102SOL    HW220769   3.980   1.857   7.843  2.2733  0.1964 -1.6575
 3103SOL     OW20770   1.047   1.553  15.063 -0.2055  0.2981 -0.3365
 3103SOL    HW120771   1.028   1.520  14.975  0.0483  0.2561 -0.3773
 3103SOL    HW220772   1.105   1.624  15.034 -1.1306  0.2337 -2.3539
 3104SOL     OW20773   1.970   1.853   5.304  0.0035  0.2655 -0.5360
 3104SOL    HW120774   1.944   1.913   5.234  2.0238 -0.0073 -1.5091
 3104SOL    HW220775   1.910   1.883   5.372 -0.6805 -0.7645 -0.6734
 3105SOL     OW20776   2.141   1.925   9.749  0.0622 -0.4880  0.4906
 3105SOL    HW120777   2.116   1.863   9.818  0.7906 -0.9935  0.2990
 3105SOL    HW220778   2.135   1.873   9.669  2.3389  0.9412 -0.5975
 3106SOL     OW20779   1.524   0.817   6.466 -0.5209  0.2143  0.1920
 3106SOL    HW120780   1.565   0.903   6.462  0.4910 -0.3025 -0.5735
 3106SOL    HW220781   1.593   0.760   6.502 -0.6820 -0.3980 -0.4733
 3107SOL     OW20782   2.938   4.267   4.926 -0.2765 -0.8834 -0.6497
 3107SOL    HW120783   2.967   4.215   5.001  0.4837  0.7578  0.1921
 3107SOL    HW220784   2.994   4.232   4.857  0.2984 -2.0224  0.3898
 3108SOL     OW20785   2.561   1.284   0.397 -0.4674 -0.0843  0.3770
 3108SOL    HW120786   2.612   1.208   0.424 -0.0232  0.4807  1.1568
 3108SOL    HW220787   2.595   1.343   0.465  0.1385  0.2855 -0.2486
 3109SOL     OW20788   0.042   2.146   2.850 -0.1468 -0.3762 -0.2656
 3109SOL    HW120789   0.108   2.155   2.918  2.2129 -1.7420 -2.3972
 3109SOL    HW220790   0.002   2.063   2.876 -2.6832  0.7971 -0.4182
 3110SOL     OW20791   0.291   1.439   7.428  0.6458 -0.0435  0.4047
 3110SOL    HW120792   0.204   1.452   7.390  1.1525  0.6845 -0.5205
 3110SOL    HW220793   0.292   1.527   7.465 -0.2640  0.1933 -0.1183
 3111SOL     OW20794   3.611   0.733   8.498  0.6161 -0.0475  0.1321
 3111SOL    HW120795   3.682   0.679   8.533  0.9272 -0.2189 -0.7823
 3111SOL    HW220796   3.549   0.665   8.474  1.4555 -0.4571 -0.8640
 3112SOL     OW20797   3.363   2.552  11.337  0.4405  0.3593  0.8705
 3112SOL    HW120798   3.403   2.466  11.333  1.0390  0.6247  1.1783
 3112SOL    HW220799   3.369   2.573  11.244  0.9667 -1.1821  0.5681
 3113SOL     OW20800   3.732   4.381   3.733  0.1517 -0.1294  0.0887
 3113SOL    HW120801   3.797   4.446   3.761  1.5512 -2.0632  1.2502
 3113SOL    HW220802   3.755   4.372   3.641  0.4769  1.4859  0.0143
 3114SOL     OW20803   0.627   4.468   2.726  0.0283  0.5267  0.0356
 3114SOL    HW120804   0.645   4.557   2.696  2.7237  0.5240  1.6284
 3114SOL    HW220805   0.711   4.425   2.710 -0.7440 -1.0315  0.1612
 3115SOL     OW20806   3.518   4.511   5.438  0.1725  0.4092  0.2133
 3115SOL    HW120807   3.553   4.453   5.506 -0.9794  0.0736  0.5095
 3115SOL    HW220808   3.423   4.505   5.449  0.1659 -2.2603 -1.2731
 3116SOL     OW20809   3.070   1.649   0.012  0.7009 -0.4830  0.3663
 3116SOL    HW120810   3.143   1.659   0.073 -1.4720  2.2226  2.5322
 3116SOL    HW220811   3.057   1.742  17.700 -0.8655 -0.6785  0.4936
 3117SOL     OW20812   0.557   0.194   2.499  0.0225  0.3777  0.9685
 3117SOL    HW120813   0.477   0.243   2.518  0.2413  1.3370 -0.6056
 3117SOL    HW220814   0.572   0.139   2.576  0.7392 -0.5491  0.1749
 3118SOL     OW20815   1.246   3.463   2.680  0.7365 -0.0919 -0.1240
 3118SOL    HW120816   1.213   3.468   2.770 -0.4980  0.9834 -0.6454
 3118SOL    HW220817   1.246   3.367   2.674  1.0813 -0.1310  0.5082
 3119SOL     OW20818   1.188   0.367   3.814  0.9260  0.2885 -0.9093
 3119SOL    HW120819   1.187   0.443   3.756  0.3149 -0.4103 -1.8303
 3119SOL    HW220820   1.272   0.332   3.784  1.6022  2.2673 -1.3069
 3120SOL     OW20821   3.431   3.979   2.329 -0.1018 -0.0143  0.0030
 3120SOL    HW120822   3.454   3.889   2.305  0.2907 -0.0876  0.6704
 3120SOL    HW220823   3.504   4.006   2.385 -0.2567 -0.3596  0.3633
 3121SOL     OW20824   1.094   2.728   4.573 -0.2475  0.2103 -0.0292
 3121SOL    HW120825   1.115   2.643   4.536 -0.0083  0.3627 -0.2410
 3121SOL    HW220826   1.021   2.759   4.521 -0.4244 -2.1285 -1.1736
 3122SOL     OW20827   4.145   3.985   4.522  0.3013 -0.4549  0.4320
 3122SOL    HW120828   4.231   4.025   4.510  0.0858 -0.1004  0.0485
 3122SOL    HW220829   4.080   4.053   4.502 -0.6518 -1.4345  0.2156
 3123SOL     OW20830   3.960   4.653   4.040 -0.5924 -0.1788 -0.3437
 3123SOL    HW120831   3.889   4.622   4.096 -1.8292  1.9756 -0.7014
 3123SOL    HW220832   3.978   0.015   4.071 -1.2055 -0.5411  1.0152
 3124SOL     OW20833   4.568   1.778   9.374  0.1993 -0.2071 -0.0513
 3124SOL    HW120834   4.550   1.714   9.443 -0.7134  1.6732  1.4475
 3124SOL    HW220835   4.651   1.816   9.403  0.1957 -0.5216  0.3672
 3125SOL     OW20836   1.100   2.741  17.487 -0.0997 -0.6121  0.1747
 3125SOL    HW120837   1.045   2.665  17.505 -0.0275 -1.2111 -2.1278
 3125SOL    HW220838   1.190   2.716  17.508 -0.2466  0.4866  2.1728
 3126SOL     OW20839   2.880   3.698  13.471 -0.1460 -0.0912 -0.0761
 3126SOL    HW120840   2.788   3.708  13.496 -0.2223  0.4609 -0.5825
 3126SOL    HW220841   2.920   3.768  13.523 -2.4957  2.7301 -2.0914
 3127SOL     OW20842   2.534   4.427   8.541  0.2608 -0.5376  0.3107
 3127SOL    HW120843   2.593   4.419   8.466 -1.2610  1.4303 -1.0584
 3127SOL    HW220844   2.545   4.521   8.553  3.1908 -0.7363 -0.8252
 3128SOL     OW20845   0.982   2.254   5.000  0.0802  0.9222 -0.0729
 3128SOL    HW120846   0.983   2.326   4.936 -0.3101  1.7880  0.9095
 3128SOL    HW220847   0.901   2.213   4.969  0.9589 -0.8523 -0.0611
 3129SOL     OW20848   0.416   1.376   7.757 -0.0925  0.0664 -0.4593
 3129SOL    HW120849   0.416   1.468   7.784  0.8189  0.0557 -0.4449
 3129SOL    HW220850   0.478   1.337   7.818 -0.4164  1.6243  0.8803
 3130SOL     OW20851   4.472   3.701   7.786  0.2202 -0.3034  0.4688
 3130SOL    HW120852   4.399   3.763   7.791 -0.3238 -0.8607 -0.5393
 3130SOL    HW220853   4.438   3.639   7.722 -1.6124 -0.4155  1.5437
 3131SOL     OW20854   1.188   1.163   8.501 -0.3748  0.0365  0.2909
 3131SOL    HW120855   1.174   1.140   8.409 -1.7068  0.5126  0.3788
 3131SOL    HW220856   1.219   1.253   8.501 -1.2066  0.3193  1.4433
 3132SOL     OW20857   4.597   2.240   7.735 -0.3667  0.0473 -0.2162
 3132SOL    HW120858   4.690   2.226   7.749 -0.1805  0.0396 -1.4366
 3132SOL    HW220859   4.554   2.191   7.804  0.1218  1.0380  0.7882
 3133SOL     OW20860   0.302   4.642   6.925  0.4596  0.8555  0.2414
 3133SOL    HW120861   0.260   4.652   7.010 -0.3426  0.5560 -0.1274
 3133SOL    HW220862   0.390   4.609   6.946  0.1444 -0.4903 -0.6273
 3134SOL     OW20863   0.247   1.711   3.132 -0.3321 -0.3678  0.4098
 3134SOL    HW120864   0.323   1.768   3.143 -1.3887  0.6872  2.3180
 3134SOL    HW220865   0.237   1.682   3.223 -0.0566 -0.8960  0.2671
 3135SOL     OW20866   2.750   0.504  17.506  0.2794 -0.1478 -0.6411
 3135SOL    HW120867   2.774   0.566  17.437 -0.0122  0.3873 -0.2581
 3135SOL    HW220868   2.660   0.530  17.525  0.8349  2.3063 -1.3730
 3136SOL     OW20869   0.853   3.663   5.085  0.4203 -0.4506 -0.3571
 3136SOL    HW120870   0.865   3.573   5.055 -1.3083 -0.5324 -0.7773
 3136SOL    HW220871   0.847   3.714   5.004  0.4463  1.9581  1.1641
 3137SOL     OW20872   4.567   4.607  14.877  0.1707 -0.1805  0.4284
 3137SOL    HW120873   4.618   4.568  14.948  1.5112 -0.8725 -0.9139
 3137SOL    HW220874   4.537   4.531  14.828 -2.2825  1.5510 -0.7579
 3138SOL     OW20875   1.001   0.524  16.373  0.3747 -0.0428 -0.0582
 3138SOL    HW120876   0.908   0.529  16.350  0.0821  2.1234  1.6584
 3138SOL    HW220877   1.027   0.460  16.307 -0.9219 -0.7624  0.1299
 3139SOL     OW20878   4.491   0.684  10.032 -0.1388 -0.5174 -0.2108
 3139SOL    HW120879   4.494   0.778  10.052 -1.3243 -0.2884 -1.1158
 3139SOL    HW220880   4.443   0.661  10.112 -0.8275  6.1506  1.2955
 3140SOL     OW20881   2.158   3.093   5.570 -0.1875  0.2705  0.3054
 3140SOL    HW120882   2.196   3.027   5.513 -1.4217  0.2330 -0.4645
 3140SOL    HW220883   2.197   3.170   5.529 -0.8497 -1.1361 -2.9355
 3141SOL     OW20884   3.782   3.080  15.525 -0.3670  0.2396 -0.1723
 3141SOL    HW120885   3.877   3.087  15.527 -0.3319 -0.0486 -0.8319
 3141SOL    HW220886   3.758   3.170  15.549 -0.6524  0.2042 -0.3232
 3142SOL     OW20887   4.585   3.835   3.045 -0.1865 -0.5786 -0.1722
 3142SOL    HW120888   4.491   3.843   3.058 -0.3637 -1.0197 -1.2907
 3142SOL    HW220889   4.594   3.781   2.967  1.7542  0.6892 -0.8427
 3143SOL     OW20890   0.172   2.355   7.081 -0.0837 -0.2556 -0.0697
 3143SOL    HW120891   0.247   2.337   7.024 -0.3605 -1.4613 -0.0528
 3143SOL    HW220892   0.152   2.268   7.116  0.3683  0.0633  0.9853
 3144SOL     OW20893   3.361   4.278   3.937  0.2546  0.4521  0.3175
 3144SOL    HW120894   3.339   4.192   3.903  1.4116  0.0661  0.5548
 3144SOL    HW220895   3.276   4.321   3.951  0.4083  0.4405  1.3093
 3145SOL     OW20896   4.579   2.099   4.101  0.1790  0.8667  0.0660
 3145SOL    HW120897   4.577   2.135   4.190 -1.0884  1.0817 -0.0458
 3145SOL    HW220898   4.673   2.092   4.084  0.0640 -0.3040 -0.0633
 3146SOL     OW20899   1.315   3.522  13.611  0.1768 -0.1495 -0.2462
 3146SOL    HW120900   1.317   3.588  13.681  1.4689 -1.2452  0.7587
 3146SOL    HW220901   1.238   3.550  13.562 -0.1734 -1.1957 -0.2892
 3147SOL     OW20902   3.498   1.953  17.078 -0.1827 -0.0189 -0.3457
 3147SOL    HW120903   3.490   1.870  17.032  1.0534  0.0375 -0.6775
 3147SOL    HW220904   3.590   1.969  17.058 -0.5128  0.1251 -1.7887
 3148SOL     OW20905   0.578   3.167   5.952  0.0232  0.0001 -0.8967
 3148SOL    HW120906   0.660   3.181   5.905  0.6080 -0.7186 -0.0921
 3148SOL    HW220907   0.521   3.211   5.890  1.1066  1.1347 -1.0808
 3149SOL     OW20908   0.549   2.306   8.099 -0.1875  0.4497 -0.2153
 3149SOL    HW120909   0.624   2.254   8.072 -0.2176  0.0036  0.5721
 3149SOL    HW220910   0.588   2.389   8.071 -2.3446  1.8164  0.7852
 3150SOL     OW20911   2.650   4.200   1.114  0.1815 -0.4676 -0.4524
 3150SOL    HW120912   2.685   4.284   1.086  0.2020 -0.2072  0.3652
 3150SOL    HW220913   2.676   4.201   1.206  0.3010 -1.4707 -0.4745
 3151SOL     OW20914   3.993   1.347   6.647 -0.0517 -0.0196 -0.0215
 3151SOL    HW120915   4.012   1.332   6.740 -0.1829  1.0209  0.1705
 3151SOL    HW220916   4.062   1.407   6.617  0.2872  0.8673  2.4623
 3152SOL     OW20917   1.722   4.338  12.975 -0.4722  0.1246 -0.3527
 3152SOL    HW120918   1.647   4.279  12.985  0.3658 -0.8807  0.0341
 3152SOL    HW220919   1.797   4.279  12.987  0.6923  1.9115  1.2596
 3153SOL     OW20920   1.635   1.136   6.666  0.1278  0.1630  0.3050
 3153SOL    HW120921   1.721   1.165   6.697  0.8319 -0.3918 -1.1102
 3153SOL    HW220922   1.609   1.076   6.736 -1.8543  0.9467  0.2415
 3154SOL     OW20923   0.223   2.630   2.519 -0.2505 -0.2038 -0.1286
 3154SOL    HW120924   0.295   2.679   2.480 -0.9710  0.5969 -0.4529
 3154SOL    HW220925   0.180   2.698   2.571  0.0437 -0.8943  1.0143
 3155SOL     OW20926   2.940   1.586   5.219  0.5781  0.2057  0.3691
 3155SOL    HW120927   2.927   1.625   5.132 -1.5355  0.4580  0.8110
 3155SOL    HW220928   2.853   1.589   5.259 -0.0472 -0.8581 -0.9056
 3156SOL     OW20929   3.525   4.144   7.373  0.4909  0.0644 -0.4506
 3156SOL    HW120930   3.509   4.113   7.284  0.4491 -1.8108  0.2187
 3156SOL    HW220931   3.465   4.219   7.373 -0.7180 -0.8860 -0.8008
 3157SOL     OW20932   1.104   2.174   8.503 -0.1146  0.2203 -0.2675
 3157SOL    HW120933   1.014   2.207   8.495 -0.5333 -0.3739  1.8736
 3157SOL    HW220934   1.108   2.107   8.434 -0.3208 -0.0860  0.0175
 3158SOL     OW20935   3.758   4.481   9.736  0.4405  0.7354 -0.4490
 3158SOL    HW120936   3.783   4.513   9.823 -2.8286  1.2336  0.3151
 3158SOL    HW220937   3.836   4.475   9.681 -0.1283 -0.3073 -1.1609
 3159SOL     OW20938   2.764   0.456   0.177  0.1260 -0.2107 -0.5671
 3159SOL    HW120939   2.736   0.436   0.267 -0.0696 -2.3381 -1.1039
 3159SOL    HW220940   2.855   0.481   0.188 -0.2275  1.7396 -2.1576
 3160SOL     OW20941   1.086   0.538   6.668 -0.6025 -0.4538  0.5086
 3160SOL    HW120942   1.058   0.618   6.622  1.9484 -0.4983 -1.1052
 3160SOL    HW220943   1.009   0.481   6.664  1.1615 -2.9547  2.2300
 3161SOL     OW20944   3.698   2.926   4.901  0.1073 -0.3906  0.5624
 3161SOL    HW120945   3.612   2.969   4.893 -0.0157 -0.5788  0.8860
 3161SOL    HW220946   3.728   2.942   4.811 -2.7847 -0.1655 -0.3794
 3162SOL     OW20947   3.833   0.110   9.207  0.0127 -0.5141 -0.2126
 3162SOL    HW120948   3.905   0.046   9.208 -0.9346 -1.6011 -0.6077
 3162SOL    HW220949   3.867   0.175   9.268 -2.0518 -0.0617  0.4560
 3163SOL     OW20950   2.639   3.025   2.052 -0.3516  0.1749  0.3420
 3163SOL    HW120951   2.657   2.939   2.088  2.3325  0.4563 -0.3329
 3163SOL    HW220952   2.638   3.086   2.126  0.5420  1.2464 -0.5251
 3164SOL     OW20953   3.451   0.619   4.621 -0.3022  0.1471  0.0380
 3164SOL    HW120954   3.522   0.634   4.558  0.6131  0.2824  1.0957
 3164SOL    HW220955   3.383   0.671   4.578 -1.4882 -1.9313 -0.6604
 3165SOL     OW20956   1.850   4.610   6.682 -0.4405 -0.1976 -0.2178
 3165SOL    HW120957   1.894   4.552   6.744 -1.8787 -1.0391  0.0085
 3165SOL    HW220958   1.774   4.637   6.733  0.4543  0.0137  1.0029
 3166SOL     OW20959   0.203   4.483  16.174 -0.1043 -0.0508 -0.1879
 3166SOL    HW120960   0.253   4.423  16.230 -1.0406  1.1505  1.9290
 3166SOL    HW220961   0.139   4.428  16.129  0.4178  0.5946 -1.7064
 3167SOL     OW20962   3.011   1.220   9.448  0.0022  0.0157  0.1551
 3167SOL    HW120963   3.098   1.199   9.483 -0.3329  0.0167  1.0001
 3167SOL    HW220964   2.988   1.278   9.521  0.4180  0.8170 -0.3425
 3168SOL     OW20965   3.712   2.881   4.180 -0.0990 -0.0412 -0.2035
 3168SOL    HW120966   3.784   2.937   4.152  1.8646 -2.8471 -0.8760
 3168SOL    HW220967   3.698   2.908   4.270  1.5460  2.8517 -0.8319
 3169SOL     OW20968   3.703   1.620   0.585 -0.8498  0.0166  0.1488
 3169SOL    HW120969   3.646   1.674   0.639 -0.0257  0.6570  0.3863
 3169SOL    HW220970   3.654   1.608   0.503 -0.2256 -0.9037 -0.0880
 3170SOL     OW20971   1.259   0.408   6.943  0.1968  0.3563  0.0537
 3170SOL    HW120972   1.299   0.321   6.950  0.3806  0.4561  0.2555
 3170SOL    HW220973   1.298   0.456   7.016  1.4813 -2.2048  1.0537
 3171SOL     OW20974   1.499   2.365   2.210 -0.3484 -0.0404  0.6910
 3171SOL    HW120975   1.463   2.278   2.193 -0.8765 -0.0281  1.7762
 3171SOL    HW220976   1.587   2.335   2.235  1.1975  1.8160 -2.4518
 3172SOL     OW20977   0.078   3.313  17.644  0.6097 -0.1197  0.0909
 3172SOL    HW120978   4.724   3.320  17.593 -1.2254  2.6798  3.3792
 3172SOL    HW220979   0.071   3.218  17.656 -0.7239 -0.2619 -1.8982
 3173SOL     OW20980   2.459   4.713  11.182 -0.0380  0.7474  0.3023
 3173SOL    HW120981   2.505   0.061  11.221  0.9291  0.5237 -0.4406
 3173SOL    HW220982   2.425   4.680  11.265 -1.5692  0.2724 -0.5082
 3174SOL     OW20983   2.734   3.597   5.594  0.8513  0.1334 -0.2429
 3174SOL    HW120984   2.643   3.574   5.577  1.5482 -2.1842 -0.8809
 3174SOL    HW220985   2.762   3.507   5.610  1.2707  0.4301  0.7318
 3175SOL     OW20986   2.052   2.645   8.311  0.1295 -0.3364  0.7871
 3175SOL    HW120987   2.001   2.726   8.311  1.1459  0.3163 -1.4633
 3175SOL    HW220988   2.112   2.661   8.237 -2.4343  3.5797 -0.4343
 3176SOL     OW20989   3.314   0.265   2.640  0.0533  0.8122 -0.7062
 3176SOL    HW120990   3.247   0.312   2.689  1.3183 -0.0875  1.8748
 3176SOL    HW220991   3.306   0.317   2.560 -2.6161 -1.1994 -1.7781
 3177SOL     OW20992   1.215   1.078  11.740  0.4117 -0.1141 -0.4347
 3177SOL    HW120993   1.265   1.160  11.738 -1.7142  1.2178  0.4423
 3177SOL    HW220994   1.253   1.034  11.816  0.7992 -2.3310 -1.9272
 3178SOL     OW20995   1.312   1.000  12.029  0.5484 -0.0661 -0.0677
 3178SOL    HW120996   1.406   0.991  12.049  0.1395  1.5320  2.4855
 3178SOL    HW220997   1.286   1.072  12.086  0.7677  0.4969 -0.6659
 3179SOL     OW20998   0.491   2.893  15.595  0.8210 -0.2983  0.0956
 3179SOL    HW120999   0.419   2.862  15.540 -0.3681  1.3648  0.7271
 3179SOL    HW221000   0.453   2.973  15.631  0.3531 -0.1360 -0.7544
 3180SOL     OW21001   2.767   3.312   3.387 -0.2434  0.4627  0.1068
 3180SOL    HW121002   2.858   3.311   3.357 -0.5172 -0.4653 -0.6962
 3180SOL    HW221003   2.770   3.324   3.482  0.5635 -2.5613  0.4811
 3181SOL     OW21004   2.919   1.587   7.993 -0.3541 -0.1193  0.3016
 3181SOL    HW121005   2.928   1.505   7.944  0.0265  0.5932 -0.8286
 3181SOL    HW221006   2.985   1.635   7.942  0.8641 -0.0583  1.9404
 3182SOL     OW21007   2.326   1.120   2.355  0.0742  0.5587  0.2088
 3182SOL    HW121008   2.250   1.167   2.389  0.4721  1.4537 -0.1339
 3182SOL    HW221009   2.286   1.034   2.342  0.7327  0.1292  0.9980
 3183SOL     OW21010   0.896   4.292   3.216 -0.3250  0.4621 -0.2161
 3183SOL    HW121011   0.856   4.209   3.242 -0.8321  0.5671 -0.6709
 3183SOL    HW221012   0.978   4.255   3.183  0.5574  1.1906  1.1352
 3184SOL     OW21013   2.782   3.703   2.518  0.6336  0.3685 -0.1059
 3184SOL    HW121014   2.740   3.620   2.495 -1.7708  1.2817  0.9950
 3184SOL    HW221015   2.862   3.696   2.466  0.3625 -0.2778 -0.4285
 3185SOL     OW21016   3.110   0.405  15.218  0.0992  0.0224 -0.0169
 3185SOL    HW121017   3.181   0.340  15.218 -0.4190 -0.5282 -0.9832
 3185SOL    HW221018   3.082   0.393  15.309  0.0451  0.4948  0.0296
 3186SOL     OW21019   0.729   4.554  11.874  0.0371  0.0964  0.1948
 3186SOL    HW121020   0.670   4.628  11.879 -0.7230 -0.6464  2.3385
 3186SOL    HW221021   0.663   4.485  11.872  1.0016 -0.8090 -1.1124
 3187SOL     OW21022   0.832   2.177   6.372 -0.2495  0.1349 -0.0559
 3187SOL    HW121023   0.773   2.157   6.299  0.3955  2.5395 -1.2550
 3187SOL    HW221024   0.898   2.111   6.350 -0.8818  0.4244 -2.8152
 3188SOL     OW21025   3.673   2.267   9.906 -0.3330 -0.0991 -0.0292
 3188SOL    HW121026   3.587   2.226   9.910 -0.8793  1.0847  0.2869
 3188SOL    HW221027   3.688   2.275  10.001 -0.5282  0.9321 -0.0873
 3189SOL     OW21028   1.382   0.827   6.211  0.1535  0.3608 -0.7044
 3189SOL    HW121029   1.303   0.774   6.195 -0.7876  1.5289  0.0971
 3189SOL    HW221030   1.425   0.785   6.286  1.2865  1.3374 -0.8150
 3190SOL     OW21031   1.763   4.389   3.616 -0.7182  0.2833 -0.1808
 3190SOL    HW121032   1.783   4.403   3.524  0.7729  0.1240  0.1191
 3190SOL    HW221033   1.853   4.398   3.648 -0.5473  2.0775 -1.1824
 3191SOL     OW21034   4.000   4.593   7.044  0.0009 -0.0345  0.3329
 3191SOL    HW121035   4.052   4.546   7.109 -0.2500 -0.1478  0.4511
 3191SOL    HW221036   3.928   4.532   7.030 -0.7186  1.2067 -1.3950
 3192SOL     OW21037   0.917   2.988   4.156  0.0326  0.1203 -0.3217
 3192SOL    HW121038   0.912   2.911   4.099 -2.2466  0.1635 -0.1562
 3192SOL    HW221039   1.006   3.017   4.133 -0.8203  1.7247 -1.5762
 3193SOL     OW21040   1.085   1.101   7.380  0.1472 -0.1747  0.0363
 3193SOL    HW121041   1.028   1.026   7.395 -0.9578  0.7817  0.6086
 3193SOL    HW221042   1.077   1.099   7.285 -1.1837  1.2343  0.1226
 3194SOL     OW21043   1.708   1.785   3.025  0.0240 -0.1112 -0.3955
 3194SOL    HW121044   1.631   1.754   2.978 -1.6716  0.8119  1.7332
 3194SOL    HW221045   1.722   1.872   2.986  5.8445 -0.8229  0.0121
 3195SOL     OW21046   4.455   3.802   1.756  0.4179 -0.2058  0.3568
 3195SOL    HW121047   4.452   3.791   1.661 -1.5689  2.1906  0.1583
 3195SOL    HW221048   4.424   3.891   1.771 -1.2287 -0.9446  1.4327
 3196SOL     OW21049   1.721   0.471   9.398  0.5655  0.2215  0.0478
 3196SOL    HW121050   1.733   0.564   9.418  1.6503 -0.0985  0.9079
 3196SOL    HW221051   1.814   0.448   9.389  1.2036  1.6658  3.1092
 3197SOL     OW21052   2.996   2.665  14.113  0.3118 -0.1341  0.1916
 3197SOL    HW121053   2.918   2.690  14.062 -0.7567 -1.4702  1.1753
 3197SOL    HW221054   3.055   2.632  14.046 -0.6368  1.9677 -1.7042
 3198SOL     OW21055   4.045   1.514  17.026  0.0323 -0.4567  0.2309
 3198SOL    HW121056   4.019   1.433  17.070  0.9178 -0.8069  0.1112
 3198SOL    HW221057   4.099   1.484  16.953 -1.5936  2.4561 -2.2005
 3199SOL     OW21058   2.088   3.724   6.978  0.5529 -0.1978  0.0916
 3199SOL    HW121059   2.123   3.804   7.016  0.8087  0.4533 -1.4869
 3199SOL    HW221060   2.124   3.717   6.889  0.2754  1.5156 -0.1525
 3200SOL     OW21061   3.400   1.397   1.856  0.7262  0.1657 -0.5334
 3200SOL    HW121062   3.329   1.341   1.823  1.5086 -0.7046 -0.7479
 3200SOL    HW221063   3.396   1.369   1.947 -1.5893  0.0619 -0.6643
 3201SOL     OW21064   4.466   4.684   5.899 -0.4461  0.3527 -0.2806
 3201SOL    HW121065   4.380   4.723   5.919 -0.4955 -0.8944  1.9427
 3201SOL    HW221066   4.441   4.642   5.817  1.1121 -0.7576 -0.1876
 3202SOL     OW21067   2.144   0.674   2.899  0.5933  0.2200  0.1367
 3202SOL    HW121068   2.072   0.717   2.853 -0.9910 -0.8041  1.6459
 3202SOL    HW221069   2.159   0.612   2.827 -0.2702  1.9793 -1.5683
 3203SOL     OW21070   2.818   0.309   6.391  0.7846 -0.2033  0.3880
 3203SOL    HW121071   2.845   0.380   6.448 -0.6416 -0.0711  0.9186
 3203SOL    HW221072   2.856   0.331   6.306 -1.6073  0.9836 -0.3771
 3204SOL     OW21073   0.400   0.900   7.228  0.1608  0.7363  0.1080
 3204SOL    HW121074   0.339   0.850   7.173 -0.1389  0.6548  0.5184
 3204SOL    HW221075   0.351   0.979   7.250 -3.1839 -1.5292  0.7712
 3205SOL     OW21076   4.274   0.277  10.918 -0.2543 -0.0801  0.2423
 3205SOL    HW121077   4.350   0.220  10.926 -0.0850  0.0684 -0.3019
 3205SOL    HW221078   4.272   0.309  11.009 -0.8308 -0.1941  0.2688
 3206SOL     OW21079   1.107   0.687   0.483  0.2675  0.2955 -0.9700
 3206SOL    HW121080   1.156   0.606   0.495  0.6827  0.8560  1.2007
 3206SOL    HW221081   1.025   0.669   0.529 -0.0959 -0.0446 -1.7666
 3207SOL     OW21082   3.859   2.530   3.361  0.1731 -0.5345  0.6350
 3207SOL    HW121083   3.801   2.458   3.334  1.1700 -1.0919 -0.0052
 3207SOL    HW221084   3.889   2.563   3.276  0.5347 -2.5512 -0.0290
 3208SOL     OW21085   4.528   3.887   4.567 -0.6768  0.3554  0.6903
 3208SOL    HW121086   4.562   3.901   4.655 -0.0308  0.5366  0.4173
 3208SOL    HW221087   4.522   3.980   4.545 -1.4689 -0.3310 -1.9532
 3209SOL     OW21088   3.257   2.513   3.704 -0.3255 -0.1489 -0.4051
 3209SOL    HW121089   3.320   2.585   3.703  0.3297 -0.7070  0.1400
 3209SOL    HW221090   3.200   2.548   3.636  0.3119 -0.4722 -1.1131
 3210SOL     OW21091   2.648   2.740   8.656  0.0818  0.6873  0.5395
 3210SOL    HW121092   2.721   2.746   8.718  0.7866  2.0120 -0.4187
 3210SOL    HW221093   2.651   2.647   8.631 -0.2572  0.7100  0.4150
 3211SOL     OW21094   3.172   1.175   4.419  0.5399  0.2035 -0.9195
 3211SOL    HW121095   3.158   1.221   4.336  0.9297  0.3199 -0.9191
 3211SOL    HW221096   3.237   1.110   4.392 -0.4454 -1.0393 -0.3052
 3212SOL     OW21097   0.111   4.033   7.570 -0.2621  0.3576  0.2951
 3212SOL    HW121098   0.088   3.995   7.486  1.6399  0.8075 -0.4340
 3212SOL    HW221099   0.205   4.016   7.569  0.0329  2.0877 -0.2904
 3213SOL     OW21100   2.909   0.373   1.902 -0.2406 -0.7878 -0.1447
 3213SOL    HW121101   2.886   0.458   1.940  0.0727 -1.6582  2.0402
 3213SOL    HW221102   2.818   0.347   1.889 -0.2538  0.0852 -1.7324
 3214SOL     OW21103   4.074   3.473   2.106 -0.5986 -0.6451 -0.0556
 3214SOL    HW121104   4.100   3.427   2.027  1.5498 -0.8128  0.7548
 3214SOL    HW221105   4.140   3.448   2.170  0.9411  1.8825 -0.6341
 3215SOL     OW21106   4.086   1.677   0.403  0.4468  0.7133  0.0662
 3215SOL    HW121107   4.130   1.701   0.321 -1.5178  0.9231 -0.9107
 3215SOL    HW221108   4.141   1.723   0.467  0.9390  0.8582 -0.4554
 3216SOL     OW21109   1.571   2.632  14.913  0.0454  0.2329 -0.5391
 3216SOL    HW121110   1.583   2.623  15.008 -0.1388  1.0950 -0.4299
 3216SOL    HW221111   1.570   2.541  14.886 -1.1852  0.2641 -0.5919
 3217SOL     OW21112   2.006   0.570   4.463 -0.1903 -0.4890  0.3745
 3217SOL    HW121113   2.064   0.592   4.537  0.0663 -1.0379  0.3347
 3217SOL    HW221114   2.013   0.645   4.404 -2.9652  1.2350  2.2408
 3218SOL     OW21115   3.288   1.119   8.157  0.3432 -0.1954  0.2929
 3218SOL    HW121116   3.270   1.120   8.063 -3.4990 -2.7158  1.0113
 3218SOL    HW221117   3.338   1.201   8.158 -2.8237  1.6918  1.9997
 3219SOL     OW21118   0.497   0.954   3.134  1.0185  0.1236 -0.4546
 3219SOL    HW121119   0.516   0.960   3.040  1.6202  2.4484 -0.2037
 3219SOL    HW221120   0.503   0.860   3.145 -1.0693 -0.2250 -2.2234
 3220SOL     OW21121   1.547   2.687   0.961  0.3129 -0.0002 -0.2707
 3220SOL    HW121122   1.477   2.687   0.896 -1.7829 -2.4094  1.9561
 3220SOL    HW221123   1.512   2.719   1.044  0.5527 -0.2021 -0.0912
 3221SOL     OW21124   1.647   1.261   5.492  0.3924  0.3018  0.4809
 3221SOL    HW121125   1.557   1.236   5.474  1.8538 -2.3217 -3.0741
 3221SOL    HW221126   1.667   1.314   5.415 -0.1184 -2.0573 -1.2443
 3222SOL     OW21127   2.105   3.277   8.744  0.3536 -0.4395  0.0654
 3222SOL    HW121128   2.131   3.225   8.820  0.4687 -2.3497 -1.2726
 3222SOL    HW221129   2.115   3.368   8.770 -0.6661 -0.1145 -0.6349
 3223SOL     OW21130   1.869   0.917   4.355  0.0466 -0.6421 -0.1270
 3223SOL    HW121131   1.821   0.973   4.294  0.2004  1.3311  1.5709
 3223SOL    HW221132   1.856   0.832   4.314 -1.3895 -1.4574  1.9924
 3224SOL     OW21133   1.651   1.042   0.329  0.5494 -0.4536 -0.0624
 3224SOL    HW121134   1.633   1.135   0.340 -1.1658 -0.8598  0.5434
 3224SOL    HW221135   1.746   1.045   0.312  0.7229  2.5690  1.5115
 3225SOL     OW21136   3.086   4.526   6.693  0.7222  0.2266  0.2244
 3225SOL    HW121137   3.031   4.469   6.639  1.1545  1.4766 -1.5275
 3225SOL    HW221138   3.033   4.526   6.773  2.5159 -0.3113  1.4044
 3226SOL     OW21139   2.178   1.518  10.099  0.1549 -0.0197  0.1962
 3226SOL    HW121140   2.184   1.496  10.192 -0.8395  1.9148  0.7159
 3226SOL    HW221141   2.155   1.433  10.063  1.0612 -0.2225  0.1067
 3227SOL     OW21142   3.814   1.000   2.675 -0.6549 -0.3632  0.0289
 3227SOL    HW121143   3.853   1.024   2.591 -2.9109 -0.0659 -0.9352
 3227SOL    HW221144   3.761   1.079   2.686  1.9165  1.2063  1.1286
 3228SOL     OW21145   3.277   3.206   5.278  0.3338 -0.4288 -0.5107
 3228SOL    HW121146   3.188   3.228   5.253  0.1826  2.1501  2.3972
 3228SOL    HW221147   3.278   3.214   5.373 -3.0656 -1.1634 -0.4451
 3229SOL     OW21148   3.759   0.851  11.417  0.5268  0.2694  0.5886
 3229SOL    HW121149   3.775   0.760  11.441 -1.5192 -0.1560  0.3537
 3229SOL    HW221150   3.851   0.870  11.401  0.6184 -0.0185  0.7779
 3230SOL     OW21151   1.396   4.053   0.248 -0.2150  0.1293  0.1658
 3230SOL    HW121152   1.324   4.114   0.264 -0.2737 -0.4192  2.0420
 3230SOL    HW221153   1.454   4.087   0.317 -1.1955  2.5137 -0.2168
 3231SOL     OW21154   0.267   0.210  17.119  0.1471  0.7881 -0.2388
 3231SOL    HW121155   0.218   0.276  17.169  1.2619  2.5596 -1.4658
 3231SOL    HW221156   0.356   0.208  17.155  0.3597 -2.7682 -0.9806
 3232SOL     OW21157   1.388   4.265  10.117 -0.7625  1.0679 -0.2587
 3232SOL    HW121158   1.421   4.305  10.197  3.2926 -0.6174 -1.0986
 3232SOL    HW221159   1.306   4.227  10.150 -0.1708 -1.3944 -1.5919
 3233SOL     OW21160   4.496   1.542   2.333 -0.5749  0.3015  0.2008
 3233SOL    HW121161   4.496   1.482   2.258 -0.9847  0.5785 -0.0271
 3233SOL    HW221162   4.575   1.594   2.318 -0.7824  0.8369  0.9813
 3234SOL     OW21163   2.616   4.486   6.027  0.2888 -0.0114 -0.4915
 3234SOL    HW121164   2.682   4.470   6.094 -0.1651 -1.4856 -0.4193
 3234SOL    HW221165   2.555   4.549   6.066 -0.0374  0.6063 -1.9742
 3235SOL     OW21166   4.245   4.106   3.986  0.2775 -0.0433 -0.4193
 3235SOL    HW121167   4.270   4.049   4.059 -1.1453 -0.0330  0.0771
 3235SOL    HW221168   4.305   4.073   3.920  0.2671 -1.4079  0.2594
 3236SOL     OW21169   1.073   2.515   1.313 -0.9859 -0.1060 -0.2871
 3236SOL    HW121170   1.015   2.541   1.385  2.0577 -0.1676  2.1588
 3236SOL    HW221171   1.113   2.450   1.371 -0.9810  1.3477  1.3438
 3237SOL     OW21172   0.240   4.352  12.021 -0.1114 -0.0215  0.1364
 3237SOL    HW121173   0.260   4.314  12.106  0.6163  0.7660  0.3141
 3237SOL    HW221174   0.314   4.410  12.001 -0.1085 -1.0844 -2.9033
 3238SOL     OW21175   4.002   4.004   8.934  0.2435 -0.3146 -0.2889
 3238SOL    HW121176   3.912   3.998   8.968  1.1171  1.3115  2.3173
 3238SOL    HW221177   4.026   4.067   9.002 -0.6059 -0.5260  0.2193
 3239SOL     OW21178   0.485   3.794   1.670 -0.2340 -0.3596  0.2347
 3239SOL    HW121179   0.416   3.773   1.608 -0.3698 -0.9517  0.5857
 3239SOL    HW221180   0.550   3.759   1.609 -0.0306  1.4563 -0.6179
 3240SOL     OW21181   0.594   1.902   4.571  0.4569 -0.0641 -0.4234
 3240SOL    HW121182   0.688   1.891   4.587  0.6986 -0.1995 -1.8936
 3240SOL    HW221183   0.562   1.887   4.660 -0.7968  2.7624 -0.4002
 3241SOL     OW21184   4.463   3.039   5.509  0.0113  0.3906 -0.1025
 3241SOL    HW121185   4.535   2.982   5.535 -0.7654 -0.2139  0.7530
 3241SOL    HW221186   4.497   3.063   5.423  0.6630 -2.9293 -0.7388
 3242SOL     OW21187   4.080   1.667   5.474 -0.8393  0.0007 -0.1367
 3242SOL    HW121188   4.060   1.582   5.513  0.2150 -0.0986  0.1645
 3242SOL    HW221189   4.102   1.712   5.556 -0.3440  2.1005 -1.4263
 3243SOL     OW21190   2.037   0.985   9.012 -0.5398 -0.3080  0.0602
 3243SOL    HW121191   2.052   0.948   8.925 -1.0445 -1.9967  0.6865
 3243SOL    HW221192   2.127   0.984   9.045 -0.9199 -0.2814  1.0916
 3244SOL     OW21193   0.677   1.477  15.266 -0.2966  0.0292 -0.1673
 3244SOL    HW121194   0.616   1.538  15.226 -0.3307  0.8719  1.1618
 3244SOL    HW221195   0.613   1.411  15.293 -0.4273 -0.2820 -1.2567
 3245SOL     OW21196   3.159   1.289  15.475  0.0775  0.7285  0.5127
 3245SOL    HW121197   3.142   1.195  15.465  0.8455  0.5249  1.0741
 3245SOL    HW221198   3.103   1.320  15.404 -0.8753 -0.6763  0.6587
 3246SOL     OW21199   4.544   3.545   2.956  0.0994 -0.1013  0.5985
 3246SOL    HW121200   4.640   3.548   2.958  0.1371 -0.7410 -0.4559
 3246SOL    HW221201   4.521   3.504   3.040  1.0479 -0.8540  0.4906
 3247SOL     OW21202   3.877   4.420   4.479 -0.0546 -0.4876 -0.3223
 3247SOL    HW121203   3.831   4.501   4.457  2.5340  0.7798 -1.0587
 3247SOL    HW221204   3.925   4.445   4.558 -0.5204 -0.4129 -0.0649
 3248SOL     OW21205   1.381   3.433  15.679  0.1011 -0.0419 -0.2391
 3248SOL    HW121206   1.352   3.456  15.590  1.4301 -1.1568 -0.9593
 3248SOL    HW221207   1.472   3.409  15.663  0.1585  0.9559 -1.4197
 3249SOL     OW21208   2.583   1.075   2.472  0.9534 -0.4125  0.6479
 3249SOL    HW121209   2.505   1.075   2.416  0.6103 -0.3900  1.1246
 3249SOL    HW221210   2.584   0.983   2.499 -1.2174 -0.3038  1.1081
 3250SOL     OW21211   2.001   2.982   4.526 -0.2792  0.0332  0.0931
 3250SOL    HW121212   1.972   3.066   4.491 -2.4179 -0.2239  1.2126
 3250SOL    HW221213   2.019   2.939   4.442  0.5889  2.9201 -1.1852
 3251SOL     OW21214   2.395   1.221   2.616  0.2732  0.5039 -0.0803
 3251SOL    HW121215   2.357   1.181   2.538  0.2652 -0.4462  0.4122
 3251SOL    HW221216   2.487   1.197   2.603  0.4193  1.2855 -0.5391
 3252SOL     OW21217   3.500   0.283   7.062 -0.3310 -0.2001 -0.0083
 3252SOL    HW121218   3.584   0.244   7.084 -1.6687 -0.8257  3.9951
 3252SOL    HW221219   3.483   0.337   7.139 -1.0973 -0.6451  0.1343
 3253SOL     OW21220   1.025   1.650   6.260 -0.5906  0.4951  0.0450
 3253SOL    HW121221   1.118   1.672   6.261 -0.3567 -0.4503 -0.8712
 3253SOL    HW221222   1.031   1.558   6.286  1.2808  0.6093  0.0208
 3254SOL     OW21223   4.444   4.030   6.176  0.2191 -0.1914 -0.2149
 3254SOL    HW121224   4.396   4.113   6.174  1.2500  0.3999 -0.3639
 3254SOL    HW221225   4.377   3.969   6.206 -1.2419  1.8518  0.6866
 3255SOL     OW21226   1.655   1.961  11.824 -0.4170 -0.2738 -0.6103
 3255SOL    HW121227   1.639   2.055  11.817 -0.0428 -0.4363 -3.7013
 3255SOL    HW221228   1.585   1.936  11.884  1.2752 -3.7922 -0.1027
 3256SOL     OW21229   1.239   1.324   4.481  0.2876 -0.6646  0.1224
 3256SOL    HW121230   1.244   1.314   4.576 -1.8792 -0.2322  0.2787
 3256SOL    HW221231   1.244   1.419   4.478  1.4539 -0.6432  2.5963
 3257SOL     OW21232   2.405   3.523   1.173 -0.2503  0.1386 -0.0304
 3257SOL    HW121233   2.496   3.546   1.193 -0.4359  0.0214  0.9044
 3257SOL    HW221234   2.388   3.441   1.219 -0.3176  0.3671  0.3482
 3258SOL     OW21235   4.298   1.289   1.263 -0.4295 -0.4859  0.4235
 3258SOL    HW121236   4.313   1.245   1.347 -3.6158 -3.5209 -0.6327
 3258SOL    HW221237   4.235   1.236   1.215  1.0121 -1.3312 -0.5046
 3259SOL     OW21238   4.507   2.789   8.566 -0.2822  0.3000  0.0327
 3259SOL    HW121239   4.505   2.885   8.574  0.6340  0.5249 -2.3496
 3259SOL    HW221240   4.500   2.780   8.661  0.4396  0.5071  0.1082
 3260SOL     OW21241   2.191   2.198   3.312 -0.4643 -0.1199 -0.0452
 3260SOL    HW121242   2.099   2.223   3.322  0.4908  2.3403  2.6559
 3260SOL    HW221243   2.191   2.120   3.368  0.1294 -0.1174 -0.0422
 3261SOL     OW21244   0.403   4.016   5.380 -0.9677 -0.1104  0.2585
 3261SOL    HW121245   0.462   3.990   5.309 -0.5987  0.3686  0.3929
 3261SOL    HW221246   0.401   3.939   5.436  2.2764 -0.7225 -0.5055
 3262SOL     OW21247   3.851   0.867   3.680  0.3433 -0.1727 -0.0414
 3262SOL    HW121248   3.825   0.946   3.633 -0.2095 -0.7276 -0.6682
 3262SOL    HW221249   3.906   0.818   3.618  0.7940  0.8255 -0.4295
 3263SOL     OW21250   1.760   0.218   9.728  0.1956 -0.1179  0.1894
 3263SOL    HW121251   1.697   0.146   9.715  0.7859 -0.9333  1.7652
 3263SOL    HW221252   1.836   0.171   9.697 -0.1861 -1.6791  1.5904
 3264SOL     OW21253   2.394   3.223   7.675  0.4678  0.1952 -0.0003
 3264SOL    HW121254   2.350   3.138   7.682  0.0352  0.3882 -0.3847
 3264SOL    HW221255   2.351   3.257   7.597 -1.8590  1.3151  1.7602
 3265SOL     OW21256   0.213   3.031  13.312  0.3718 -0.1427  1.1489
 3265SOL    HW121257   0.242   2.943  13.288  1.1186 -0.0406  1.6617
 3265SOL    HW221258   0.276   3.086  13.265 -1.2107 -1.9021 -3.0258
 3266SOL     OW21259   4.306   1.270   7.540 -0.2214 -0.4799 -0.6807
 3266SOL    HW121260   4.347   1.288   7.624 -0.4236  0.3078 -0.7556
 3266SOL    HW221261   4.328   1.179   7.518 -0.5701 -0.7849  0.2399
 3267SOL     OW21262   0.993   0.341   7.995  0.3720 -0.1574  0.0140
 3267SOL    HW121263   1.016   0.423   7.950  0.6930  1.0931  2.4654
 3267SOL    HW221264   1.017   0.276   7.929 -1.6928  0.5990 -1.4636
 3268SOL     OW21265   1.831   1.259   4.278 -0.0181 -0.6150 -0.1978
 3268SOL    HW121266   1.923   1.282   4.262 -1.4069  4.5283 -0.9890
 3268SOL    HW221267   1.834   1.246   4.373  1.1978  1.5167  0.0687
 3269SOL     OW21268   2.177   0.625   8.769 -0.2350 -0.9956  0.0073
 3269SOL    HW121269   2.210   0.547   8.724 -2.0839 -1.1565 -1.0705
 3269SOL    HW221270   2.219   0.620   8.855  0.6183  2.4834 -0.1742
 3270SOL     OW21271   2.519   3.312   6.318  0.4923  0.4216  0.6449
 3270SOL    HW121272   2.548   3.348   6.235  1.1925  0.7406  1.0277
 3270SOL    HW221273   2.444   3.369   6.339 -0.4620 -1.1001  1.3929
 3271SOL     OW21274   1.058   2.649   2.223  0.4950 -0.5223  0.2092
 3271SOL    HW121275   1.152   2.657   2.237  0.6942 -0.0132 -1.4320
 3271SOL    HW221276   1.031   2.640   2.314  0.4680  2.7181  0.5168
 3272SOL     OW21277   3.624   1.916   3.742  0.1639 -0.2011 -0.5431
 3272SOL    HW121278   3.709   1.875   3.724  0.5417  0.9637 -1.4295
 3272SOL    HW221279   3.575   1.897   3.662  2.6341 -0.5494 -1.9831
 3273SOL     OW21280   3.501   1.690  15.524  0.3531  0.5961  0.1461
 3273SOL    HW121281   3.474   1.767  15.474  0.5292  0.7207  0.2433
 3273SOL    HW221282   3.572   1.725  15.579  1.7331 -0.2183 -1.1096
 3274SOL     OW21283   1.980   3.303  15.278 -0.6168  0.1730  0.1597
 3274SOL    HW121284   2.062   3.256  15.266 -2.0992 -2.1710 -0.7350
 3274SOL    HW221285   1.999   3.393  15.251 -2.4142  0.8910  1.2937
 3275SOL     OW21286   2.106   4.009   7.793  0.7970 -0.3319  0.3663
 3275SOL    HW121287   2.170   3.938   7.803  0.3740 -0.8792 -0.7793
 3275SOL    HW221288   2.116   4.060   7.873  1.3651 -0.3398  0.3001
 3276SOL     OW21289   3.266   0.502   3.361 -1.0229 -0.4587  0.2629
 3276SOL    HW121290   3.328   0.469   3.295  0.9417  1.4225  1.1461
 3276SOL    HW221291   3.215   0.556   3.302  3.5105  1.7296 -1.6452
 3277SOL     OW21292   4.093   3.346   0.100 -0.8892 -0.3843  0.1146
 3277SOL    HW121293   4.150   3.325   0.174  1.0304  0.7448 -1.0419
 3277SOL    HW221294   4.012   3.325   0.146 -0.4405 -2.3823  0.0160
 3278SOL     OW21295   0.479   2.813   6.627  0.1358  0.1511  0.5943
 3278SOL    HW121296   0.466   2.720   6.648  1.7424  0.7822  4.3116
 3278SOL    HW221297   0.539   2.799   6.553 -0.4594 -1.0760  0.3345
 3279SOL     OW21298   0.338   0.196   7.982 -0.0052 -0.0950 -0.0451
 3279SOL    HW121299   0.359   0.103   7.992  1.4187 -0.0282 -2.5345
 3279SOL    HW221300   0.243   0.193   7.968  0.1693  1.1044 -1.5159
 3280SOL     OW21301   3.303   2.187   6.156  0.2786  0.7114 -0.5442
 3280SOL    HW121302   3.368   2.256   6.144  2.2297 -0.9755  0.0978
 3280SOL    HW221303   3.245   2.221   6.223 -0.2030 -1.0576 -0.0492
 3281SOL     OW21304   1.704   0.692   7.734 -0.3631  0.0534 -0.5728
 3281SOL    HW121305   1.636   0.708   7.800  2.2336  2.0503  1.6228
 3281SOL    HW221306   1.696   0.770   7.679  0.2028 -0.7833 -1.8329
 3282SOL     OW21307   0.280   1.785   6.226  0.2053 -0.5497  0.2628
 3282SOL    HW121308   0.341   1.750   6.291  2.3066  1.7303 -0.4920
 3282SOL    HW221309   0.199   1.788   6.277  1.8326 -0.8498  2.8927
 3283SOL     OW21310   4.304   1.870   2.275  0.3057  0.1288 -0.1830
 3283SOL    HW121311   4.218   1.866   2.234  0.0874 -1.9002  0.4841
 3283SOL    HW221312   4.364   1.843   2.205 -0.1668 -1.6799  0.1291
 3284SOL     OW21313   2.838   4.621   7.296  0.2336 -0.0750 -0.0212
 3284SOL    HW121314   2.890   4.596   7.372 -0.6200  0.9064  0.8894
 3284SOL    HW221315   2.785   4.545   7.272  0.9037 -0.5331 -0.0468
 3285SOL     OW21316   0.525   0.681   8.369 -0.4377  0.1994  0.2535
 3285SOL    HW121317   0.553   0.673   8.460  0.1386 -4.0515 -0.3013
 3285SOL    HW221318   0.435   0.657   8.393  0.0346 -1.2516  0.6143
 3286SOL     OW21319   2.919   4.078   9.195 -0.1261  0.2477 -0.2631
 3286SOL    HW121320   2.887   4.032   9.118  1.0736 -1.2318  0.1305
 3286SOL    HW221321   2.960   4.006   9.242  0.0716 -0.8211 -2.0849
 3287SOL     OW21322   1.838   2.352   6.461 -0.1703  0.2528  0.4564
 3287SOL    HW121323   1.764   2.411   6.447 -1.0856 -1.1595 -0.7332
 3287SOL    HW221324   1.879   2.336   6.375 -0.8326  1.3902 -0.0801
 3288SOL     OW21325   4.681   3.813   3.581 -0.0406 -0.1603 -0.0316
 3288SOL    HW121326   4.663   3.809   3.488  0.5193  0.1876 -0.1514
 3288SOL    HW221327   0.005   3.894   3.576  1.2527 -0.7608  2.8375
 3289SOL     OW21328   1.716   1.917   5.513  0.3546 -0.7268 -0.2482
 3289SOL    HW121329   1.673   1.833   5.497 -3.9595  1.5569 -0.6847
 3289SOL    HW221330   1.649   1.974   5.474 -0.4622 -1.3795  0.1847
 3290SOL     OW21331   0.095   3.331   0.399  0.1046 -0.0405  0.5812
 3290SOL    HW121332   0.095   3.383   0.480  1.2397 -1.1010  1.2682
 3290SOL    HW221333   0.065   3.254   0.448 -0.5550 -0.3505 -0.3297
 3291SOL     OW21334   1.723   2.289  12.958  0.0860  0.2309 -0.4985
 3291SOL    HW121335   1.633   2.264  12.979 -0.0594  0.4646 -0.8495
 3291SOL    HW221336   1.712   2.290  12.863 -2.5806 -0.5367 -0.2119
 3292SOL     OW21337   3.314   2.572   7.989 -0.5403 -0.0317 -0.2572
 3292SOL    HW121338   3.251   2.504   8.015 -0.9070  0.5964  0.4912
 3292SOL    HW221339   3.249   2.638   7.965 -1.7888 -0.1970  2.6187
 3293SOL     OW21340   0.407   4.706  15.409 -0.0584 -0.2372  0.0888
 3293SOL    HW121341   0.334   0.022  15.453 -0.6846 -0.2533 -0.9296
 3293SOL    HW221342   0.410   4.627  15.462  2.1644  0.5313  1.1042
 3294SOL     OW21343   3.744   4.315   0.805  0.3066 -0.6408  0.2637
 3294SOL    HW121344   3.740   4.404   0.841  3.0246  0.9340 -3.4418
 3294SOL    HW221345   3.817   4.277   0.853  1.6215  2.2947  0.5932
 3295SOL     OW21346   4.513   4.452   6.064  0.3907 -0.5699 -0.4995
 3295SOL    HW121347   4.560   4.476   6.144  0.1385 -1.3781 -0.1096
 3295SOL    HW221348   4.511   4.537   6.020 -1.1025  0.3143  1.2876
 3296SOL     OW21349   4.201   2.838   7.235 -0.1788  0.4625  1.1756
 3296SOL    HW121350   4.216   2.767   7.298 -0.6403 -1.3226 -0.7129
 3296SOL    HW221351   4.157   2.790   7.165 -0.0988  2.3270 -0.1358
 3297SOL     OW21352   0.724   2.676   5.621  0.0370  0.0788 -0.1086
 3297SOL    HW121353   0.741   2.638   5.707 -1.4801  0.5563  0.4155
 3297SOL    HW221354   0.746   2.767   5.640 -0.2113  0.2018 -0.3965
 3298SOL     OW21355   1.154   1.743   3.979 -0.0665 -0.1177  0.0012
 3298SOL    HW121356   1.205   1.821   4.001 -0.1274 -0.7703  2.4933
 3298SOL    HW221357   1.064   1.774   3.993  0.2824  0.2311  1.4633
 3299SOL     OW21358   3.908   3.048   5.046 -0.1038 -0.7004 -0.1003
 3299SOL    HW121359   3.871   2.998   4.973  1.5212 -1.6740 -0.2547
 3299SOL    HW221360   3.843   3.033   5.115 -0.5783 -1.0317 -0.6196
 3300SOL     OW21361   1.749   0.192   6.336 -0.0960 -0.0681 -0.6768
 3300SOL    HW121362   1.806   0.266   6.356  1.0415 -0.7474 -1.3665
 3300SOL    HW221363   1.683   0.213   6.402  0.2617 -2.3046  0.4039
 3301SOL     OW21364   2.881   4.675   4.479  0.5230  0.0857  0.5944
 3301SOL    HW121365   2.949   4.634   4.424 -0.6391  0.1277 -0.8565
 3301SOL    HW221366   2.859   0.035   4.447  0.8004  0.1307  0.5196
 3302SOL     OW21367   3.403   3.600  14.039  0.1711 -0.5622 -0.2293
 3302SOL    HW121368   3.387   3.558  13.955 -1.5048 -1.1131  0.3751
 3302SOL    HW221369   3.470   3.660  14.007 -1.4270  1.7497  0.7347
 3303SOL     OW21370   3.196   1.052   5.927  0.5937 -0.0992  0.6811
 3303SOL    HW121371   3.238   0.968   5.947  0.6950 -0.2709 -0.2416
 3303SOL    HW221372   3.250   1.118   5.970  0.8481 -0.1985  0.5127
 3304SOL     OW21373   2.270   0.198  16.579  0.2329  0.0128 -0.1843
 3304SOL    HW121374   2.327   0.136  16.624  1.5159  1.9645  0.9244
 3304SOL    HW221375   2.225   0.238  16.654  0.3965 -0.8681  0.3880
 3305SOL     OW21376   4.550   2.954   3.988 -0.7324  0.1328 -0.6684
 3305SOL    HW121377   4.488   3.015   3.947 -0.0418  0.9016 -0.5796
 3305SOL    HW221378   4.595   2.907   3.918  0.3365  1.4321 -0.8548
 3306SOL     OW21379   2.078   4.697   5.395 -0.3135 -0.3375 -0.1156
 3306SOL    HW121380   2.060   4.628   5.460  1.3688 -0.6612  0.0104
 3306SOL    HW221381   2.019   4.666   5.327 -1.5123 -1.7247  1.5461
 3307SOL     OW21382   3.942   2.066  12.775  0.1237 -1.0850 -0.5461
 3307SOL    HW121383   3.931   2.032  12.686 -1.9011 -1.0540 -0.3098
 3307SOL    HW221384   3.893   2.147  12.769 -0.9858 -1.7438 -0.3539
 3308SOL     OW21385   0.726   1.372   5.732  0.6121 -0.4221  0.5469
 3308SOL    HW121386   0.741   1.388   5.825  2.1943  3.0159 -0.2818
 3308SOL    HW221387   0.676   1.292   5.743 -2.0833  1.4360  1.7704
 3309SOL     OW21388   2.100   2.738   3.582 -0.3684  0.0365 -0.0073
 3309SOL    HW121389   2.105   2.726   3.487  1.3196 -1.8108  0.2966
 3309SOL    HW221390   2.018   2.691   3.596 -0.2597 -0.2467 -0.3173
 3310SOL     OW21391   0.681   3.018   8.481 -0.2610 -0.0882 -0.3497
 3310SOL    HW121392   0.647   3.090   8.534 -1.2229 -1.8059  1.3360
 3310SOL    HW221393   0.757   3.057   8.438  1.4194 -1.3297  1.4827
 3311SOL     OW21394   2.560   0.739  17.296 -0.1214 -0.6418  0.3390
 3311SOL    HW121395   2.518   0.679  17.357 -0.6092  0.8163  1.4241
 3311SOL    HW221396   2.648   0.749  17.331 -0.3038 -0.7031  0.8083
 3312SOL     OW21397   0.999   0.105   2.253 -0.0500 -0.2769 -0.1213
 3312SOL    HW121398   0.975   0.026   2.302 -1.7013 -0.7307 -1.6785
 3312SOL    HW221399   0.932   0.097   2.185 -0.1019 -1.0771  0.0165
 3313SOL     OW21400   1.856   1.066   6.016 -0.2812 -0.0242 -0.0544
 3313SOL    HW121401   1.854   1.011   5.937 -0.3552 -1.7011  1.1023
 3313SOL    HW221402   1.849   0.999   6.084 -0.2051  2.7919  2.7097
 3314SOL     OW21403   2.441   1.586   0.563 -0.1515 -0.1644 -0.1757
 3314SOL    HW121404   2.417   1.672   0.598 -2.8760 -1.5911  1.4593
 3314SOL    HW221405   2.504   1.608   0.495  0.4131  1.9538  1.0394
 3315SOL     OW21406   0.126   1.503   0.662 -0.4921  0.2235  0.1023
 3315SOL    HW121407   0.136   1.453   0.744 -1.1137  0.0750  0.0890
 3315SOL    HW221408   0.046   1.553   0.679 -0.5284  0.5702 -1.1170
 3316SOL     OW21409   2.982   2.774   6.908  0.1756  0.2678  0.1619
 3316SOL    HW121410   3.002   2.682   6.925  0.0050  0.0285 -0.9435
 3316SOL    HW221411   3.056   2.815   6.952  0.9193  0.5292 -1.3594
 3317SOL     OW21412   2.056   2.535   3.134  0.0317 -0.0668  0.1339
 3317SOL    HW121413   2.035   2.529   3.041 -0.4864 -0.3318  0.2673
 3317SOL    HW221414   2.129   2.475   3.146 -0.1573 -0.3622 -0.1932
 3318SOL     OW21415   3.351   2.326   4.740 -0.5268  0.1724 -0.2532
 3318SOL    HW121416   3.412   2.341   4.812 -0.2379  0.4742 -0.5597
 3318SOL    HW221417   3.411   2.300   4.671 -2.6791  0.0876 -2.1053
 3319SOL     OW21418   3.235   2.628   4.719 -0.3885  0.5724 -0.0221
 3319SOL    HW121419   3.248   2.541   4.757  1.0594  0.1044 -1.5975
 3319SOL    HW221420   3.243   2.609   4.626 -1.0024 -3.4801  0.7426
 3320SOL     OW21421   1.440   0.094   5.284  0.2327  1.1041  0.1158
 3320SOL    HW121422   1.494   0.016   5.280  1.8533  2.1925  0.7862
 3320SOL    HW221423   1.476   0.128   5.366  2.4672 -0.2317 -0.3243
 3321SOL     OW21424   1.160   0.960   6.437  0.2201 -0.5919  0.8094
 3321SOL    HW121425   1.213   0.881   6.447 -1.0117 -1.4384  0.7090
 3321SOL    HW221426   1.183   0.995   6.351  1.5294 -0.0657  1.3724
 3322SOL     OW21427   2.293   4.725   5.938  1.4469 -0.2199  0.3125
 3322SOL    HW121428   2.293   4.719   5.842 -0.1575 -0.7470  0.3473
 3322SOL    HW221429   2.293   0.094   5.936 -2.1009 -0.2156  0.8399
 3323SOL     OW21430   2.259   0.665   7.835 -0.6204  0.0776 -0.0478
 3323SOL    HW121431   2.267   0.736   7.772 -0.4749  0.9022  0.9030
 3323SOL    HW221432   2.271   0.712   7.917 -0.3431 -0.3911  0.1772
 3324SOL     OW21433   1.317   1.227   1.973  0.2751  0.0181 -0.6623
 3324SOL    HW121434   1.273   1.158   2.023  0.0236 -0.7479 -1.9485
 3324SOL    HW221435   1.403   1.186   1.967  0.1174 -0.5772  1.0825
 3325SOL     OW21436   3.000   4.348   9.278  0.0995 -0.6356 -0.8644
 3325SOL    HW121437   3.093   4.353   9.255  1.0247  2.0872  3.5786
 3325SOL    HW221438   2.984   4.254   9.279 -0.3800 -0.5491 -0.2342
 3326SOL     OW21439   4.244   1.232   3.072  0.1857 -0.9047  0.3091
 3326SOL    HW121440   4.259   1.210   3.164  1.1838  0.7582  0.5472
 3326SOL    HW221441   4.262   1.326   3.074  1.2530 -1.2062  4.5362
 3327SOL     OW21442   3.183   1.952  15.961  0.0227  0.6745 -0.3031
 3327SOL    HW121443   3.242   2.021  15.992  1.6058 -0.1525 -1.4981
 3327SOL    HW221444   3.237   1.873  15.965  1.6819  1.8197  0.0691
 3328SOL     OW21445   3.292   3.685   6.324 -0.0690 -0.3320 -0.5296
 3328SOL    HW121446   3.295   3.724   6.236  1.8145 -0.1681 -0.3938
 3328SOL    HW221447   3.223   3.626   6.293 -1.9577  1.9984 -0.7936
 3329SOL     OW21448   0.685   2.396   7.727 -0.5484  0.2820 -0.9774
 3329SOL    HW121449   0.767   2.400   7.777 -0.3009  3.3496 -1.5800
 3329SOL    HW221450   0.685   2.468   7.663 -0.7566 -0.0182 -1.3169
 3330SOL     OW21451   4.391   0.874   1.851 -0.0384  0.0293 -0.3844
 3330SOL    HW121452   4.423   0.786   1.871 -0.8561 -0.3070 -0.5437
 3330SOL    HW221453   4.303   0.868   1.888  0.1682 -0.4397  0.0363
 3331SOL     OW21454   1.205   1.430   3.243  0.0589  0.4527  0.4347
 3331SOL    HW121455   1.169   1.482   3.315 -0.2579 -0.1554  0.7184
 3331SOL    HW221456   1.295   1.424   3.275 -0.1601  0.4979  1.0630
 3332SOL     OW21457   1.009   2.067   5.237  0.2469  0.0065 -0.4280
 3332SOL    HW121458   0.980   2.158   5.238 -0.1684 -0.1507  1.2655
 3332SOL    HW221459   1.082   2.075   5.175  0.3869 -0.6852 -0.3546
 3333SOL     OW21460   1.552   4.031   2.764  0.1112 -0.0344  0.7044
 3333SOL    HW121461   1.479   3.969   2.773  0.9619 -1.1326  0.0997
 3333SOL    HW221462   1.557   4.078   2.847  0.2154  1.0903  0.0562
 3334SOL     OW21463   1.255   4.708   0.758 -0.1712  0.2316 -0.6051
 3334SOL    HW121464   1.334   4.690   0.707  0.1332  1.3933 -0.5586
 3334SOL    HW221465   1.225   4.620   0.780  0.8717  0.1997  0.7183
 3335SOL     OW21466   4.290   0.758   7.438 -0.0660  0.2784 -0.2615
 3335SOL    HW121467   4.285   0.844   7.396  0.5967  1.0287  1.2044
 3335SOL    HW221468   4.384   0.742   7.436 -0.4343 -2.1494  2.1355
 3336SOL     OW21469   3.670   3.472   8.681 -0.2618  0.1685  0.7254
 3336SOL    HW121470   3.747   3.429   8.718  1.0487  1.8053 -0.1113
 3336SOL    HW221471   3.681   3.566   8.699  2.0497 -0.1652  1.1021
 3337SOL     OW21472   2.264   3.271   5.378  0.0366 -0.1356  0.1745
 3337SOL    HW121473   2.220   3.345   5.419  1.0902  2.0671 -2.6742
 3337SOL    HW221474   2.229   3.270   5.289  0.3805 -0.3668  0.0392
 3338SOL     OW21475   0.426   2.558  10.001 -0.2249  0.4466 -0.2082
 3338SOL    HW121476   0.483   2.570   9.925  0.6124 -0.1700  0.3270
 3338SOL    HW221477   0.437   2.463   9.995  0.3966  0.4100  1.5914
 3339SOL     OW21478   2.868   3.320  14.235 -0.3704  0.6958 -0.2328
 3339SOL    HW121479   2.794   3.283  14.283  0.6188  0.2910  0.9549
 3339SOL    HW221480   2.887   3.398  14.287  1.3920 -1.1104  1.8483
 3340SOL     OW21481   0.136   1.408   0.917 -0.0229  0.1199  0.8319
 3340SOL    HW121482   0.132   1.434   1.009 -0.2089  0.7282  0.6516
 3340SOL    HW221483   0.100   1.320   0.930 -1.1013  0.5915  1.0273
 3341SOL     OW21484   1.180   2.684   5.565  0.1321 -0.2009  0.1924
 3341SOL    HW121485   1.235   2.624   5.516 -0.2397  0.7794 -1.4374
 3341SOL    HW221486   1.097   2.655   5.527  0.7532 -2.2071  0.3744
 3342SOL     OW21487   2.053   4.579  11.228 -0.1549 -0.4955 -0.0437
 3342SOL    HW121488   1.985   4.605  11.291  0.0798 -0.8402  0.3571
 3342SOL    HW221489   1.999   4.539  11.160  0.2062 -0.4285 -0.3659
 3343SOL     OW21490   4.006   1.176   9.306 -0.3868 -0.2341  0.3220
 3343SOL    HW121491   3.999   1.237   9.379 -2.2420  0.1111 -0.1436
 3343SOL    HW221492   3.930   1.123   9.330  1.6235 -2.2079  2.2149
 3344SOL     OW21493   4.050   0.854   4.469 -0.1284 -0.1880  0.4779
 3344SOL    HW121494   4.081   0.779   4.418 -0.1478  0.2702 -0.1999
 3344SOL    HW221495   4.042   0.923   4.403 -0.1434 -0.7148 -0.0650
 3345SOL     OW21496   4.312   0.035   9.515  0.7670 -0.3211  0.4779
 3345SOL    HW121497   4.373   0.001   9.450  1.0290  1.3003 -0.1317
 3345SOL    HW221498   4.340   0.126   9.530 -0.6516  0.3524 -1.0385
 3346SOL     OW21499   1.074   4.415   3.409  0.1220 -0.1808  0.1948
 3346SOL    HW121500   1.026   4.373   3.337  0.0806  0.5470 -0.2051
 3346SOL    HW221501   1.126   4.343   3.445 -0.4377 -0.7722 -0.1779
 3347SOL     OW21502   2.354   3.020  14.086 -0.1521 -0.1339 -0.0751
 3347SOL    HW121503   2.420   3.010  14.155  0.1877  2.5367 -0.0027
 3347SOL    HW221504   2.404   3.017  14.004  0.8890  2.2072  0.4672
 3348SOL     OW21505   3.803   1.301   8.280 -0.4941 -0.1622 -0.2695
 3348SOL    HW121506   3.873   1.237   8.273  0.8965  0.8925  4.3269
 3348SOL    HW221507   3.727   1.243   8.280  0.0188 -0.8120 -1.8945
 3349SOL     OW21508   1.280   3.485   1.827  0.1817 -0.2412  0.4805
 3349SOL    HW121509   1.341   3.416   1.852  0.1152  0.1477  1.7235
 3349SOL    HW221510   1.207   3.470   1.888  1.5044  0.9394  2.3341
 3350SOL     OW21511   0.799   2.341   3.822  0.0371  0.7272 -0.3435
 3350SOL    HW121512   0.864   2.289   3.871  1.6969  3.0115 -0.1063
 3350SOL    HW221513   0.723   2.337   3.880 -0.2837 -1.9214 -0.9656
 3351SOL     OW21514   3.909   2.294  13.003  0.0965 -0.2774 -0.3336
 3351SOL    HW121515   3.903   2.381  12.965 -2.5602  0.6044  2.0991
 3351SOL    HW221516   3.828   2.287  13.054  0.3605 -1.5934 -0.0799
 3352SOL     OW21517   1.963   4.400   2.362  0.0277  0.9381 -0.3098
 3352SOL    HW121518   1.879   4.438   2.336 -1.5596 -0.5911  2.5623
 3352SOL    HW221519   1.975   4.339   2.289  1.6922  1.1096 -0.1584
 3353SOL     OW21520   3.737   0.063   5.979 -0.0467 -0.0375  0.0445
 3353SOL    HW121521   3.652   0.053   6.021 -0.1441 -0.7386 -0.3189
 3353SOL    HW221522   3.748   0.158   5.976  1.5876 -0.3171 -3.0550
 3354SOL     OW21523   4.061   2.885   9.162  0.1998  0.6787  0.0890
 3354SOL    HW121524   4.068   2.792   9.186 -0.5976  0.2425 -1.3834
 3354SOL    HW221525   4.021   2.910   9.244  0.0190  1.5810 -0.2805
 3355SOL     OW21526   0.332   0.613   2.456  0.3546  0.0360 -0.4711
 3355SOL    HW121527   0.256   0.643   2.406 -2.3517 -2.3902  2.1954
 3355SOL    HW221528   0.320   0.667   2.534  0.0861  0.6910 -0.9688
 3356SOL     OW21529   2.995   1.530   7.520  0.4226 -0.1476  0.1631
 3356SOL    HW121530   2.932   1.528   7.448  0.3937 -2.3006  0.2368
 3356SOL    HW221531   3.071   1.480   7.488  0.2861 -1.0405  1.2281
 3357SOL     OW21532   0.184   2.443   4.060 -0.5254  0.4747 -0.5776
 3357SOL    HW121533   0.167   2.431   4.154 -1.2447  0.2283 -0.7399
 3357SOL    HW221534   0.246   2.516   4.062  2.1179 -1.7366 -1.6861
 3358SOL     OW21535   1.393   3.388   2.182 -0.8183  0.6543  0.0711
 3358SOL    HW121536   1.403   3.343   2.098 -0.4854 -0.7497  0.8625
 3358SOL    HW221537   1.362   3.318   2.240 -1.5068  0.8770 -0.0213
 3359SOL     OW21538   1.391   2.138   5.818  0.2134 -0.1325  0.3709
 3359SOL    HW121539   1.306   2.164   5.852  0.1881 -1.5738  1.4123
 3359SOL    HW221540   1.397   2.193   5.740  1.9845  0.4529  0.9055
 3360SOL     OW21541   0.560   2.702  11.372 -0.1001 -0.2554  0.6290
 3360SOL    HW121542   0.594   2.773  11.318  1.5639 -4.0507 -3.3278
 3360SOL    HW221543   0.636   2.657  11.407  0.6253  0.5140  0.0456
 3361SOL     OW21544   3.335   2.805   0.699 -0.0489  0.2126  0.0057
 3361SOL    HW121545   3.357   2.895   0.723  0.3247  0.3762 -0.9638
 3361SOL    HW221546   3.418   2.760   0.712  1.5253  3.7224  1.9391
 3362SOL     OW21547   2.916   1.065   8.365  0.8181  0.7638  0.0307
 3362SOL    HW121548   2.967   1.105   8.295  2.2400  0.1771  0.7393
 3362SOL    HW221549   2.830   1.103   8.344  1.6388  1.4479 -2.0152
 3363SOL     OW21550   1.638   2.214   0.534  0.2905  0.3199 -0.1815
 3363SOL    HW121551   1.659   2.123   0.511  1.3521 -0.1507  2.6984
 3363SOL    HW221552   1.725   2.253   0.521 -0.0879  0.8575 -1.1033
 3364SOL     OW21553   0.963   0.973  14.924  0.4801  0.0865  0.0386
 3364SOL    HW121554   0.880   1.011  14.955  0.9230 -1.1070  2.7355
 3364SOL    HW221555   0.968   0.897  14.983 -1.9890 -1.0629 -1.2467
 3365SOL     OW21556   0.096   1.965   1.515  1.1262 -0.3881 -0.1941
 3365SOL    HW121557   0.109   1.870   1.512 -1.8535 -0.7648 -0.3832
 3365SOL    HW221558   0.010   1.981   1.554  0.0360 -1.8248 -2.0082
 3366SOL     OW21559   3.175   2.322   7.995  0.0438 -0.2484  0.2015
 3366SOL    HW121560   3.149   2.234   8.022 -0.0473 -0.4346 -0.5037
 3366SOL    HW221561   3.114   2.347   7.926  0.1276  0.8052  0.5175
 3367SOL     OW21562   1.096   3.610   0.470  0.1393 -0.8641  0.3181
 3367SOL    HW121563   1.010   3.650   0.463  1.0284  1.2260  1.5972
 3367SOL    HW221564   1.072   3.520   0.494 -2.3769 -0.0703  0.7296
 3368SOL     OW21565   3.115   3.813   7.538  0.3682  0.0963  0.1138
 3368SOL    HW121566   3.095   3.847   7.625 -1.3303 -0.4587 -0.0612
 3368SOL    HW221567   3.115   3.894   7.486 -0.7226  1.0525  1.6131
 3369SOL     OW21568   1.840   4.375   9.266 -0.5297  0.3379  0.0963
 3369SOL    HW121569   1.802   4.374   9.179  1.6260  1.4311 -0.8639
 3369SOL    HW221570   1.933   4.365   9.246 -0.7370  0.0950 -0.7106
 3370SOL     OW21571   2.725   3.665  13.045 -0.6296 -0.4073  0.4350
 3370SOL    HW121572   2.640   3.693  13.079  0.0978  1.6753  0.5549
 3370SOL    HW221573   2.699   3.612  12.970  1.6613  0.1797 -0.7715
 3371SOL     OW21574   2.206   0.133   3.945 -0.0491  0.1957 -0.1141
 3371SOL    HW121575   2.230   0.042   3.961 -2.8025 -0.3527  1.0008
 3371SOL    HW221576   2.265   0.159   3.875 -0.5810  0.9213 -0.3011
 3372SOL     OW21577   0.689   1.450  13.912 -0.8255  0.1286 -0.0468
 3372SOL    HW121578   0.744   1.502  13.971 -2.0016  1.0795  0.1964
 3372SOL    HW221579   0.618   1.420  13.969  1.7989 -0.7160  2.8032
 3373SOL     OW21580   3.769   0.553   1.876  0.3891  0.2573 -0.8411
 3373SOL    HW121581   3.854   0.510   1.885  0.9442  1.5328 -0.0675
 3373SOL    HW221582   3.725   0.548   1.961 -1.3809  0.6398 -1.7188
 3374SOL     OW21583   3.355   4.587  17.461  0.4895  0.3379 -0.3831
 3374SOL    HW121584   3.262   4.567  17.450  0.8724 -0.5682 -1.9249
 3374SOL    HW221585   3.367   4.641  17.383  1.3887 -0.9249 -1.1020
 3375SOL     OW21586   0.403   2.301   5.725  0.1657  0.1274 -0.2641
 3375SOL    HW121587   0.403   2.233   5.794 -1.2194 -0.1975 -0.5721
 3375SOL    HW221588   0.497   2.308   5.711  0.1803  1.9979  0.7579
 3376SOL     OW21589   0.835   1.261   7.863 -0.0180  0.0591 -1.0085
 3376SOL    HW121590   0.904   1.302   7.812  0.1326 -1.5666 -2.1075
 3376SOL    HW221591   0.832   1.174   7.825 -2.3252 -0.3569  0.1263
 3377SOL     OW21592   1.342   2.972   3.612  0.2302  0.2060  0.0086
 3377SOL    HW121593   1.293   2.893   3.636  0.1314  0.3096  0.1503
 3377SOL    HW221594   1.291   3.013   3.542 -1.1469  0.6095  1.2367
 3378SOL     OW21595   2.770   4.497  15.516  0.5406  0.3761  0.1470
 3378SOL    HW121596   2.763   4.553  15.594 -1.1422 -0.0202  0.2891
 3378SOL    HW221597   2.678   4.469  15.513  0.4145  0.8974 -0.9230
 3379SOL     OW21598   4.083   0.213   7.686 -0.2747 -0.2355 -0.4795
 3379SOL    HW121599   4.174   0.234   7.665 -0.9765  0.6317 -2.7094
 3379SOL    HW221600   4.039   0.251   7.610  1.0194 -1.7164 -1.9867
 3380SOL     OW21601   3.747   2.629   7.676 -0.3911 -0.0497 -0.0724
 3380SOL    HW121602   3.753   2.714   7.720  1.7523  1.0914 -2.5605
 3380SOL    HW221603   3.682   2.586   7.731 -1.2745  2.1675  0.6075
 3381SOL     OW21604   3.558   2.197   2.832  0.0123  0.4090  0.2883
 3381SOL    HW121605   3.482   2.200   2.890 -0.7003  3.9734 -0.8323
 3381SOL    HW221606   3.544   2.273   2.775 -2.3324 -0.2647 -0.0527
 3382SOL     OW21607   1.135   1.391  10.432  0.3610 -0.5709 -0.0579
 3382SOL    HW121608   1.081   1.400  10.511  0.8006  0.2186  0.1548
 3382SOL    HW221609   1.138   1.484  10.407  0.8545 -0.4362  0.4933
 3383SOL     OW21610   0.943   1.747  15.252  0.4265 -0.6235 -0.5277
 3383SOL    HW121611   1.019   1.787  15.210  0.9214 -0.5618  0.4164
 3383SOL    HW221612   0.895   1.829  15.259 -0.4246 -1.1140 -0.5941
 3384SOL     OW21613   2.282   1.195   8.720 -0.1871  0.4141 -0.2596
 3384SOL    HW121614   2.208   1.147   8.682  0.1759 -0.9509  0.7520
 3384SOL    HW221615   2.250   1.285   8.717  3.9056  1.8487 -0.9487
 3385SOL     OW21616   1.462   0.572  12.046  0.1095 -0.3240  0.1081
 3385SOL    HW121617   1.371   0.601  12.036 -0.4900 -2.0171  0.5907
 3385SOL    HW221618   1.479   0.617  12.129  0.6711  1.7773 -1.1674
 3386SOL     OW21619   0.456   1.542   7.108 -0.3307  0.0592 -0.7485
 3386SOL    HW121620   0.450   1.626   7.153  1.4104  0.0971 -0.6060
 3386SOL    HW221621   0.537   1.558   7.060 -0.2298  0.3025 -0.4954
 3387SOL     OW21622   3.299   4.117   0.976  0.0491 -0.2744 -0.1681
 3387SOL    HW121623   3.226   4.063   1.007  0.8192 -1.1317  0.1448
 3387SOL    HW221624   3.333   4.074   0.897 -0.1572 -1.1808  0.2267
 3388SOL     OW21625   1.636   0.409   4.028 -0.0671 -0.2559  0.0356
 3388SOL    HW121626   1.667   0.412   4.119 -0.4859 -0.3200  0.1821
 3388SOL    HW221627   1.701   0.459   3.979 -0.8374 -0.0798 -0.8099
 3389SOL     OW21628   0.643   4.178  15.699  0.1731  0.1462 -0.4163
 3389SOL    HW121629   0.688   4.106  15.655  0.3199  0.6123 -1.0277
 3389SOL    HW221630   0.695   4.239  15.647 -0.6001  0.4937 -0.7828
 3390SOL     OW21631   3.195   2.505   6.297  0.4588  0.2548  0.2544
 3390SOL    HW121632   3.125   2.439   6.290 -0.1943  0.9398  0.3217
 3390SOL    HW221633   3.253   2.443   6.341 -0.5819 -0.4402  0.6654
 3391SOL     OW21634   1.156   0.293   5.478  0.0835 -0.4976  0.1945
 3391SOL    HW121635   1.149   0.219   5.417  2.5181  0.2362 -0.9788
 3391SOL    HW221636   1.097   0.357   5.437  1.1498  0.0104 -0.5788
 3392SOL     OW21637   0.018   2.210   8.147 -0.2234  0.0570 -0.3785
 3392SOL    HW121638   0.088   2.228   8.210  0.4796 -1.3387 -0.7625
 3392SOL    HW221639   0.042   2.276   8.082 -0.6229 -0.6524 -1.2445
 3393SOL     OW21640   2.618   3.168   3.186 -0.6300 -0.1728 -0.5721
 3393SOL    HW121641   2.549   3.230   3.209  1.6872  1.8791  0.8726
 3393SOL    HW221642   2.693   3.172   3.245 -0.6681  1.6802 -0.6593
 3394SOL     OW21643   1.019   0.698  15.127  0.4734 -0.6081  0.4118
 3394SOL    HW121644   1.044   0.620  15.177 -4.1077 -1.6280  1.1396
 3394SOL    HW221645   1.055   0.686  15.039 -2.4280 -2.0751 -0.5863
 3395SOL     OW21646   3.998   2.618   4.562  0.3434 -0.7832 -0.2824
 3395SOL    HW121647   4.076   2.597   4.614  0.1382  2.6805  1.4371
 3395SOL    HW221648   4.037   2.618   4.474  0.9472  2.2944 -0.0305
 3396SOL     OW21649   0.111   0.153  10.623  0.1265 -0.5121  0.6721
 3396SOL    HW121650   0.035   0.124  10.573 -0.5083  0.5454  1.0216
 3396SOL    HW221651   0.117   0.090  10.694  1.9823 -0.6230  0.4136
 3397SOL     OW21652   2.759   2.159  10.611  0.0450 -0.9165  0.1073
 3397SOL    HW121653   2.682   2.119  10.570  0.7245 -0.1888 -1.8648
 3397SOL    HW221654   2.809   2.079  10.626  0.1074 -1.1218 -1.1674
 3398SOL     OW21655   1.187   2.992  11.831  0.3828 -0.2275  0.6755
 3398SOL    HW121656   1.210   2.921  11.771  1.4412  0.5148  0.2158
 3398SOL    HW221657   1.199   2.947  11.915  1.2514 -0.1145  0.6096
 3399SOL     OW21658   3.843   2.845  13.807 -0.3033  0.7316 -0.6219
 3399SOL    HW121659   3.854   2.849  13.902 -1.5482 -1.7634 -0.3861
 3399SOL    HW221660   3.750   2.868  13.800 -0.5439  0.4278  1.6234
 3400SOL     OW21661   3.151   3.445  14.993  0.3998 -0.1816  0.4148
 3400SOL    HW121662   3.142   3.418  14.901 -1.1476 -1.3401  0.9136
 3400SOL    HW221663   3.125   3.536  14.980  0.2790 -0.0667  1.5130
 3401SOL     OW21664   1.102   2.245   0.724  0.2411 -0.4775 -0.5322
 3401SOL    HW121665   1.103   2.339   0.707  2.8005 -0.5283 -0.6771
 3401SOL    HW221666   1.124   2.248   0.818 -4.2945  0.2698  0.5004
 3402SOL     OW21667   0.799   1.351  16.359 -0.1546  0.4499 -0.0710
 3402SOL    HW121668   0.762   1.346  16.270 -1.0786 -1.6918  0.4378
 3402SOL    HW221669   0.857   1.275  16.350 -0.1243  0.3976  0.5539
 3403SOL     OW21670   4.227   2.647   6.155 -0.1384 -0.8028 -0.4128
 3403SOL    HW121671   4.152   2.595   6.185  0.2398 -1.8386 -1.2680
 3403SOL    HW221672   4.218   2.721   6.215 -0.2040 -0.1477 -1.2263
 3404SOL     OW21673   0.896   2.624   8.310  0.0431  0.1809 -0.4695
 3404SOL    HW121674   0.843   2.685   8.362  1.9442 -0.0091  1.7025
 3404SOL    HW221675   0.957   2.602   8.381 -0.4974  0.2704  0.0290
 3405SOL     OW21676   0.909   1.727  15.514 -0.0170 -0.3703  0.3605
 3405SOL    HW121677   0.982   1.691  15.565  0.6413  0.3129 -0.0931
 3405SOL    HW221678   0.952   1.746  15.430  0.7349  2.9896  1.5133
 3406SOL     OW21679   4.543   0.141   9.166 -0.4078  0.7531  0.0413
 3406SOL    HW121680   4.627   0.184   9.183 -0.5167  0.6040  0.9322
 3406SOL    HW221681   4.533   0.070   9.230 -1.0459  0.4381 -0.4101
 3407SOL     OW21682   0.161   1.166   5.757 -0.8041 -0.3106 -0.1988
 3407SOL    HW121683   0.144   1.221   5.833 -2.3752 -1.7727  0.5029
 3407SOL    HW221684   0.184   1.086   5.804  1.1313 -1.0039 -2.2972
 3408SOL     OW21685   4.339   3.793   6.875  0.3617 -0.2777 -0.0810
 3408SOL    HW121686   4.412   3.851   6.851  0.7703 -1.0119 -0.6194
 3408SOL    HW221687   4.326   3.738   6.798 -0.5077 -0.7877  0.4243
 3409SOL     OW21688   1.905   2.066   3.533 -0.0453 -0.1579 -0.2101
 3409SOL    HW121689   1.881   2.070   3.440  0.7164  2.2625 -0.3136
 3409SOL    HW221690   1.992   2.028   3.533 -0.7922 -1.8364 -1.6659
 3410SOL     OW21691   3.725   3.150   7.529 -0.4113 -0.0101  0.2642
 3410SOL    HW121692   3.747   3.166   7.437 -0.9549  0.6263  0.2475
 3410SOL    HW221693   3.651   3.089   7.528 -0.1627 -0.2711 -2.1523
 3411SOL     OW21694   2.934   3.924  13.676  0.8796 -0.2304 -1.2592
 3411SOL    HW121695   2.911   3.908  13.768  1.5742 -0.2980 -1.0997
 3411SOL    HW221696   2.849   3.963  13.652  0.4918 -0.0607  0.3665
 3412SOL     OW21697   4.002   0.036  11.808 -0.2723 -0.7633 -0.1148
 3412SOL    HW121698   4.062   4.717  11.868 -1.4411  1.0614  2.4414
 3412SOL    HW221699   3.973   4.690  11.753  1.7743 -1.4909 -0.2229
 3413SOL     OW21700   0.312   2.727   9.781 -0.4329 -0.1359  0.3697
 3413SOL    HW121701   0.302   2.640   9.742  1.1770  0.2881 -0.9812
 3413SOL    HW221702   0.361   2.716   9.862 -0.3361 -0.4861  0.2632
 3414SOL     OW21703   3.359   1.576   4.363  0.0617  0.5056  0.6501
 3414SOL    HW121704   3.450   1.602   4.349  0.0926 -0.0694 -0.1876
 3414SOL    HW221705   3.373   1.483   4.345 -3.1398  0.1105  0.2201
 3415SOL     OW21706   2.320   2.733  11.640 -0.1734 -0.1849  0.3250
 3415SOL    HW121707   2.306   2.785  11.719  0.9903  0.1364  0.3313
 3415SOL    HW221708   2.238   2.751  11.593 -1.0096 -1.1316  1.4544
 3416SOL     OW21709   3.305   3.525  17.509 -0.0836 -0.4662  0.7696
 3416SOL    HW121710   3.306   3.620  17.499 -1.3333 -0.3454  1.7619
 3416SOL    HW221711   3.297   3.512  17.604  1.2434  1.9131  1.2097
 3417SOL     OW21712   4.715   3.991  11.143 -0.2833 -0.3220  0.3314
 3417SOL    HW121713   0.004   4.069  11.196 -1.2386  0.8692 -1.1417
 3417SOL    HW221714   4.644   4.012  11.082 -1.2883 -0.6970  1.3818
 3418SOL     OW21715   1.777   3.883   2.166  0.2828 -0.2578  0.3939
 3418SOL    HW121716   1.750   3.974   2.157  0.7822 -0.4379 -2.7647
 3418SOL    HW221717   1.709   3.876   2.232 -0.7095  0.3894 -0.5698
 3419SOL     OW21718   0.027   2.998   6.076 -0.0571  0.2587  0.0110
 3419SOL    HW121719   0.098   3.042   6.123 -1.8409  1.8100  1.2986
 3419SOL    HW221720   0.073   2.981   5.994  1.0337 -0.3210  0.7547
 3420SOL     OW21721   4.536   1.327   0.692  0.6946  0.3739  0.0312
 3420SOL    HW121722   4.457   1.355   0.738 -0.4935 -0.9053 -1.2166
 3420SOL    HW221723   4.502   1.254   0.641 -0.9660 -0.1657  1.9192
 3421SOL     OW21724   2.812   2.247   8.695 -0.2178  0.5250  0.6756
 3421SOL    HW121725   2.780   2.212   8.778  0.2772  0.3729  0.8004
 3421SOL    HW221726   2.865   2.174   8.664 -1.4119  0.3735 -1.0143
 3422SOL     OW21727   2.522   0.829   2.191 -0.2800  0.0140 -0.3269
 3422SOL    HW121728   2.439   0.800   2.228  0.8367 -2.1069  0.5382
 3422SOL    HW221729   2.544   0.745   2.152  2.2242  0.5081  0.0112
 3423SOL     OW21730   2.573   3.249  10.065 -0.0232  0.1303 -0.5494
 3423SOL    HW121731   2.626   3.310  10.013  1.1784 -1.5669 -1.3245
 3423SOL    HW221732   2.523   3.319  10.107 -0.2865  0.2068 -0.9883
 3424SOL     OW21733   0.018   2.804   9.405 -0.3360 -0.1900  0.3768
 3424SOL    HW121734   4.717   2.851   9.326 -0.7746 -1.2853 -0.1299
 3424SOL    HW221735   4.664   2.789   9.454  0.1879 -0.4177  1.1717
 3425SOL     OW21736   0.476   3.206   5.250 -0.2660  0.1482 -0.4706
 3425SOL    HW121737   0.457   3.268   5.180 -0.6146  2.2811  1.4810
 3425SOL    HW221738   0.449   3.128   5.203 -0.4891 -0.3731  0.5068
 3426SOL     OW21739   1.398   4.692   4.379  0.2259 -0.0736 -0.0774
 3426SOL    HW121740   1.319   4.666   4.425 -0.8170  1.5318 -0.9639
 3426SOL    HW221741   1.463   4.643   4.429  0.8780 -0.4919 -1.3147
 3427SOL     OW21742   3.823   2.353   5.344 -0.2615  0.4961  0.1481
 3427SOL    HW121743   3.745   2.299   5.354  0.5535 -0.6524  0.2345
 3427SOL    HW221744   3.834   2.347   5.249  1.0046  1.1006  0.2464
 3428SOL     OW21745   3.614   1.582   8.492 -0.0758 -0.2278 -0.0262
 3428SOL    HW121746   3.671   1.508   8.474  0.3935  0.3276 -0.8715
 3428SOL    HW221747   3.681   1.650   8.483  0.0216 -0.4558 -1.0063
 3429SOL     OW21748   3.324   0.985   4.315 -0.0318  0.5050  0.1045
 3429SOL    HW121749   3.401   1.040   4.302 -0.3208  0.9625  0.3178
 3429SOL    HW221750   3.300   0.969   4.224  1.4476  0.1996 -0.2236
 3430SOL     OW21751   2.562   3.519   9.134  0.0134  0.4006  0.3681
 3430SOL    HW121752   2.535   3.552   9.048 -3.2342 -0.9945  0.8715
 3430SOL    HW221753   2.638   3.577   9.148  0.9406 -0.7317  0.0270
 3431SOL     OW21754   0.697   3.976  15.546 -0.6120  0.3507  0.1464
 3431SOL    HW121755   0.674   3.990  15.454 -0.0265 -2.3711 -0.3990
 3431SOL    HW221756   0.781   3.938  15.523 -0.2062  0.7172  1.0237
 3432SOL     OW21757   1.608   1.960   9.160 -0.2881 -0.8904  0.2844
 3432SOL    HW121758   1.545   2.031   9.149 -1.5041 -2.1726 -1.1572
 3432SOL    HW221759   1.685   2.010   9.184 -1.0610  1.4536 -2.1581
 3433SOL     OW21760   2.070   2.934  15.441  0.0613 -0.0293 -0.1545
 3433SOL    HW121761   2.001   2.872  15.465  1.0221 -0.4016  1.6105
 3433SOL    HW221762   2.024   2.998  15.386  2.2835  0.6762 -1.1911
 3434SOL     OW21763   3.514   1.225   8.877  0.6975 -0.6078 -0.0906
 3434SOL    HW121764   3.447   1.181   8.929  0.4485 -1.1834 -0.9115
 3434SOL    HW221765   3.459   1.297   8.845 -0.4886 -1.0404  0.9964
 3435SOL     OW21766   0.321   4.569   4.028 -0.0551  0.0795  0.0539
 3435SOL    HW121767   0.358   4.579   4.115  1.3880  0.9243 -0.6414
 3435SOL    HW221768   0.276   4.654   4.026 -0.2569 -0.0215  0.5470
 3436SOL     OW21769   0.363   1.091  11.663 -0.1297 -0.3075  0.3580
 3436SOL    HW121770   0.308   1.039  11.722 -1.5650  2.0127  1.0537
 3436SOL    HW221771   0.310   1.170  11.651  0.3063 -0.3889 -2.0636
 3437SOL     OW21772   3.145   1.205   3.566 -0.3606 -0.1865 -0.1613
 3437SOL    HW121773   3.083   1.278   3.552  1.6577  1.3424 -1.0542
 3437SOL    HW221774   3.219   1.254   3.602  0.4895 -2.9091  1.7777
 3438SOL     OW21775   4.576   0.543   5.985 -0.0006 -0.3527  0.0304
 3438SOL    HW121776   4.496   0.523   6.034 -0.7269  0.5377 -0.8128
 3438SOL    HW221777   4.630   0.476   6.028  0.4774  0.1970  0.2955
 3439SOL     OW21778   4.581   3.544   6.664 -0.2023 -0.2089  0.3737
 3439SOL    HW121779   4.655   3.584   6.711 -0.1311  2.3872 -1.9686
 3439SOL    HW221780   4.618   3.460   6.639  0.5955  0.8074 -1.7987
 3440SOL     OW21781   2.438   1.027   9.394 -0.0107 -0.4501  0.1819
 3440SOL    HW121782   2.495   0.951   9.393  2.5226  1.3926  3.7814
 3440SOL    HW221783   2.469   1.078   9.468  1.7049  0.2844 -1.0417
 3441SOL     OW21784   1.353   0.558   7.169  0.2164 -0.4966  0.4709
 3441SOL    HW121785   1.436   0.533   7.209  0.4847  1.2149  1.0145
 3441SOL    HW221786   1.301   0.537   7.247  0.5050 -0.0320  0.7874
 3442SOL     OW21787   4.585   3.255   4.985  0.9152 -0.0443  0.0320
 3442SOL    HW121788   4.561   3.295   4.901 -0.0799  1.1360  0.8718
 3442SOL    HW221789   4.545   3.169   4.972 -0.1519  0.2258  1.5030
 3443SOL     OW21790   2.221   4.280  12.636  0.0989  0.0955 -0.2761
 3443SOL    HW121791   2.242   4.187  12.637 -1.4055 -0.3216 -4.4373
 3443SOL    HW221792   2.303   4.323  12.658 -1.0008  2.2271 -0.2240
 3444SOL     OW21793   3.506   0.585   2.759  0.0979  0.0489 -0.5222
 3444SOL    HW121794   3.454   0.575   2.679 -1.3390  0.7057  0.3156
 3444SOL    HW221795   3.493   0.674   2.792 -0.9651  0.1399 -1.1709
 3445SOL     OW21796   4.456   1.224   7.119 -0.0815  0.3314 -0.1344
 3445SOL    HW121797   4.454   1.266   7.205 -0.3599 -0.3174  0.1754
 3445SOL    HW221798   4.450   1.131   7.139 -0.7589  0.1062 -1.3399
 3446SOL     OW21799   3.533   4.672   9.636  0.5278  0.4486  0.3031
 3446SOL    HW121800   3.464   4.629   9.686  0.1261  0.8521  0.1052
 3446SOL    HW221801   3.596   4.692   9.705  0.2517  2.4707 -0.0269
 3447SOL     OW21802   0.375   1.780   1.763  0.0056  0.2587  0.4557
 3447SOL    HW121803   0.303   1.817   1.815  0.8235 -0.8612  2.3746
 3447SOL    HW221804   0.334   1.775   1.676  1.1574 -1.2154  0.0003
 3448SOL     OW21805   1.653   0.190   2.578  0.0341  0.1630  0.0020
 3448SOL    HW121806   1.600   0.224   2.505 -0.4157 -0.0714  0.2171
 3448SOL    HW221807   1.717   0.259   2.597  1.4789 -1.2660  0.2991
 3449SOL     OW21808   2.004   4.285   7.300  0.2310  0.4026  1.2119
 3449SOL    HW121809   2.080   4.334   7.267 -0.7223  0.2907 -1.0995
 3449SOL    HW221810   2.033   4.274   7.391  0.6043 -1.5551  0.8696
 3450SOL     OW21811   3.764   2.554   9.863 -0.8809 -0.7578  0.0771
 3450SOL    HW121812   3.830   2.496   9.902  0.5889 -0.0205 -1.3143
 3450SOL    HW221813   3.680   2.536   9.905 -1.6714 -0.1832 -1.2536
 3451SOL     OW21814   2.712   3.958   6.733 -0.3755 -0.1104  0.3271
 3451SOL    HW121815   2.786   3.899   6.716  1.4422  2.2108  0.2739
 3451SOL    HW221816   2.754   4.040   6.757 -1.3481 -0.1083  2.0074
 3452SOL     OW21817   1.216   2.908  16.274  0.1601  0.1564  0.1323
 3452SOL    HW121818   1.283   2.845  16.302  0.7132  1.0493  0.8014
 3452SOL    HW221819   1.195   2.938  16.362  1.2261 -0.8324  0.7231
 3453SOL     OW21820   0.957   1.134  16.309  0.1752  0.1752 -0.2745
 3453SOL    HW121821   0.937   1.088  16.228  0.2706  2.3969 -1.5626
 3453SOL    HW221822   0.944   1.056  16.363  0.3835  0.5089  0.2592
 3454SOL     OW21823   4.673   0.131   5.873  0.4436 -0.1728  0.7226
 3454SOL    HW121824   4.591   0.082   5.883  0.4997 -0.3914  0.1351
 3454SOL    HW221825   4.709   0.109   5.958  4.5989 -1.3421 -1.3430
 3455SOL     OW21826   2.936   2.876  16.264 -0.3129 -0.2043  0.4026
 3455SOL    HW121827   2.900   2.828  16.338 -0.5236 -2.2182 -1.0074
 3455SOL    HW221828   2.858   2.921  16.230 -0.0619  0.3435  0.5476
 3456SOL     OW21829   1.747   1.428   2.894 -0.2807  0.2184 -0.2577
 3456SOL    HW121830   1.722   1.344   2.857 -0.9563 -0.6301  2.1072
 3456SOL    HW221831   1.668   1.477   2.869 -0.7360 -0.2911  0.1822
 3457SOL     OW21832   1.298   3.115   7.537 -0.4980  0.0846  0.1125
 3457SOL    HW121833   1.379   3.109   7.486 -0.7595 -2.3741 -0.0151
 3457SOL    HW221834   1.236   3.055   7.495  0.5065 -1.2822  0.5893
 3458SOL     OW21835   2.770   0.102   3.203  0.4681 -0.1524 -0.2065
 3458SOL    HW121836   2.799   0.106   3.112  1.8291 -0.0863  0.2248
 3458SOL    HW221837   2.705   0.171   3.214  1.1005  0.7411 -2.0914
 3459SOL     OW21838   1.562   0.273   9.313 -0.6168 -0.1774  0.0310
 3459SOL    HW121839   1.628   0.341   9.328 -1.7184  1.0140 -0.4737
 3459SOL    HW221840   1.486   0.308   9.362 -1.2158 -0.0164 -1.0137
 3460SOL     OW21841   3.931   2.070   2.711 -0.4872 -0.3534 -0.4478
 3460SOL    HW121842   3.979   1.996   2.674  0.7265  0.0132  0.3902
 3460SOL    HW221843   3.868   2.023   2.764 -0.5918  1.7890  1.3360
 3461SOL     OW21844   4.405   4.113   8.244  0.4722 -0.2048 -0.7274
 3461SOL    HW121845   4.342   4.050   8.280 -0.1125  0.3573 -0.7593
 3461SOL    HW221846   4.470   4.060   8.198  1.2051  0.0643  0.0058
 3462SOL     OW21847   3.867   0.510   6.687  0.3819 -0.1110  0.2867
 3462SOL    HW121848   3.937   0.445   6.690 -0.1575 -0.7492 -0.8572
 3462SOL    HW221849   3.875   0.532   6.594 -2.2442 -0.5062 -0.0500
 3463SOL     OW21850   3.755   0.282   1.387  0.0884  0.2190  0.1664
 3463SOL    HW121851   3.840   0.238   1.392  0.6844  1.3467 -0.1935
 3463SOL    HW221852   3.777   0.360   1.439  2.1541 -0.0868 -0.2552
 3464SOL     OW21853   3.497   1.522   4.792  0.1739  0.9763  0.1278
 3464SOL    HW121854   3.504   1.427   4.801 -1.0108  0.6876 -1.9399
 3464SOL    HW221855   3.526   1.546   4.880  2.2355  2.3978 -0.9471
 3465SOL     OW21856   0.378   2.543  13.729 -0.3518 -0.3390  0.3406
 3465SOL    HW121857   0.374   2.602  13.804  0.8078  2.5206 -1.8373
 3465SOL    HW221858   0.353   2.460  13.769 -2.2843 -0.0264 -0.2042
 3466SOL     OW21859   4.306   0.503   9.197 -0.0084  0.1781 -0.5052
 3466SOL    HW121860   4.379   0.530   9.141  1.5971 -1.4775  0.7975
 3466SOL    HW221861   4.237   0.552   9.152  0.1761 -0.3009 -1.3262
 3467SOL     OW21862   1.566   3.987   4.434  0.5176  0.3990  0.2344
 3467SOL    HW121863   1.520   4.028   4.360  0.9443  0.8913  0.2443
 3467SOL    HW221864   1.626   3.931   4.385  1.5495  1.2432  0.5182
 3468SOL     OW21865   4.643   3.545   2.591  0.1173 -0.1791 -0.2790
 3468SOL    HW121866   4.675   3.462   2.625  1.8120  1.2470  1.5957
 3468SOL    HW221867   4.677   3.591   2.668 -0.3191  2.1897 -1.4920
 3469SOL     OW21868   3.788   0.303   3.313  0.3973  0.0055 -0.4469
 3469SOL    HW121869   3.783   0.310   3.408 -1.4580  2.8321 -0.7732
 3469SOL    HW221870   3.723   0.368   3.288  0.0064  0.6448  2.2446
 3470SOL     OW21871   1.405   4.214  14.624  0.2172  0.2913 -0.2493
 3470SOL    HW121872   1.324   4.220  14.574 -0.0936 -0.7413  0.1399
 3470SOL    HW221873   1.441   4.301  14.642  0.6281  0.2185 -0.6902
 3471SOL     OW21874   2.390   2.762   8.817  0.4896 -0.4975 -0.5089
 3471SOL    HW121875   2.484   2.764   8.797  0.3588  1.0893 -0.9314
 3471SOL    HW221876   2.369   2.850   8.787  0.2654 -0.8562 -1.3900
 3472SOL     OW21877   3.179   2.501  14.007 -0.8080  0.5264 -0.1806
 3472SOL    HW121878   3.258   2.553  14.021  1.6250 -2.7149 -1.9173
 3472SOL    HW221879   3.202   2.480  13.916 -3.2410  1.3240 -0.9662
 3473SOL     OW21880   1.501   4.203  13.037 -0.5423 -0.4595  0.4633
 3473SOL    HW121881   1.459   4.219  13.121 -0.6188  2.1117 -0.0567
 3473SOL    HW221882   1.427   4.152  13.003  0.0674 -1.2574  0.3384
 3474SOL     OW21883   0.053   4.156   2.926  0.3856  0.5510 -0.0402
 3474SOL    HW121884   0.062   4.204   2.843  2.0159  0.4601  0.0878
 3474SOL    HW221885   0.116   4.211   2.973  0.5197  1.2003 -0.9637
 3475SOL     OW21886   2.817   3.866   5.891  0.0312 -0.1727  0.1614
 3475SOL    HW121887   2.814   3.896   5.800  1.4925  2.3110  0.9320
 3475SOL    HW221888   2.734   3.818   5.897 -1.9489  3.2631  0.4811
 3476SOL     OW21889   0.047   0.807   5.677 -0.0529 -0.5268 -0.0716
 3476SOL    HW121890   0.037   0.712   5.664 -0.3824 -0.3255 -1.2501
 3476SOL    HW221891   4.695   0.831   5.725 -0.1253  1.2669 -1.1076
 3477SOL     OW21892   0.140   2.787   6.960 -0.3495 -0.1201 -0.5181
 3477SOL    HW121893   0.225   2.770   7.001 -0.7118  0.0155  0.2778
 3477SOL    HW221894   0.159   2.760   6.870 -0.9454 -0.6779 -0.4825
 3478SOL     OW21895   1.375   1.774  12.819  0.4354 -0.0482  0.4817
 3478SOL    HW121896   1.389   1.683  12.791  2.3392  0.7210 -1.0430
 3478SOL    HW221897   1.373   1.813  12.732  2.0138 -0.3007  0.3305
 3479SOL     OW21898   1.507   2.107   1.292  0.2539  0.6431  0.3910
 3479SOL    HW121899   1.548   2.101   1.206 -2.9290 -0.9417 -1.0006
 3479SOL    HW221900   1.431   2.049   1.293  1.3459 -0.8301 -1.6104
 3480SOL     OW21901   2.650   2.385  10.734  0.0897 -0.2054  0.1935
 3480SOL    HW121902   2.697   2.318  10.684 -0.7413 -1.9206  1.7169
 3480SOL    HW221903   2.711   2.457  10.715 -0.9055  0.4191 -0.6350
 3481SOL     OW21904   1.515   1.636   2.866 -0.2042  0.0062 -0.2104
 3481SOL    HW121905   1.420   1.620   2.869 -0.8346  4.0888  1.6850
 3481SOL    HW221906   1.522   1.600   2.778  0.6496  0.6719 -0.4127
 3482SOL     OW21907   1.289   1.941   7.287 -0.0533  0.1347  0.2163
 3482SOL    HW121908   1.294   1.877   7.358  0.5040  1.2002  1.1185
 3482SOL    HW221909   1.380   1.962   7.269  0.0216 -0.0881  0.3322
 3483SOL     OW21910   3.055   3.963  13.338  0.0107  0.2171  0.0524
 3483SOL    HW121911   3.086   4.038  13.288  1.4268 -1.1058 -1.0446
 3483SOL    HW221912   2.980   3.938  13.285 -0.1607  0.6833  0.0754
 3484SOL     OW21913   4.603   3.989   8.089  0.2818  0.4613 -0.2489
 3484SOL    HW121914   4.543   4.001   8.015 -2.7892 -2.1351  1.8217
 3484SOL    HW221915   4.682   3.983   8.034  0.2732 -1.0298 -0.1139
 3485SOL     OW21916   1.559   3.593   2.085 -0.2186 -0.4261  0.2117
 3485SOL    HW121917   1.624   3.622   2.022  0.9653  0.6764  1.9658
 3485SOL    HW221918   1.550   3.500   2.063  0.0481 -0.6500  1.0454
 3486SOL     OW21919   1.582   2.371   4.053  0.1665 -0.2142 -0.1275
 3486SOL    HW121920   1.497   2.328   4.059 -0.3423  0.5193 -1.9890
 3486SOL    HW221921   1.629   2.318   4.117 -3.2564 -2.0011  0.8918
 3487SOL     OW21922   3.561   2.517   2.945  0.1772  0.2191 -0.3932
 3487SOL    HW121923   3.510   2.460   3.002 -1.2839 -0.0998 -2.0330
 3487SOL    HW221924   3.627   2.452   2.921 -1.9662 -1.7139 -1.0279
 3488SOL     OW21925   2.620   1.276   5.250 -0.5316  0.3130  0.0267
 3488SOL    HW121926   2.578   1.223   5.182  1.3271  0.3342 -1.1493
 3488SOL    HW221927   2.702   1.228   5.262 -0.5613 -0.1434 -1.5189
 3489SOL     OW21928   2.983   1.691   4.845 -0.3082  0.6482 -0.0167
 3489SOL    HW121929   2.900   1.695   4.796 -0.0322 -3.0551 -0.7880
 3489SOL    HW221930   3.047   1.710   4.776  0.0789  1.5306  0.5856
 3490SOL     OW21931   3.068   0.119  13.233 -0.0964  0.3653 -0.4677
 3490SOL    HW121932   3.159   0.089  13.245  0.2099  1.6369  0.3848
 3490SOL    HW221933   3.078   0.213  13.247  1.3998 -0.4253  3.8780
 3491SOL     OW21934   1.688   2.757  16.261 -0.1233 -0.0701  0.3231
 3491SOL    HW121935   1.762   2.731  16.206  0.9244  0.1384  1.6517
 3491SOL    HW221936   1.620   2.695  16.231  1.0546 -1.2280  0.0542
 3492SOL     OW21937   1.763   0.608   3.895 -0.0395 -0.0100 -0.7017
 3492SOL    HW121938   1.843   0.661   3.893 -1.1698  1.6951 -0.9912
 3492SOL    HW221939   1.783   0.551   3.821 -2.8965 -1.0603 -0.6394
 3493SOL     OW21940   2.007   4.366   6.826  0.1272 -0.0230  0.3198
 3493SOL    HW121941   2.081   4.358   6.766 -0.0700 -0.6385  0.1594
 3493SOL    HW221942   1.949   4.296   6.795 -0.2252 -0.0510  1.0529
 3494SOL     OW21943   1.423   4.232   9.793  0.5950  0.3777  0.0149
 3494SOL    HW121944   1.500   4.175   9.788  1.8380  1.9587  1.1606
 3494SOL    HW221945   1.354   4.167   9.804 -0.0196  0.7878 -1.4406
 3495SOL     OW21946   3.721   2.251   3.603 -0.1474  0.0368  0.2720
 3495SOL    HW121947   3.663   2.225   3.674 -2.4103  2.2694 -0.7467
 3495SOL    HW221948   3.673   2.252   3.520  1.3044  0.0009 -0.5734
 3496SOL     OW21949   3.924   1.636   6.900 -0.0436 -0.0547  0.1072
 3496SOL    HW121950   3.898   1.606   6.813 -0.5384 -0.1046  0.2689
 3496SOL    HW221951   4.004   1.589   6.922  0.4746  0.9493  0.3496
 3497SOL     OW21952   3.998   0.310   8.457 -0.8507 -0.1557 -0.6298
 3497SOL    HW121953   3.992   0.242   8.524 -0.6643 -3.0865 -3.6221
 3497SOL    HW221954   4.037   0.276   8.377  1.6492 -1.2440  1.0349
 3498SOL     OW21955   1.315   1.938   4.967  0.0125 -0.0787  0.0625
 3498SOL    HW121956   1.276   2.025   4.964  1.1964  0.4565 -0.0345
 3498SOL    HW221957   1.395   1.958   4.918 -2.6689  1.5867 -3.5097
 3499SOL     OW21958   2.464   2.524   7.643  0.1520 -0.0617 -0.1691
 3499SOL    HW121959   2.524   2.585   7.684  0.7388 -0.0144 -1.1080
 3499SOL    HW221960   2.423   2.582   7.579 -1.3942 -1.2386 -0.2592
 3500SOL     OW21961   1.512   3.997   8.679 -0.3193  0.8393 -0.2032
 3500SOL    HW121962   1.487   3.910   8.649  0.0154  0.3800  0.8265
 3500SOL    HW221963   1.474   4.051   8.610 -0.5037  0.0670 -0.6930
 3501SOL     OW21964   2.209   2.730   2.342 -0.1642  0.5059  0.7803
 3501SOL    HW121965   2.245   2.662   2.399 -0.9327  0.1756  0.8732
 3501SOL    HW221966   2.286   2.764   2.298 -0.4206  0.6255  0.4198
 3502SOL     OW21967   1.230   4.704   4.719  0.5122 -0.2706  0.3433
 3502SOL    HW121968   1.285   4.639   4.763 -2.0565 -3.3737 -1.0167
 3502SOL    HW221969   1.225   4.666   4.631 -1.0227 -1.0218  0.7590
 3503SOL     OW21970   1.246   4.016   7.942  0.3411  0.1416 -0.2013
 3503SOL    HW121971   1.193   4.090   7.971  1.2300  0.4124  0.7348
 3503SOL    HW221972   1.253   3.964   8.022 -3.6156  2.0303  1.3558
 3504SOL     OW21973   4.474   3.270   4.090  0.4558 -0.4884 -0.1451
 3504SOL    HW121974   4.509   3.238   4.007 -0.3959 -0.1410 -0.6434
 3504SOL    HW221975   4.553   3.308   4.129 -0.1460 -0.2372  0.8182
 3505SOL     OW21976   3.014   3.299  16.941 -0.1423  0.0544  0.1172
 3505SOL    HW121977   3.073   3.287  16.866 -1.4147 -1.6813 -0.6245
 3505SOL    HW221978   3.001   3.216  16.987  1.4220 -0.0025  0.4473
 3506SOL     OW21979   3.944   1.318   6.298  0.7511  0.2904 -0.5053
 3506SOL    HW121980   3.922   1.329   6.206  0.1190 -1.3519 -0.5440
 3506SOL    HW221981   4.019   1.377   6.307  0.0144  1.3689 -1.4815
 3507SOL     OW21982   1.148   2.308  15.653  0.2829  0.2727  0.1947
 3507SOL    HW121983   1.126   2.398  15.630 -0.0234  0.0811 -0.2589
 3507SOL    HW221984   1.092   2.253  15.599  1.5125  0.2272 -1.0516
 3508SOL     OW21985   1.564   1.217   4.254 -0.0833  0.2129  0.1297
 3508SOL    HW121986   1.573   1.240   4.161  2.6583  1.0341  0.5900
 3508SOL    HW221987   1.650   1.240   4.290  0.2509 -1.5611  0.4782
 3509SOL     OW21988   3.743   4.127   2.944 -0.1287 -0.0274  0.5824
 3509SOL    HW121989   3.675   4.124   2.876 -1.2280 -1.5323  1.7549
 3509SOL    HW221990   3.776   4.215   2.928  1.1789 -0.1386  2.6761
 3510SOL     OW21991   4.219   1.016  15.537  0.6309 -0.4022  0.8382
 3510SOL    HW121992   4.291   1.001  15.475 -0.1794 -1.2837  0.1237
 3510SOL    HW221993   4.199   0.927  15.566  1.9661 -0.4761  1.5457
 3511SOL     OW21994   1.367   0.522   2.799  0.1355  0.4033 -0.0075
 3511SOL    HW121995   1.382   0.437   2.841  0.5957  1.3438  1.7382
 3511SOL    HW221996   1.313   0.505   2.722 -1.7075  2.1764  0.8966
 3512SOL     OW21997   1.428   2.073  16.777  0.1650 -0.3531 -0.0798
 3512SOL    HW121998   1.448   2.053  16.869 -0.7632  1.2983  0.4784
 3512SOL    HW221999   1.504   2.040  16.729  0.2343  0.6597 -0.6497
 3513SOL     OW22000   1.835   3.382  11.882  0.1248  0.1308  0.0263
 3513SOL    HW122001   1.791   3.454  11.835 -0.9972 -1.0038 -0.6618
 3513SOL    HW222002   1.807   3.381  11.973 -2.3963  1.5065 -0.7459
 3514SOL     OW22003   3.166   1.510   4.941 -0.1181 -0.2349  0.0010
 3514SOL    HW122004   3.090   1.543   4.894  0.2273  1.1730  0.4332
 3514SOL    HW222005   3.227   1.578   4.916 -0.6699  0.7182  1.2317
 3515SOL     OW22006   3.248   1.593   0.216 -0.3407  0.1369  0.8314
 3515SOL    HW122007   3.325   1.647   0.196  0.1935  0.1535  2.9671
 3515SOL    HW222008   3.286   1.544   0.289 -1.3722 -1.0659  0.5520
 3516SOL     OW22009   0.765   0.492   7.652  0.7711 -0.2967  0.0659
 3516SOL    HW122010   0.710   0.461   7.723 -1.8581  3.0735 -0.5332
 3516SOL    HW222011   0.719   0.451   7.579  1.5849 -0.2247 -0.4938
 3517SOL     OW22012   2.293   4.581   5.188  0.0754 -0.1851 -0.5461
 3517SOL    HW122013   2.380   4.583   5.228 -0.0009 -1.1447 -0.3366
 3517SOL    HW222014   2.252   4.508   5.234  0.4868 -0.8698 -1.2693
 3518SOL     OW22015   0.733   0.305   7.441  0.0537 -0.6483  0.4942
 3518SOL    HW122016   0.767   0.217   7.460 -0.5549 -0.7960  0.8744
 3518SOL    HW222017   0.639   0.287   7.445 -0.0650  0.2166  1.2909
 3519SOL     OW22018   4.526   1.104   1.839  0.2431  0.2465 -0.4310
 3519SOL    HW122019   4.441   1.148   1.843 -0.2365 -0.7190 -0.0322
 3519SOL    HW222020   4.488   1.019   1.813 -3.0737  1.3446  0.7704
 3520SOL     OW22021   1.492   1.447   7.780  0.5881 -0.1155 -0.2461
 3520SOL    HW122022   1.435   1.468   7.706 -0.5397 -0.3695  0.5489
 3520SOL    HW222023   1.553   1.380   7.748  0.6529 -0.2728  0.2099
 3521SOL     OW22024   2.878   3.496   2.789 -0.0863 -0.1308 -0.6972
 3521SOL    HW122025   2.923   3.487   2.706  1.0064 -2.5815  0.1648
 3521SOL    HW222026   2.797   3.446   2.773 -0.8497  0.4503  1.2294
 3522SOL     OW22027   3.865   3.743   1.469 -0.6686  0.0025 -0.4682
 3522SOL    HW122028   3.835   3.653   1.457  3.0575 -1.2666 -0.3708
 3522SOL    HW222029   3.959   3.737   1.484 -0.6979  0.3015 -0.1510
 3523SOL     OW22030   0.135   3.050   3.775  0.0892 -0.1030 -0.2189
 3523SOL    HW122031   0.087   3.132   3.787 -3.6758 -2.1152 -1.5811
 3523SOL    HW222032   0.073   2.977   3.769  1.4552 -1.4122  1.6006
 3524SOL     OW22033   2.902   2.601  13.257 -0.5957 -0.0984  0.6789
 3524SOL    HW122034   2.902   2.669  13.325  2.8568  1.6182 -0.9789
 3524SOL    HW222035   2.958   2.535  13.297  2.9329  0.8375 -2.6258
 3525SOL     OW22036   2.683   4.080  15.011 -0.3960 -0.6661  0.1587
 3525SOL    HW122037   2.754   4.021  14.985  0.5645  0.1593  0.9000
 3525SOL    HW222038   2.655   4.116  14.927 -1.1897  1.4743  1.3637
 3526SOL     OW22039   1.563   0.373   8.017 -0.3957 -0.2560 -0.4691
 3526SOL    HW122040   1.541   0.303   8.079  0.7432 -0.1860  0.0241
 3526SOL    HW222041   1.596   0.443   8.074  0.6362 -0.1582 -1.1756
 3527SOL     OW22042   4.704   4.317   6.483  0.6107 -0.0287 -0.4330
 3527SOL    HW122043   4.702   4.259   6.407 -0.7859 -2.2810  1.3364
 3527SOL    HW222044   4.614   4.349   6.480  0.7330  0.5345  2.2909
 3528SOL     OW22045   3.714   3.682   5.481  0.3280 -0.7378 -0.2502
 3528SOL    HW122046   3.810   3.686   5.477  0.4574 -1.5816  1.8794
 3528SOL    HW222047   3.680   3.717   5.399 -0.3198 -0.8314 -0.0166
 3529SOL     OW22048   3.717   4.356   1.928 -0.6557 -0.0326  0.1269
 3529SOL    HW122049   3.704   4.385   1.837 -0.6393 -2.8508 -0.7704
 3529SOL    HW222050   3.722   4.440   1.973  0.8732  1.8713 -3.6299
 3530SOL     OW22051   3.743   3.590  11.982 -0.2977  0.0262 -0.6260
 3530SOL    HW122052   3.782   3.517  12.031  0.9126 -0.3981 -2.2320
 3530SOL    HW222053   3.803   3.598  11.908  0.5634  0.6751  0.1340
 3531SOL     OW22054   1.351   2.467   5.802  0.5581 -0.4175  0.4034
 3531SOL    HW122055   1.400   2.529   5.856 -0.5167 -0.8147  1.8395
 3531SOL    HW222056   1.404   2.471   5.722  1.3776 -0.2828  0.9542
 3532SOL     OW22057   1.645   1.649  16.669 -1.0464 -0.5839  0.2768
 3532SOL    HW122058   1.732   1.661  16.707 -0.4859  1.2969 -1.5712
 3532SOL    HW222059   1.582   1.675  16.736 -0.0990  1.4126  0.4046
 3533SOL     OW22060   3.609   3.135   2.843 -0.5026 -0.5211  0.1815
 3533SOL    HW122061   3.607   3.111   2.751  1.9782 -1.8359  0.4783
 3533SOL    HW222062   3.528   3.185   2.852 -0.3495 -0.1062 -0.8047
 3534SOL     OW22063   2.797   3.580   9.727  0.1125  0.2626  0.3559
 3534SOL    HW122064   2.747   3.541   9.799  0.6123  2.4942  1.9442
 3534SOL    HW222065   2.884   3.573   9.766  0.3230  0.4752 -0.0724
 3535SOL     OW22066   3.097   0.728   6.899  0.0369  0.8396  0.2731
 3535SOL    HW122067   3.185   0.756   6.925  0.7434 -0.0291 -1.1812
 3535SOL    HW222068   3.114   0.694   6.811 -2.7036  1.0226 -0.3237
 3536SOL     OW22069   0.931   3.505  17.232  0.2287 -0.1462  0.0924
 3536SOL    HW122070   1.018   3.533  17.259  0.5523 -0.0860 -0.9793
 3536SOL    HW222071   0.921   3.551  17.148 -1.2900  2.0419  1.4687
 3537SOL     OW22072   2.970   1.752   8.231  0.4718  0.0003 -0.5830
 3537SOL    HW122073   2.978   1.699   8.153 -0.7873  0.5016 -1.0526
 3537SOL    HW222074   2.923   1.823   8.189  1.7109  2.6151  2.3766
 3538SOL     OW22075   0.304   3.308   8.083  0.3510  0.1861 -0.0969
 3538SOL    HW122076   0.372   3.315   8.150  1.9501 -1.2804 -1.5719
 3538SOL    HW222077   0.234   3.371   8.101 -0.7313 -0.5660 -1.6197
 3539SOL     OW22078   2.725   3.650   3.338  0.1359 -0.2915  0.4741
 3539SOL    HW122079   2.704   3.722   3.278  0.6591 -0.7511 -0.2501
 3539SOL    HW222080   2.758   3.580   3.282 -0.1656  1.0195 -1.3468
 3540SOL     OW22081   1.133   1.186   2.806  0.1873  0.3697  0.0145
 3540SOL    HW122082   1.091   1.129   2.870  0.9727  0.1144  0.3007
 3540SOL    HW222083   1.082   1.267   2.807 -2.1897 -1.1490  2.4594
 3541SOL     OW22084   3.723   0.692   5.221  0.3882 -0.0007  0.3225
 3541SOL    HW122085   3.654   0.665   5.281 -0.5271 -0.9707 -1.1939
 3541SOL    HW222086   3.769   0.608   5.225 -0.1737 -0.2661  1.3105
 3542SOL     OW22087   3.221   0.672  16.538 -0.6028  0.6465  0.7348
 3542SOL    HW122088   3.140   0.697  16.582 -1.2434  1.2672 -0.7799
 3542SOL    HW222089   3.256   0.755  16.506  0.8872 -0.0748  0.5033
 3543SOL     OW22090   2.004   1.834  17.658 -0.3553 -0.0390  0.1755
 3543SOL    HW122091   2.015   1.924  17.688 -0.4355 -0.5752  1.8295
 3543SOL    HW222092   2.096   1.811  17.653 -0.1753  1.0526 -1.5398
 3544SOL     OW22093   4.015   4.223   4.062  0.0894  0.3044  0.4687
 3544SOL    HW122094   4.096   4.172   4.058  0.7807  1.3649  0.9982
 3544SOL    HW222095   3.972   4.197   4.143 -0.7895 -1.0695 -0.4371
 3545SOL     OW22096   2.457   2.066   7.463  0.4960  0.1273 -0.2743
 3545SOL    HW122097   2.433   2.158   7.467 -2.9969 -0.7610 -0.8571
 3545SOL    HW222098   2.507   2.061   7.544 -0.1386 -2.6438 -0.0443
 3546SOL     OW22099   0.647   4.565   8.897 -0.4143  0.4204 -0.3642
 3546SOL    HW122100   0.721   4.521   8.856 -1.3155 -1.6974  0.3066
 3546SOL    HW222101   0.689   4.607   8.972  0.3267 -2.6590  0.9488
 3547SOL     OW22102   3.759   1.687   8.896  0.1676 -0.3948  0.0474
 3547SOL    HW122103   3.758   1.593   8.881 -0.0974 -0.5016  0.7007
 3547SOL    HW222104   3.743   1.696   8.990  1.7141  1.0927  0.1679
 3548SOL     OW22105   3.358   3.091   0.762 -0.1105  0.0138  0.2813
 3548SOL    HW122106   3.264   3.097   0.745 -0.1351 -0.0033  0.4041
 3548SOL    HW222107   3.393   3.129   0.682 -0.6163 -0.7837 -0.3238
 3549SOL     OW22108   3.147   1.211  15.741  0.2761  0.1859 -0.0584
 3549SOL    HW122109   3.057   1.215  15.711  0.6433  0.3705 -1.1452
 3549SOL    HW222110   3.187   1.266  15.673 -0.0140 -0.6390 -0.8903
 3550SOL     OW22111   1.925   0.588   8.584 -0.5473  0.7399  0.0212
 3550SOL    HW122112   2.008   0.614   8.624 -0.4153  0.8961 -0.3587
 3550SOL    HW222113   1.949   0.573   8.493  0.0396  1.4732  0.0592
 3551SOL     OW22114   0.390   1.288  16.484  0.3475  0.0522  0.1352
 3551SOL    HW122115   0.391   1.234  16.405  1.5106 -2.8626  2.1083
 3551SOL    HW222116   0.335   1.355  16.445  0.1197 -0.7270 -0.8714
 3552SOL     OW22117   1.632   1.838   0.335  0.0346  0.1435  0.5406
 3552SOL    HW122118   1.641   1.864   0.244  0.5299 -0.6488  0.3650
 3552SOL    HW222119   1.677   1.907   0.383  0.6065  0.9186 -1.1157
 3553SOL     OW22120   0.440   1.897   3.162 -0.1101 -0.1179  0.6332
 3553SOL    HW122121   0.458   1.928   3.073  1.1043  0.8607  1.2083
 3553SOL    HW222122   0.469   1.971   3.216  1.2667 -0.6705  0.6595
 3554SOL     OW22123   4.029   3.038   8.784  0.0122  0.2436  0.6065
 3554SOL    HW122124   4.011   3.038   8.689  0.5863  2.1023  0.4934
 3554SOL    HW222125   4.012   2.944   8.788 -1.5842  0.4676 -0.8278
 3555SOL     OW22126   0.586   0.360   7.829  0.2891 -0.2736  0.0285
 3555SOL    HW122127   0.631   0.291   7.877 -0.2190 -2.0509 -2.0276
 3555SOL    HW222128   0.551   0.406   7.905 -0.9249 -0.0012 -0.6907
 3556SOL     OW22129   0.321   2.702   7.752 -0.4962  0.2313 -0.0593
 3556SOL    HW122130   0.396   2.726   7.807  0.6123  0.2082 -1.5796
 3556SOL    HW222131   0.310   2.611   7.781 -1.4894  0.6874  0.9927
 3557SOL     OW22132   2.049   4.614   7.404  0.6206  0.6597 -0.1730
 3557SOL    HW122133   2.140   4.614   7.434  1.1074 -0.3669 -1.7022
 3557SOL    HW222134   2.005   4.666   7.472  1.1448  0.8660  0.0054
 3558SOL     OW22135   1.728   1.445   5.270 -0.0262  0.1354 -0.7434
 3558SOL    HW122136   1.815   1.419   5.240  0.4589 -1.3491  1.9577
 3558SOL    HW222137   1.666   1.437   5.197 -2.1225  2.4514  0.7829
 3559SOL     OW22138   3.419   3.265   2.609  0.4120  0.0765 -0.6653
 3559SOL    HW122139   3.325   3.264   2.628  0.1865  1.4870 -1.7087
 3559SOL    HW222140   3.443   3.174   2.593 -0.6439 -0.4961  0.9673
 3560SOL     OW22141   3.804   1.903  10.736  0.2155 -0.3455 -1.2864
 3560SOL    HW122142   3.873   1.907  10.670  0.2639 -1.5560 -1.3089
 3560SOL    HW222143   3.727   1.866  10.692 -0.8810 -0.9931  1.1713
 3561SOL     OW22144   0.145   0.486   6.384  0.1528 -0.1128 -0.0348
 3561SOL    HW122145   0.096   0.513   6.461 -0.8958 -1.7128 -0.1400
 3561SOL    HW222146   0.203   0.432   6.437  3.0772  1.5626 -1.5433
 3562SOL     OW22147   0.887   4.317   9.545 -0.6514  0.4478  0.2717
 3562SOL    HW122148   0.798   4.351   9.544 -1.2911 -1.3269 -1.6229
 3562SOL    HW222149   0.887   4.295   9.452  0.8191  0.9894  0.1432
 3563SOL     OW22150   0.433   2.681   7.054 -0.0005  0.6112 -0.5120
 3563SOL    HW122151   0.520   2.719   7.049 -0.1660  1.3121  1.8580
 3563SOL    HW222152   0.441   2.595   7.011  3.5981  1.0171 -0.6161
 3564SOL     OW22153   1.296   2.813   8.483 -0.1419  0.3189  0.3616
 3564SOL    HW122154   1.250   2.897   8.482 -2.4069 -0.9613 -2.2616
 3564SOL    HW222155   1.360   2.831   8.551 -0.7197  1.0686  0.7029
 3565SOL     OW22156   1.267   3.865   9.487  0.0544 -0.1747  0.5498
 3565SOL    HW122157   1.270   3.846   9.393 -0.2277  0.1919  0.4664
 3565SOL    HW222158   1.177   3.836   9.502 -0.3754  0.1746 -1.3709
 3566SOL     OW22159   0.700   1.187  14.717 -0.1793  0.1296 -0.4740
 3566SOL    HW122160   0.762   1.114  14.714 -0.5211 -0.1290 -1.3028
 3566SOL    HW222161   0.743   1.240  14.784 -1.3061 -0.6768  0.8730
 3567SOL     OW22162   2.128   4.623  13.112  0.8719 -0.9223 -0.0819
 3567SOL    HW122163   2.170   4.676  13.180 -0.4886 -0.2565  0.2381
 3567SOL    HW222164   2.047   4.604  13.158  1.2010 -0.8187  0.5402
 3568SOL     OW22165   3.299   0.290   5.316 -0.6681  0.0510 -0.5475
 3568SOL    HW122166   3.365   0.227   5.346  0.6610  1.1349 -1.1836
 3568SOL    HW222167   3.229   0.236   5.280 -0.9769 -0.4252  0.7703
 3569SOL     OW22168   3.876   0.441  16.002  0.1423  0.2905 -0.3924
 3569SOL    HW122169   3.898   0.351  15.976  0.9369  0.6709 -1.0242
 3569SOL    HW222170   3.926   0.447  16.083  0.5757 -2.3439 -0.4424
 3570SOL     OW22171   3.301   4.067   5.321 -0.6397  0.0219 -0.3165
 3570SOL    HW122172   3.321   3.980   5.358 -1.9181 -0.4893 -0.8187
 3570SOL    HW222173   3.254   4.104   5.396 -0.4101  3.6665 -1.9761
 3571SOL     OW22174   1.000   4.502   2.681  0.3167  0.0211  0.3787
 3571SOL    HW122175   1.040   4.520   2.595  1.3851  1.3906  1.1591
 3571SOL    HW222176   0.937   4.436   2.654 -0.4450  0.2744  1.5506
 3572SOL     OW22177   1.920   2.845   0.307 -0.2001  0.7343  0.2791
 3572SOL    HW122178   1.981   2.811   0.241 -2.8234 -0.6340 -1.4546
 3572SOL    HW222179   1.927   2.940   0.299  1.4503  0.7396  2.0716
 3573SOL     OW22180   1.325   3.512  16.793  0.1670  0.2014 -0.2013
 3573SOL    HW122181   1.348   3.562  16.871  2.8739  1.2185 -1.6246
 3573SOL    HW222182   1.260   3.575  16.763 -0.8084  0.4084  2.3431
 3574SOL     OW22183   4.248   4.391  16.235 -0.0589  0.1514  0.7276
 3574SOL    HW122184   4.314   4.427  16.176 -0.0766 -0.6132  0.2371
 3574SOL    HW222185   4.294   4.398  16.318 -1.4602 -0.0549  1.5252
 3575SOL     OW22186   2.502   2.414  10.331  0.3196 -0.1635  0.5186
 3575SOL    HW122187   2.447   2.387  10.257  2.1775 -0.3644 -0.7899
 3575SOL    HW222188   2.575   2.461  10.291  0.9405 -0.6153  1.1192
 3576SOL     OW22189   1.281   1.051   4.375  0.1589  0.1093 -0.2631
 3576SOL    HW122190   1.229   1.071   4.298  0.4204  0.4149 -0.3588
 3576SOL    HW222191   1.316   1.138   4.392  1.2128 -0.4647  0.4767
 3577SOL     OW22192   2.097   3.986   1.610  1.5990  0.4017 -0.2169
 3577SOL    HW122193   2.190   4.009   1.600  1.7002  0.0756 -0.0268
 3577SOL    HW222194   2.061   4.042   1.541  0.0630 -0.3799 -0.0537
 3578SOL     OW22195   3.414   3.976   4.434 -0.3361 -0.1621  0.9333
 3578SOL    HW122196   3.365   3.905   4.476  0.1241 -0.6230  0.6808
 3578SOL    HW222197   3.373   4.047   4.484  0.2816 -0.4631  1.8724
 3579SOL     OW22198   1.131   4.344  15.502 -0.2506  0.5738 -0.3170
 3579SOL    HW122199   1.135   4.427  15.453  0.6509  1.7970  1.8267
 3579SOL    HW222200   1.199   4.363  15.567 -0.2722  1.7672 -0.6239
 3580SOL     OW22201   1.806   2.244  11.329 -0.3357 -0.0096  0.1995
 3580SOL    HW122202   1.839   2.256  11.240 -1.9344 -0.5189 -0.4679
 3580SOL    HW222203   1.741   2.173  11.324  0.9373 -1.1046 -0.7606
 3581SOL     OW22204   4.368   4.704   2.763 -0.4405  0.1832 -0.0680
 3581SOL    HW122205   4.407   4.724   2.849 -0.9985  1.2874 -0.0792
 3581SOL    HW222206   4.287   0.023   2.786 -1.0297 -1.9112  1.9992
 3582SOL     OW22207   4.102   3.515   1.734  0.8107 -1.1157 -0.0007
 3582SOL    HW122208   4.173   3.559   1.781 -1.6513  0.7281  1.9747
 3582SOL    HW222209   4.109   3.430   1.778  0.7060 -0.3006  1.6156
 3583SOL     OW22210   2.766   3.357   6.712  0.1031  0.4959 -0.0355
 3583SOL    HW122211   2.804   3.269   6.721 -1.9782 -0.5119 -1.0246
 3583SOL    HW222212   2.672   3.343   6.722 -0.0484  1.4787 -0.1012
 3584SOL     OW22213   3.347   2.906  13.018 -0.0335 -0.2671  0.1983
 3584SOL    HW122214   3.393   2.985  12.989 -1.3176 -0.2917 -1.9250
 3584SOL    HW222215   3.405   2.837  12.988 -0.2593 -0.4835  0.2615
 3585SOL     OW22216   3.151   3.622   8.147 -0.3910 -0.2538 -0.3184
 3585SOL    HW122217   3.079   3.560   8.159  0.3380 -1.1233 -0.4333
 3585SOL    HW222218   3.211   3.589   8.213  0.9971  0.7941 -1.0464
 3586SOL     OW22219   4.145   3.335   5.383 -0.0109 -0.0137  0.1975
 3586SOL    HW122220   4.094   3.341   5.302  0.6550  1.2684 -0.1150
 3586SOL    HW222221   4.231   3.304   5.355  0.5416  1.8882 -0.1746
 3587SOL     OW22222   2.997   2.050   4.976  0.2853  0.5441  0.0936
 3587SOL    HW122223   3.045   2.085   5.052  2.0293 -1.8171  0.0700
 3587SOL    HW222224   2.914   2.027   5.018  1.0769 -0.2151  1.2601
 3588SOL     OW22225   1.032   1.992   6.004 -0.3237  0.0377  0.1649
 3588SOL    HW122226   1.031   2.041   5.921  3.0094  0.7438  0.5420
 3588SOL    HW222227   0.942   1.959   6.003  0.7186 -2.7693 -0.5784
 3589SOL     OW22228   0.066   0.493   6.644 -0.4094 -0.1918 -0.1714
 3589SOL    HW122229   4.709   0.459   6.613 -1.2361  3.0801 -1.5949
 3589SOL    HW222230   0.087   0.432   6.715  0.1292  1.1811  0.8399
 3590SOL     OW22231   2.559   1.027  12.187  0.0323 -0.8073  0.1147
 3590SOL    HW122232   2.629   1.011  12.250  1.2584 -0.0122 -1.0282
 3590SOL    HW222233   2.496   1.089  12.222  0.1108  1.6360 -4.0804
 3591SOL     OW22234   0.068   0.684  17.529 -0.1009  0.4871  0.3939
 3591SOL    HW122235   0.008   0.611  17.546  0.8841 -0.3503  0.2947
 3591SOL    HW222236   0.083   0.682  17.435 -0.3328 -2.9173  0.4398
 3592SOL     OW22237   0.245   4.237  15.940 -0.6720 -0.2206  0.0108
 3592SOL    HW122238   0.258   4.211  15.848  0.4294  0.8304 -0.1316
 3592SOL    HW222239   0.154   4.268  15.941 -0.1304  1.3647  0.1119
 3593SOL     OW22240   1.543   1.193  12.064  0.2264 -0.1854 -0.6345
 3593SOL    HW122241   1.621   1.147  12.033  0.3257 -0.3331 -0.1635
 3593SOL    HW222242   1.581   1.274  12.097 -1.8035  0.9215 -1.0423
 3594SOL     OW22243   0.858   2.187  10.232 -0.1377 -0.1014 -0.1945
 3594SOL    HW122244   0.876   2.169  10.140 -0.4353  1.9496 -0.6512
 3594SOL    HW222245   0.770   2.223  10.227  1.0812  2.9563  0.0572
 3595SOL     OW22246   2.796   3.414   6.455 -0.5990  0.7388  0.2239
 3595SOL    HW122247   2.705   3.429   6.430 -0.7043  2.1176  1.4958
 3595SOL    HW222248   2.790   3.408   6.550 -0.4935 -3.5594 -0.0224
 3596SOL     OW22249   1.478   0.871   3.772  0.2771 -0.0356 -0.6832
 3596SOL    HW122250   1.498   0.794   3.825 -2.4921 -1.4448 -1.6709
 3596SOL    HW222251   1.554   0.926   3.789  0.9585 -1.1278 -0.1621
 3597SOL     OW22252   1.521   0.384   6.734 -0.0470  0.0536 -0.1618
 3597SOL    HW122253   1.548   0.451   6.797 -1.5971 -1.0707  1.6974
 3597SOL    HW222254   1.449   0.345   6.783 -1.3705  1.9369 -0.6086
 3598SOL     OW22255   1.366   2.242   5.496  0.5895 -0.2785  0.3332
 3598SOL    HW122256   1.451   2.264   5.533  0.9784  1.8165 -1.7324
 3598SOL    HW222257   1.374   2.154   5.460  1.6935  0.5339 -1.3980
 3599SOL     OW22258   4.148   3.507   1.444 -0.0143  0.5870  0.0576
 3599SOL    HW122259   4.150   3.490   1.539  0.5625  0.6072  0.0475
 3599SOL    HW222260   4.097   3.435   1.407  0.6051 -0.7434  1.7858
 3600SOL     OW22261   4.193   0.552   1.992 -0.3326 -0.6656 -0.4351
 3600SOL    HW122262   4.289   0.549   1.996 -0.3054 -1.0011 -1.5848
 3600SOL    HW222263   4.168   0.489   2.059 -1.8587  0.4014 -0.0058
 3601SOL     OW22264   4.207   2.088  15.875  0.1176  0.3834  0.5137
 3601SOL    HW122265   4.116   2.100  15.846  0.4714  2.5218  0.2937
 3601SOL    HW222266   4.192   2.082  15.969 -0.9354 -1.5641  0.2410
 3602SOL     OW22267   0.457   1.452  16.110  0.0637 -0.2051  0.2762
 3602SOL    HW122268   0.484   1.520  16.172  1.5073  2.0234 -2.7919
 3602SOL    HW222269   0.423   1.503  16.037  0.8839  0.6193  0.4585
 3603SOL     OW22270   4.182   1.275   7.110 -0.0374  0.4609  0.0133
 3603SOL    HW122271   4.274   1.258   7.092 -0.3149  3.1113 -4.0672
 3603SOL    HW222272   4.153   1.188   7.081  1.4856  0.2754 -0.9661
 3604SOL     OW22273   3.597   2.475   6.602 -0.0840 -0.0045  0.0651
 3604SOL    HW122274   3.676   2.529   6.615 -0.9367  1.9737 -2.8410
 3604SOL    HW222275   3.632   2.387   6.597  3.9203  1.7388 -2.9202
 3605SOL     OW22276   1.581   2.887   3.046 -0.2946 -0.2759 -0.1858
 3605SOL    HW122277   1.545   2.896   3.134 -1.4040  4.7002 -1.1569
 3605SOL    HW222278   1.501   2.888   2.993 -0.3082  1.1637 -0.1392
 3606SOL     OW22279   1.581   0.045   3.662 -0.5950  0.3024  0.0294
 3606SOL    HW122280   1.507   0.005   3.708  0.2464 -0.8350  0.4213
 3606SOL    HW222281   1.546   0.040   3.573  0.5291 -1.0432 -0.3456
 3607SOL     OW22282   3.194   4.462  16.473 -0.5624 -0.1638 -0.1773
 3607SOL    HW122283   3.213   4.473  16.380 -0.1511  1.1561  0.0738
 3607SOL    HW222284   3.125   4.395  16.470 -0.5150 -0.1874 -0.8113
 3608SOL     OW22285   2.704   3.074  16.194  0.7707  0.3489  0.4113
 3608SOL    HW122286   2.735   3.128  16.121  0.1885 -0.0309 -0.1098
 3608SOL    HW222287   2.672   3.149  16.244 -1.0864  0.6773 -1.2666
 3609SOL     OW22288   1.978   1.932  12.182  0.9359  0.2795 -0.3962
 3609SOL    HW122289   1.926   2.008  12.155 -0.9602 -1.2508 -1.0608
 3609SOL    HW222290   1.917   1.862  12.204 -0.4069  0.9143 -2.0865
 3610SOL     OW22291   3.572   1.854  10.621  0.0648  0.0244 -0.2722
 3610SOL    HW122292   3.504   1.900  10.572  0.1927  0.3358 -0.1535
 3610SOL    HW222293   3.551   1.886  10.709  1.8400 -1.5912  0.7284
 3611SOL     OW22294   2.064   0.202   8.915  0.0906  0.3301  0.1815
 3611SOL    HW122295   2.024   0.285   8.938 -0.9041 -0.2630  0.5486
 3611SOL    HW222296   2.135   0.206   8.979  1.5726 -3.4557 -1.2258
 3612SOL     OW22297   1.831   0.995  12.175 -0.3150 -0.1987  0.1051
 3612SOL    HW122298   1.885   0.962  12.246  2.1202  0.7179 -1.3098
 3612SOL    HW222299   1.798   1.076  12.214 -0.1343  0.2651 -0.6989
 3613SOL     OW22300   2.573   1.837   8.592  0.2070  0.2237  0.0432
 3613SOL    HW122301   2.512   1.837   8.666  0.8874  0.3005  0.6021
 3613SOL    HW222302   2.575   1.929   8.568  1.2394 -0.2540 -1.6750
 3614SOL     OW22303   2.097   3.854   4.001  0.2979 -0.1608 -0.1269
 3614SOL    HW122304   2.178   3.877   3.955  1.1978 -2.5249  0.3075
 3614SOL    HW222305   2.133   3.776   4.043  0.2295 -0.5877 -0.8823
 3615SOL     OW22306   4.089   2.067   2.402 -0.5930  0.1013 -0.1905
 3615SOL    HW122307   4.114   2.054   2.310  0.3011  1.2435 -0.1154
 3615SOL    HW222308   3.995   2.054   2.405 -0.3948 -1.2533  0.1446
 3616SOL     OW22309   0.507   3.330   3.909  0.0183  0.4339 -0.3546
 3616SOL    HW122310   0.495   3.235   3.904 -1.3229  0.4898  1.8809
 3616SOL    HW222311   0.547   3.340   3.995  0.0549 -0.3035 -0.2860
 3617SOL     OW22312   3.919   0.580   8.292 -0.3236  0.1881  0.7221
 3617SOL    HW122313   4.008   0.607   8.270 -0.0153 -2.1070 -0.8272
 3617SOL    HW222314   3.913   0.575   8.387 -0.6142 -0.7937  0.6490
 3618SOL     OW22315   2.965   2.497   0.645 -0.1364  0.3641 -0.0117
 3618SOL    HW122316   3.036   2.505   0.581 -1.4519  2.1470 -1.2339
 3618SOL    HW222317   2.902   2.447   0.594  2.6702 -0.3132 -2.8075
 3619SOL     OW22318   4.314   3.312   8.786 -0.0552  0.6942  0.2292
 3619SOL    HW122319   4.236   3.323   8.842 -1.5231  0.9460 -1.8831
 3619SOL    HW222320   4.283   3.305   8.696 -0.5879 -3.4978  0.7269
 3620SOL     OW22321   3.033   0.518   9.245  0.2810 -0.4300 -0.2891
 3620SOL    HW122322   3.070   0.511   9.333 -0.8718  0.2823  0.2583
 3620SOL    HW222323   3.043   0.613   9.235 -0.9585 -0.4535 -1.7828
 3621SOL     OW22324   1.819   0.151   5.254  0.4771  0.4448 -0.5014
 3621SOL    HW122325   1.862   0.066   5.241  1.0023  0.9012 -1.7638
 3621SOL    HW222326   1.790   0.147   5.346  1.5911  1.0127 -0.1241
 3622SOL     OW22327   2.485   4.239   5.442  0.1998  0.0598  0.0867
 3622SOL    HW122328   2.457   4.153   5.472  1.7891 -0.1617  0.8893
 3622SOL    HW222329   2.504   4.225   5.349  0.6896  1.5665 -0.0498
 3623SOL     OW22330   4.692   3.299   3.417  0.2243 -0.4009 -0.0485
 3623SOL    HW122331   4.648   3.223   3.455 -1.1367  0.1159 -0.6081
 3623SOL    HW222332   4.723   3.347   3.494  0.0187 -0.9140  0.3562
 3624SOL     OW22333   2.700   2.566   6.206  0.7212  0.2535 -0.4260
 3624SOL    HW122334   2.727   2.618   6.130 -1.7571  1.0287 -0.7708
 3624SOL    HW222335   2.758   2.603   6.273  0.3620 -1.4957  0.8482
 3625SOL     OW22336   0.573   3.882   9.056  0.1110  0.0272  0.0893
 3625SOL    HW122337   0.528   3.947   9.110  0.1797  1.1187 -1.1602
 3625SOL    HW222338   0.624   3.827   9.116 -0.0637  0.6508  0.8130
 3626SOL     OW22339   4.049   0.095   4.840 -0.3862 -0.0787  0.2644
 3626SOL    HW122340   4.053   0.004   4.869 -2.2303 -0.8740 -1.9754
 3626SOL    HW222341   4.108   0.084   4.766  0.2675 -1.4509  0.9914
 3627SOL     OW22342   3.194   0.231   9.289 -0.4773  0.4471 -0.3126
 3627SOL    HW122343   3.265   0.180   9.251 -1.3231 -0.9243 -0.0452
 3627SOL    HW222344   3.235   0.300   9.341  2.9343 -2.8104  1.2891
 3628SOL     OW22345   1.988   0.648   5.552 -0.2807 -0.2690 -0.1224
 3628SOL    HW122346   2.003   0.741   5.535 -1.2561  0.0359  0.6898
 3628SOL    HW222347   1.897   0.652   5.582 -0.5145 -3.0261 -0.3985
 3629SOL     OW22348   3.050   2.964   6.543 -0.5133 -0.0078 -0.2634
 3629SOL    HW122349   3.011   2.960   6.456  0.8864 -0.8103 -0.8633
 3629SOL    HW222350   3.065   2.871   6.563  2.5018  0.3384 -0.9663
 3630SOL     OW22351   0.743   1.786  17.323  0.1046  0.6234  0.7269
 3630SOL    HW122352   0.814   1.790  17.387  1.1718 -1.1444 -0.3476
 3630SOL    HW222353   0.670   1.800  17.384 -0.6093  1.5873 -0.3358
 3631SOL     OW22354   1.662   0.133  13.392  0.1559  0.7369  0.1812
 3631SOL    HW122355   1.628   0.209  13.438 -1.0877 -0.9400  2.0648
 3631SOL    HW222356   1.614   0.138  13.309 -0.9142 -2.4711  0.5854
 3632SOL     OW22357   2.572   3.424   4.343 -0.8699 -0.4051  0.0557
 3632SOL    HW122358   2.518   3.501   4.359  1.5897  0.5174  3.8341
 3632SOL    HW222359   2.526   3.345   4.372 -2.3077  0.3489 -0.1896
 3633SOL     OW22360   2.458   0.424   8.168 -0.7548  0.0807  0.2996
 3633SOL    HW122361   2.402   0.351   8.194 -0.5425  0.1510  0.9586
 3633SOL    HW222362   2.498   0.391   8.088  1.3542  4.2513 -0.3957
 3634SOL     OW22363   1.032   2.533  11.489  0.1296 -0.4503 -0.1358
 3634SOL    HW122364   1.020   2.558  11.397  0.0632 -0.1679 -0.0508
 3634SOL    HW222365   1.126   2.524  11.500 -0.2079 -2.3776  1.1460
 3635SOL     OW22366   4.656   4.319   8.573  0.0350  0.0221 -0.2105
 3635SOL    HW122367   4.682   4.231   8.600  0.9926  0.3843  0.0401
 3635SOL    HW222368   4.699   4.381   8.632  2.7996  0.0492 -2.2114
 3636SOL     OW22369   1.475   3.644   5.729 -0.0472  0.2548 -0.0500
 3636SOL    HW122370   1.431   3.606   5.804 -2.6223  0.7544 -1.3173
 3636SOL    HW222371   1.430   3.728   5.729  0.9305  0.7686  1.3250
 3637SOL     OW22372   1.830   4.327   7.647 -0.4814  0.2029  0.0887
 3637SOL    HW122373   1.816   4.302   7.739 -0.4685  1.2114  0.3638
 3637SOL    HW222374   1.817   4.421   7.655 -2.8599 -0.2306  1.1924
 3638SOL     OW22375   2.790   0.555   9.832  0.1095 -0.0639  0.0395
 3638SOL    HW122376   2.789   0.644   9.796 -2.9656 -0.1209  0.0175
 3638SOL    HW222377   2.849   0.510   9.771  2.2187  1.8558  0.6498
 3639SOL     OW22378   2.481   2.970   0.277 -0.1675  0.0152 -0.0315
 3639SOL    HW122379   2.447   3.056   0.252  0.4795  0.4169  0.4825
 3639SOL    HW222380   2.399   2.923   0.294 -0.1236 -0.5013 -1.2345
 3640SOL     OW22381   4.208   0.862   5.936  0.3722  0.2571 -0.5014
 3640SOL    HW122382   4.274   0.855   5.866  1.4405  1.2285  0.4068
 3640SOL    HW222383   4.152   0.933   5.906  0.6850  0.4489 -0.6393
 3641SOL     OW22384   1.061   0.294   8.982 -0.2006  0.1745 -0.3543
 3641SOL    HW122385   1.104   0.280   8.898 -0.0576 -0.9807 -0.0868
 3641SOL    HW222386   1.128   0.339   9.033 -0.2710 -0.0978 -0.0190
 3642SOL     OW22387   0.976   4.143   3.548  0.5067  0.1986 -0.0941
 3642SOL    HW122388   0.899   4.121   3.496  0.6746  0.6504 -0.5293
 3642SOL    HW222389   1.039   4.104   3.488  0.9579  0.1029  0.4312
 3643SOL     OW22390   4.221   4.359   7.008 -0.7993  0.2995 -0.5243
 3643SOL    HW122391   4.203   4.265   7.013 -0.7701  0.2839 -0.7134
 3643SOL    HW222392   4.301   4.362   7.061 -0.3651  2.9170 -1.3167
 3644SOL     OW22393   1.007   3.501   4.832  0.0522 -0.1776 -0.0738
 3644SOL    HW122394   1.071   3.573   4.835  2.1435 -2.0570  0.9147
 3644SOL    HW222395   0.923   3.546   4.826 -0.9212 -1.9680  0.4489
 3645SOL     OW22396   2.604   4.418  11.740  0.2741 -0.0904 -0.7570
 3645SOL    HW122397   2.568   4.335  11.709  0.6670 -0.3267 -0.5760
 3645SOL    HW222398   2.694   4.429  11.713 -0.1436 -0.0788 -2.1291
 3646SOL     OW22399   4.445   2.779   4.161  0.1043  0.4286  0.7391
 3646SOL    HW122400   4.491   2.848   4.112  0.3272  0.3977  0.9045
 3646SOL    HW222401   4.356   2.798   4.132  0.1760 -1.7321 -0.9506
 3647SOL     OW22402   0.245   3.450   3.883  0.3994  0.0323  0.4082
 3647SOL    HW122403   0.265   3.523   3.942 -0.5709  1.3486 -0.8864
 3647SOL    HW222404   0.332   3.411   3.877  0.4028  0.0569  0.3001
 3648SOL     OW22405   3.800   1.111  17.240 -0.5258 -0.3574  0.1263
 3648SOL    HW122406   3.755   1.179  17.190  0.4777  1.3276  1.5102
 3648SOL    HW222407   3.755   1.108  17.325  1.3551 -1.1392  1.1019
 3649SOL     OW22408   1.678   4.190   8.826  0.7530  0.3834  0.1153
 3649SOL    HW122409   1.639   4.145   8.752 -0.1420  2.7170 -0.8445
 3649SOL    HW222410   1.641   4.278   8.833 -1.7017 -0.6605  0.0673
 3650SOL     OW22411   3.033   3.325   1.315  0.3593 -0.0246 -0.2002
 3650SOL    HW122412   2.986   3.375   1.249  2.0528  0.6980 -0.8520
 3650SOL    HW222413   3.066   3.253   1.262 -2.2755 -1.0002 -0.4783
 3651SOL     OW22414   0.119   3.086  13.567  0.2736  0.0606  0.4042
 3651SOL    HW122415   0.104   3.000  13.607 -1.0436 -0.2559 -0.7520
 3651SOL    HW222416   0.135   3.066  13.475 -1.9803 -1.6423  0.3914
 3652SOL     OW22417   2.986   1.451   7.154 -0.3124 -0.8331 -0.1210
 3652SOL    HW122418   3.075   1.417   7.165 -0.2541 -0.2420  1.2514
 3652SOL    HW222419   2.935   1.388   7.104 -1.4325 -1.6656  2.0454
 3653SOL     OW22420   3.565   0.217  12.811 -0.6307 -0.1638  0.0273
 3653SOL    HW122421   3.534   0.128  12.794 -1.3889  0.2301 -0.6557
 3653SOL    HW222422   3.493   0.259  12.765  0.9364  2.5004 -0.0374
 3654SOL     OW22423   3.968   2.273   7.874  0.1656 -0.0755  0.3625
 3654SOL    HW122424   4.030   2.332   7.833  0.7224  0.5177  2.0311
 3654SOL    HW222425   3.881   2.302   7.848  1.3232  1.5481 -1.6285
 3655SOL     OW22426   0.206   3.688   7.808  0.0483 -0.8659  0.2144
 3655SOL    HW122427   0.268   3.736   7.862  0.0828 -0.1911 -0.4194
 3655SOL    HW222428   0.233   3.709   7.718 -0.2530 -0.1266  0.2951
 3656SOL     OW22429   3.935   4.065   2.120  0.4076 -0.3014  0.4110
 3656SOL    HW122430   3.860   4.041   2.067 -0.1681  1.2968  0.4822
 3656SOL    HW222431   3.956   4.143   2.069  2.5284 -0.6332  0.7899
 3657SOL     OW22432   2.354   1.113  14.289 -0.2562  0.0675  0.0117
 3657SOL    HW122433   2.414   1.186  14.271 -0.6134  1.0228  2.7224
 3657SOL    HW222434   2.316   1.149  14.369  1.1048  0.0046  0.6920
 3658SOL     OW22435   4.125   1.383   3.678 -0.5148  0.3139 -0.3566
 3658SOL    HW122436   4.089   1.400   3.765  0.9293  1.1007  0.0776
 3658SOL    HW222437   4.150   1.473   3.656  1.3693  0.5463  2.7356
 3659SOL     OW22438   1.172   2.482   0.573 -0.1439  0.4242 -0.3156
 3659SOL    HW122439   1.248   2.467   0.516 -0.1411 -0.6642 -0.0367
 3659SOL    HW222440   1.102   2.491   0.508  0.5922  0.6468 -1.0822
 3660SOL     OW22441   2.309   1.131  15.750  0.0917  0.1172  0.1937
 3660SOL    HW122442   2.217   1.148  15.727  0.0163  0.3679  0.6883
 3660SOL    HW222443   2.344   1.116  15.662  1.0392  0.1162  0.5781
 3661SOL     OW22444   3.758   4.107   3.766  0.0644 -0.2799 -0.8724
 3661SOL    HW122445   3.830   4.110   3.829 -0.3945  0.8417 -0.4044
 3661SOL    HW222446   3.742   4.201   3.770 -1.2661 -0.5501  0.0387
 3662SOL     OW22447   3.477   3.246   8.908 -0.0941  0.3470 -0.2647
 3662SOL    HW122448   3.553   3.259   8.851  0.1260 -2.4756 -0.6291
 3662SOL    HW222449   3.491   3.315   8.973  0.9634  0.8291 -0.9997
 3663SOL     OW22450   2.379   3.548   7.938 -0.3937  0.2970  0.4728
 3663SOL    HW122451   2.457   3.510   7.898 -0.6761 -0.2191  0.4128
 3663SOL    HW222452   2.322   3.471   7.928 -1.7965  1.3963 -0.1579
 3664SOL     OW22453   1.092   2.460   5.854  0.1585 -0.1165 -0.1039
 3664SOL    HW122454   1.187   2.459   5.845 -0.0433 -0.6214 -2.2044
 3664SOL    HW222455   1.091   2.432   5.946  0.3432 -0.0138 -0.0712
 3665SOL     OW22456   2.584   2.980  15.014  0.2812  0.0074 -0.2365
 3665SOL    HW122457   2.571   2.971  15.108 -0.1378  0.1729 -0.2767
 3665SOL    HW222458   2.492   2.985  14.989 -0.2656 -1.5206  1.4798
 3666SOL     OW22459   3.362   2.632   4.232  0.4504 -0.2463  0.3392
 3666SOL    HW122460   3.415   2.631   4.152 -0.4224  0.0262 -0.2413
 3666SOL    HW222461   3.280   2.587   4.211  1.7229 -1.2280 -2.5009
 3667SOL     OW22462   1.962   4.223   2.736  0.4507 -0.4708  0.3313
 3667SOL    HW122463   1.891   4.256   2.682  1.9039  0.8744 -0.7543
 3667SOL    HW222464   1.963   4.134   2.702  2.6931 -1.0130  1.8299
 3668SOL     OW22465   1.715   2.112  12.106  0.2060 -0.3937  0.0717
 3668SOL    HW122466   1.642   2.053  12.088 -1.2906  0.7738  2.2907
 3668SOL    HW222467   1.694   2.170  12.033 -0.7972 -0.6487  0.1604
 3669SOL     OW22468   4.684   3.222   0.608 -0.0518  0.0691 -0.2966
 3669SOL    HW122469   4.616   3.285   0.584  2.0506  2.4619  0.1113
 3669SOL    HW222470   4.639   3.147   0.568 -1.1333  0.2579  0.5607
 3670SOL     OW22471   4.123   2.648   2.484 -0.5491  0.0776 -0.2976
 3670SOL    HW122472   4.215   2.652   2.510 -0.6535  1.1384 -0.0970
 3670SOL    HW222473   4.093   2.733   2.515 -0.5306 -0.2567  0.6266
 3671SOL     OW22474   0.444   2.256   0.288  0.2818  0.4948  0.1615
 3671SOL    HW122475   0.536   2.231   0.296 -0.1569 -0.8705  0.9185
 3671SOL    HW222476   0.416   2.210   0.208 -2.5853  0.0972  1.3661
 3672SOL     OW22477   0.927   2.871   6.328  0.0316  1.0042 -0.1709
 3672SOL    HW122478   0.894   2.939   6.269  0.0534  1.5365  0.4269
 3672SOL    HW222479   0.989   2.926   6.377 -0.9461  1.0041  1.0936
 3673SOL     OW22480   2.778   2.528   6.855 -0.0500 -0.5729  0.2061
 3673SOL    HW122481   2.708   2.568   6.906 -1.8888 -0.4013 -2.4804
 3673SOL    HW222482   2.810   2.468   6.923 -0.8410 -1.2151  0.0077
 3674SOL     OW22483   3.261   4.301   3.220 -0.1515  0.0894 -0.8590
 3674SOL    HW122484   3.176   4.284   3.261  1.5454 -0.8719  2.2701
 3674SOL    HW222485   3.260   4.275   3.128  0.1735 -0.8778 -0.5963
 3675SOL     OW22486   0.047   1.461  16.030  0.1112  0.3879 -0.1977
 3675SOL    HW122487   0.138   1.489  16.023  0.1806  0.4643  0.9519
 3675SOL    HW222488   0.029   1.490  16.120 -0.1624 -0.6526  0.0813
 3676SOL     OW22489   2.872   2.111  13.770 -0.5413  0.0788  0.7416
 3676SOL    HW122490   2.965   2.103  13.791 -0.3353  0.3109 -0.0723
 3676SOL    HW222491   2.819   2.104  13.850 -0.7109 -0.1986  0.6065
 3677SOL     OW22492   1.431   1.681   0.331  0.1884 -0.4671  0.6215
 3677SOL    HW122493   1.505   1.639   0.287  0.0548  0.4185 -0.4535
 3677SOL    HW222494   1.464   1.771   0.334  0.4299 -0.5443  0.3195
 3678SOL     OW22495   2.299   3.358  14.237 -0.0388  0.2310 -0.4265
 3678SOL    HW122496   2.219   3.362  14.289 -0.0579  0.5747 -0.4785
 3678SOL    HW222497   2.312   3.264  14.231  1.5838  0.4873 -0.9506
 3679SOL     OW22498   2.517   4.112   7.533 -0.3656 -0.1631  0.2521
 3679SOL    HW122499   2.566   4.114   7.615  1.8473  0.8988 -1.0879
 3679SOL    HW222500   2.576   4.157   7.473  1.9124 -1.1928  1.7066
 3680SOL     OW22501   2.021   2.048   4.502  0.0299 -0.2255  0.2624
 3680SOL    HW122502   2.059   2.061   4.589 -0.1503  0.3741  0.2455
 3680SOL    HW222503   2.095   2.011   4.455  0.6525  0.0975  0.9849
 3681SOL     OW22504   1.333   3.698   5.420 -0.9799  0.1175  0.2955
 3681SOL    HW122505   1.312   3.734   5.506 -1.2641  1.6076 -0.3995
 3681SOL    HW222506   1.365   3.610   5.441 -0.2825  0.8363  2.2322
 3682SOL     OW22507   1.917   0.731  14.439 -0.6802  0.3076  0.8686
 3682SOL    HW122508   1.972   0.748  14.516  0.3559 -1.8007  0.6013
 3682SOL    HW222509   1.917   0.636  14.442  1.9863  0.2791  0.1442
 3683SOL     OW22510   2.846   4.598  10.901  0.0506  0.3707 -0.4109
 3683SOL    HW122511   2.848   4.515  10.852  0.9619  0.3182 -0.2865
 3683SOL    HW222512   2.758   4.635  10.909 -0.6650 -1.1075 -1.4549
 3684SOL     OW22513   4.354   0.240   6.695  0.5779 -0.3176 -0.4358
 3684SOL    HW122514   4.415   0.170   6.672 -1.2187 -2.0705  0.1028
 3684SOL    HW222515   4.372   0.245   6.788 -0.7444 -1.2444 -0.1363
 3685SOL     OW22516   4.100   3.688   8.300  0.0227  0.0660 -0.2483
 3685SOL    HW122517   4.153   3.767   8.288 -0.3138  0.3249 -0.0369
 3685SOL    HW222518   4.150   3.624   8.250 -0.4326 -0.9437  0.5789
 3686SOL     OW22519   3.243   2.309   9.853  0.0220 -0.1856 -0.3603
 3686SOL    HW122520   3.186   2.236   9.831 -0.1311  0.2198 -1.2858
 3686SOL    HW222521   3.323   2.265   9.882 -0.5116  0.4689  2.1669
 3687SOL     OW22522   0.190   3.362   6.356  1.1074 -0.3012  0.5556
 3687SOL    HW122523   0.114   3.311   6.385  0.9019  0.1805  0.8734
 3687SOL    HW222524   0.157   3.446   6.389  0.1446  0.8931 -3.3932
 3688SOL     OW22525   3.491   2.445   0.238 -0.5797 -0.0657 -0.2566
 3688SOL    HW122526   3.420   2.509   0.235  0.1682  0.7415 -0.9340
 3688SOL    HW222527   3.447   2.361   0.247 -2.0369  0.7229 -0.1150
 3689SOL     OW22528   3.651   4.124  12.251 -0.6867 -0.0910  0.2040
 3689SOL    HW122529   3.572   4.069  12.255 -0.6929 -0.3444 -3.5618
 3689SOL    HW222530   3.684   4.123  12.341 -0.9391  2.2501  0.3162
 3690SOL     OW22531   2.246   0.587  16.454 -0.0525 -0.3618 -0.1300
 3690SOL    HW122532   2.334   0.604  16.421 -0.1745  0.7734  0.1579
 3690SOL    HW222533   2.188   0.637  16.397 -0.2431  0.2584  0.6147
 3691SOL     OW22534   0.089   4.212   0.943 -0.7562  0.5544  0.1208
 3691SOL    HW122535   4.722   4.234   0.941 -0.8448  0.2027  0.2985
 3691SOL    HW222536   0.084   4.116   0.946  1.5853  0.4061 -0.4258
 3692SOL     OW22537   3.306   2.595   9.802  0.2955  0.6241 -0.0147
 3692SOL    HW122538   3.263   2.514   9.829  1.9780 -0.1995  0.1543
 3692SOL    HW222539   3.380   2.592   9.862 -1.7848 -0.9932  2.5177
 3693SOL     OW22540   2.763   4.515   3.394  0.4012  0.0549 -0.0598
 3693SOL    HW122541   2.783   4.522   3.301 -0.4156 -0.5975 -0.2856
 3693SOL    HW222542   2.741   4.604   3.421 -2.4571 -0.7841  0.4422
 3694SOL     OW22543   1.670   1.983  16.686 -0.1211 -0.1096 -0.3785
 3694SOL    HW122544   1.710   2.056  16.734 -0.2062  0.0606 -0.5646
 3694SOL    HW222545   1.748   1.934  16.661 -0.2039 -0.8778  0.8642
 3695SOL     OW22546   3.503   3.433   4.673 -0.6843 -0.6223  0.1557
 3695SOL    HW122547   3.514   3.358   4.614  1.2465  0.7189 -1.2140
 3695SOL    HW222548   3.591   3.443   4.711 -0.1450  0.0743 -1.2838
 3696SOL     OW22549   0.441   0.954   8.108 -0.8562 -0.2451  0.4096
 3696SOL    HW122550   0.501   0.949   8.034 -1.6274  1.1634 -0.3242
 3696SOL    HW222551   0.378   0.885   8.088  0.7606 -1.5968 -0.0357
 3697SOL     OW22552   1.444   0.893   0.849  0.0273  0.1455 -0.7876
 3697SOL    HW122553   1.463   0.842   0.927 -1.9036  0.5573 -0.0625
 3697SOL    HW222554   1.377   0.835   0.813 -0.2742  0.7868 -1.2693
 3698SOL     OW22555   2.896   1.852   9.369  0.5533 -0.5868  0.0042
 3698SOL    HW122556   2.808   1.888   9.356  0.1299 -1.7525 -0.3583
 3698SOL    HW222557   2.944   1.887   9.294 -0.0295  0.9393  0.3419
 3699SOL     OW22558   1.669   0.443   4.853 -0.3387  0.6781  0.6071
 3699SOL    HW122559   1.704   0.521   4.896  2.0308 -1.4621  2.4826
 3699SOL    HW222560   1.688   0.374   4.916 -0.5859 -0.7145 -0.8258
 3700SOL     OW22561   0.134   0.856   9.073  0.2589  0.2995  0.3706
 3700SOL    HW122562   0.069   0.924   9.055 -1.1156 -1.5046 -1.4587
 3700SOL    HW222563   0.178   0.859   8.988 -0.3908 -1.1399 -0.0163
 3701SOL     OW22564   0.119   2.238  14.925  0.8322  0.0898 -0.5145
 3701SOL    HW122565   0.152   2.327  14.917  0.0265  0.6248  2.2193
 3701SOL    HW222566   0.107   2.216  14.833  1.2093  2.2643 -1.0834
 3702SOL     OW22567   4.187   2.611   7.424  0.0156 -0.3030 -0.3614
 3702SOL    HW122568   4.103   2.582   7.459  0.1145  0.5903  0.5937
 3702SOL    HW222569   4.197   2.698   7.461 -2.7062 -0.0320 -0.3351
 3703SOL     OW22570   2.506   1.714  16.280 -0.2043 -0.8788 -0.5377
 3703SOL    HW122571   2.573   1.782  16.285  0.5466 -1.6570 -0.0668
 3703SOL    HW222572   2.474   1.712  16.190 -0.8714  0.6364 -0.3328
 3704SOL     OW22573   2.022   0.493  10.474 -0.0197  0.0674 -0.6070
 3704SOL    HW122574   1.985   0.438  10.543  3.5048 -0.8101  0.6006
 3704SOL    HW222575   1.953   0.559  10.468 -0.4386 -0.3358 -0.2405
 3705SOL     OW22576   0.614   4.614   7.675 -0.5255  0.4233 -0.3619
 3705SOL    HW122577   0.674   4.685   7.649  1.2034 -0.2680  1.8239
 3705SOL    HW222578   0.553   4.597   7.602 -1.1639 -1.7600  0.6942
 3706SOL     OW22579   2.281   3.347   7.473 -0.3500  0.2643 -0.2597
 3706SOL    HW122580   2.242   3.372   7.389  0.2372  1.4588 -0.1726
 3706SOL    HW222581   2.351   3.412   7.476 -0.9705  0.8953  0.4284
 3707SOL     OW22582   1.734   2.337   8.613 -0.3299 -0.2992  0.6381
 3707SOL    HW122583   1.662   2.400   8.615 -0.2207 -0.2258  2.6340
 3707SOL    HW222584   1.791   2.366   8.542 -1.4203  0.3542  0.0325
 3708SOL     OW22585   2.784   0.273   1.072  0.6046 -0.2731 -0.3565
 3708SOL    HW122586   2.715   0.332   1.102  0.0618 -1.6080  0.9628
 3708SOL    HW222587   2.730   0.212   1.021 -0.7545 -0.0539  0.8249
 3709SOL     OW22588   1.370   0.643   5.622 -0.0777  0.2387 -0.1252
 3709SOL    HW122589   1.278   0.628   5.642 -0.2060  0.8109 -0.3110
 3709SOL    HW222590   1.373   0.578   5.551 -1.9205  0.8066 -0.7194
 3710SOL     OW22591   1.901   0.289   2.320 -0.2342  0.5912  0.3625
 3710SOL    HW122592   1.835   0.235   2.363 -0.7033 -0.4926 -1.7293
 3710SOL    HW222593   1.971   0.309   2.382  1.4838  0.2740 -1.4334
 3711SOL     OW22594   3.943   4.703   8.872  0.1271 -0.2409  0.1491
 3711SOL    HW122595   3.930   4.611   8.895  1.3964 -0.8266 -1.4781
 3711SOL    HW222596   3.976   0.009   8.956 -1.2912  1.6597 -0.0380
 3712SOL     OW22597   1.747   2.338  10.703 -0.1956 -0.0829 -0.2594
 3712SOL    HW122598   1.720   2.332  10.795  1.4275  1.0526  0.2989
 3712SOL    HW222599   1.674   2.390  10.670 -1.3027 -1.9501 -0.7188
 3713SOL     OW22600   0.287   0.103   8.341 -0.4830  0.2622 -0.2864
 3713SOL    HW122601   0.203   0.059   8.352 -1.4142  1.5776 -2.2282
 3713SOL    HW222602   0.321   0.075   8.426 -1.6666 -2.3032 -0.6487
 3714SOL     OW22603   3.198   0.379  13.995 -0.4568 -0.4545 -0.2352
 3714SOL    HW122604   3.129   0.345  13.937 -0.4244  0.8140 -1.0228
 3714SOL    HW222605   3.204   0.315  14.066  1.9948  1.0353  0.9014
 3715SOL     OW22606   4.504   1.502   3.271 -0.1276  0.1979  0.0482
 3715SOL    HW122607   4.543   1.551   3.343  0.8261  0.5676 -0.7149
 3715SOL    HW222608   4.575   1.497   3.207 -0.8579 -2.5921 -0.5328
 3716SOL     OW22609   0.234   4.326  13.927  0.1048 -0.0516  0.5881
 3716SOL    HW122610   0.217   4.353  13.836 -0.4582  1.0697  1.0216
 3716SOL    HW222611   0.145   4.307  13.956 -0.2179 -1.3252 -1.2496
 3717SOL     OW22612   2.440   0.720   5.820 -0.1166 -0.0137  0.7614
 3717SOL    HW122613   2.524   0.754   5.789  0.6961 -1.6540  1.1529
 3717SOL    HW222614   2.382   0.783   5.777  1.6359 -0.0103 -1.6479
 3718SOL     OW22615   2.827   1.215   5.486  0.1562 -0.8308 -0.2525
 3718SOL    HW122616   2.904   1.267   5.510 -0.5086 -0.9991  2.2749
 3718SOL    HW222617   2.843   1.195   5.394  1.8926 -1.9554  0.2983
 3719SOL     OW22618   4.596   3.768   4.239  0.6916 -0.3933 -0.0012
 3719SOL    HW122619   4.685   3.796   4.258 -0.3114 -0.2521  4.5079
 3719SOL    HW222620   4.575   3.709   4.312  0.3584 -0.1124  0.1296
 3720SOL     OW22621   1.630   2.282  14.207 -0.1672  0.4433 -0.5438
 3720SOL    HW122622   1.556   2.272  14.148 -0.9433  3.8322 -0.1356
 3720SOL    HW222623   1.697   2.294  14.140  1.4053 -0.8907  0.7960
 3721SOL     OW22624   3.611   0.886   7.111 -0.6853  0.1195  0.1304
 3721SOL    HW122625   3.560   0.968   7.108 -1.9197 -0.6079  1.3154
 3721SOL    HW222626   3.696   0.929   7.109 -0.8930  0.5419  0.2812
 3722SOL     OW22627   1.587   4.658   6.362  0.5120  0.0439 -0.3702
 3722SOL    HW122628   1.625   4.574   6.337 -0.7762 -0.5102 -0.4514
 3722SOL    HW222629   1.658   4.718   6.385  0.4189 -0.0480  0.1594
 3723SOL     OW22630   1.332   4.586  15.890 -0.5871  0.0195  0.2330
 3723SOL    HW122631   1.365   4.665  15.934 -2.1025  2.1834 -2.5088
 3723SOL    HW222632   1.262   4.564  15.950  1.1774 -1.3854  1.7766
 3724SOL     OW22633   0.204   1.702   7.445  0.2640 -0.6274 -0.8961
 3724SOL    HW122634   0.109   1.690   7.435  0.2641 -0.8393 -0.6320
 3724SOL    HW222635   0.201   1.765   7.516  1.6191 -1.4508 -0.1106
 3725SOL     OW22636   0.286   0.243   3.320 -0.1041  0.2009 -0.1171
 3725SOL    HW122637   0.210   0.263   3.375  0.1885 -0.0002  0.3678
 3725SOL    HW222638   0.304   0.155   3.354  2.1857  0.6671 -0.1294
 3726SOL     OW22639   2.231   0.099  16.244  0.2108  0.0864 -0.0872
 3726SOL    HW122640   2.239   0.067  16.154 -0.2141  0.7769 -0.3748
 3726SOL    HW222641   2.226   0.191  16.216 -0.6610  1.4166  4.3836
 3727SOL     OW22642   3.099   4.361   3.966 -0.3731 -0.8076  0.2015
 3727SOL    HW122643   3.080   4.397   3.880  1.1761  4.4390  2.0842
 3727SOL    HW222644   3.036   4.288   3.967 -0.8892 -0.3191  3.6085
 3728SOL     OW22645   3.602   2.173   9.465 -0.0550  0.5008 -0.5411
 3728SOL    HW122646   3.515   2.206   9.442  0.2781  1.2593 -0.7306
 3728SOL    HW222647   3.626   2.222   9.544 -0.2325 -0.1849 -0.0619
 3729SOL     OW22648   3.328   0.146   7.230  0.4826  0.0560 -0.0858
 3729SOL    HW122649   3.382   0.161   7.153  1.6989  0.3381  0.8045
 3729SOL    HW222650   3.387   0.108   7.295 -0.4653 -1.5707 -0.1900
 3730SOL     OW22651   3.644   0.871  16.722  0.4127 -0.3403  0.4644
 3730SOL    HW122652   3.653   0.864  16.817 -1.8973 -2.6225  0.5145
 3730SOL    HW222653   3.611   0.961  16.719  0.5356 -0.2154  3.1784
 3731SOL     OW22654   3.202   2.964   0.404  0.5717 -0.2784  0.1823
 3731SOL    HW122655   3.174   2.994   0.490 -0.8982 -0.0982 -0.3619
 3731SOL    HW222656   3.141   3.024   0.362  1.3397  0.5303  0.2249
 3732SOL     OW22657   0.401   4.057   2.580  0.1395  0.0974 -0.0418
 3732SOL    HW122658   0.443   4.133   2.622 -3.6260  2.3248 -0.2498
 3732SOL    HW222659   0.473   3.996   2.567 -0.2854 -0.8441  2.0005
 3733SOL     OW22660   1.396   2.890  12.872  0.1038  0.3733  0.2316
 3733SOL    HW122661   1.407   2.845  12.956 -0.3988  0.3634  0.2913
 3733SOL    HW222662   1.302   2.875  12.859 -0.3594  3.5158 -0.0840
 3734SOL     OW22663   2.164   3.794   4.521 -0.0654  0.0304  0.0014
 3734SOL    HW122664   2.105   3.832   4.455  1.2689  3.3832  0.7169
 3734SOL    HW222665   2.239   3.854   4.522  0.1174 -0.2625  2.7422
 3735SOL     OW22666   4.611   3.943   4.834  0.5938  0.0594  0.1663
 3735SOL    HW122667   4.611   4.014   4.898  0.5948  0.9614 -0.8500
 3735SOL    HW222668   4.592   3.873   4.896 -0.4126 -0.6115 -0.9023
 3736SOL     OW22669   1.044   4.542   5.877 -0.0390  0.2456 -0.2550
 3736SOL    HW122670   1.134   4.533   5.908  0.1195 -1.3729 -1.2463
 3736SOL    HW222671   1.061   4.590   5.796  1.0179  0.1835 -0.0739
 3737SOL     OW22672   0.160   1.830   7.895  0.3409 -0.1123 -0.3654
 3737SOL    HW122673   0.169   1.809   7.988 -0.1304  2.6654  0.3256
 3737SOL    HW222674   0.068   1.807   7.885  0.5453 -1.4939  0.8726
 3738SOL     OW22675   4.586   0.136  12.323  0.1909  0.0909 -0.4615
 3738SOL    HW122676   4.523   0.083  12.276  0.1101  0.5056 -0.8165
 3738SOL    HW222677   4.669   0.101  12.289  0.7427  1.3320 -0.3929
 3739SOL     OW22678   0.643   0.378   4.634  0.5268 -0.3972  0.5302
 3739SOL    HW122679   0.705   0.410   4.568  0.7769 -0.8113  0.5660
 3739SOL    HW222680   0.661   0.429   4.713 -0.5178 -1.5401  1.5110
 3740SOL     OW22681   0.765   2.235  17.165 -0.2654 -0.4311  0.0270
 3740SOL    HW122682   0.764   2.150  17.121  0.0400  0.3504 -1.4982
 3740SOL    HW222683   0.673   2.258  17.180 -0.2853  0.3806 -1.3340
 3741SOL     OW22684   3.831   0.832   7.506  0.2176 -0.2686  0.3980
 3741SOL    HW122685   3.784   0.900   7.457  3.1012  0.0005 -1.9873
 3741SOL    HW222686   3.897   0.811   7.440  1.0264 -0.4120  1.2632
 3742SOL     OW22687   3.253   3.240   3.216 -0.0389 -0.2175  0.2326
 3742SOL    HW122688   3.160   3.247   3.237 -0.1771 -0.8844 -0.1498
 3742SOL    HW222689   3.264   3.145   3.216 -0.1582 -0.2466  2.0506
 3743SOL     OW22690   4.156   2.053   8.028 -0.2563  0.5476 -0.2425
 3743SOL    HW122691   4.160   2.093   8.115  0.8022  0.1520 -0.1220
 3743SOL    HW222692   4.072   2.086   7.993 -0.5818 -0.0291  0.0065
 3744SOL     OW22693   0.117   1.616  13.175  0.2527  0.3802  0.0083
 3744SOL    HW122694   0.194   1.673  13.179  1.2025 -0.7087 -2.2934
 3744SOL    HW222695   0.154   1.547  13.120  1.2551  1.8561 -1.1713
 3745SOL     OW22696   0.466   2.001   7.255  0.7115  0.1754  0.0477
 3745SOL    HW122697   0.489   2.007   7.348  0.0297 -0.2190  0.2395
 3745SOL    HW222698   0.509   2.078   7.217  0.6332 -0.7887 -1.9801
 3746SOL     OW22699   3.468   1.949   1.994 -0.4507 -0.1569  0.1978
 3746SOL    HW122700   3.378   1.965   1.966 -1.7719 -3.6672  2.3355
 3746SOL    HW222701   3.484   1.855   1.979 -1.2599 -0.1432 -0.7508
 3747SOL     OW22702   4.321   4.580  11.827 -0.2512 -0.0732 -0.1850
 3747SOL    HW122703   4.353   4.500  11.868  0.0569 -0.7462 -1.7370
 3747SOL    HW222704   4.261   4.609  11.897  0.1500  1.6899 -0.5625
 3748SOL     OW22705   3.832   0.553   0.838  0.0213 -0.2402 -0.2018
 3748SOL    HW122706   3.785   0.632   0.867  1.1035  0.9789 -1.7397
 3748SOL    HW222707   3.763   0.487   0.836 -0.9900  0.8219 -0.2155
 3749SOL     OW22708   1.871   3.720   2.862 -0.4537 -0.2612  0.3906
 3749SOL    HW122709   1.913   3.712   2.776 -1.5643 -0.1962 -0.1566
 3749SOL    HW222710   1.788   3.674   2.846 -2.2575  2.7377  1.1442
 3750SOL     OW22711   3.193   0.765   2.834  0.0704 -0.0987 -0.0185
 3750SOL    HW122712   3.141   0.715   2.771  0.2843 -1.5416  0.9459
 3750SOL    HW222713   3.137   0.841   2.851 -4.2293 -3.3542  0.3266
 3751SOL     OW22714   3.871   1.929   5.101 -0.2070 -0.5342 -0.6342
 3751SOL    HW122715   3.915   1.846   5.086  0.0059 -1.1816  3.7545
 3751SOL    HW222716   3.810   1.936   5.027  0.4499 -0.0661 -1.1321
 3752SOL     OW22717   3.083   1.062   7.660  0.5932  0.0008  0.1424
 3752SOL    HW122718   3.061   1.146   7.701  1.4777  0.1920  0.2165
 3752SOL    HW222719   3.023   1.057   7.585  1.1942  0.1237 -0.3451
 3753SOL     OW22720   0.383   3.588   1.918 -0.5151 -1.0421  0.3939
 3753SOL    HW122721   0.310   3.536   1.950 -0.9810  0.0655  1.1176
 3753SOL    HW222722   0.379   3.661   1.979  0.5255 -0.1948 -0.5357
 3754SOL     OW22723   2.211   0.285   0.266  0.2008 -0.1945  0.2581
 3754SOL    HW122724   2.229   0.241   0.183  0.6414 -0.1974  0.3563
 3754SOL    HW222725   2.179   0.371   0.240  1.7667  0.8307  1.6523
 3755SOL     OW22726   3.923   2.048   9.096  0.8373 -0.2949 -0.5077
 3755SOL    HW122727   3.998   2.002   9.057 -0.7361 -2.3572 -1.1137
 3755SOL    HW222728   3.877   1.972   9.133  1.1611 -0.6181 -0.7696
 3756SOL     OW22729   4.615   2.182   5.201 -0.5282  0.8577 -0.1391
 3756SOL    HW122730   4.553   2.240   5.244 -2.4925 -0.6163 -0.9476
 3756SOL    HW222731   4.666   2.246   5.151  0.4440  0.4564  0.3394
 3757SOL     OW22732   4.012   3.876   7.824 -0.5169 -0.1284 -0.5375
 3757SOL    HW122733   4.001   3.829   7.906 -1.4177  0.4304 -0.3348
 3757SOL    HW222734   3.923   3.899   7.796 -1.7539 -3.3194  0.8540
 3758SOL     OW22735   1.364   1.524   1.836 -0.1938  0.7433 -0.5243
 3758SOL    HW122736   1.359   1.490   1.926  0.2826 -0.8432 -1.1024
 3758SOL    HW222737   1.359   1.449   1.777  0.8075 -1.4833  2.1798
 3759SOL     OW22738   0.777   3.790   8.902 -0.0608 -0.2910  0.1358
 3759SOL    HW122739   0.774   3.745   8.986 -0.3014 -1.0634 -0.2862
 3759SOL    HW222740   0.708   3.855   8.918  0.7881  1.3198 -2.7192
 3760SOL     OW22741   1.313   1.878  15.510 -0.7092 -0.2300  0.1770
 3760SOL    HW122742   1.306   1.939  15.437  1.1334 -0.4164 -0.1690
 3760SOL    HW222743   1.299   1.791  15.473 -0.9784 -0.4691  0.8347
 3761SOL     OW22744   0.344   0.291   0.124 -0.9111 -0.5877  0.3860
 3761SOL    HW122745   0.350   0.364   0.063 -0.6611 -0.4674  0.5585
 3761SOL    HW222746   0.385   0.222   0.072 -0.4190 -0.2518  0.3381
 3762SOL     OW22747   0.386   3.500  10.397 -0.7235  0.2382  0.1291
 3762SOL    HW122748   0.327   3.467  10.465 -2.1853  1.9393 -0.3081
 3762SOL    HW222749   0.449   3.430  10.380  0.4341  1.3298 -0.0086
 3763SOL     OW22750   1.994   4.159   4.599  0.8432  0.3303 -0.0135
 3763SOL    HW122751   2.086   4.186   4.602  1.0432 -0.1206 -2.1449
 3763SOL    HW222752   2.001   4.079   4.547 -1.8601  0.4847 -0.5831
 3764SOL     OW22753   3.234   1.406   8.851 -0.0502  0.5275  0.3674
 3764SOL    HW122754   3.193   1.480   8.896 -2.1643 -1.6896  2.0635
 3764SOL    HW222755   3.318   1.450   8.837  0.0531  0.1528 -0.1749
 3765SOL     OW22756   0.097   3.476   8.161 -0.0911 -0.2083 -0.0667
 3765SOL    HW122757   0.084   3.550   8.220  0.7248 -0.7696  0.8075
 3765SOL    HW222758   0.048   3.504   8.083 -1.5433 -2.0262  0.1907
 3766SOL     OW22759   3.082   0.479   4.035 -0.2610 -0.5568 -0.6269
 3766SOL    HW122760   2.993   0.444   4.031  0.6702 -3.1297  0.8675
 3766SOL    HW222761   3.125   0.431   3.964 -0.8685 -0.0849 -1.3021
 3767SOL     OW22762   4.406   2.351   5.292 -0.1136 -0.2133  0.0480
 3767SOL    HW122763   4.358   2.433   5.279 -0.8164 -0.5483  0.5514
 3767SOL    HW222764   4.357   2.321   5.369  0.0999  1.1313  0.6980
 3768SOL     OW22765   2.228   2.595   5.494 -0.0341 -0.4300 -0.1204
 3768SOL    HW122766   2.321   2.601   5.514  0.1250 -0.1034 -0.9603
 3768SOL    HW222767   2.222   2.505   5.460 -0.5769 -0.1020 -0.9089
 3769SOL     OW22768   3.872   4.719   3.535 -0.1105 -0.1753  0.0891
 3769SOL    HW122769   3.860   4.628   3.507 -1.0309 -0.5542  1.7080
 3769SOL    HW222770   3.780   0.017   3.544 -0.2747 -1.1490  1.1107
 3770SOL     OW22771   2.864   0.148   6.108 -0.2087  0.1917 -0.5384
 3770SOL    HW122772   2.893   0.097   6.184  1.1465 -0.8120 -1.7364
 3770SOL    HW222773   2.893   0.237   6.127 -0.3122  0.4469 -1.6271
 3771SOL     OW22774   1.812   3.901   8.828  0.1324 -0.1580 -1.1721
 3771SOL    HW122775   1.758   3.831   8.867 -1.5193  0.0144 -3.1712
 3771SOL    HW222776   1.764   3.982   8.846 -0.2606 -1.1653  2.2912
 3772SOL     OW22777   2.489   3.750  13.145 -0.2870  0.5131 -0.1282
 3772SOL    HW122778   2.455   3.663  13.167  0.2509  0.9642  2.4888
 3772SOL    HW222779   2.479   3.795  13.229  3.5862  1.9998 -0.4521
 3773SOL     OW22780   0.517   0.603  13.578 -0.0187 -0.0131  0.9640
 3773SOL    HW122781   0.532   0.649  13.496 -0.8018 -0.3089  0.6549
 3773SOL    HW222782   0.519   0.512  13.547  2.7324 -0.4634  2.4801
 3774SOL     OW22783   3.569   2.303   7.435  0.0584 -0.3624  0.1374
 3774SOL    HW122784   3.639   2.245   7.464 -2.3666 -2.3475  2.0773
 3774SOL    HW222785   3.484   2.259   7.444 -1.6509  3.3258  1.9575
 3775SOL     OW22786   3.459   3.929  13.382 -0.2003 -0.1080 -0.1648
 3775SOL    HW122787   3.421   3.985  13.315  0.3786  0.1140 -0.3069
 3775SOL    HW222788   3.385   3.885  13.425 -0.9294  1.6381  0.3815
 3776SOL     OW22789   1.081   1.797  17.648 -0.2374  0.8718  0.4885
 3776SOL    HW122790   1.060   1.826  17.559  0.7168  1.4332  0.4455
 3776SOL    HW222791   0.993   1.790  17.686 -0.3564  0.1457  0.0726
 3777SOL     OW22792   0.445   3.473   5.166  0.3343 -0.5012 -0.3487
 3777SOL    HW122793   0.355   3.489   5.193 -0.0010 -1.7554 -0.6832
 3777SOL    HW222794   0.484   3.513   5.243 -0.2383  1.3265 -1.0079
 3778SOL     OW22795   3.120   2.294  11.310 -0.2753  0.3583 -0.0747
 3778SOL    HW122796   3.094   2.218  11.258  0.2769  1.0977 -1.4128
 3778SOL    HW222797   3.214   2.278  11.318 -0.3774 -1.1763 -2.0042
 3779SOL     OW22798   1.506   2.390  13.606  0.2963 -0.2032 -0.1016
 3779SOL    HW122799   1.502   2.452  13.679  1.8932 -0.2353  0.0020
 3779SOL    HW222800   1.583   2.423  13.559  0.3118  0.4657  0.3930
 3780SOL     OW22801   3.925   1.632  11.566  0.2470  1.0408  0.1150
 3780SOL    HW122802   3.931   1.676  11.651 -1.9952  0.6767  0.4671
 3780SOL    HW222803   3.835   1.656  11.544 -0.6392 -2.0598  0.4632
 3781SOL     OW22804   3.688   0.969   4.002  0.1510 -0.3883 -0.3465
 3781SOL    HW122805   3.679   1.064   4.006  0.2447 -0.3622 -0.7181
 3781SOL    HW222806   3.602   0.944   3.969  0.1019 -1.3902  0.5530
 3782SOL     OW22807   1.404   2.189   0.693 -0.5981  0.2635 -0.5098
 3782SOL    HW122808   1.447   2.157   0.613 -1.8250  1.4930 -1.6688
 3782SOL    HW222809   1.314   2.171   0.665  0.2865  1.0839 -3.9645
 3783SOL     OW22810   1.762   2.522   5.508  0.6380 -0.0542  0.2265
 3783SOL    HW122811   1.804   2.598   5.467 -2.9697  1.0895 -1.4077
 3783SOL    HW222812   1.718   2.483   5.432  0.0122 -1.3275  1.2420
 3784SOL     OW22813   0.816   2.802   2.693  0.2103  0.1299  0.0366
 3784SOL    HW122814   0.725   2.775   2.707 -0.3618  1.9499 -0.1987
 3784SOL    HW222815   0.845   2.797   2.784 -3.6772 -0.9791  1.2208
 3785SOL     OW22816   0.706   3.871  11.012  0.1620 -0.0518 -0.2504
 3785SOL    HW122817   0.751   3.790  10.989 -1.1385 -1.2708  1.4264
 3785SOL    HW222818   0.662   3.887  10.929 -0.4510  1.3161  0.3335
 3786SOL     OW22819   3.491   2.542   5.043  0.2239 -0.0509  0.2038
 3786SOL    HW122820   3.544   2.471   5.080 -0.4975  0.4546  2.1669
 3786SOL    HW222821   3.539   2.588   4.974  0.1309 -1.0340 -0.5318
 3787SOL     OW22822   1.764   2.456   5.760  0.4259  0.1747  0.4154
 3787SOL    HW122823   1.805   2.462   5.674 -0.3298  2.9586  0.2467
 3787SOL    HW222824   1.710   2.535   5.760  1.2662  0.7371 -1.0139
 3788SOL     OW22825   3.584   0.152   7.778 -0.0884 -0.1099  0.6051
 3788SOL    HW122826   3.505   0.146   7.724  2.5607 -1.4162 -3.1029
 3788SOL    HW222827   3.629   0.212   7.718  2.0929 -1.9069  0.4565
 3789SOL     OW22828   0.818   0.438   4.441 -0.0658 -0.3375  0.1873
 3789SOL    HW122829   0.834   0.359   4.391  2.1455  0.0383  0.3001
 3789SOL    HW222830   0.900   0.485   4.427 -0.1625 -0.6835 -1.4421
 3790SOL     OW22831   1.228   2.212   7.934  0.6655  0.0269 -0.0496
 3790SOL    HW122832   1.297   2.235   7.996 -0.7157  1.7892  0.8464
 3790SOL    HW222833   1.159   2.230   7.998 -0.4247 -0.5005 -1.0818
 3791SOL     OW22834   4.212   3.166  14.798  0.3145  0.0841 -0.0440
 3791SOL    HW122835   4.183   3.135  14.884  1.4978  2.1580  1.1010
 3791SOL    HW222836   4.134   3.214  14.772  0.9816  0.3547 -1.5078
 3792SOL     OW22837   2.004   0.494   8.339 -0.0122 -0.5122 -0.2760
 3792SOL    HW122838   2.001   0.499   8.243 -1.4916 -2.1130 -0.3207
 3792SOL    HW222839   2.097   0.477   8.351 -0.3164 -1.5022  0.6809
 3793SOL     OW22840   0.426   0.437   8.090  0.4650 -0.5444  0.3763
 3793SOL    HW122841   0.377   0.445   8.172 -0.3144  0.2581 -0.1769
 3793SOL    HW222842   0.386   0.357   8.055 -0.2767  0.2872 -0.6859
 3794SOL     OW22843   3.750   0.682   6.358 -0.1822  0.2559 -0.1867
 3794SOL    HW122844   3.762   0.774   6.338  2.6074  0.2723  1.5616
 3794SOL    HW222845   3.836   0.656   6.391 -0.1160  0.8459  0.1036
 3795SOL     OW22846   4.482   0.102   2.548  0.4639  0.0157 -0.0518
 3795SOL    HW122847   4.437   0.052   2.616 -0.2958 -0.6011 -1.0191
 3795SOL    HW222848   4.411   0.103   2.484 -0.0360  2.2878  0.5214
 3796SOL     OW22849   4.569   1.259  17.579 -0.4774  0.0232 -0.1281
 3796SOL    HW122850   4.589   1.174  17.540  1.6685 -0.5780  2.2734
 3796SOL    HW222851   4.548   1.235  17.669 -1.7410  0.9229 -0.1880
 3797SOL     OW22852   1.860   1.158   3.930  0.3982 -0.0810 -0.1680
 3797SOL    HW122853   1.873   1.241   3.977 -2.7263 -0.0677  0.6517
 3797SOL    HW222854   1.944   1.121   3.959  1.6891  1.4686 -1.9185
 3798SOL     OW22855   0.282   0.609   8.451 -0.4281  0.2521 -0.4154
 3798SOL    HW122856   0.246   0.590   8.538 -2.2251  0.4962 -1.1048
 3798SOL    HW222857   0.322   0.523   8.436  1.6228  0.9982  0.7543
 3799SOL     OW22858   4.695   4.547  13.324  0.3103  0.0891 -0.3457
 3799SOL    HW122859   0.062   4.551  13.306 -0.1689  4.9052 -1.6977
 3799SOL    HW222860   4.663   4.541  13.234  0.7961  1.3208 -0.5979
 3800SOL     OW22861   1.697   3.638  13.233 -0.2323  0.5758  0.5582
 3800SOL    HW122862   1.648   3.719  13.216  0.4831  0.7357 -0.7512
 3800SOL    HW222863   1.642   3.599  13.301 -0.0635 -2.0208 -0.8078
 3801SOL     OW22864   2.679   3.214   4.197 -0.0247  0.0971 -0.0936
 3801SOL    HW122865   2.601   3.259   4.228 -0.0368 -0.7160  1.0607
 3801SOL    HW222866   2.735   3.232   4.273  0.1335  1.0689 -0.4373
 3802SOL     OW22867   4.536   0.773   0.920 -0.2780  0.0912  0.0267
 3802SOL    HW122868   4.460   0.732   0.878  0.2842  0.0228 -0.9232
 3802SOL    HW222869   4.507   0.864   0.928  0.5583  0.3237  0.3628
 3803SOL     OW22870   2.149   3.257  10.165 -0.2152  0.5394 -0.5643
 3803SOL    HW122871   2.184   3.232  10.250 -0.9573  1.5971  0.0624
 3803SOL    HW222872   2.216   3.239  10.099  0.5581 -1.2323  0.7417
 3804SOL     OW22873   0.172   1.792   2.866  0.2482 -0.2880  0.8845
 3804SOL    HW122874   0.196   1.745   2.946  3.2616 -1.2433 -0.5882
 3804SOL    HW222875   0.096   1.844   2.894  0.3217  0.0986  0.3783
 3805SOL     OW22876   4.429   4.536   2.424  0.3603  0.1517 -0.1742
 3805SOL    HW122877   4.344   4.506   2.458  0.9522 -0.8098  0.4475
 3805SOL    HW222878   4.410   4.627   2.399  0.5192  0.0473 -0.6645
 3806SOL     OW22879   3.154   2.315  16.080 -0.1864 -0.5604  0.5975
 3806SOL    HW122880   3.246   2.332  16.102  0.1976 -1.2044 -0.5353
 3806SOL    HW222881   3.168   2.338  15.988 -1.0472  0.2164  0.6549
 3807SOL     OW22882   2.373   1.634   5.130 -0.3126 -0.3411  0.7801
 3807SOL    HW122883   2.397   1.698   5.063 -2.1344 -1.0968 -0.5964
 3807SOL    HW222884   2.433   1.564   5.105  0.0673 -0.1579  1.1794
 3808SOL     OW22885   3.574   3.443   0.202 -0.1021 -0.0995  0.1445
 3808SOL    HW122886   3.656   3.442   0.251 -0.3762  1.5075  0.6211
 3808SOL    HW222887   3.560   3.351   0.181 -0.8657  0.6340 -2.5606
 3809SOL     OW22888   4.086   3.968   3.183 -0.6520  0.4108 -0.3124
 3809SOL    HW122889   4.055   4.058   3.169 -2.9427 -0.5454 -1.4506
 3809SOL    HW222890   4.013   3.933   3.132 -0.7953 -4.1617  3.0565
 3810SOL     OW22891   3.183   0.358  11.966  0.2283  0.2012 -0.3398
 3810SOL    HW122892   3.264   0.336  12.012 -1.6538 -2.8882  1.4093
 3810SOL    HW222893   3.203   0.427  11.901 -1.3694  0.2324 -0.7898
 3811SOL     OW22894   1.872   0.079  12.977 -0.5785  0.0525  0.3018
 3811SOL    HW122895   1.852   0.156  13.031 -1.9502  0.0334 -0.1816
 3811SOL    HW222896   1.858   0.015  13.047  2.0788 -1.5667 -0.6661
 3812SOL     OW22897   0.708   3.616   6.520 -1.0281  0.0035 -0.2835
 3812SOL    HW122898   0.638   3.594   6.581 -0.5910  0.9581  0.5598
 3812SOL    HW222899   0.780   3.562   6.551 -0.5978  0.6249 -0.2087
 3813SOL     OW22900   3.540   4.151   7.715 -0.2681 -0.0405 -0.0487
 3813SOL    HW122901   3.446   4.138   7.710 -0.2170 -0.2858 -0.3778
 3813SOL    HW222902   3.546   4.244   7.694 -1.7026  0.4178  1.6291
 3814SOL     OW22903   2.272   1.790   4.669  0.1334  0.0798 -0.1107
 3814SOL    HW122904   2.214   1.819   4.740 -1.1765  1.3020 -1.6554
 3814SOL    HW222905   2.217   1.797   4.591 -0.4653  1.5321  0.4414
 3815SOL     OW22906   1.975   2.155   5.487 -0.0342 -0.3683  0.5303
 3815SOL    HW122907   2.012   2.230   5.533 -0.1658 -0.7557  1.2690
 3815SOL    HW222908   1.950   2.096   5.559  0.2367 -0.7357  0.3220
 3816SOL     OW22909   0.622   2.254   5.420 -0.6088  0.2577 -0.8148
 3816SOL    HW122910   0.686   2.307   5.373 -0.1008 -0.1798 -0.6193
 3816SOL    HW222911   0.646   2.259   5.513 -0.8413  1.2510 -0.8077
 3817SOL     OW22912   1.444   2.246   0.963 -0.2535  0.0109 -0.0815
 3817SOL    HW122913   1.520   2.207   1.005  1.7827 -0.7145 -4.4747
 3817SOL    HW222914   1.449   2.213   0.873  0.2248  1.1591 -0.4819
 3818SOL     OW22915   2.009   1.009   2.850 -0.2480  0.7794 -0.7725
 3818SOL    HW122916   2.090   0.982   2.894 -2.2362 -0.1041  2.3606
 3818SOL    HW222917   2.016   1.104   2.845  1.4506  0.6634 -0.8505
 3819SOL     OW22918   1.469   0.507  14.655  0.0497  0.1796  0.5793
 3819SOL    HW122919   1.438   0.452  14.727  0.7027 -0.2719  0.5126
 3819SOL    HW222920   1.501   0.438  14.598 -1.3052 -0.5580  0.6940
 3820SOL     OW22921   0.364   3.828  12.916 -0.3317 -0.4189  0.3075
 3820SOL    HW122922   0.368   3.767  12.842 -1.3410  1.6074 -1.4017
 3820SOL    HW222923   0.331   3.766  12.982  2.4669 -1.7430  0.4512
 3821SOL     OW22924   0.215   4.691   9.026 -0.2122  0.0037 -0.3512
 3821SOL    HW122925   0.297   4.646   9.008 -1.1806 -1.5129 -1.0163
 3821SOL    HW222926   0.247   0.048   9.060  0.1076 -0.0433 -0.5403
 3822SOL     OW22927   2.056   1.663  10.568 -0.1011 -0.0116  0.5875
 3822SOL    HW122928   2.123   1.730  10.579  0.4159 -0.8055  2.3016
 3822SOL    HW222929   2.082   1.600  10.636 -1.7373 -1.6603 -0.2943
 3823SOL     OW22930   2.531   1.377   4.484 -0.1304  0.0056  0.1829
 3823SOL    HW122931   2.526   1.443   4.416  0.8910 -1.5097 -1.3609
 3823SOL    HW222932   2.452   1.394   4.535  1.0484  1.4711  1.5223
 3824SOL     OW22933   1.947   2.666   5.381 -0.0091  0.3327  0.9183
 3824SOL    HW122934   2.015   2.610   5.420  1.0635  1.4948  0.7031
 3824SOL    HW222935   1.957   2.626   5.294 -0.7848 -2.4981  2.1106
 3825SOL     OW22936   1.623   3.858   9.118 -0.0182  0.0805  0.5649
 3825SOL    HW122937   1.571   3.869   9.198  0.0036  0.1071  0.5753
 3825SOL    HW222938   1.667   3.943   9.116 -0.3047  0.1811 -1.3217
 3826SOL     OW22939   0.267   2.405  16.453 -0.1337 -0.2714  0.0148
 3826SOL    HW122940   0.263   2.464  16.528 -1.6515 -0.4908  0.1203
 3826SOL    HW222941   0.201   2.347  16.491 -1.3295 -0.4578 -2.3039
 3827SOL     OW22942   3.145   3.261  14.168 -0.0248  0.0791 -0.4416
 3827SOL    HW122943   3.057   3.267  14.206 -0.8048 -2.1765 -1.9325
 3827SOL    HW222944   3.144   3.341  14.114  0.6513 -1.2236 -2.3895
 3828SOL     OW22945   1.587   1.359   8.537 -0.4208  0.2888 -0.3845
 3828SOL    HW122946   1.610   1.271   8.565 -0.4009  0.9042  1.5449
 3828SOL    HW222947   1.657   1.373   8.473 -0.0839 -1.6588 -0.4401
 3829SOL     OW22948   1.417   3.014  15.551  0.1655  0.0321  0.1143
 3829SOL    HW122949   1.410   3.083  15.486 -0.2860  0.6561  0.8322
 3829SOL    HW222950   1.357   3.053  15.615 -0.4281  0.8232 -0.9267
 3830SOL     OW22951   3.459   3.047  15.117  0.8254 -0.0027  0.0184
 3830SOL    HW122952   3.453   3.002  15.033  2.1652  0.8902 -0.5402
 3830SOL    HW222953   3.552   3.066  15.119  0.2912  2.3607  1.5585
 3831SOL     OW22954   3.585   3.740   0.206 -0.3877  0.3549 -0.0686
 3831SOL    HW122955   3.546   3.654   0.225  0.0405 -0.0954 -1.2396
 3831SOL    HW222956   3.673   3.725   0.240  0.1728  1.3911 -1.0867
 3832SOL     OW22957   4.275   1.374   0.835  0.0870 -0.5006 -0.0948
 3832SOL    HW122958   4.284   1.433   0.910 -2.0730  1.0840 -1.0754
 3832SOL    HW222959   4.208   1.421   0.785  0.3156  0.4815  0.5170
 3833SOL     OW22960   0.216   2.645   0.609 -0.1107  0.0615  0.1297
 3833SOL    HW122961   0.244   2.698   0.684 -0.7899 -0.3411  0.6722
 3833SOL    HW222962   0.300   2.605   0.588  0.9306  0.8683  2.7615
 3834SOL     OW22963   2.436   1.899  13.095  0.0021  0.4881  0.0573
 3834SOL    HW122964   2.452   1.977  13.149  0.3455 -0.3003  1.0917
 3834SOL    HW222965   2.503   1.846  13.138 -1.5279 -0.9553  0.6308
 3835SOL     OW22966   4.235   3.407  15.805  0.8016 -0.2561 -0.4350
 3835SOL    HW122967   4.232   3.497  15.836 -0.2997 -0.2178 -0.6366
 3835SOL    HW222968   4.167   3.431  15.742 -0.7139 -2.6915  0.2623
 3836SOL     OW22969   3.138   2.671   2.836 -0.1126 -0.3477 -0.2285
 3836SOL    HW122970   3.180   2.655   2.752  2.3503 -0.7848  1.0771
 3836SOL    HW222971   3.062   2.722   2.809  1.4677  1.1711 -1.7835
 3837SOL     OW22972   0.448   0.463  17.584 -0.3288  0.7021 -0.0268
 3837SOL    HW122973   0.411   0.481  17.498  1.0316  0.1801 -0.7161
 3837SOL    HW222974   0.504   0.390  17.560 -2.6232 -0.1612 -2.7500
 3838SOL     OW22975   4.105   1.024   9.574 -0.0679 -0.0814  0.6346
 3838SOL    HW122976   4.058   1.098   9.538 -2.0996 -1.8680 -0.3697
 3838SOL    HW222977   4.049   0.985   9.641 -0.3570  2.6525  1.9690
 3839SOL     OW22978   1.940   3.589   7.171  0.2213  0.3112 -0.1916
 3839SOL    HW122979   1.854   3.586   7.129 -0.4540 -1.7486  1.2975
 3839SOL    HW222980   1.986   3.654   7.118  0.6782 -0.1342 -0.3408
 3840SOL     OW22981   3.767   0.125   4.174  0.2672 -0.4591 -0.1492
 3840SOL    HW122982   3.711   0.200   4.157 -1.0311 -1.2385  0.6727
 3840SOL    HW222983   3.852   0.168   4.165  1.7535 -3.0330  1.4341
 3841SOL     OW22984   0.465   4.262   2.756 -0.0905 -0.8373 -0.2172
 3841SOL    HW122985   0.403   4.322   2.797  1.2185  1.4526 -1.5536
 3841SOL    HW222986   0.532   4.330   2.745 -0.1688 -0.4786  1.4805
 3842SOL     OW22987   2.590   4.724   7.941  0.0718 -0.1135  0.0342
 3842SOL    HW122988   2.588   0.092   7.926  0.3268 -0.4158 -1.8626
 3842SOL    HW222989   2.682   4.721   7.914 -0.5997  0.6051 -2.3023
 3843SOL     OW22990   0.905   1.872  10.694  0.2082  0.0876  0.0657
 3843SOL    HW122991   0.827   1.892  10.747 -1.2754  0.3396 -2.2459
 3843SOL    HW222992   0.879   1.886  10.603 -0.7469 -0.2126  0.2971
 3844SOL     OW22993   2.003   0.914   4.580 -0.7077  0.0960 -0.6058
 3844SOL    HW122994   1.942   0.847   4.611  1.8787 -3.2047 -2.7411
 3844SOL    HW222995   1.973   0.922   4.489  0.4122  0.7152 -0.9272
 3845SOL     OW22996   2.800   4.607  10.536 -0.0735  0.9894 -0.6858
 3845SOL    HW122997   2.706   4.587  10.537  0.7697 -2.9576 -0.6933
 3845SOL    HW222998   2.832   4.585  10.448 -1.1803  0.1679 -0.8845
 3846SOL     OW22999   2.250   3.208   8.984 -0.0657  0.1289 -0.3809
 3846SOL    HW123000   2.171   3.176   9.028 -0.0895  0.7509  0.0293
 3846SOL    HW223001   2.284   3.264   9.054  0.5513  0.2433 -0.7691
 3847SOL     OW23002   2.097   4.296  13.916  0.4958 -0.3190 -0.3989
 3847SOL    HW123003   2.041   4.254  13.850  0.7927 -1.6591  0.1936
 3847SOL    HW223004   2.187   4.275  13.892  0.9430  2.0004 -0.7912
 3848SOL     OW23005   3.290   2.280   2.166  0.6204  0.4879 -0.4910
 3848SOL    HW123006   3.367   2.228   2.145 -0.2703 -1.2558  0.5872
 3848SOL    HW223007   3.223   2.223   2.130  1.1298 -0.9477  0.8337
 3849SOL     OW23008   2.059   4.199   6.484 -0.2105  0.7241 -0.2449
 3849SOL    HW123009   2.012   4.122   6.516  1.3849  0.3937  1.2955
 3849SOL    HW223010   1.989   4.263   6.494  1.2501  2.3936 -0.8700
 3850SOL     OW23011   3.399   2.496   3.215 -0.1221 -0.4648 -0.4592
 3850SOL    HW123012   3.350   2.574   3.190 -0.4342  0.2580  2.3775
 3850SOL    HW223013   3.421   2.527   3.303 -1.5518  1.6040 -0.8333
 3851SOL     OW23014   3.825   4.252  17.410 -0.4386 -0.0099  0.5265
 3851SOL    HW123015   3.809   4.196  17.486 -2.2761  2.1290  1.6898
 3851SOL    HW223016   3.780   4.207  17.339  1.7397  0.7061 -1.3079
 3852SOL     OW23017   1.847   1.606  10.212 -0.3835 -0.5146 -0.4600
 3852SOL    HW123018   1.836   1.643  10.124 -1.8647  0.7833  0.2777
 3852SOL    HW223019   1.760   1.568  10.207 -0.0366 -1.3668 -0.1064
 3853SOL     OW23020   4.407   2.162   7.916 -0.2692  0.0412 -0.3615
 3853SOL    HW123021   4.324   2.126   7.946 -0.1697 -0.5465 -0.7911
 3853SOL    HW223022   4.404   2.245   7.963  0.0428  0.1904 -0.6024
 3854SOL     OW23023   1.814   1.281   1.401 -0.1827 -0.9825  0.0135
 3854SOL    HW123024   1.755   1.266   1.328  0.3006  1.4916 -0.9053
 3854SOL    HW223025   1.772   1.363   1.427  0.0508 -0.4829 -1.1502
 3855SOL     OW23026   1.474   2.617   4.551 -0.3282 -0.2270 -0.6071
 3855SOL    HW123027   1.407   2.560   4.513 -0.2464 -1.2154  0.7409
 3855SOL    HW223028   1.477   2.688   4.487  0.0777  0.7447  0.5046
 3856SOL     OW23029   4.334   2.854   3.704 -0.2042  0.6103  0.0859
 3856SOL    HW123030   4.382   2.774   3.725  1.6623  1.7278  0.0941
 3856SOL    HW223031   4.276   2.824   3.633  1.1894  1.0280 -1.2315
 3857SOL     OW23032   0.117   1.026   9.754 -0.7821 -0.4957  0.3142
 3857SOL    HW123033   0.041   1.032   9.696 -0.1633  3.1619 -0.0938
 3857SOL    HW223034   0.071   1.001   9.834 -0.7919  1.1915  0.8349
 3858SOL     OW23035   2.122   1.903   8.060  0.5050 -0.2327 -0.5086
 3858SOL    HW123036   2.101   1.864   8.145  1.5871  1.2129  0.4164
 3858SOL    HW223037   2.040   1.950   8.042  0.5538  0.2682  0.5606
 3859SOL     OW23038   2.767   1.120   9.363 -0.1102  0.3545 -0.2403
 3859SOL    HW123039   2.856   1.152   9.375 -0.3720  1.0093  0.0126
 3859SOL    HW223040   2.735   1.148   9.278  0.3938  1.4990 -0.0533
 3860SOL     OW23041   1.578   0.930   1.628 -0.5473 -0.5806  0.4952
 3860SOL    HW123042   1.651   0.910   1.570  0.1411  0.6339  0.9505
 3860SOL    HW223043   1.556   1.018   1.600 -0.9326 -0.6586  0.5562
 3861SOL     OW23044   3.503   2.255  12.135 -0.2273  0.4694 -0.0134
 3861SOL    HW123045   3.454   2.332  12.108 -0.5744  0.3491  0.2706
 3861SOL    HW223046   3.496   2.214  12.048  2.3610 -1.7746  0.8252
 3862SOL     OW23047   3.869   1.080   4.951 -0.1307 -0.2436 -0.0954
 3862SOL    HW123048   3.838   0.996   4.985 -0.1013  0.6361  2.1747
 3862SOL    HW223049   3.951   1.059   4.908  1.3342 -2.7097  3.8794
 3863SOL     OW23050   0.349   0.894   9.230  0.5034 -0.3326 -0.3351
 3863SOL    HW123051   0.286   0.875   9.160  1.9034  1.1054 -1.9743
 3863SOL    HW223052   0.413   0.836   9.188  3.9366  2.4797  1.1017
 3864SOL     OW23053   0.117   1.978  12.403 -0.7142 -0.0825  0.0245
 3864SOL    HW123054   0.048   1.947  12.345 -1.5849 -0.2566  1.1367
 3864SOL    HW223055   0.081   1.936  12.482  0.4972 -1.5577 -0.2036
 3865SOL     OW23056   4.546   0.028   7.374 -0.6630 -0.5765 -0.1195
 3865SOL    HW123057   4.600   0.096   7.334 -0.2292 -0.6653  0.3148
 3865SOL    HW223058   4.565   0.051   7.465  0.7565 -1.8606 -0.1000
 3866SOL     OW23059   3.948   3.038   7.254 -0.1931  0.4774 -0.5416
 3866SOL    HW123060   3.963   2.947   7.277 -2.1471  0.1332 -0.6591
 3866SOL    HW223061   4.018   3.085   7.300  0.5195 -0.8033 -0.3136
 3867SOL     OW23062   2.184   0.826  15.012 -0.8455  0.5129 -0.7472
 3867SOL    HW123063   2.181   0.921  15.012 -0.8791  0.4940  1.8708
 3867SOL    HW223064   2.274   0.811  15.041 -1.8060  0.0481  2.0132
 3868SOL     OW23065   3.423   1.084   5.171 -0.5296 -0.2724 -0.2584
 3868SOL    HW123066   3.437   0.997   5.207 -0.3119  0.1699  0.7239
 3868SOL    HW223067   3.331   1.104   5.157 -0.3041  1.2146  0.3014
 3869SOL     OW23068   2.963   1.884  16.450 -0.1244 -0.1339 -0.6247
 3869SOL    HW123069   3.054   1.864  16.425  0.1338 -1.6869  1.6423
 3869SOL    HW223070   2.982   1.953  16.513 -0.6165 -1.4338  0.9414
 3870SOL     OW23071   2.453   0.901   3.687 -0.2858  0.2227  0.1478
 3870SOL    HW123072   2.538   0.939   3.663 -0.0914 -0.6440 -0.5097
 3870SOL    HW223073   2.472   0.832   3.751  1.0992  0.6547  0.2019
 3871SOL     OW23074   3.179   4.204   7.629 -0.3616 -0.4304 -0.2411
 3871SOL    HW123075   3.204   4.163   7.546 -0.5887 -0.1066 -0.4676
 3871SOL    HW223076   3.153   4.125   7.677 -0.0725 -0.5125 -0.2172
 3872SOL     OW23077   2.329   0.513  10.162  0.2747  0.2385 -0.5532
 3872SOL    HW123078   2.351   0.604  10.183 -0.8043  0.2785  0.3637
 3872SOL    HW223079   2.265   0.527  10.092  1.3758 -0.7561 -1.7707
 3873SOL     OW23080   3.564   2.417   2.224  0.0678 -0.8240 -0.2021
 3873SOL    HW123081   3.568   2.324   2.200 -1.0463 -1.2367  1.2093
 3873SOL    HW223082   3.571   2.457   2.138 -0.1016 -0.0715  0.1382
 3874SOL     OW23083   2.506   0.982   0.628  0.0704 -0.2126  0.0657
 3874SOL    HW123084   2.487   0.950   0.540 -1.7139 -0.2594  0.4561
 3874SOL    HW223085   2.476   0.906   0.678 -0.3198  0.9748  1.6406
 3875SOL     OW23086   2.285   3.179   8.564 -0.0896 -0.1987  0.2448
 3875SOL    HW123087   2.321   3.104   8.612 -0.4486 -2.2211 -2.6248
 3875SOL    HW223088   2.214   3.206   8.622  0.1188 -0.1985  0.4990
 3876SOL     OW23089   1.287   1.953   4.419 -0.4642 -0.0320  0.0604
 3876SOL    HW123090   1.351   1.905   4.365 -0.8645  1.2268 -1.5512
 3876SOL    HW223091   1.324   2.035   4.450  0.1277 -0.5672  0.7755
 3877SOL     OW23092   3.575   4.138   5.241  0.3243 -0.2370 -0.3759
 3877SOL    HW123093   3.563   4.053   5.200  0.2481  0.3154 -1.4937
 3877SOL    HW223094   3.484   4.167   5.252 -0.0658 -0.9179 -1.7959
 3878SOL     OW23095   1.908   3.313   4.488  0.2494  0.7388  0.0922
 3878SOL    HW123096   1.965   3.385   4.516  1.1583  0.4717 -1.0911
 3878SOL    HW223097   1.900   3.340   4.396  1.1250 -0.0701 -0.2140
 3879SOL     OW23098   3.323   3.152   7.499 -0.2989 -0.0709  0.7481
 3879SOL    HW123099   3.328   3.089   7.571 -4.9272 -0.3029  0.8772
 3879SOL    HW223100   3.241   3.194   7.526 -0.9467  0.6580 -2.4393
 3880SOL     OW23101   1.133   0.670   8.480 -0.0024 -0.4898 -0.0775
 3880SOL    HW123102   1.105   0.596   8.533  2.4488 -1.0130  0.5175
 3880SOL    HW223103   1.053   0.722   8.482 -0.3587 -1.0151 -0.8673
 3881SOL     OW23104   3.108   3.254   6.870 -0.3166 -0.1136  0.6742
 3881SOL    HW123105   3.160   3.226   6.795 -0.0116  1.4241  0.3019
 3881SOL    HW223106   3.028   3.208   6.846  1.0161 -2.1446  0.1960
 3882SOL     OW23107   3.022   0.109   4.278  0.2977  0.8531  0.0728
 3882SOL    HW123108   3.093   0.104   4.214  1.3609 -1.2522  1.4160
 3882SOL    HW223109   3.026   0.198   4.313  1.1807  0.1513  1.7497
 3883SOL     OW23110   1.797   0.432  13.958  0.1571 -0.8782 -0.0378
 3883SOL    HW123111   1.786   0.505  13.898  2.5430 -1.3774 -1.0973
 3883SOL    HW223112   1.715   0.387  13.941 -1.5472  1.7688  1.1052
 3884SOL     OW23113   0.862   2.988   2.336  0.9236 -0.0612 -0.4501
 3884SOL    HW123114   0.774   3.025   2.345  0.2690 -2.1802  1.9242
 3884SOL    HW223115   0.920   3.059   2.364  0.9921  0.1638 -1.1747
 3885SOL     OW23116   3.461   4.313   6.213  0.0518 -0.0351  0.4935
 3885SOL    HW123117   3.536   4.361   6.175 -0.9815  1.3040  0.1484
 3885SOL    HW223118   3.499   4.226   6.216  3.5686  1.4978  0.8071
 3886SOL     OW23119   1.653   1.759   6.792 -0.4363  0.0017  0.3602
 3886SOL    HW123120   1.560   1.758   6.772 -0.4163 -3.1445  0.4833
 3886SOL    HW223121   1.667   1.666   6.811  1.4907 -0.0131 -1.1228
 3887SOL     OW23122   2.497   0.808   2.512 -0.2058 -0.3279  0.0038
 3887SOL    HW123123   2.424   0.809   2.451 -1.4944 -0.9440  1.5450
 3887SOL    HW223124   2.525   0.717   2.504  0.0156 -0.2995  0.4214
 3888SOL     OW23125   2.479   2.689  10.431 -0.3174  0.4982 -0.9368
 3888SOL    HW123126   2.416   2.619  10.445 -0.3522  0.1411 -2.8398
 3888SOL    HW223127   2.497   2.665  10.340 -0.6065  1.8873 -1.3653
 3889SOL     OW23128   3.157   2.363  15.771  0.2158 -0.2539  0.4878
 3889SOL    HW123129   3.155   2.348  15.677  2.3052  0.1601  0.3662
 3889SOL    HW223130   3.138   2.457  15.773  2.5151  0.1644  3.0556
 3890SOL     OW23131   1.232   2.744   7.245  0.4201  0.6307  0.1450
 3890SOL    HW123132   1.276   2.705   7.169 -1.5404 -0.8638 -0.2438
 3890SOL    HW223133   1.180   2.667   7.270  0.6434 -0.6479 -3.2249
 3891SOL     OW23134   2.425   3.131   2.630  0.6648 -0.4668  0.2996
 3891SOL    HW123135   2.402   3.071   2.560 -1.7848  3.0636 -1.9116
 3891SOL    HW223136   2.488   3.075   2.675  0.3515 -0.9706  0.1084
 3892SOL     OW23137   1.811   3.897  14.919 -0.2192  0.3894 -0.1744
 3892SOL    HW123138   1.783   3.862  14.834 -2.2334  0.3272  0.5024
 3892SOL    HW223139   1.775   3.985  14.910 -1.3358  0.1288  1.8609
 3893SOL     OW23140   0.031   4.392  16.505 -0.2196  0.4709 -0.2061
 3893SOL    HW123141   4.674   4.347  16.492  0.1816 -0.0624 -0.9321
 3893SOL    HW223142   0.095   4.330  16.471 -0.4769 -0.0048  0.1916
 3894SOL     OW23143   2.037   0.171   5.663 -0.0676 -0.2724  0.0441
 3894SOL    HW123144   2.083   0.087   5.655 -0.0340 -0.0681 -1.8642
 3894SOL    HW223145   2.090   0.206   5.735  1.2459 -0.9324 -0.5918
 3895SOL     OW23146   0.863   0.765   8.643  0.6852 -0.0966  0.3796
 3895SOL    HW123147   0.780   0.719   8.630  0.6498  0.0313  0.1382
 3895SOL    HW223148   0.826   0.844   8.603 -0.7191 -0.6799  0.5403
 3896SOL     OW23149   0.536   0.327   0.533  0.0292 -0.1150 -0.0137
 3896SOL    HW123150   0.625   0.341   0.564 -0.3062 -1.2476  1.4660
 3896SOL    HW223151   0.546   0.294   0.444  1.2122 -2.4300  0.9926
 3897SOL     OW23152   0.306   0.766   4.625  0.2127 -0.0692 -0.3403
 3897SOL    HW123153   0.336   0.823   4.696  1.7578 -1.0444 -0.2091
 3897SOL    HW223154   0.250   0.711   4.680 -2.3223  2.4022 -0.4692
 3898SOL     OW23155   4.331   2.299  10.859  0.0917 -0.2588  0.2314
 3898SOL    HW123156   4.381   2.245  10.921  0.4632 -0.5983 -0.3621
 3898SOL    HW223157   4.253   2.245  10.849  1.4852 -2.3002  0.2890
 3899SOL     OW23158   3.155   3.125   7.901 -0.3022  0.5780 -0.5009
 3899SOL    HW123159   3.246   3.157   7.901 -0.4369  0.9765  3.1269
 3899SOL    HW223160   3.107   3.208   7.898 -1.3331 -0.0913 -2.1823
 3900SOL     OW23161   0.588   2.351   8.588  0.0218  0.8938 -0.1753
 3900SOL    HW123162   0.507   2.349   8.638 -0.9866 -0.1592 -1.8346
 3900SOL    HW223163   0.576   2.443   8.568 -0.3592  0.9168  0.1804
 3901SOL     OW23164   1.771   2.615   4.639 -0.3189  0.1581  0.0744
 3901SOL    HW123165   1.783   2.709   4.645 -2.8052  0.3922  1.3372
 3901SOL    HW223166   1.675   2.610   4.632 -0.1172 -1.3154 -1.7135
 3902SOL     OW23167   4.485   0.471   4.885  0.5206  0.0925 -0.5373
 3902SOL    HW123168   4.452   0.442   4.970 -1.7857 -0.1731 -1.5314
 3902SOL    HW223169   4.482   0.383   4.847  2.1369  0.8562 -2.3910
 3903SOL     OW23170   1.012   4.206   7.374  0.0676 -0.1096 -0.1337
 3903SOL    HW123171   1.027   4.208   7.469  0.3622  0.2525 -0.1905
 3903SOL    HW223172   0.983   4.117   7.354 -1.2636  0.4869 -0.8639
 3904SOL     OW23173   1.916   2.154   5.031 -0.3868  0.4093  0.4895
 3904SOL    HW123174   1.986   2.212   5.003  1.1392 -0.6078  2.2168
 3904SOL    HW223175   1.887   2.207   5.105  1.6067 -0.1332  1.6448
 3905SOL     OW23176   3.356   3.046   4.272  0.7088 -0.2601  0.2748
 3905SOL    HW123177   3.273   3.092   4.285  1.2922 -0.0239  3.2146
 3905SOL    HW223178   3.330   2.954   4.267 -1.7576  0.3593  1.3462
 3906SOL     OW23179   4.455   4.088   6.970  0.3027 -0.0723 -0.3059
 3906SOL    HW123180   4.526   4.149   6.952  0.0446 -0.0459 -1.2085
 3906SOL    HW223181   4.495   4.034   7.038 -0.4330  0.1334  0.3002
 3907SOL     OW23182   2.377   4.083   8.634  0.3234  0.4213  0.2488
 3907SOL    HW123183   2.407   4.001   8.596  1.6668  0.6967  0.7385
 3907SOL    HW223184   2.384   4.064   8.728 -0.1821  1.2085  0.4471
 3908SOL     OW23185   3.286   4.329   5.105 -0.4744  0.5370 -0.6594
 3908SOL    HW123186   3.277   4.276   5.026  1.1747 -0.0142 -0.4875
 3908SOL    HW223187   3.375   4.361   5.093 -0.8396  1.4606 -0.9013
 3909SOL     OW23188   3.915   4.170   1.650  0.1824 -0.6510 -0.5935
 3909SOL    HW123189   3.827   4.143   1.677 -0.5609  0.6979 -1.6532
 3909SOL    HW223190   3.935   4.103   1.584  0.4200 -1.2147  0.0563
 3910SOL     OW23191   3.752   2.662  17.239 -0.1780  0.1264  0.1759
 3910SOL    HW123192   3.724   2.715  17.314 -0.7697 -0.3939  0.3178
 3910SOL    HW223193   3.682   2.680  17.177  0.6741 -0.1121 -0.8724
 3911SOL     OW23194   1.888   2.144  15.711  0.2041 -0.2813  0.4205
 3911SOL    HW123195   1.840   2.065  15.683 -0.5047 -0.6832  2.7720
 3911SOL    HW223196   1.888   2.124  15.805 -0.2907 -3.3869 -0.2236
 3912SOL     OW23197   1.139   0.097   7.158  0.0557 -0.1515  0.4479
 3912SOL    HW123198   1.122   0.069   7.068 -1.6622  0.0430  0.7173
 3912SOL    HW223199   1.105   0.186   7.149 -0.1829 -0.2420  0.4731
 3913SOL     OW23200   3.872   3.294   5.882 -0.0092  0.0100  0.2690
 3913SOL    HW123201   3.849   3.216   5.832  1.6713 -1.4640  1.7794
 3913SOL    HW223202   3.868   3.250   5.967  2.2939  0.6954  0.7420
 3914SOL     OW23203   3.778   0.213   9.585 -0.2646 -0.0809  0.2846
 3914SOL    HW123204   3.726   0.145   9.628 -1.6272 -0.2833 -1.6752
 3914SOL    HW223205   3.855   0.164   9.557 -0.5888  1.2938 -2.9836
 3915SOL     OW23206   4.726   4.672   4.819 -0.1359 -0.0297  0.3771
 3915SOL    HW123207   0.082   4.679   4.771 -0.5197 -1.5398 -0.4729
 3915SOL    HW223208   4.682   4.595   4.784 -0.8201 -0.4138  2.0687
 3916SOL     OW23209   3.680   2.238   6.536  0.2657 -0.3047  0.0936
 3916SOL    HW123210   3.696   2.233   6.441  2.8799 -0.0633  0.5323
 3916SOL    HW223211   3.624   2.161   6.547 -0.4666  0.0518 -1.1692
 3917SOL     OW23212   1.659   0.556   6.552  0.1209  0.3949 -0.0567
 3917SOL    HW123213   1.745   0.523   6.577  1.1392  2.1567 -1.2450
 3917SOL    HW223214   1.600   0.530   6.623  1.2680 -0.1405  0.6932
 3918SOL     OW23215   0.805   0.165   8.861 -0.1097  0.5828  0.2809
 3918SOL    HW123216   0.853   0.096   8.907  0.1156 -0.1532 -1.0730
 3918SOL    HW223217   0.799   0.128   8.773  1.6640  0.6140  0.1655
 3919SOL     OW23218   3.434   3.021   4.853 -0.3411 -0.3010 -0.3118
 3919SOL    HW123219   3.433   2.972   4.771 -3.1241 -3.1127  1.4251
 3919SOL    HW223220   3.384   2.957   4.904 -0.2587  0.6457  0.9642
 3920SOL     OW23221   4.405   1.489   6.012 -0.1230  0.9220  0.0450
 3920SOL    HW123222   4.327   1.453   5.970 -0.9522  1.1018  1.4192
 3920SOL    HW223223   4.407   1.578   5.979  1.4218  0.6166 -0.6546
 3921SOL     OW23224   1.250   1.957  12.003 -0.3704 -0.1830  0.3011
 3921SOL    HW123225   1.272   2.041  12.043  1.5118  0.0224 -1.1639
 3921SOL    HW223226   1.166   1.947  12.047 -1.7414  1.4065 -1.9333
 3922SOL     OW23227   3.626   2.780   6.537  0.0501 -0.4824 -0.2729
 3922SOL    HW123228   3.692   2.710   6.542  2.7613  2.2619  2.4783
 3922SOL    HW223229   3.664   2.839   6.603 -1.8538  0.8307 -0.3649
 3923SOL     OW23230   1.803   1.072   7.821 -0.3709 -0.1165  0.3193
 3923SOL    HW123231   1.783   1.122   7.900 -1.3695  0.6354 -0.4128
 3923SOL    HW223232   1.739   1.003   7.835 -0.9227  0.6369  1.4283
 3924SOL     OW23233   2.281   2.088   5.391  0.5659  0.2175  0.3390
 3924SOL    HW123234   2.211   2.024   5.379  1.5232 -0.4308 -1.6399
 3924SOL    HW223235   2.359   2.036   5.372 -0.1568 -0.2366 -1.3538
 3925SOL     OW23236   3.210   1.161   1.793 -0.0028 -0.3431  0.2112
 3925SOL    HW123237   3.269   1.087   1.779 -2.9483 -2.5710 -0.6318
 3925SOL    HW223238   3.151   1.122   1.858  0.0901  0.0069  0.5081
 3926SOL     OW23239   1.845   1.144   6.855 -0.3603  0.2613 -0.4443
 3926SOL    HW123240   1.888   1.068   6.895 -0.2543  0.5576  0.0046
 3926SOL    HW223241   1.913   1.210   6.869  0.2406  0.1003 -2.5034
 3927SOL     OW23242   0.726   2.836   6.848  0.6115 -0.7939 -0.2718
 3927SOL    HW123243   0.668   2.778   6.798  0.3099  0.5300 -1.4585
 3927SOL    HW223244   0.802   2.779   6.863  0.6834 -0.9410 -1.1451
 3928SOL     OW23245   0.401   3.056   7.373  0.3419  0.2556 -0.2302
 3928SOL    HW123246   0.435   3.046   7.462  2.1842 -0.3124 -0.9971
 3928SOL    HW223247   0.320   3.007   7.384  0.2020  0.8257  1.3762
 3929SOL     OW23248   2.836   2.761   6.683 -0.4890  0.1392 -0.1441
 3929SOL    HW123249   2.772   2.699   6.719 -1.5881  0.5244 -1.4389
 3929SOL    HW223250   2.899   2.757   6.755 -0.3411 -1.1683 -0.3512
 3930SOL     OW23251   4.504   1.870   8.911  0.1565 -0.4158  0.6432
 3930SOL    HW123252   4.566   1.797   8.899  1.5983  0.5877  2.1205
 3930SOL    HW223253   4.484   1.870   9.004 -0.9382 -4.2268  0.4077
 3931SOL     OW23254   1.857   1.769  11.752 -0.0658  0.4588 -0.0752
 3931SOL    HW123255   1.940   1.805  11.783 -0.3918  0.7625  0.4500
 3931SOL    HW223256   1.794   1.831  11.788 -1.2072 -0.3824 -0.6299
 3932SOL     OW23257   2.687   2.305   7.291  0.0026  0.2249 -0.2803
 3932SOL    HW123258   2.660   2.359   7.365 -0.1252  0.2263 -0.3264
 3932SOL    HW223259   2.600   2.299   7.251  1.0404 -1.7170 -2.2823
 3933SOL     OW23260   3.575   3.298   9.222  0.1856 -0.4153  0.2501
 3933SOL    HW123261   3.585   3.211   9.182 -0.2606 -0.5605  0.4462
 3933SOL    HW223262   3.663   3.325   9.247  0.5548 -0.8194 -0.6177
 3934SOL     OW23263   3.679   4.488   9.449  0.4099 -0.5239 -0.2571
 3934SOL    HW123264   3.682   4.543   9.527  3.6721 -1.8921  0.5755
 3934SOL    HW223265   3.677   4.397   9.478  2.1292 -0.2369  0.7608
 3935SOL     OW23266   1.030   3.072   0.856  0.0320  0.1008 -0.3056
 3935SOL    HW123267   0.957   3.010   0.863  0.2699  0.0400  1.5543
 3935SOL    HW223268   1.070   3.061   0.770 -0.2098  1.9823 -0.6796
 3936SOL     OW23269   1.298   2.691   2.480 -0.2991 -0.1189 -0.2257
 3936SOL    HW123270   1.310   2.608   2.434  0.3502  0.3630 -0.9039
 3936SOL    HW223271   1.384   2.688   2.522 -1.4659  0.9718  2.2501
 3937SOL     OW23272   1.331   1.405  10.127  0.2967  0.2707 -0.2540
 3937SOL    HW123273   1.257   1.362  10.085  1.3295  0.0344 -1.8868
 3937SOL    HW223274   1.289   1.479  10.170 -0.7777 -0.4291 -0.1240
 3938SOL     OW23275   2.517   0.989  14.836 -0.0374 -0.4765  0.3422
 3938SOL    HW123276   2.443   0.968  14.779  0.9770 -1.4163 -0.6348
 3938SOL    HW223277   2.571   0.913  14.816 -0.4476 -0.0522 -2.3060
 3939SOL     OW23278   0.229   4.065   8.557  0.0948  0.2314  0.3464
 3939SOL    HW123279   0.150   4.074   8.503  2.6538 -0.9001 -3.6276
 3939SOL    HW223280   0.294   4.079   8.488 -1.2708  1.3580 -0.7264
 3940SOL     OW23281   3.000   2.322  17.076 -0.2107 -0.5968 -0.0471
 3940SOL    HW123282   2.950   2.375  17.014 -0.8942 -0.5056  0.5821
 3940SOL    HW223283   2.994   2.383  17.149  0.1619 -0.6872  0.0567
 3941SOL     OW23284   3.149   2.432  12.721  0.1407  0.2882  0.0632
 3941SOL    HW123285   3.061   2.394  12.718  0.7580 -1.2615  2.0668
 3941SOL    HW223286   3.123   2.524  12.718 -0.3168  0.1511 -0.1531
 3942SOL     OW23287   3.650   3.697   6.609  0.3416 -0.0007 -0.0116
 3942SOL    HW123288   3.631   3.640   6.534  1.4403 -1.3242  0.7158
 3942SOL    HW223289   3.594   3.773   6.591 -0.3945 -1.4083 -3.5267
 3943SOL     OW23290   2.235   0.831  15.714 -0.2339  0.1616 -0.5027
 3943SOL    HW123291   2.305   0.816  15.651  1.2421  0.7943  0.9757
 3943SOL    HW223292   2.271   0.902  15.767 -0.7521 -1.8662  2.6040
 3944SOL     OW23293   2.643   4.290   3.501  0.6516 -0.4515 -0.0335
 3944SOL    HW123294   2.696   4.364   3.470  0.2915 -1.0784 -2.1319
 3944SOL    HW223295   2.715   4.230   3.482  1.3920  0.2295  0.5699
 3945SOL     OW23296   3.173   0.524  11.353 -0.1367  0.3732 -0.0266
 3945SOL    HW123297   3.267   0.534  11.364  0.1705 -0.3705 -1.9195
 3945SOL    HW223298   3.141   0.476  11.430  0.1640  0.0258 -0.1204
 3946SOL     OW23299   2.491   4.213   2.159  0.9455  0.0446  0.3593
 3946SOL    HW123300   2.508   4.242   2.248 -0.4766  2.0978 -0.0376
 3946SOL    HW223301   2.573   4.235   2.113  0.8259 -0.6113 -0.1582
 3947SOL     OW23302   0.320   2.129   8.130  0.1090  0.2150 -0.3444
 3947SOL    HW123303   0.260   2.203   8.125 -0.2939 -0.2285 -2.3835
 3947SOL    HW223304   0.409   2.163   8.134  0.8114 -1.7601  0.6935
 3948SOL     OW23305   4.483   4.095   8.857  0.4386 -0.4891  0.1492
 3948SOL    HW123306   4.393   4.114   8.831  0.9605  3.4689  1.1483
 3948SOL    HW223307   4.535   4.057   8.785 -0.2054 -1.3917  0.1699
 3949SOL     OW23308   1.110   1.695  10.754  0.2904 -0.1351  0.2108
 3949SOL    HW123309   1.194   1.742  10.755 -0.2832  0.8494  0.9371
 3949SOL    HW223310   1.046   1.763  10.733  0.8199  0.1992 -0.3192
 3950SOL     OW23311   2.916   4.615   8.646 -0.2597 -0.1179  0.5286
 3950SOL    HW123312   2.847   4.637   8.708  0.4158 -0.9926  1.5954
 3950SOL    HW223313   2.902   4.526   8.617  0.0357 -0.5687  1.7397
 3951SOL     OW23314   4.447   2.836   4.893  0.4338  0.2541  0.0714
 3951SOL    HW123315   4.439   2.799   4.980  0.8191  2.2562  0.9492
 3951SOL    HW223316   4.495   2.761   4.859 -2.1902 -0.4925 -1.9767
 3952SOL     OW23317   3.099   2.552  11.433  0.7773  0.5650 -0.1244
 3952SOL    HW123318   3.188   2.580  11.411  1.4004 -0.6030  0.8714
 3952SOL    HW223319   3.106   2.463  11.399 -0.8233  0.5514 -0.3981
 3953SOL     OW23320   4.297   0.528   4.436 -0.0518  0.0340  0.3940
 3953SOL    HW123321   4.268   0.461   4.373  0.2032 -0.4979  0.8380
 3953SOL    HW223322   4.276   0.488   4.521 -1.3979  0.1205  0.1107
 3954SOL     OW23323   4.357   0.801   4.438  0.4246  0.1430  0.1152
 3954SOL    HW123324   4.297   0.827   4.508 -0.1463  0.6135 -0.5549
 3954SOL    HW223325   4.333   0.708   4.440 -3.2627  1.1313  1.6418
 3955SOL     OW23326   1.189   3.131   6.320 -0.4335  0.2694  0.2789
 3955SOL    HW123327   1.267   3.173   6.287 -1.7017  2.4435  0.0667
 3955SOL    HW223328   1.135   3.199   6.361 -1.8910 -1.9333  2.0458
 3956SOL     OW23329   0.068   0.386   2.564 -0.3489 -0.0407  0.4650
 3956SOL    HW123330   0.053   0.471   2.522  0.7771  0.1854  0.5213
 3956SOL    HW223331   0.013   0.330   2.511 -0.9404  0.4868  0.5124
 3957SOL     OW23332   1.139   2.277  14.545 -0.0970 -0.7744 -0.8508
 3957SOL    HW123333   1.076   2.349  14.544  0.0266 -0.6506  0.0935
 3957SOL    HW223334   1.183   2.285  14.461 -2.1397 -1.1566 -1.9584
 3958SOL     OW23335   3.337   3.839   3.070  0.0473 -0.8595 -0.2356
 3958SOL    HW123336   3.288   3.904   3.021  0.6128  1.7746  2.6587
 3958SOL    HW223337   3.402   3.901   3.105 -0.8736 -0.5788  0.9648
 3959SOL     OW23338   0.448   2.213  11.906  0.6520  0.7237 -0.1056
 3959SOL    HW123339   0.474   2.122  11.889 -2.8163 -0.0962 -1.1336
 3959SOL    HW223340   0.503   2.263  11.846  3.4129 -2.8010 -0.4999
 3960SOL     OW23341   3.445   4.239   1.682 -0.0695  0.1536  0.3901
 3960SOL    HW123342   3.397   4.319   1.660  1.0566  1.0363  1.1134
 3960SOL    HW223343   3.439   4.197   1.596  0.9637 -2.8981  1.7794
 3961SOL     OW23344   4.499   3.971   7.586 -0.1026 -0.3268  0.1800
 3961SOL    HW123345   4.461   4.059   7.576 -2.5438 -1.6482 -2.0378
 3961SOL    HW223346   4.420   3.920   7.599  0.2331 -1.2407 -1.4324
 3962SOL     OW23347   2.920   3.918   6.163  0.5062  0.1937 -0.3974
 3962SOL    HW123348   2.873   3.895   6.083  0.4798  1.3344 -0.7062
 3962SOL    HW223349   2.999   3.871   6.137  1.1244  1.0025  0.0155
 3963SOL     OW23350   1.453   0.628  12.802  0.7042 -0.0919 -0.2226
 3963SOL    HW123351   1.403   0.663  12.876  1.1398 -0.7721  0.3807
 3963SOL    HW223352   1.461   0.535  12.822  1.1271  0.2440  1.1433
 3964SOL     OW23353   2.799   2.535   9.232 -0.2046 -0.3397 -0.6146
 3964SOL    HW123354   2.880   2.541   9.282 -0.4925  1.6277 -0.3809
 3964SOL    HW223355   2.760   2.477   9.297 -1.6003  2.1770  0.8226
 3965SOL     OW23356   2.117   2.423   9.957  0.3782  0.1087 -0.4800
 3965SOL    HW123357   2.102   2.344   9.905  1.8847 -1.1581  0.9898
 3965SOL    HW223358   2.173   2.377  10.020 -1.3410 -0.6113  0.5319
 3966SOL     OW23359   3.885   0.072  16.439  0.1129  0.2284 -0.1450
 3966SOL    HW123360   3.797   0.101  16.413  0.2349  0.4013 -0.3583
 3966SOL    HW223361   3.895   0.096  16.531 -0.5739 -2.1114  0.5335
 3967SOL     OW23362   2.748   2.954  10.698  0.4184  0.1323 -0.0551
 3967SOL    HW123363   2.833   2.948  10.654  0.3523 -1.8827  0.1311
 3967SOL    HW223364   2.698   2.933  10.619  0.3139  0.1075  0.0184
 3968SOL     OW23365   3.151   2.349   5.914  0.6679  0.4974 -0.5094
 3968SOL    HW123366   3.109   2.266   5.935  0.0162  1.1619  0.8140
 3968SOL    HW223367   3.223   2.351   5.978  0.3622  0.0467 -0.1552
 3969SOL     OW23368   1.303   1.577   6.200 -0.1675 -0.1481 -0.1544
 3969SOL    HW123369   1.324   1.516   6.128  1.6473  0.3189 -0.0285
 3969SOL    HW223370   1.329   1.662   6.164 -1.1404  0.6470  1.0497
 3970SOL     OW23371   2.331   2.307  10.105 -0.0261  0.1219  0.2583
 3970SOL    HW123372   2.319   2.219  10.140 -1.5477  0.5470  0.8364
 3970SOL    HW223373   2.395   2.302  10.035 -0.8500 -0.3944 -0.4523
 3971SOL     OW23374   1.693   3.100   2.057  0.3475 -0.3015  0.0007
 3971SOL    HW123375   1.642   3.035   2.009 -2.1074  0.6401  1.3055
 3971SOL    HW223376   1.767   3.048   2.087  1.3042  1.5217  0.7785
 3972SOL     OW23377   0.997   3.977  10.722 -0.5260 -0.1691  0.3720
 3972SOL    HW123378   1.057   3.941  10.787  0.5312 -0.2010 -0.6372
 3972SOL    HW223379   1.007   3.924  10.643  2.4660  0.3012  0.4479
 3973SOL     OW23380   1.798   2.799   8.892  0.3574 -0.1788  0.4309
 3973SOL    HW123381   1.742   2.735   8.935 -1.0138  0.8675  0.2044
 3973SOL    HW223382   1.871   2.742   8.869  0.3125  0.0246 -0.2332
 3974SOL     OW23383   1.485   2.670  11.840 -0.9460 -0.8450 -0.3422
 3974SOL    HW123384   1.531   2.661  11.924 -2.0870 -0.6141  0.3098
 3974SOL    HW223385   1.431   2.749  11.847 -1.6752 -1.2767 -1.0882
 3975SOL     OW23386   0.150   2.949   5.831 -0.8679  0.3350 -0.6666
 3975SOL    HW123387   0.164   2.855   5.820 -0.5614 -0.0181  2.8910
 3975SOL    HW223388   0.223   2.988   5.783 -1.0004  1.0516 -0.2848
 3976SOL     OW23389   3.017   2.459   9.832  0.6203  0.6334  0.3158
 3976SOL    HW123390   3.086   2.394   9.845 -1.4018 -1.8901 -1.2945
 3976SOL    HW223391   3.025   2.481   9.739  0.2548  1.3539  0.4546
 3977SOL     OW23392   2.510   0.727   6.111 -0.1000  0.4279  0.0745
 3977SOL    HW123393   2.505   0.715   6.017  1.1602 -1.0212  0.1881
 3977SOL    HW223394   2.598   0.759   6.133  0.3623 -1.8849  1.6269
 3978SOL     OW23395   3.755   4.229   7.516 -0.2787 -0.0434  0.0877
 3978SOL    HW123396   3.787   4.276   7.439  3.6929 -1.7234  0.7085
 3978SOL    HW223397   3.682   4.193   7.466  0.3801 -0.0124 -0.9057
 3979SOL     OW23398   4.194   0.130   9.822 -0.1438 -0.0220  0.0393
 3979SOL    HW123399   4.265   0.194   9.816 -0.4779  0.3335 -0.1519
 3979SOL    HW223400   4.239   0.046   9.811  2.1395  1.5735 -2.8543
 3980SOL     OW23401   1.256   0.264   6.243 -0.0214  0.0052 -0.1581
 3980SOL    HW123402   1.230   0.343   6.290  1.2215  0.2967  0.0483
 3980SOL    HW223403   1.254   0.198   6.312 -1.2619 -1.6355 -1.7477
 3981SOL     OW23404   1.536   3.758  15.735  0.5541  0.4633 -0.3329
 3981SOL    HW123405   1.620   3.732  15.772  0.0974 -0.8648 -0.2436
 3981SOL    HW223406   1.549   3.731  15.644 -0.7374 -1.5505  0.0810
 3982SOL     OW23407   4.552   3.936   6.726 -0.7722 -0.5283  0.2946
 3982SOL    HW123408   4.614   4.008   6.736 -1.6849  0.5112 -1.3887
 3982SOL    HW223409   4.565   3.900   6.638 -2.0840  1.4559 -0.7187
 3983SOL     OW23410   1.289   2.234   8.673  0.6648  0.6721  0.2676
 3983SOL    HW123411   1.214   2.194   8.630  0.8577  0.2850  0.2914
 3983SOL    HW223412   1.291   2.173   8.746  2.1999  2.1042  1.4231
 3984SOL     OW23413   4.538   3.466   0.552 -0.2054  0.6755  0.0564
 3984SOL    HW123414   4.450   3.471   0.517 -0.8904  2.5888  2.0667
 3984SOL    HW223415   4.580   3.534   0.499  1.0634 -0.7530 -0.7478
 3985SOL     OW23416   0.720   3.665   7.944  0.4580 -0.2056 -1.0598
 3985SOL    HW123417   0.691   3.668   7.853 -2.7085  0.5013 -0.0001
 3985SOL    HW223418   0.738   3.571   7.945 -1.1055 -0.5026 -1.2859
 3986SOL     OW23419   0.343   3.519   8.537 -0.3199 -0.5414  0.0389
 3986SOL    HW123420   0.326   3.596   8.483  2.4287  0.6974  0.9627
 3986SOL    HW223421   0.269   3.511   8.597  0.7346 -0.1029  1.3895
 3987SOL     OW23422   2.161   3.093   1.880 -0.1414  0.0896  0.2472
 3987SOL    HW123423   2.256   3.099   1.871  0.1080 -1.3436  1.8521
 3987SOL    HW223424   2.130   3.097   1.790 -1.1420 -0.2668  0.5748
 3988SOL     OW23425   2.983   2.587   7.353  0.1134  0.2831  0.1458
 3988SOL    HW123426   2.904   2.542   7.383 -0.6611  1.6069  0.0706
 3988SOL    HW223427   2.950   2.646   7.285  1.1322  0.8518  0.1365
 3989SOL     OW23428   3.097   1.389   6.416 -0.0283  0.3700  0.0036
 3989SOL    HW123429   3.089   1.481   6.441 -1.8714  0.0800  0.4851
 3989SOL    HW223430   3.191   1.380   6.396 -0.4579 -1.1462 -1.3367
 3990SOL     OW23431   4.701   0.368   6.172  0.2989 -0.7102  0.1881
 3990SOL    HW123432   4.701   0.282   6.131 -0.4688 -0.8372  0.4480
 3990SOL    HW223433   0.062   0.363   6.210 -0.4020 -0.1856  1.8586
 3991SOL     OW23434   1.261   3.811   5.653  0.4052 -0.1858  0.0975
 3991SOL    HW123435   1.192   3.875   5.668  0.8381  0.1756  0.5429
 3991SOL    HW223436   1.341   3.864   5.649  0.5311 -0.5124 -1.6563
 3992SOL     OW23437   4.399   2.751  17.163  0.5593  0.0608  0.0042
 3992SOL    HW123438   4.479   2.804  17.160  0.0779  0.8260  0.7178
 3992SOL    HW223439   4.336   2.823  17.170  1.5455  0.8655  0.5458
 3993SOL     OW23440   4.419   4.333   3.801 -0.6006  0.0383 -0.3605
 3993SOL    HW123441   4.416   4.244   3.766 -1.2308 -0.3099  0.5615
 3993SOL    HW223442   4.360   4.330   3.877  1.5926  3.4108  1.4830
 3994SOL     OW23443   3.241   4.596   5.525 -0.0835 -0.4744 -0.2385
 3994SOL    HW123444   3.174   4.634   5.581 -0.9435 -1.3781 -0.6585
 3994SOL    HW223445   3.246   4.649   5.445 -0.0588 -0.2188 -0.0687
 3995SOL     OW23446   2.307   2.545   4.863  0.0558  0.1833 -0.1192
 3995SOL    HW123447   2.281   2.628   4.903 -1.4095 -0.8561  1.0882
 3995SOL    HW223448   2.339   2.585   4.782 -1.5567 -0.7306 -1.2039
 3996SOL     OW23449   3.827   2.752   7.321  0.4723  0.2936  1.0310
 3996SOL    HW123450   3.874   2.669   7.308  1.4826  1.1283 -0.6466
 3996SOL    HW223451   3.872   2.783   7.399  1.3123  0.8557  0.3242
 3997SOL     OW23452   0.786   1.674  14.968  0.1101  0.1479 -0.2220
 3997SOL    HW123453   0.849   1.614  14.928  1.0774  1.2346 -0.3404
 3997SOL    HW223454   0.827   1.757  14.942 -0.9922  0.4635 -0.9389
 3998SOL     OW23455   4.542   3.061  13.632 -0.4478  0.1384  0.1127
 3998SOL    HW123456   4.634   3.054  13.607  0.0101  4.0629  0.6591
 3998SOL    HW223457   4.533   3.156  13.639  1.4115  0.3231  0.0669
 3999SOL     OW23458   0.508   1.159  12.856 -0.1436  0.1592 -0.2201
 3999SOL    HW123459   0.464   1.079  12.884 -1.9420  1.0012 -0.6684
 3999SOL    HW223460   0.470   1.178  12.771 -0.6378  0.4092  0.0534
 4000SOL     OW23461   3.235   4.198  13.280  0.2190 -0.2511  0.1840
 4000SOL    HW123462   3.271   4.143  13.211 -0.2727  0.0035 -0.2679
 4000SOL    HW223463   3.317   4.214  13.328  0.2457 -0.4423  0.2035
 4001SOL     OW23464   0.709   3.313   4.551  0.1485 -0.0485 -0.5347
 4001SOL    HW123465   0.703   3.386   4.613  0.8567  0.7713 -1.4187
 4001SOL    HW223466   0.701   3.356   4.466 -0.6310  0.5469 -0.1677
 4002SOL     OW23467   1.013   2.400   6.114  0.5343 -0.6609  0.4749
 4002SOL    HW123468   0.921   2.375   6.104  1.0034 -2.1721  0.0295
 4002SOL    HW223469   1.008   2.443   6.200 -0.1578  0.0761  0.0617
 4003SOL     OW23470   3.346   2.166  12.333 -0.1201  0.1079 -0.4646
 4003SOL    HW123471   3.426   2.176  12.282  0.8335 -1.7399  0.6525
 4003SOL    HW223472   3.313   2.256  12.338  1.7227  0.6690  1.1508
 4004SOL     OW23473   3.978   4.393  12.319  0.2473  0.0705  0.5478
 4004SOL    HW123474   4.058   4.374  12.271 -0.0085 -0.3506  0.2857
 4004SOL    HW223475   3.963   4.309  12.362 -1.6581  0.2122  0.1712
 4005SOL     OW23476   0.943   2.307  11.609 -0.1447 -0.0590  0.6183
 4005SOL    HW123477   1.011   2.287  11.674 -1.0093 -2.5273  0.7896
 4005SOL    HW223478   0.972   2.388  11.567 -2.6534  1.1727  1.2498
 4006SOL     OW23479   4.505   2.273   3.459 -0.1248 -0.0639 -0.2626
 4006SOL    HW123480   4.477   2.230   3.540 -0.1559  1.6969  0.6674
 4006SOL    HW223481   4.598   2.252   3.457 -0.0283  0.1981  0.9593
 4007SOL     OW23482   1.024   2.059   3.720  0.1747 -0.2400 -0.0568
 4007SOL    HW123483   1.038   2.012   3.638 -0.4249  0.6986 -0.6960
 4007SOL    HW223484   0.995   1.989   3.778  0.3229 -0.6637 -0.4988
 4008SOL     OW23485   1.703   0.334  14.976 -0.0484  0.3711 -0.1089
 4008SOL    HW123486   1.797   0.319  14.975 -0.4629 -2.2614  1.4641
 4008SOL    HW223487   1.704   0.429  14.980  0.8027  0.2926  1.3188
 4009SOL     OW23488   3.026   0.091   9.091  0.2907 -0.1215 -0.2763
 4009SOL    HW123489   3.061   0.129   9.172 -0.8787 -0.3328  0.3252
 4009SOL    HW223490   3.093   0.100   9.023  0.3714  1.3923  0.0034
 4010SOL     OW23491   1.947   4.650   8.877 -0.1581  0.4028 -0.3889
 4010SOL    HW123492   1.959   4.653   8.972  1.9106 -0.7873 -0.6082
 4010SOL    HW223493   1.986   0.009   8.861 -1.3331  0.5196 -2.6281
 4011SOL     OW23494   4.442   4.622  11.114  0.0575 -0.2632  0.4088
 4011SOL    HW123495   4.482   4.676  11.183 -2.1480  2.3235 -0.3175
 4011SOL    HW223496   4.349   4.617  11.136  0.0217 -0.6575  0.1695
 4012SOL     OW23497   0.723   4.191   8.341  0.0199  0.8874  0.1673
 4012SOL    HW123498   0.795   4.141   8.301 -0.1598  2.3859 -2.0274
 4012SOL    HW223499   0.731   4.166   8.433 -0.9953 -2.3153 -0.6211
 4013SOL     OW23500   3.625   2.927  16.165  0.1119  0.4067  0.5076
 4013SOL    HW123501   3.623   2.910  16.259  0.7837 -0.3883  0.3804
 4013SOL    HW223502   3.535   2.953  16.147  0.8441  1.4253 -1.6110
 4014SOL     OW23503   0.986   1.412   2.854  0.0826 -0.2044 -0.6530
 4014SOL    HW123504   0.993   1.395   2.948 -0.2266 -0.0681 -0.6078
 4014SOL    HW223505   1.000   1.507   2.847  2.2204 -0.2869  2.5654
 4015SOL     OW23506   0.309   3.747   2.119  0.4717  0.5544  0.2476
 4015SOL    HW123507   0.369   3.744   2.194 -1.6964  0.0249  1.9714
 4015SOL    HW223508   0.283   3.838   2.136  0.3445  0.1207  2.3809
 4016SOL     OW23509   0.572   3.581  12.331  0.1306  0.1273 -0.7350
 4016SOL    HW123510   0.535   3.633  12.259  1.5264  0.7866 -0.9693
 4016SOL    HW223511   0.637   3.531  12.282  1.6718 -0.2567  1.6949
 4017SOL     OW23512   0.389   4.176   7.673  0.0008 -0.0886  0.0871
 4017SOL    HW123513   0.479   4.209   7.665 -0.2469  0.6383  0.3667
 4017SOL    HW223514   0.382   4.181   7.768  0.4852 -1.1537  0.1817
 4018SOL     OW23515   2.036   1.101   9.664  0.8953  0.4464 -0.4879
 4018SOL    HW123516   2.099   1.163   9.627  1.4481  1.3929  2.0138
 4018SOL    HW223517   1.987   1.085   9.584 -0.8440  2.1565  0.2348
 4019SOL     OW23518   0.628   3.129   2.557 -0.2719 -0.6025 -0.2922
 4019SOL    HW123519   0.573   3.090   2.490 -0.1796 -0.0582 -0.6835
 4019SOL    HW223520   0.576   3.108   2.635 -1.8873 -0.2812 -1.2925
 4020SOL     OW23521   1.639   3.024  16.241  0.4633 -0.8046 -0.6168
 4020SOL    HW123522   1.633   2.929  16.236  0.3497 -0.7706 -1.1384
 4020SOL    HW223523   1.578   3.043  16.312 -0.3240  0.7788 -1.7029
 4021SOL     OW23524   2.286   3.211  17.660 -0.0268  0.4129 -0.6044
 4021SOL    HW123525   2.343   3.193  17.585  2.2547  0.3612  1.1649
 4021SOL    HW223526   2.213   3.150  17.647 -0.7778  1.0442  0.6255
 4022SOL     OW23527   0.182   1.662  10.990  0.0213 -0.3699 -0.1086
 4022SOL    HW123528   0.170   1.757  10.981  3.2619  0.0031 -0.3197
 4022SOL    HW223529   0.218   1.642  10.904  1.9756 -0.6758  0.7790
 4023SOL     OW23530   0.107   3.174  15.487  0.6875 -0.5389 -0.0950
 4023SOL    HW123531   0.149   3.146  15.568 -0.0638 -0.1258  0.4474
 4023SOL    HW223532   0.109   3.270  15.496 -0.4155 -0.2988 -2.3569
 4024SOL     OW23533   1.654   3.391  15.701 -0.0884 -0.4234  0.3209
 4024SOL    HW123534   1.738   3.395  15.657 -0.5950  1.3400 -0.4689
 4024SOL    HW223535   1.650   3.297  15.722  0.3343 -0.4482  0.2838
 4025SOL     OW23536   4.234   1.399   4.329 -0.8434 -0.2740  0.3299
 4025SOL    HW123537   4.147   1.432   4.354 -0.6546 -0.0978  0.7626
 4025SOL    HW223538   4.287   1.478   4.343  0.8240 -1.3352 -0.1248
 4026SOL     OW23539   2.602   1.770  12.854  0.0032 -0.3809  0.0177
 4026SOL    HW123540   2.645   1.850  12.885 -0.2434 -0.1688 -0.1913
 4026SOL    HW223541   2.651   1.701  12.897  0.1188  0.9719  2.0675
 4027SOL     OW23542   1.940   3.952   4.418  0.1757 -0.2537  0.0843
 4027SOL    HW123543   1.889   3.875   4.442  1.1105  0.1777  3.4364
 4027SOL    HW223544   1.895   3.987   4.341  0.9627  0.4452 -0.0513
 4028SOL     OW23545   0.499   4.633   0.147  0.7008 -0.6264  0.5591
 4028SOL    HW123546   0.462   4.552   0.184 -1.2028  0.5389  1.2190
 4028SOL    HW223547   0.546   4.666   0.223 -2.1199  0.4513  1.8629
 4029SOL     OW23548   0.663   2.219   7.374  0.6526 -0.2505 -0.1946
 4029SOL    HW123549   0.657   2.181   7.461 -0.5932  0.7608  0.1675
 4029SOL    HW223550   0.749   2.188   7.346 -0.2838 -3.5865  0.6539
 4030SOL     OW23551   3.536   1.128   7.087 -0.5911 -0.3051 -0.5949
 4030SOL    HW123552   3.596   1.151   7.016  1.2010 -0.5366  0.8514
 4030SOL    HW223553   3.470   1.197   7.081 -0.0579  0.1499 -1.2047
 4031SOL     OW23554   0.077   2.408   4.625  0.4025  0.2727 -0.4618
 4031SOL    HW123555   4.714   2.415   4.591  0.2390 -1.1111 -0.3478
 4031SOL    HW223556   0.069   2.313   4.633  1.7907 -0.0417 -3.1299
 4032SOL     OW23557   3.640   2.152   5.307 -0.2940  0.1876  0.2298
 4032SOL    HW123558   3.614   2.067   5.271 -0.3978  0.0259  0.6857
 4032SOL    HW223559   3.644   2.190   5.219  1.3440 -1.4611 -0.4222
 4033SOL     OW23560   1.736   3.382   1.592  0.0856  0.5244  0.2818
 4033SOL    HW123561   1.695   3.303   1.557  0.3976 -0.8629  3.0741
 4033SOL    HW223562   1.824   3.373   1.556  0.0400 -1.6312  0.7143
 4034SOL     OW23563   3.927   2.191   3.430 -0.5785  0.7126  0.0681
 4034SOL    HW123564   3.977   2.264   3.467 -1.1994  1.0567  0.2272
 4034SOL    HW223565   3.855   2.193   3.493 -1.6317 -0.8807 -1.1169
 4035SOL     OW23566   2.762   0.855   6.585 -0.5944  0.0150  0.1280
 4035SOL    HW123567   2.724   0.799   6.653  0.5803 -0.8641  0.0547
 4035SOL    HW223568   2.792   0.782   6.531 -0.9171  1.1646 -1.5955
 4036SOL     OW23569   4.270   2.885   9.457  0.3863 -0.0936  0.5592
 4036SOL    HW123570   4.210   2.919   9.524  0.2657  0.2596  0.2743
 4036SOL    HW223571   4.287   2.970   9.416  0.5719 -0.1620  0.4946
 4037SOL     OW23572   1.014   3.992  14.423  0.2727 -0.8460  1.0554
 4037SOL    HW123573   0.942   3.995  14.360 -0.3712  1.0045  1.8977
 4037SOL    HW223574   0.973   3.961  14.504 -1.4865 -0.7665  0.1844
 4038SOL     OW23575   1.514   2.000   4.806 -0.0495  0.3588  0.1245
 4038SOL    HW123576   1.543   1.934   4.742  0.5081  0.4646  0.2607
 4038SOL    HW223577   1.591   2.055   4.819 -0.0533  0.2361  0.6804
 4039SOL     OW23578   1.891   0.707  13.029  0.4617 -0.2237  0.0190
 4039SOL    HW123579   1.932   0.622  13.047  0.2231 -0.0492  1.3991
 4039SOL    HW223580   1.968   0.761  13.015 -0.2622  0.9265  0.5085
 4040SOL     OW23581   0.497   1.294   2.431  0.1545  0.3726  0.4501
 4040SOL    HW123582   0.409   1.263   2.412  0.0233  1.4573 -0.7216
 4040SOL    HW223583   0.509   1.262   2.520 -2.0800 -0.6294  0.3946
 4041SOL     OW23584   0.937   0.944   3.514  0.1847  0.1803  0.9251
 4041SOL    HW123585   0.934   0.859   3.558 -1.6385 -0.2158  0.0488
 4041SOL    HW223586   0.944   0.995   3.595 -1.0739 -2.0543  2.4475
 4042SOL     OW23587   2.391   0.673   8.220  0.0156  0.6422 -0.3413
 4042SOL    HW123588   2.402   0.578   8.221 -0.3834  0.5874 -1.0453
 4042SOL    HW223589   2.476   0.704   8.189  1.7434 -0.9116  2.7555
 4043SOL     OW23590   2.994   4.371   1.874 -0.9098 -0.3127  0.3832
 4043SOL    HW123591   3.069   4.322   1.907 -0.8587 -0.0549  0.6563
 4043SOL    HW223592   3.006   4.459   1.911 -2.9876 -0.5690  1.6775
 4044SOL     OW23593   2.866   1.356  14.475  0.3129 -0.2156  1.1240
 4044SOL    HW123594   2.843   1.419  14.544 -2.5047 -1.0176  0.9235
 4044SOL    HW223595   2.780   1.334  14.439  0.2012  0.6025  0.8888
 4045SOL     OW23596   0.528   1.485   9.177  0.0048 -0.1433 -0.2033
 4045SOL    HW123597   0.612   1.442   9.192  1.1911  1.9391 -0.9364
 4045SOL    HW223598   0.461   1.418   9.194 -1.0570  1.1574  0.6807
 4046SOL     OW23599   2.157   0.361  13.656  0.4117 -0.0148  0.0127
 4046SOL    HW123600   2.167   0.267  13.645  0.5127 -0.1542  1.2215
 4046SOL    HW223601   2.062   0.367  13.669  0.5721 -2.0624  2.2517
 4047SOL     OW23602   4.298   4.228   3.337  0.4798  0.1834  0.1060
 4047SOL    HW123603   4.320   4.148   3.385  0.2886 -0.8801 -1.5980
 4047SOL    HW223604   4.212   4.254   3.370  0.5172 -1.6052  1.5895
 4048SOL     OW23605   0.733   3.475   0.799 -0.2085 -0.2084  0.6850
 4048SOL    HW123606   0.810   3.432   0.836  1.7843  1.2323 -1.8432
 4048SOL    HW223607   0.707   3.538   0.867  3.4082  0.3831  1.4819
 4049SOL     OW23608   1.841   3.802   6.126  0.2987 -0.0383 -0.0923
 4049SOL    HW123609   1.779   3.872   6.104 -1.8990 -1.8038  0.5365
 4049SOL    HW223610   1.905   3.823   6.059 -0.0837  0.2616 -0.3638
 4050SOL     OW23611   4.316   4.156   7.999 -0.1983 -0.1410  0.0206
 4050SOL    HW123612   4.226   4.171   8.026  0.5783  1.1377  1.9042
 4050SOL    HW223613   4.356   4.154   8.085  0.1629  2.5643 -0.0773
 4051SOL     OW23614   0.814   1.834   2.312 -0.4005 -0.1661 -0.7394
 4051SOL    HW123615   0.774   1.910   2.270  0.2336  2.4239  3.2774
 4051SOL    HW223616   0.822   1.868   2.401 -2.3135 -1.4294 -0.0685
 4052SOL     OW23617   1.441   2.442   9.097 -0.4457 -0.2317  0.8642
 4052SOL    HW123618   1.458   2.348   9.102 -0.1556 -0.1667  1.0615
 4052SOL    HW223619   1.408   2.484   9.176  1.2845  1.1957  0.8368
 4053SOL     OW23620   1.828   4.692   3.657  0.4972 -0.0798 -0.3388
 4053SOL    HW123621   1.784   4.609   3.674 -1.5286  0.8219 -1.1680
 4053SOL    HW223622   1.752   0.023   3.648 -0.9696 -1.6883  1.6577
 4054SOL     OW23623   3.004   1.466   3.863  0.1989  0.0379 -1.0951
 4054SOL    HW123624   2.990   1.382   3.820 -1.4409 -0.6051  0.7308
 4054SOL    HW223625   3.100   1.468   3.863  0.2073 -0.1808 -0.5372
 4055SOL     OW23626   0.938   2.095  14.598  0.1534  0.0307 -0.3300
 4055SOL    HW123627   0.856   2.143  14.586 -0.6319 -1.1305  0.4002
 4055SOL    HW223628   1.002   2.165  14.583 -2.2554  1.9894 -1.5509
 4056SOL     OW23629   0.130   3.634   6.413 -0.2087  0.9402 -0.0105
 4056SOL    HW123630   0.220   3.642   6.381 -0.8980 -2.0847 -2.7507
 4056SOL    HW223631   0.148   3.686   6.491  0.1826 -0.1012  0.5963
 4057SOL     OW23632   4.049   3.345   9.466 -0.1460 -0.4690 -0.3932
 4057SOL    HW123633   4.134   3.357   9.422  0.5170 -1.1832  0.6968
 4057SOL    HW223634   4.073   3.324   9.556 -0.8779 -0.0937 -0.1153
 4058SOL     OW23635   0.175   4.073   1.251  0.6472 -0.2308  0.2253
 4058SOL    HW123636   0.091   4.030   1.236 -0.5477  1.3522  2.3436
 4058SOL    HW223637   0.240   4.003   1.245 -0.3353 -1.1084 -0.0601
 4059SOL     OW23638   0.751   4.222   5.404 -0.2076  0.2035  0.3249
 4059SOL    HW123639   0.804   4.171   5.343 -1.7983  0.0440 -0.9301
 4059SOL    HW223640   0.691   4.152   5.429  0.2418 -0.0281  0.7613
 4060SOL     OW23641   0.925   3.149   4.550 -0.1018  0.1009 -0.3542
 4060SOL    HW123642   0.861   3.217   4.572  1.5652  1.9075 -1.0325
 4060SOL    HW223643   0.995   3.187   4.603 -0.1780  1.2515 -1.0771
 4061SOL     OW23644   2.913   1.678   9.007  0.4263  0.4076  0.1033
 4061SOL    HW123645   2.826   1.716   9.006 -0.4038 -1.5320 -1.4822
 4061SOL    HW223646   2.959   1.754   9.043  0.5775  0.4778 -0.2395
 4062SOL     OW23647   4.538   4.635   6.828  0.1230 -0.5072 -0.0536
 4062SOL    HW123648   4.520   4.702   6.762 -0.9352  0.0254  0.7770
 4062SOL    HW223649   4.474   4.567   6.809  1.2111 -2.0805  1.9183
 4063SOL     OW23650   2.474   0.948  10.725 -0.2253 -0.2689  0.4001
 4063SOL    HW123651   2.469   0.986  10.813 -0.2369  0.0832  0.2478
 4063SOL    HW223652   2.522   0.867  10.736  0.1540  0.0028  0.7403
 4064SOL     OW23653   4.500   1.510   8.469  0.3612  0.2865  0.3538
 4064SOL    HW123654   4.530   1.582   8.524 -0.2630  0.4093  0.5345
 4064SOL    HW223655   4.470   1.568   8.399  0.6695 -0.8926 -0.7586
 4065SOL     OW23656   2.661   0.689   3.579  0.1138 -0.3680 -0.5939
 4065SOL    HW123657   2.710   0.610   3.603 -0.1230 -0.4095 -0.2535
 4065SOL    HW223658   2.589   0.688   3.642  0.7787 -2.6478  0.1586
 4066SOL     OW23659   3.488   4.420   8.144 -0.2093  0.5949  0.1637
 4066SOL    HW123660   3.495   4.507   8.184 -0.7675  0.9880 -0.5958
 4066SOL    HW223661   3.398   4.392   8.158  0.2280 -0.0826  1.5861
 4067SOL     OW23662   3.413   3.818   7.666  0.1613 -0.1724  0.1002
 4067SOL    HW123663   3.481   3.879   7.639  1.1216 -1.8653 -1.3160
 4067SOL    HW223664   3.434   3.756   7.596  3.4039 -0.1382  1.0377
 4068SOL     OW23665   4.504   3.458   8.402  0.0293  0.1906  0.3263
 4068SOL    HW123666   4.431   3.507   8.438 -0.0755  0.0367  0.3244
 4068SOL    HW223667   4.475   3.410   8.324  0.3602  0.1007  0.2552
 4069SOL     OW23668   4.089   2.402   7.004  0.2188  0.0251  0.0098
 4069SOL    HW123669   4.093   2.492   7.036  1.1247 -0.0364  0.0644
 4069SOL    HW223670   4.101   2.400   6.909  0.4280  1.9375 -0.0186
 4070SOL     OW23671   1.906   2.951   2.677 -0.1552 -0.0141 -0.5531
 4070SOL    HW123672   1.902   2.971   2.584  0.5082 -0.5312 -0.6939
 4070SOL    HW223673   1.997   2.920   2.674 -0.4841 -0.8915 -1.4546
 4071SOL     OW23674   0.143   3.727  11.067 -0.0327  0.6466 -0.1190
 4071SOL    HW123675   0.114   3.640  11.095  1.2170 -0.1292 -1.2677
 4071SOL    HW223676   0.097   3.731  10.983 -1.9937 -1.3469  0.8389
 4072SOL     OW23677   1.501   3.693  12.316  0.2332 -0.4069  0.7362
 4072SOL    HW123678   1.520   3.662  12.227 -0.8402  1.3505 -0.1048
 4072SOL    HW223679   1.592   3.713  12.340  0.8757 -1.3526 -0.8827
 4073SOL     OW23680   0.361   2.925  14.209  0.2064  0.1829 -0.7142
 4073SOL    HW123681   0.428   2.972  14.257  0.4296 -0.2196 -0.6327
 4073SOL    HW223682   0.338   2.868  14.282 -1.2256  2.1115  0.3491
 4074SOL     OW23683   2.222   1.053   9.867 -0.1281 -0.3619 -0.1478
 4074SOL    HW123684   2.194   1.135   9.908 -1.7334 -1.2181  0.4819
 4074SOL    HW223685   2.166   1.040   9.790 -0.2178 -0.8072 -0.0062
 4075SOL     OW23686   2.440   3.698   4.385 -0.2480 -0.0323  0.4839
 4075SOL    HW123687   2.432   3.750   4.465 -1.5216 -0.6266  0.7311
 4075SOL    HW223688   2.461   3.764   4.318 -2.2786 -0.0004 -0.1241
 4076SOL     OW23689   1.436   2.454   2.770  0.3821 -0.0147 -0.0914
 4076SOL    HW123690   1.352   2.418   2.742 -1.0712  0.4879  3.6455
 4076SOL    HW223691   1.454   2.519   2.702 -1.3050  1.8778  1.2954
 4077SOL     OW23692   4.428   1.793   5.966 -0.2248 -0.0940 -0.5250
 4077SOL    HW123693   4.495   1.837   6.017  0.7250 -1.2849 -0.7506
 4077SOL    HW223694   4.356   1.846   6.001  1.4216  1.5366  0.4019
 4078SOL     OW23695   2.146   3.522  16.509 -0.5662  0.3297  0.3158
 4078SOL    HW123696   2.079   3.525  16.576  0.0124 -1.2082  0.9661
 4078SOL    HW223697   2.203   3.588  16.548 -0.2924  0.3505 -0.1162
 4079SOL     OW23698   3.225   0.078  11.782 -0.4738 -0.3603  0.6974
 4079SOL    HW123699   3.260   0.097  11.869  0.6822  0.8283 -0.0344
 4079SOL    HW223700   3.293   0.111  11.724 -1.7149 -0.3120 -0.7156
 4080SOL     OW23701   0.924   1.425  10.233  0.1300  1.0316  0.1081
 4080SOL    HW123702   0.841   1.471  10.231  1.3065  3.1919  0.6817
 4080SOL    HW223703   0.963   1.483  10.299  1.8375  0.4987 -0.4325
 4081SOL     OW23704   1.185   2.955   3.204  0.1804 -0.0431 -0.0464
 4081SOL    HW123705   1.170   2.868   3.167  1.6525 -0.9667  1.5690
 4081SOL    HW223706   1.272   2.933   3.237 -0.8209 -2.7194  0.7849
 4082SOL     OW23707   3.593   3.828  13.596 -0.0160  0.2906 -0.2505
 4082SOL    HW123708   3.562   3.909  13.637 -1.8823 -1.5905  2.0801
 4082SOL    HW223709   3.555   3.849  13.511  0.6366 -0.2897 -0.6875
 4083SOL     OW23710   1.890   1.990   4.279 -0.0749  0.3934  0.3159
 4083SOL    HW123711   1.817   1.941   4.317  0.2223 -0.3810 -0.1202
 4083SOL    HW223712   1.926   2.037   4.355  0.9319  1.7029 -0.9835
 4084SOL     OW23713   4.185   1.031   2.414  0.3908  0.2975 -0.4306
 4084SOL    HW123714   4.167   1.082   2.335 -0.0847 -0.9097 -1.1101
 4084SOL    HW223715   4.276   1.048   2.436  0.7040 -1.8606 -0.0770
 4085SOL     OW23716   0.534   2.991  13.433  0.2649  0.4048  0.2757
 4085SOL    HW123717   0.616   3.006  13.480  1.2013 -2.7732 -0.3456
 4085SOL    HW223718   0.477   2.960  13.504  1.5104  0.9328  1.5020
 4086SOL     OW23719   2.448   2.932  17.661 -0.2277  0.1542  0.0174
 4086SOL    HW123720   2.467   3.021  17.630  0.0531  0.1832  0.2730
 4086SOL    HW223721   2.360   2.940  17.698 -0.6066 -0.4378 -0.7771
 4087SOL     OW23722   0.674   2.677  15.567 -0.1600 -0.1380  0.9967
 4087SOL    HW123723   0.600   2.687  15.627 -2.2934  0.4550 -1.7623
 4087SOL    HW223724   0.640   2.616  15.501 -1.5846  1.0153  0.6841
 4088SOL     OW23725   3.574   0.697   2.391 -0.8067 -0.1789  0.4259
 4088SOL    HW123726   3.504   0.637   2.417 -1.2888  0.3701  0.3889
 4088SOL    HW223727   3.648   0.638   2.408  1.5810  2.6822 -0.1001
 4089SOL     OW23728   0.588   3.422   9.065  0.2615 -0.0738 -0.2416
 4089SOL    HW123729   0.501   3.434   9.025 -0.1698 -1.5851  0.2404
 4089SOL    HW223730   0.621   3.511   9.074  0.1777 -0.2362  1.5785
 4090SOL     OW23731   3.680   1.146  13.440  1.0892  0.1060  0.0298
 4090SOL    HW123732   3.611   1.197  13.482 -0.2555 -1.9123  0.2812
 4090SOL    HW223733   3.750   1.209  13.424  0.1165  0.5906 -2.2959
 4091SOL     OW23734   1.864   3.363   8.454 -0.0883 -0.6606  0.6738
 4091SOL    HW123735   1.951   3.376   8.417 -0.9926  0.4530 -1.0851
 4091SOL    HW223736   1.873   3.406   8.539 -1.7994  2.5600 -0.7611
 4092SOL     OW23737   2.264   0.374   8.598  0.1614 -0.3326 -0.3612
 4092SOL    HW123738   2.178   0.336   8.615  0.0483  0.5427  0.9837
 4092SOL    HW223739   2.308   0.300   8.554  1.4589 -0.6101  1.3868
 4093SOL     OW23740   2.800   1.264   6.216  0.4643 -0.7004  0.2285
 4093SOL    HW123741   2.792   1.360   6.214 -0.2072 -0.7990 -2.2567
 4093SOL    HW223742   2.826   1.249   6.125  0.7329  1.7301 -0.1006
 4094SOL     OW23743   0.890   3.947  15.841 -0.0961  0.0342 -0.0913
 4094SOL    HW123744   0.931   3.867  15.808  0.4406  0.2959 -0.0499
 4094SOL    HW223745   0.799   3.917  15.836 -0.0330 -0.2320  0.3595
 4095SOL     OW23746   2.368   2.899  12.447 -0.6142 -0.1735 -0.2605
 4095SOL    HW123747   2.380   2.804  12.456 -1.7377 -0.0278  2.6890
 4095SOL    HW223748   2.455   2.919  12.412 -0.6248 -0.4874 -0.4708
 4096SOL     OW23749   4.405   1.012   6.734  0.6076  0.2446  0.0408
 4096SOL    HW123750   4.378   0.961   6.658  1.7976  0.8355 -0.7795
 4096SOL    HW223751   4.354   1.093   6.729  0.8830  0.3763 -0.6753
 4097SOL     OW23752   1.195   0.763  11.672  0.1644  0.5290  0.6690
 4097SOL    HW123753   1.273   0.710  11.657 -0.1359 -0.2095  1.7528
 4097SOL    HW223754   1.181   0.748  11.765 -1.1921  1.0843  0.5540
 4098SOL     OW23755   3.007   0.235   2.653  0.4691 -0.2392  0.2723
 4098SOL    HW123756   2.948   0.288   2.600 -0.0799 -1.3834 -0.2584
 4098SOL    HW223757   2.990   0.146   2.622 -0.2734  0.3772 -1.0863
 4099SOL     OW23758   3.243   2.568   0.137  0.0366 -0.0838  0.0511
 4099SOL    HW123759   3.226   2.639   0.199 -1.3059 -0.2242 -0.1558
 4099SOL    HW223760   3.265   2.621   0.060 -2.0510 -0.4033 -0.7447
 4100SOL     OW23761   0.344   3.834   5.594  0.4639 -0.0016  0.7019
 4100SOL    HW123762   0.425   3.817   5.641  0.0173 -1.2620  1.0070
 4100SOL    HW223763   0.294   3.861   5.671  1.0889 -1.2178  1.5344
 4101SOL     OW23764   0.714   3.433   2.833  0.3469 -0.5534  0.3521
 4101SOL    HW123765   0.619   3.438   2.835  0.4047  0.2600  0.7702
 4101SOL    HW223766   0.718   3.338   2.843 -0.6011 -0.5862  0.3691
 4102SOL     OW23767   3.592   4.649   8.215  0.4124 -0.3301 -0.2357
 4102SOL    HW123768   3.687   4.652   8.208  0.3661  0.5907 -0.4718
 4102SOL    HW223769   3.576   4.711   8.144  2.1738  0.4099  0.0086
 4103SOL     OW23770   3.646   1.664   3.349  0.0517 -0.1597 -0.3893
 4103SOL    HW123771   3.610   1.580   3.378 -0.7282  0.5339  0.6322
 4103SOL    HW223772   3.719   1.623   3.303  1.0171 -0.2453  1.2069
 4104SOL     OW23773   0.416   0.992   1.537  0.1206 -0.1745  0.4387
 4104SOL    HW123774   0.454   0.922   1.484  0.0320 -0.8753  1.2982
 4104SOL    HW223775   0.323   0.978   1.522  0.2467 -0.5848  0.0198
 4105SOL     OW23776   3.988   2.863   2.560  0.0139  0.1517 -0.3125
 4105SOL    HW123777   3.902   2.822   2.557 -0.5642  1.3977 -0.6318
 4105SOL    HW223778   3.974   2.931   2.625  2.1535  1.7426 -1.5203
 4106SOL     OW23779   1.437   1.377   3.651  0.3804 -0.3229 -0.1840
 4106SOL    HW123780   1.466   1.379   3.560 -0.7272 -1.2922 -0.5526
 4106SOL    HW223781   1.365   1.317   3.635  0.0097  0.5047 -1.6530
 4107SOL     OW23782   2.739   3.297  14.011 -0.5614 -0.1910  0.0956
 4107SOL    HW123783   2.764   3.374  13.960  0.8656  0.5743  1.9781
 4107SOL    HW223784   2.802   3.292  14.082 -1.6507  0.1772  1.0931
 4108SOL     OW23785   2.067   1.058   8.610  0.1120  0.0514  0.5610
 4108SOL    HW123786   2.015   1.137   8.626  2.1737  1.5684 -0.2271
 4108SOL    HW223787   2.036   0.999   8.678 -0.0115 -1.6271 -0.9731
 4109SOL     OW23788   1.150   3.367  14.347  0.5724  0.3354 -0.0819
 4109SOL    HW123789   1.204   3.446  14.342 -2.5498  2.6386  2.4209
 4109SOL    HW223790   1.065   3.405  14.373 -0.3728  0.3164 -3.2025
 4110SOL     OW23791   0.062   4.459   9.163 -0.2869  0.3607  0.2385
 4110SOL    HW123792   0.104   4.517   9.099  0.2370 -0.6002 -0.2823
 4110SOL    HW223793   0.037   4.386   9.106  1.3225 -0.3590  0.4536
 4111SOL     OW23794   1.764   3.312  16.140  0.0023  0.0777 -0.2045
 4111SOL    HW123795   1.696   3.366  16.101  1.4186  0.4969 -2.0582
 4111SOL    HW223796   1.748   3.224  16.107  1.8480 -0.0373 -0.8010
 4112SOL     OW23797   1.809   0.708   4.602 -0.4525 -0.0153 -0.0823
 4112SOL    HW123798   1.810   0.620   4.566 -0.2741 -0.6658  1.5181
 4112SOL    HW223799   1.764   0.753   4.530 -0.8184  1.0218  0.7920
 4113SOL     OW23800   2.326   0.823  15.330 -0.1900 -0.0605  0.0231
 4113SOL    HW123801   2.389   0.837  15.400  0.0761 -3.0767  0.3629
 4113SOL    HW223802   2.390   0.821  15.258  1.6018  0.9747  1.5983
 4114SOL     OW23803   3.258   1.335   7.178  0.1405 -0.5474  0.1452
 4114SOL    HW123804   3.298   1.367   7.097  0.0262  0.2120  0.3883
 4114SOL    HW223805   3.231   1.245   7.160 -1.0538 -0.3398  0.9079
 4115SOL     OW23806   3.231   4.274   6.081  0.4215  0.1550 -0.0263
 4115SOL    HW123807   3.203   4.264   6.172 -1.2412 -2.3166 -0.8456
 4115SOL    HW223808   3.322   4.301   6.096  0.3790  0.3526 -0.1227
 4116SOL     OW23809   4.066   3.704  11.068 -0.4633  0.0798 -0.4747
 4116SOL    HW123810   4.000   3.638  11.050 -2.1230  1.4200  0.6327
 4116SOL    HW223811   4.123   3.711  10.991  0.0972  3.9113  0.2768
 4117SOL     OW23812   1.228   1.797  13.965 -0.0763 -1.0842  0.3238
 4117SOL    HW123813   1.148   1.802  13.912  0.6187 -0.6877 -0.6954
 4117SOL    HW223814   1.191   1.748  14.038 -1.7302  0.8162  0.7711
 4118SOL     OW23815   4.079   2.691   8.232 -0.6806  0.0924 -0.1727
 4118SOL    HW123816   3.986   2.704   8.248 -1.0119  0.5310 -2.5239
 4118SOL    HW223817   4.076   2.596   8.224  0.7160  0.1103 -0.9969
 4119SOL     OW23818   4.609   2.968   6.343 -0.3907  0.1236  0.2765
 4119SOL    HW123819   4.640   2.966   6.253  1.9993 -0.2958  1.1004
 4119SOL    HW223820   4.675   2.921   6.394  1.6438  0.8552 -1.7106
 4120SOL     OW23821   2.987   2.500  16.153 -0.6528  0.3510  0.1856
 4120SOL    HW123822   3.041   2.429  16.119 -0.1550  0.9695 -0.3232
 4120SOL    HW223823   2.927   2.521  16.082 -1.3020 -2.0532  0.0296
 4121SOL     OW23824   3.950   2.170  15.786 -0.8532 -0.8705 -0.6264
 4121SOL    HW123825   3.892   2.228  15.835 -0.2826 -0.8653  0.0481
 4121SOL    HW223826   3.938   2.207  15.699 -0.3632  1.0727  0.1394
 4122SOL     OW23827   2.030   2.092   3.896 -0.5289 -0.4273  0.0505
 4122SOL    HW123828   1.995   2.181   3.894 -1.1749 -0.7380 -2.2184
 4122SOL    HW223829   1.950   2.039   3.905 -1.3522  1.0149  1.3387
 4123SOL     OW23830   2.411   2.465  15.158 -0.6224  1.4583 -0.2984
 4123SOL    HW123831   2.423   2.409  15.081 -2.8888 -1.0420  1.1492
 4123SOL    HW223832   2.369   2.411  15.225  2.8081 -1.1729 -0.2772
 4124SOL     OW23833   4.626   3.314  17.434  0.2647 -0.4435  0.3581
 4124SOL    HW123834   4.600   3.224  17.414 -3.3076  0.4873  0.7906
 4124SOL    HW223835   4.630   3.363  17.352  0.7842  0.5727  0.9847
 4125SOL     OW23836   1.952   3.095   7.739  0.3987 -0.1375 -0.6818
 4125SOL    HW123837   1.933   3.177   7.785  1.0046 -1.3385  1.7130
 4125SOL    HW223838   1.910   3.117   7.656 -0.0533  1.7733  0.0577
 4126SOL     OW23839   4.723   2.644   7.197 -0.3964  0.0744  0.5986
 4126SOL    HW123840   0.040   2.663   7.114  0.3379  0.0420  0.9773
 4126SOL    HW223841   4.645   2.700   7.202 -0.1551  0.4121  0.5349
 4127SOL     OW23842   1.020   2.693  17.099  0.3671 -0.4827 -0.0818
 4127SOL    HW123843   1.047   2.690  17.008 -0.7443  0.1576 -0.4354
 4127SOL    HW223844   0.973   2.609  17.103 -0.0007 -0.1555  2.5605
 4128SOL     OW23845   4.576   4.479   4.716  0.4957  0.2244 -0.0834
 4128SOL    HW123846   4.607   4.478   4.625 -0.3549  0.6222 -0.3805
 4128SOL    HW223847   4.490   4.439   4.699  1.9903 -2.4502 -1.2646
 4129SOL     OW23848   3.615   3.928   3.628 -0.2407  0.0809  0.1703
 4129SOL    HW123849   3.675   3.903   3.557  1.0991  0.6594  1.0957
 4129SOL    HW223850   3.667   3.990   3.680  1.6830  0.7097 -2.4968
 4130SOL     OW23851   2.262   3.726   1.327 -0.2125  0.0959 -0.0230
 4130SOL    HW123852   2.322   3.781   1.378  0.4583 -0.6497  0.0042
 4130SOL    HW223853   2.324   3.690   1.263 -1.1102 -0.1892 -0.7278
 4131SOL     OW23854   2.122   1.323   4.312 -1.0803  0.1809 -0.0934
 4131SOL    HW123855   2.174   1.394   4.274  1.4830 -1.1694  0.8247
 4131SOL    HW223856   2.190   1.255   4.310 -3.8342 -2.5574  0.3108
 4132SOL     OW23857   0.818   0.719   7.424 -0.1269 -0.1259  0.0850
 4132SOL    HW123858   0.771   0.789   7.379  0.2541 -1.3291 -2.1836
 4132SOL    HW223859   0.754   0.696   7.492 -0.1335  3.0292  1.1202
 4133SOL     OW23860   1.591   0.309  13.817 -0.1145 -0.0582 -0.2590
 4133SOL    HW123861   1.590   0.214  13.828 -1.5044 -0.0792 -0.6121
 4133SOL    HW223862   1.563   0.324  13.727  1.2569  1.0786 -0.4920
 4134SOL     OW23863   3.363   1.221   6.726 -0.4059 -0.1483 -0.2723
 4134SOL    HW123864   3.272   1.210   6.701 -0.5100  1.5131 -0.5897
 4134SOL    HW223865   3.405   1.143   6.690  0.0770  1.9251 -4.2158
 4135SOL     OW23866   3.350   0.307  14.955  0.5242  0.0280  0.4061
 4135SOL    HW123867   3.393   0.288  15.038  1.0435  2.5560  0.7183
 4135SOL    HW223868   3.291   0.234  14.933  0.7400  0.5706 -2.0124
 4136SOL     OW23869   3.509   2.034   8.661  0.0971 -0.1391  0.1360
 4136SOL    HW123870   3.597   2.005   8.683 -0.5049  0.0269  2.8304
 4136SOL    HW223871   3.490   2.101   8.727 -0.3213  2.1702 -2.3468
 4137SOL     OW23872   2.467   2.628   5.913  0.0372 -0.1929  0.2766
 4137SOL    HW123873   2.563   2.625   5.922  0.2347  2.7707 -1.1456
 4137SOL    HW223874   2.453   2.696   5.978 -1.5073 -0.6712  0.4293
 4138SOL     OW23875   0.443   2.475   5.947 -0.1505 -0.8069  0.1626
 4138SOL    HW123876   0.386   2.435   5.882 -0.6298  1.5771 -0.8793
 4138SOL    HW223877   0.441   2.567   5.920  1.3464 -0.3960  1.4314
 4139SOL     OW23878   0.323   2.579   1.023 -0.8624 -0.2407  0.6762
 4139SOL    HW123879   0.327   2.628   0.940  1.6190  0.3112  1.1274
 4139SOL    HW223880   0.307   2.493   0.985 -0.4098  0.3502 -0.8748
 4140SOL     OW23881   3.436   4.351   4.389 -0.2011  0.2861 -0.1608
 4140SOL    HW123882   3.449   4.442   4.362  0.0516  0.0161 -0.9684
 4140SOL    HW223883   3.459   4.311   4.305 -1.0603 -0.5380  0.0001
 4141SOL     OW23884   4.518   0.261   8.905 -0.2769 -0.2358 -0.0094
 4141SOL    HW123885   4.428   0.229   8.894  0.1118 -1.2453 -0.1952
 4141SOL    HW223886   4.529   0.223   8.993  2.1476 -0.4667 -0.4277
 4142SOL     OW23887   0.924   2.083  16.349 -0.4650  0.3259  0.1334
 4142SOL    HW123888   0.905   1.993  16.376  0.3982  0.4518  1.1630
 4142SOL    HW223889   0.950   2.067  16.258 -0.9993 -0.7933  0.1744
 4143SOL     OW23890   0.776   2.423   6.494 -0.4207 -0.2377  0.0888
 4143SOL    HW123891   0.810   2.337   6.470  1.7686  1.1155 -1.7541
 4143SOL    HW223892   0.707   2.395   6.553 -0.5868  0.5348  0.2657
 4144SOL     OW23893   3.187   0.039   5.331 -0.3389  0.4205 -0.1899
 4144SOL    HW123894   3.241   0.005   5.260 -0.6312  1.1271 -0.7509
 4144SOL    HW223895   3.098   0.024   5.301 -0.5975 -0.9907  1.3261
 4145SOL     OW23896   3.313   4.114   6.481  0.3737 -0.1742 -0.0377
 4145SOL    HW123897   3.236   4.159   6.447  0.1043  2.0629  3.5413
 4145SOL    HW223898   3.361   4.089   6.402  1.8211  0.3020  0.6827
 4146SOL     OW23899   1.422   0.098   2.225 -0.4137  0.0360  0.4894
 4146SOL    HW123900   1.508   0.095   2.184 -1.3514  0.7263 -1.5120
 4146SOL    HW223901   1.362   0.067   2.158  2.2822 -1.3047 -1.3064
 4147SOL     OW23902   3.887   2.706   2.978 -0.0645  0.5492 -0.2797
 4147SOL    HW123903   3.904   2.676   3.067  0.9596  0.3613 -0.5377
 4147SOL    HW223904   3.935   2.789   2.976  1.3072 -0.2432 -0.4959
 4148SOL     OW23905   4.687   2.553   2.434 -0.2259  0.0153  0.6323
 4148SOL    HW123906   4.656   2.588   2.351 -2.1500  1.3849  1.9536
 4148SOL    HW223907   0.045   2.594   2.455 -0.5292  0.1654  1.5710
 4149SOL     OW23908   3.719   3.889   7.152  0.5184 -0.4524  0.1393
 4149SOL    HW123909   3.735   3.813   7.207  0.7212 -0.4959  0.0205
 4149SOL    HW223910   3.651   3.852   7.096  2.4381 -3.0007 -0.4674
 4150SOL     OW23911   4.139   2.883   6.329 -0.2279  0.0406 -0.4377
 4150SOL    HW123912   4.207   2.889   6.396 -0.6729 -2.9035  0.2950
 4150SOL    HW223913   4.151   2.958   6.271 -1.0146  2.1188  2.0548
 4151SOL     OW23914   0.199   1.766   7.001  0.3797  0.0012 -0.4345
 4151SOL    HW123915   0.181   1.674   6.984 -1.9937  0.5006 -0.6855
 4151SOL    HW223916   0.262   1.758   7.073  1.7369  3.7183 -1.2110
 4152SOL     OW23917   3.612   1.219   0.723  0.2200 -0.1247 -0.3503
 4152SOL    HW123918   3.618   1.162   0.799 -2.2320  0.0844 -0.0001
 4152SOL    HW223919   3.518   1.210   0.707  0.6511 -1.3042 -2.1842
 4153SOL     OW23920   0.807   1.836   7.428 -0.2410  0.4844 -0.1215
 4153SOL    HW123921   0.837   1.877   7.510 -1.0165  0.8496 -0.0197
 4153SOL    HW223922   0.731   1.783   7.455  0.8545 -0.5522  0.9354
 4154SOL     OW23923   3.594   1.011  12.528 -1.1633  0.1208 -0.5532
 4154SOL    HW123924   3.626   0.982  12.443 -0.2436 -0.2891 -0.0670
 4154SOL    HW223925   3.546   1.089  12.498  0.8648  2.3373  1.9331
 4155SOL     OW23926   4.303   4.004   1.222 -0.7680 -0.1113  0.2801
 4155SOL    HW123927   4.253   3.923   1.212 -0.0418 -0.4453 -0.6310
 4155SOL    HW223928   4.241   4.069   1.189  1.0014  2.0261  1.1538
 4156SOL     OW23929   2.601   2.715  10.736  0.3172 -0.2435  0.4721
 4156SOL    HW123930   2.539   2.721  10.663 -2.7632 -1.5721  2.9683
 4156SOL    HW223931   2.661   2.788  10.718  1.6054 -2.0770 -2.7224
 4157SOL     OW23932   3.514   3.103   1.513 -0.4880 -0.1281  0.0203
 4157SOL    HW123933   3.425   3.075   1.491  0.5200 -1.0059 -2.9546
 4157SOL    HW223934   3.502   3.191   1.549  2.6453  0.6140 -0.7814
 4158SOL     OW23935   3.044   3.368   4.624 -0.1227  0.3325  0.3956
 4158SOL    HW123936   3.076   3.312   4.695  0.4564 -0.4469 -0.4689
 4158SOL    HW223937   3.024   3.301   4.558  1.3354 -0.3640  0.6524
 4159SOL     OW23938   2.233   4.058  11.752  0.0630 -0.2121 -0.3682
 4159SOL    HW123939   2.294   3.990  11.722  0.8845 -0.0053  0.8165
 4159SOL    HW223940   2.276   4.132  11.708 -1.7003 -1.0756 -3.5490
 4160SOL     OW23941   3.617   2.788   2.918  0.4181 -0.5288 -0.4178
 4160SOL    HW123942   3.713   2.783   2.925  0.3550 -0.7913  0.1860
 4160SOL    HW223943   3.605   2.696   2.939 -0.5792 -0.2974  0.0178
 4161SOL     OW23944   1.474   1.492   2.640 -0.0152 -0.6462  0.0626
 4161SOL    HW123945   1.543   1.475   2.576  1.0982  0.3848  0.9702
 4161SOL    HW223946   1.425   1.411   2.635 -0.7921 -0.3154  2.3852
 4162SOL     OW23947   1.907   3.426  15.602  0.2805  0.2361  0.1946
 4162SOL    HW123948   1.975   3.385  15.655 -0.6862 -1.2880  0.2651
 4162SOL    HW223949   1.947   3.411  15.516  1.4974 -1.7222  1.0934
 4163SOL     OW23950   3.351   3.183  13.933  0.4202 -0.8496  0.0878
 4163SOL    HW123951   3.313   3.216  14.014  1.3178 -2.4049  1.1394
 4163SOL    HW223952   3.398   3.262  13.904 -0.0141 -0.2377  1.0551
 4164SOL     OW23953   1.733   3.433   7.634 -0.2984 -0.0322  0.1637
 4164SOL    HW123954   1.759   3.478   7.554 -0.9253  1.4951  0.8303
 4164SOL    HW223955   1.751   3.342   7.608 -0.6833  0.1083 -0.6069
 4165SOL     OW23956   4.244   1.971   6.061  0.2035  0.1150 -0.0195
 4165SOL    HW123957   4.193   2.025   6.001 -0.2746 -1.2798 -0.8499
 4165SOL    HW223958   4.265   2.033   6.131  1.1988 -0.8091  0.4912
 4166SOL     OW23959   2.910   2.249   3.907  0.5343 -0.3029  0.2163
 4166SOL    HW123960   2.898   2.278   3.997  0.2656  1.5430 -0.4074
 4166SOL    HW223961   2.936   2.331   3.863 -1.2795 -0.2293 -0.7085
 4167SOL     OW23962   4.523   4.188   7.826 -0.6541  0.0426  0.3187
 4167SOL    HW123963   4.501   4.127   7.756 -1.1924 -0.3666  0.8536
 4167SOL    HW223964   4.442   4.192   7.877 -1.1475 -2.9694 -0.2572
 4168SOL     OW23965   1.628   2.774   3.840  0.7851 -0.2875  0.0063
 4168SOL    HW123966   1.682   2.759   3.918  1.8954  0.2240 -0.6645
 4168SOL    HW223967   1.608   2.681   3.829  0.2348 -0.2894  1.0507
 4169SOL     OW23968   1.270   0.076   5.972  0.2296  0.0794 -0.4548
 4169SOL    HW123969   1.308   4.721   5.943  1.4030  0.9676 -1.3889
 4169SOL    HW223970   1.311   0.106   6.053 -0.5176 -2.0027  0.6999
 4170SOL     OW23971   3.491   3.862   2.722 -0.9438 -0.0683 -0.7360
 4170SOL    HW123972   3.477   3.957   2.723  0.6605  0.1582 -0.5806
 4170SOL    HW223973   3.585   3.854   2.733 -1.1563 -2.6604 -0.7059
 4171SOL     OW23974   2.564   1.711  13.226 -0.1166 -0.2581 -0.2083
 4171SOL    HW123975   2.486   1.657  13.215  1.2724 -2.3734  0.3507
 4171SOL    HW223976   2.637   1.657  13.196  0.8934  1.3947 -0.7518
 4172SOL     OW23977   0.058   3.520   5.988  0.4154  0.0973 -0.6639
 4172SOL    HW123978   0.072   3.611   6.012 -1.7800  0.6246 -1.3516
 4172SOL    HW223979   0.146   3.485   6.005 -0.4048 -0.9738  1.3533
 4173SOL     OW23980   0.011   0.375   0.372 -0.5378 -0.2715 -0.1071
 4173SOL    HW123981   4.716   0.389   0.464 -1.5320  0.5584 -0.4534
 4173SOL    HW223982   0.105   0.389   0.369 -0.2203 -2.3872 -0.5245
 4174SOL     OW23983   2.617   2.745  12.639  0.1981 -0.8718  0.0630
 4174SOL    HW123984   2.531   2.754  12.680  0.1788 -1.2410  0.0961
 4174SOL    HW223985   2.683   2.750  12.708  1.0618  0.1398 -0.8126
 4175SOL     OW23986   4.407   2.308   6.880 -0.2365 -0.3469  0.3614
 4175SOL    HW123987   4.463   2.272   6.949  1.5278 -0.0617 -0.9071
 4175SOL    HW223988   4.419   2.398   6.912  2.5000 -0.7776  0.5588
 4176SOL     OW23989   2.026   2.549   2.846 -0.2848  0.5787  0.2542
 4176SOL    HW123990   1.934   2.574   2.834 -1.0488 -2.2683  0.1985
 4176SOL    HW223991   2.040   2.489   2.773  1.7760 -0.1163  1.2355
 4177SOL     OW23992   1.964   2.890  13.315  0.0688 -0.1357  0.0322
 4177SOL    HW123993   1.902   2.906  13.243  0.8625  0.5073 -0.5056
 4177SOL    HW223994   2.047   2.885  13.267  0.6670  0.0955  1.0430
 4178SOL     OW23995   3.619   0.989   6.534 -0.4836  0.7171  0.2459
 4178SOL    HW123996   3.708   0.953   6.532 -1.2724 -1.1823 -1.2903
 4178SOL    HW223997   3.641   1.082   6.530 -2.1089  1.1159  0.3817
 4179SOL     OW23998   1.587   1.539   6.279 -0.0871 -0.2200  0.1994
 4179SOL    HW123999   1.626   1.453   6.295 -0.4831 -0.4750 -0.1996
 4179SOL    HW224000   1.511   1.540   6.337  0.8353  1.2394  1.3853
 4180SOL     OW24001   1.837   2.863   4.929  0.2660 -0.0856 -0.2676
 4180SOL    HW124002   1.774   2.801   4.966  0.9406 -0.7919 -0.3174
 4180SOL    HW224003   1.791   2.886   4.848  0.4064 -1.2420 -0.6720
 4181SOL     OW24004   2.419   1.986  10.212 -0.0735  0.8842  0.1232
 4181SOL    HW124005   2.500   1.948  10.179  0.1544  0.6707  0.9144
 4181SOL    HW224006   2.357   1.936  10.159 -0.8288  3.1733 -1.1025
 4182SOL     OW24007   1.697   0.779   9.437  0.8226 -0.3438  0.4356
 4182SOL    HW124008   1.670   0.864   9.472 -0.5622 -0.8184  0.5365
 4182SOL    HW224009   1.790   0.774   9.459  0.4430 -2.0804  1.6623
 4183SOL     OW24010   1.792   0.589  14.712 -0.0923 -0.2166 -0.2381
 4183SOL    HW124011   1.819   0.497  14.705  0.3132 -0.1124 -0.0886
 4183SOL    HW224012   1.729   0.595  14.640  1.2431  0.0774 -1.3815
 4184SOL     OW24013   3.960   3.859   8.482 -0.6497 -0.2826 -0.1103
 4184SOL    HW124014   3.963   3.768   8.454 -0.8202 -0.1082 -0.6940
 4184SOL    HW224015   3.972   3.843   8.575  1.4043 -0.9605 -0.4986
 4185SOL     OW24016   2.539   2.670  13.890  0.2626  0.3115 -0.7678
 4185SOL    HW124017   2.508   2.708  13.808 -1.0312  1.7567  0.3602
 4185SOL    HW224018   2.606   2.611  13.856  0.5585 -0.1552  0.6016
 4186SOL     OW24019   1.972   4.270   8.205  0.0249 -0.3668 -0.4599
 4186SOL    HW124020   1.937   4.218   8.277  1.3035  1.2326  1.3408
 4186SOL    HW224021   1.965   4.357   8.245  1.7121 -1.0502  1.3315
 4187SOL     OW24022   2.704   3.329   1.708  0.0012  0.1823 -0.8095
 4187SOL    HW124023   2.780   3.276   1.683 -0.0335 -0.7386  1.0591
 4187SOL    HW224024   2.756   3.407   1.728  2.1750 -1.7529  1.0718
 4188SOL     OW24025   1.455   2.182   4.475 -0.0368 -0.9169 -0.0115
 4188SOL    HW124026   1.479   2.241   4.404  0.1067 -0.3037  0.5344
 4188SOL    HW224027   1.517   2.215   4.540  0.4200 -1.5821 -0.1221
 4189SOL     OW24028   2.039   3.076   1.172 -0.1840  0.3150 -0.9959
 4189SOL    HW124029   1.966   3.015   1.174  0.4092 -0.3983 -0.9477
 4189SOL    HW224030   2.086   3.027   1.105  0.4757 -0.8288  0.3082
 4190SOL     OW24031   2.774   2.053   2.651  0.1219 -0.1751  0.3829
 4190SOL    HW124032   2.864   2.020   2.643  0.8435  2.2813 -1.6172
 4190SOL    HW224033   2.781   2.075   2.743 -0.1331  0.7492  0.1756
 4191SOL     OW24034   4.269   3.558   8.486  0.3915 -0.0749 -0.8791
 4191SOL    HW124035   4.232   3.544   8.574 -2.2907  0.6206 -1.9029
 4191SOL    HW224036   4.197   3.606   8.443 -0.1156 -0.9481 -1.0007
 4192SOL     OW24037   2.635   0.084   8.418  0.3924  0.1749  0.3679
 4192SOL    HW124038   2.663   0.156   8.361  0.3147  0.5853  0.8461
 4192SOL    HW224039   2.672   0.121   8.499 -0.0033 -0.9321  1.0628
 4193SOL     OW24040   1.124   1.095  14.009  0.5682  0.6871 -0.3548
 4193SOL    HW124041   1.154   1.009  14.040  0.7571 -0.0403 -2.5833
 4193SOL    HW224042   1.177   1.104  13.930 -0.4517  1.4891 -0.9405
 4194SOL     OW24043   2.321   4.643   7.438 -0.0182  0.5017  0.2277
 4194SOL    HW124044   2.364   4.709   7.492 -1.7274  1.2770  0.6426
 4194SOL    HW224045   2.359   4.567   7.483 -2.4807 -0.1295  1.2170
 4195SOL     OW24046   1.716   3.452   1.854  0.1301 -0.6198  0.0263
 4195SOL    HW124047   1.708   3.435   1.760  0.5319  0.1518 -0.1529
 4195SOL    HW224048   1.748   3.543   1.855 -1.1842 -0.1550  0.0075
 4196SOL     OW24049   2.849   2.030   4.668  0.0698 -0.3838  0.3934
 4196SOL    HW124050   2.764   1.987   4.664 -0.0485 -0.1422  0.2730
 4196SOL    HW224051   2.846   2.083   4.748 -1.6493 -1.1286  0.8146
 4197SOL     OW24052   2.953   4.683  11.808  0.3537 -0.0213 -0.4413
 4197SOL    HW124053   3.023   4.646  11.863  0.2633  1.6910  0.8350
 4197SOL    HW224054   2.912   4.602  11.778  0.8006 -0.2152 -0.5308
 4198SOL     OW24055   3.063   0.369   4.533 -0.3302 -0.3488  0.0503
 4198SOL    HW124056   3.101   0.384   4.447 -1.8432 -0.5475 -0.6579
 4198SOL    HW224057   3.013   0.446   4.561  1.3165  0.7478 -0.0587
 4199SOL     OW24058   0.226   1.624  16.231 -0.4051 -0.2831  0.1240
 4199SOL    HW124059   0.278   1.618  16.151 -0.9990 -0.6362 -0.2353
 4199SOL    HW224060   0.228   1.714  16.264  1.6907  0.4058 -1.8836
 4200SOL     OW24061   1.534   3.508  13.445 -0.3337  0.4610 -0.0083
 4200SOL    HW124062   1.560   3.417  13.435  1.0328  0.9474 -0.9726
 4200SOL    HW224063   1.455   3.496  13.498  0.5668  1.5391  1.5868
 4201SOL     OW24064   2.196   0.909   4.791 -0.8326  0.3449  0.5508
 4201SOL    HW124065   2.126   0.918   4.725 -0.2538  2.2298  0.1678
 4201SOL    HW224066   2.235   0.997   4.789 -1.0470  0.3924 -1.5520
 4202SOL     OW24067   2.071   3.515   2.948  0.0767  0.6822 -0.3128
 4202SOL    HW124068   2.096   3.423   2.950  2.0716  1.2230 -1.0807
 4202SOL    HW224069   1.981   3.499   2.918  0.1343  1.1674 -0.7489
 4203SOL     OW24070   2.575   3.833   0.984  0.0840  0.7425  0.3510
 4203SOL    HW124071   2.482   3.817   0.999 -0.5812  2.5940 -1.6618
 4203SOL    HW224072   2.596   3.773   0.913  1.0982 -1.2853  2.3670
 4204SOL     OW24073   2.257   3.425   0.331 -0.2781 -0.3130  0.1843
 4204SOL    HW124074   2.191   3.436   0.400  0.4039  1.0695  0.6227
 4204SOL    HW224075   2.279   3.516   0.313  2.7535 -0.9802  0.4074
 4205SOL     OW24076   3.233   3.523   0.343 -0.1100 -0.1384 -0.3648
 4205SOL    HW124077   3.274   3.580   0.409 -0.2218  2.2866 -2.4140
 4205SOL    HW224078   3.183   3.467   0.402  0.6147 -0.5096 -0.0998
 4206SOL     OW24079   1.311   2.857   0.878 -0.2979 -0.3819  0.0095
 4206SOL    HW124080   1.309   2.952   0.862  2.0489 -0.6456 -1.7929
 4206SOL    HW224081   1.283   2.829   0.791  0.1775 -1.3313  0.1651
 4207SOL     OW24082   2.571   2.716   4.457  0.3689 -0.6955  0.5591
 4207SOL    HW124083   2.596   2.763   4.537  1.2634  1.2617 -0.8673
 4207SOL    HW224084   2.488   2.677   4.485  1.0633 -0.3527  3.0952
 4208SOL     OW24085   3.478   0.082   5.466  0.3964 -0.2610 -0.3051
 4208SOL    HW124086   3.444   0.086   5.556  0.7475 -0.5634 -0.1593
 4208SOL    HW224087   3.472   4.713   5.463 -0.4827 -0.2320  0.6705
 4209SOL     OW24088   3.007   3.392  12.543  1.2577  0.3286 -0.1527
 4209SOL    HW124089   2.938   3.444  12.502 -0.1957 -1.7657 -0.3492
 4209SOL    HW224090   3.003   3.416  12.636  3.4051 -0.0589  0.0426
 4210SOL     OW24091   3.753   4.194   2.557 -0.3334  0.2012 -0.8905
 4210SOL    HW124092   3.844   4.197   2.585 -0.7898 -1.5067  0.8404
 4210SOL    HW224093   3.759   4.119   2.498  0.7182 -2.0034  2.0059
 4211SOL     OW24094   1.404   2.150   9.100  0.9178  0.2596 -0.3799
 4211SOL    HW124095   1.367   2.083   9.158 -0.8074  3.4628  2.2169
 4211SOL    HW224096   1.377   2.117   9.015 -1.0610 -2.3589  1.2658
 4212SOL     OW24097   3.336   3.872   7.051 -0.8319 -0.4974 -0.8183
 4212SOL    HW124098   3.347   3.840   7.140  1.1179  2.2230 -0.0609
 4212SOL    HW224099   3.420   3.861   7.005 -0.8297 -0.7844 -0.7460
 4213SOL     OW24100   3.208   2.768   8.497  0.0838 -0.2975 -0.1948
 4213SOL    HW124101   3.125   2.812   8.477  0.7987  1.3147  0.3659
 4213SOL    HW224102   3.230   2.723   8.416 -0.4680  1.8264 -1.5304
 4214SOL     OW24103   4.342   1.574   4.532  0.0329 -0.3012  0.3109
 4214SOL    HW124104   4.313   1.542   4.617  0.5756 -0.2066  0.5311
 4214SOL    HW224105   4.278   1.644   4.520  1.4869  1.6706  3.9982
 4215SOL     OW24106   0.977   3.497   6.067 -0.7266 -0.0029 -0.0104
 4215SOL    HW124107   0.984   3.409   6.104  3.0718  0.0809 -0.4810
 4215SOL    HW224108   1.026   3.502   5.985 -0.0233 -1.7797  0.3094
 4216SOL     OW24109   3.416   2.682   7.569  0.0947  0.0690 -0.1456
 4216SOL    HW124110   3.419   2.627   7.490 -2.1157 -0.3193  0.0213
 4216SOL    HW224111   3.322   2.699   7.567  0.2060  0.5505 -1.5134
 4217SOL     OW24112   2.312   1.085  14.975  0.1079  0.0926  0.4925
 4217SOL    HW124113   2.331   1.179  14.976  0.3495  0.0317  3.8454
 4217SOL    HW224114   2.393   1.052  14.936  0.6611  0.1633  1.5850
 4218SOL     OW24115   4.207   3.839   9.271 -0.0984  0.4484 -0.0335
 4218SOL    HW124116   4.197   3.759   9.220 -1.9427 -0.5954  1.9719
 4218SOL    HW224117   4.302   3.843   9.282 -0.0907  2.0866 -0.6852
 4219SOL     OW24118   2.936   2.390   2.056  0.1721  0.1747 -0.9143
 4219SOL    HW124119   2.877   2.402   1.981 -1.4687 -2.8439 -0.1068
 4219SOL    HW224120   2.907   2.308   2.097  1.0526  0.5495  0.4425
 4220SOL     OW24121   1.905   0.018  12.713  0.0929 -0.1885  0.0671
 4220SOL    HW124122   1.867   0.045  12.796  0.9371 -1.1219  0.7566
 4220SOL    HW224123   1.957   4.667  12.736 -0.8741 -1.3943 -1.8393
 4221SOL     OW24124   3.438   2.004   4.412  0.1181  0.1063 -0.4077
 4221SOL    HW124125   3.394   1.982   4.330  3.1340 -2.2608 -1.3732
 4221SOL    HW224126   3.392   1.956   4.481  2.1174 -1.1680  0.0312
 4222SOL     OW24127   0.987   3.002   8.298  0.6622  0.5792  0.0743
 4222SOL    HW124128   0.900   2.993   8.259  0.0293  3.1905  0.9036
 4222SOL    HW224129   1.034   2.955   8.229 -0.9755 -0.3279 -0.4163
 4223SOL     OW24130   1.586   3.706   8.146  0.2594 -0.1081 -0.1257
 4223SOL    HW124131   1.677   3.696   8.119  0.7726  0.8992  1.2178
 4223SOL    HW224132   1.543   3.742   8.068  1.3813  0.7444 -0.3451
 4224SOL     OW24133   1.993   3.008   0.532  0.1627  0.2614 -0.1588
 4224SOL    HW124134   1.918   3.061   0.504  0.5536  0.6401 -0.4909
 4224SOL    HW224135   2.027   3.057   0.607  0.5431  0.5262 -0.5069
 4225SOL     OW24136   1.792   2.159   6.910 -0.9082 -0.6950 -0.4641
 4225SOL    HW124137   1.857   2.219   6.872 -0.1284 -0.6371  0.9451
 4225SOL    HW224138   1.738   2.136   6.835 -1.5601 -1.3323  0.2005
 4226SOL     OW24139   0.466   0.434   3.306  0.3997 -0.4760 -0.5993
 4226SOL    HW124140   0.539   0.377   3.281  0.5826 -1.7011  2.8035
 4226SOL    HW224141   0.404   0.364   3.324  2.4320 -1.8108  1.1852
 4227SOL     OW24142   0.675   4.030   2.973 -0.3217 -0.2627 -0.3540
 4227SOL    HW124143   0.704   4.117   2.947  0.5503 -0.1833  0.8883
 4227SOL    HW224144   0.726   3.984   2.906  0.5526  0.4547 -0.1726
 4228SOL     OW24145   2.448   3.667   8.338  0.1215 -0.4265  0.3363
 4228SOL    HW124146   2.413   3.712   8.261  1.3971 -0.1255 -0.0667
 4228SOL    HW224147   2.531   3.628   8.309  0.6626  1.7048 -0.9774
 4229SOL     OW24148   4.498   1.982   2.813 -0.5376  0.1241 -0.2497
 4229SOL    HW124149   4.522   2.017   2.727  0.1551 -1.1123 -0.5452
 4229SOL    HW224150   4.425   2.036   2.845 -1.8978 -0.2605 -2.7676
 4230SOL     OW24151   0.456   1.073   3.370  0.4930  0.3149  0.1188
 4230SOL    HW124152   0.470   1.025   3.289 -0.6278 -0.8810  0.6531
 4230SOL    HW224153   0.549   1.076   3.395  0.8708 -1.0127 -1.1550
 4231SOL     OW24154   3.765   3.948   7.712  0.3414 -0.4181  0.5434
 4231SOL    HW124155   3.758   3.931   7.618 -2.8217  1.2326  0.5033
 4231SOL    HW224156   3.743   4.041   7.706 -1.8568 -0.8036  2.8793
 4232SOL     OW24157   2.745   2.299   6.675 -0.3565 -0.0171 -0.5994
 4232SOL    HW124158   2.652   2.302   6.701 -0.6484  2.5980 -1.9680
 4232SOL    HW224159   2.772   2.382   6.714 -0.7197  0.9180 -2.3338
 4233SOL     OW24160   1.070   1.070  12.279 -0.3260  0.2138 -0.0464
 4233SOL    HW124161   1.032   1.084  12.192 -2.1687 -0.9365  0.5842
 4233SOL    HW224162   1.039   1.143  12.331 -0.2688  0.2869 -0.1146
 4234SOL     OW24163   4.301   3.045   9.136 -0.1975 -0.2475 -0.5327
 4234SOL    HW124164   4.313   3.023   9.043 -2.0012 -0.9446 -0.6128
 4234SOL    HW224165   4.247   2.968   9.156  1.3365 -1.4618 -1.0182
 4235SOL     OW24166   1.735   3.294  10.101 -0.8206 -0.0021 -0.5575
 4235SOL    HW124167   1.743   3.388  10.083  1.9107 -0.5923 -2.3742
 4235SOL    HW224168   1.659   3.279  10.045 -1.9231 -1.3998  1.3223
 4236SOL     OW24169   0.359   2.545  11.556  0.2551  0.1274 -0.3086
 4236SOL    HW124170   0.376   2.524  11.648  1.4355 -1.5577 -0.9172
 4236SOL    HW224171   0.396   2.634  11.561 -2.0113  0.9640  1.7833
 4237SOL     OW24172   0.392   0.323  12.815  0.2419  0.4587 -0.1276
 4237SOL    HW124173   0.301   0.300  12.834  1.0944 -1.7129  1.2081
 4237SOL    HW224174   0.387   0.407  12.860  2.7141  1.3084 -1.3982
 4238SOL     OW24175   2.700   4.059   7.235 -0.2709  0.0292 -0.1328
 4238SOL    HW124176   2.774   4.105   7.195  0.7918 -1.8792 -0.3705
 4238SOL    HW224177   2.659   4.132   7.283 -1.0583 -0.5831  0.1223
 4239SOL     OW24178   2.192   3.045  13.395  0.3499 -0.7172 -0.0277
 4239SOL    HW124179   2.220   2.979  13.332  1.8706  2.5677 -2.7690
 4239SOL    HW224180   2.164   2.984  13.464 -0.5142  2.8551  2.7538
 4240SOL     OW24181   4.538   2.848   0.736 -0.0364 -0.0876  0.8152
 4240SOL    HW124182   4.558   2.757   0.712 -3.3134 -0.0492 -2.0282
 4240SOL    HW224183   4.593   2.887   0.668 -1.3110 -0.1272 -0.2249
 4241SOL     OW24184   2.984   3.870   4.927  0.0740  0.1170 -0.2702
 4241SOL    HW124185   3.068   3.834   4.955 -0.5582  0.4031  2.0153
 4241SOL    HW224186   2.965   3.847   4.837  3.2598 -0.1048 -0.8920
 4242SOL     OW24187   1.071   4.037   6.056 -0.3793 -0.3363 -0.1665
 4242SOL    HW124188   1.089   4.079   6.140 -0.1257 -2.2747  0.7599
 4242SOL    HW224189   1.130   3.962   6.065 -0.4959 -0.3223  0.7708
 4243SOL     OW24190   0.027   4.701   5.095  0.1867  0.5732 -0.2355
 4243SOL    HW124191   0.021   4.697   5.000  1.6252  1.7810 -0.3736
 4243SOL    HW224192   0.033   0.068   5.114  1.1900  0.6721 -1.0461
 4244SOL     OW24193   0.950   2.757   2.458 -0.6042 -0.2220  0.1995
 4244SOL    HW124194   0.903   2.832   2.423 -1.4029 -0.1806  1.3676
 4244SOL    HW224195   0.884   2.734   2.522 -2.2700  3.6200 -0.1633
 4245SOL     OW24196   1.718   1.291   0.400  0.2598 -0.5858  0.3086
 4245SOL    HW124197   1.660   1.363   0.377  0.4369 -0.4031  0.4333
 4245SOL    HW224198   1.802   1.336   0.401 -0.1352  0.1669 -0.2897
 4246SOL     OW24199   2.268   0.953   6.243 -0.7676 -0.0567  0.8960
 4246SOL    HW124200   2.348   1.002   6.261 -0.0967  0.6401 -3.9269
 4246SOL    HW224201   2.219   1.020   6.194 -0.3224 -3.0688 -3.6677
 4247SOL     OW24202   4.486   4.574  16.689  0.1056 -0.2391  0.4745
 4247SOL    HW124203   4.449   4.623  16.616 -0.4216  1.9813  2.2380
 4247SOL    HW224204   4.429   4.599  16.762 -0.2664 -0.7746  0.3687
 4248SOL     OW24205   4.379   3.068   6.722  0.3889  0.1943 -0.0720
 4248SOL    HW124206   4.436   3.111   6.786  0.1029  2.0210 -1.0452
 4248SOL    HW224207   4.358   3.144   6.667  1.9563  2.2718  2.2120
 4249SOL     OW24208   3.060   2.462   9.571 -0.4108  0.0361  0.0449
 4249SOL    HW124209   3.064   2.370   9.544  1.0184 -0.5324  2.1563
 4249SOL    HW224210   3.090   2.497   9.487  0.9516  0.5430  0.7388
 4250SOL     OW24211   4.092   2.530  15.850  0.1262  0.2266  1.1183
 4250SOL    HW124212   4.070   2.469  15.920 -0.3074 -0.8384  0.0617
 4250SOL    HW224213   4.038   2.605  15.876  0.9286  0.6950  1.4608
 4251SOL     OW24214   0.521   3.857  11.718 -0.5436 -0.0274  0.3994
 4251SOL    HW124215   0.554   3.803  11.646 -1.2628  2.2271 -1.6455
 4251SOL    HW224216   0.552   3.816  11.798  0.5099  1.0335  0.5252
 4252SOL     OW24217   3.465   4.275  12.486  0.1891  0.4556 -0.4492
 4252SOL    HW124218   3.384   4.258  12.535  1.6386  0.4329  1.9443
 4252SOL    HW224219   3.528   4.219  12.530 -0.1262  0.8154  0.4695
 4253SOL     OW24220   2.242   0.602   3.291 -0.0543 -0.3912 -0.1989
 4253SOL    HW124221   2.159   0.647   3.277 -0.0697 -0.4532 -0.3112
 4253SOL    HW224222   2.300   0.678   3.279  1.0526 -1.0021  1.3122
 4254SOL     OW24223   2.750   0.056   2.360 -0.2377 -0.1772  0.7976
 4254SOL    HW124224   2.667   0.092   2.392 -0.6974 -0.3527 -0.1927
 4254SOL    HW224225   2.762   0.120   2.290 -0.3547 -0.8548  0.1647
 4255SOL     OW24226   3.447   2.535   7.345 -0.2270 -0.4983  0.1807
 4255SOL    HW124227   3.455   2.539   7.250  1.7476  3.9260  0.5509
 4255SOL    HW224228   3.504   2.461   7.365  1.1181  0.3458 -0.5364
 4256SOL     OW24229   3.106   2.185   4.617 -0.4036 -0.5347 -0.2391
 4256SOL    HW124230   3.043   2.251   4.644 -0.3344 -1.0438  1.1767
 4256SOL    HW224231   3.160   2.175   4.695 -0.1710  1.4085 -0.1477
 4257SOL     OW24232   4.594   1.075   3.295  0.0487  0.2897 -0.0201
 4257SOL    HW124233   4.624   1.108   3.210 -0.3807 -0.0753 -0.3123
 4257SOL    HW224234   4.666   1.015   3.313  0.3711  0.7794  0.3051
 4258SOL     OW24235   3.795   0.332  15.640 -0.8416  0.5640  0.3318
 4258SOL    HW124236   3.835   0.255  15.680  2.9675  2.6054  0.5119
 4258SOL    HW224237   3.760   0.384  15.713  1.4277  0.9963  1.1128
 4259SOL     OW24238   2.189   0.931   2.597 -0.2855  0.3043  0.3806
 4259SOL    HW124239   2.118   0.994   2.588  0.8484  1.7203  1.2043
 4259SOL    HW224240   2.182   0.902   2.506  0.6829  1.3578 -0.0365
 4260SOL     OW24241   3.156   3.103   2.918 -0.3948 -0.7846 -0.5228
 4260SOL    HW124242   3.209   3.023   2.922 -0.2653 -0.6919 -0.3309
 4260SOL    HW224243   3.143   3.108   2.824 -0.0634  2.0223 -0.4269
 4261SOL     OW24244   4.172   4.087  13.527  0.0501 -0.6240  0.2016
 4261SOL    HW124245   4.089   4.062  13.486  0.7801 -1.6173 -0.6898
 4261SOL    HW224246   4.216   4.003  13.520 -0.5410 -0.6418 -3.5019
 4262SOL     OW24247   0.269   4.231   0.122 -0.0619 -0.2464  0.0208
 4262SOL    HW124248   0.229   4.180   0.052 -0.4590 -3.8372  2.8566
 4262SOL    HW224249   0.185   4.272   0.146  1.6788  3.8786 -0.9090
 4263SOL     OW24250   2.597   1.444   4.964 -0.5285 -0.5611 -0.4396
 4263SOL    HW124251   2.553   1.461   4.880 -0.3437  2.1041  0.0172
 4263SOL    HW224252   2.665   1.382   4.937  0.1883  0.1532 -0.2345
 4264SOL     OW24253   1.568   0.808   8.414  0.4551 -0.3702  0.0077
 4264SOL    HW124254   1.607   0.774   8.495  0.9841  1.4410  0.5016
 4264SOL    HW224255   1.483   0.844   8.441 -0.6876 -1.3203 -2.2981
 4265SOL     OW24256   3.526   1.714   6.318 -0.7704 -0.9606  0.0364
 4265SOL    HW124257   3.609   1.721   6.365 -0.7879  0.4369 -0.1346
 4265SOL    HW224258   3.555   1.745   6.232  3.8019 -0.2374  1.8065
 4266SOL     OW24259   0.389   1.935   3.542  0.3423  0.3892  0.5420
 4266SOL    HW124260   0.470   1.884   3.547 -0.6981 -1.2305  0.8666
 4266SOL    HW224261   0.389   1.966   3.452  2.5619  0.1130  0.4578
 4267SOL     OW24262   0.106   3.596   2.058 -0.3107  0.4390 -0.0081
 4267SOL    HW124263   0.042   3.653   2.015 -2.8186 -1.5730  1.0539
 4267SOL    HW224264   0.159   3.667   2.095 -1.1221  0.4081  1.1964
 4268SOL     OW24265   3.305   2.988   6.914  0.0659 -0.2387  0.5428
 4268SOL    HW124266   3.344   2.935   6.844  0.5352 -0.5243  1.0160
 4268SOL    HW224267   3.279   3.070   6.872 -0.1218 -0.4140  0.3165
 4269SOL     OW24268   2.416   2.727   9.093  0.4506  0.0506  0.0892
 4269SOL    HW124269   2.362   2.792   9.138  2.1559  1.3089  0.3000
 4269SOL    HW224270   2.396   2.753   9.003 -1.0579 -0.1741  0.3540
 4270SOL     OW24271   2.842   0.617   8.920  0.3129 -0.0354  0.1652
 4270SOL    HW124272   2.851   0.668   8.840  3.4126  1.4916  1.4895
 4270SOL    HW224273   2.754   0.589   8.894  1.3473 -0.6169 -2.7378
 4271SOL     OW24274   3.417   2.607   6.810 -0.3354  0.1683  0.0401
 4271SOL    HW124275   3.473   2.580   6.737  0.7611  1.0323  0.5756
 4271SOL    HW224276   3.328   2.600   6.776 -1.3579 -0.2912  2.8501
 4272SOL     OW24277   2.335   3.879   3.307  0.1364 -0.1457 -0.0800
 4272SOL    HW124278   2.276   3.835   3.246  0.9716  1.1681 -1.8251
 4272SOL    HW224279   2.275   3.946   3.340  0.2187  0.3405 -0.9205
 4273SOL     OW24280   3.081   0.125   3.103 -0.2122 -0.2395  0.5467
 4273SOL    HW124281   3.093   0.030   3.109  0.1306 -0.2269  0.0318
 4273SOL    HW224282   3.023   0.131   3.027 -0.7957 -2.0314  0.8504
 4274SOL     OW24283   3.620   2.112   0.694  0.0954 -0.1611 -0.2979
 4274SOL    HW124284   3.654   2.119   0.784 -2.0084 -1.1542  0.5556
 4274SOL    HW224285   3.694   2.153   0.648  0.5450 -0.7451 -0.0974
 4275SOL     OW24286   3.930   3.850  14.833 -0.3135  1.0769  0.3281
 4275SOL    HW124287   4.004   3.874  14.889  0.6250 -1.7674  0.3030
 4275SOL    HW224288   3.890   3.767  14.860  2.2105 -0.5886 -1.0236
 4276SOL     OW24289   2.939   1.044  12.282 -0.7695 -0.2133 -0.5545
 4276SOL    HW124290   3.006   0.986  12.319 -0.0821  1.2261  0.4899
 4276SOL    HW224291   3.004   1.080  12.220 -0.1297 -2.0711 -0.9656
 4277SOL     OW24292   0.642   0.401   8.743 -0.3736 -0.0566  0.2539
 4277SOL    HW124293   0.640   0.317   8.698  0.7464 -1.0955  2.1707
 4277SOL    HW224294   0.552   0.410   8.775 -0.2475  1.8387  0.1130
 4278SOL     OW24295   1.027   1.672   2.309  0.5190 -0.3771 -0.0234
 4278SOL    HW124296   0.976   1.592   2.291 -0.0715 -0.5137  2.2913
 4278SOL    HW224297   0.957   1.737   2.318  0.3819 -0.7208  1.3700
 4279SOL     OW24298   1.340   1.080   3.936  0.1010 -0.2140  0.1489
 4279SOL    HW124299   1.362   1.004   3.882 -0.9629 -1.2235  1.1290
 4279SOL    HW224300   1.429   1.114   3.948  0.7945 -0.5935 -3.7792
 4280SOL     OW24301   3.656   1.909   3.218 -0.1168 -0.0981 -0.4799
 4280SOL    HW124302   3.630   1.847   3.150 -0.9094 -0.1137 -0.1554
 4280SOL    HW224303   3.659   1.848   3.291 -2.1330  0.2841 -0.0934
 4281SOL     OW24304   0.311   4.720   6.154  0.6179  0.2527 -0.8115
 4281SOL    HW124305   0.298   4.706   6.247 -2.2643  1.8864 -0.9813
 4281SOL    HW224306   0.406   4.708   6.150  0.4215 -1.3226 -0.5609
 4282SOL     OW24307   4.672   1.554   3.059  0.4369 -0.4043  0.1707
 4282SOL    HW124308   4.655   1.498   2.984  0.6984 -2.0455  1.3417
 4282SOL    HW224309   4.662   1.643   3.023  3.2590 -1.2527 -2.6735
 4283SOL     OW24310   0.079   4.379   3.342  0.1846  0.2294  0.4634
 4283SOL    HW124311   0.134   4.385   3.421  1.3959  2.1861 -0.5371
 4283SOL    HW224312   4.719   4.370   3.382  0.0533  0.1651  0.1598
 4284SOL     OW24313   0.804   3.023  17.385  0.1906  0.3086 -0.1336
 4284SOL    HW124314   0.801   2.934  17.419  0.0915  0.9341  1.4945
 4284SOL    HW224315   0.896   3.029  17.359  0.4910 -2.4105  0.3910
 4285SOL     OW24316   3.920   3.498   2.712 -0.2490  0.0930 -0.3323
 4285SOL    HW124317   3.827   3.498   2.734 -0.4987  0.9439 -1.3907
 4285SOL    HW224318   3.940   3.590   2.696  1.5622  0.1925  2.6435
 4286SOL     OW24319   2.472   2.810  11.069 -0.4387 -0.1587 -0.2530
 4286SOL    HW124320   2.477   2.817  11.164 -0.0772 -3.0615 -0.0477
 4286SOL    HW224321   2.535   2.739  11.057  0.8653  0.8755  0.5379
 4287SOL     OW24322   2.482   3.444   1.872  0.4883 -0.1712 -0.1848
 4287SOL    HW124323   2.462   3.503   1.798  1.6017 -1.4306 -1.4759
 4287SOL    HW224324   2.517   3.372   1.820  3.3118  1.3899 -0.4297
 4288SOL     OW24325   3.105   1.824   4.137  0.1608 -0.8162 -0.0523
 4288SOL    HW124326   3.154   1.884   4.194 -0.1926 -1.4395  0.9144
 4288SOL    HW224327   3.115   1.871   4.054 -0.3899 -0.7803 -0.0969
 4289SOL     OW24328   3.528   3.033   7.101  0.2382 -0.2322  0.5934
 4289SOL    HW124329   3.535   2.966   7.168 -2.7364 -0.8167  0.3056
 4289SOL    HW224330   3.455   3.002   7.048 -0.5813  0.2026  1.4781
 4290SOL     OW24331   0.208   2.448   9.758 -0.0543 -0.2552 -0.1761
 4290SOL    HW124332   0.274   2.379   9.757 -1.5972 -1.7717  1.1023
 4290SOL    HW224333   0.179   2.452   9.849  1.3772  0.6608  0.2354
 4291SOL     OW24334   2.070   1.097  16.350  0.1251  0.1201 -0.1004
 4291SOL    HW124335   2.120   1.116  16.271 -0.5226 -1.1193 -0.8129
 4291SOL    HW224336   1.982   1.130  16.333  0.2546  0.8711  0.6579
 4292SOL     OW24337   4.633   4.280   5.241 -0.4025  0.7103  0.4280
 4292SOL    HW124338   4.572   4.240   5.303  1.6798 -1.2339  1.2356
 4292SOL    HW224339   4.622   4.375   5.235 -1.0164  0.5073 -1.8174
 4293SOL     OW24340   0.529   0.560   7.037  0.2160  0.2392 -0.3673
 4293SOL    HW124341   0.614   0.542   7.076 -1.5465 -1.9742  2.4978
 4293SOL    HW224342   0.549   0.613   6.960 -0.7608 -0.7179 -1.2874
 4294SOL     OW24343   3.812   2.760   7.047  0.0862  0.3790  0.4882
 4294SOL    HW124344   3.732   2.711   7.065 -0.2719  0.9473  0.4580
 4294SOL    HW224345   3.844   2.780   7.135 -0.6348 -0.8691  1.0306
 4295SOL     OW24346   0.974   3.847   9.272 -0.2930 -0.1458  0.4766
 4295SOL    HW124347   0.992   3.791   9.348 -0.8289 -1.0194 -0.0329
 4295SOL    HW224348   0.904   3.899   9.312  0.3760 -0.8090  2.4835
 4296SOL     OW24349   0.128   1.678   8.457  0.0420  0.1877 -0.2939
 4296SOL    HW124350   0.196   1.682   8.390  1.3710 -0.2374  1.0158
 4296SOL    HW224351   0.090   1.766   8.458 -0.5574 -0.0735  0.0546
 4297SOL     OW24352   1.760   0.274   7.843  0.0252 -0.2807  0.2537
 4297SOL    HW124353   1.739   0.290   7.752  1.6858 -0.6840 -0.2095
 4297SOL    HW224354   1.697   0.328   7.889 -0.7898  1.7819 -3.3422
 4298SOL     OW24355   4.647   1.491   6.131  0.3725 -0.1999 -0.3817
 4298SOL    HW124356   4.641   1.476   6.226 -0.6166  0.5557 -0.3197
 4298SOL    HW224357   4.554   1.484   6.108  0.8676 -1.2332 -2.0709
 4299SOL     OW24358   2.422   2.901   7.034 -0.3496 -0.0540  0.3854
 4299SOL    HW124359   2.470   2.867   7.110 -1.0834  0.3254  1.0111
 4299SOL    HW224360   2.460   2.989   7.034 -0.0893 -0.1605  1.4693
 4300SOL     OW24361   3.175   3.830   8.776 -0.4629 -0.5222 -0.1493
 4300SOL    HW124362   3.121   3.763   8.818  0.8909 -0.7979  1.1457
 4300SOL    HW224363   3.193   3.881   8.854 -2.6296 -3.3991  2.2446
 4301SOL     OW24364   1.855   3.979   3.562  0.0474  0.2605 -0.3749
 4301SOL    HW124365   1.883   3.898   3.605 -2.6695 -0.7256 -0.4623
 4301SOL    HW224366   1.780   4.013   3.611  0.1133 -0.4079  0.1909
 4302SOL     OW24367   4.463   4.625   9.308  0.1088 -0.4833 -0.3309
 4302SOL    HW124368   4.428   4.563   9.245 -0.5943 -0.5142  0.0868
 4302SOL    HW224369   4.510   4.564   9.366 -1.8534  0.1663  1.9496
 4303SOL     OW24370   0.888   3.229   1.500 -0.1507 -0.2516 -0.1326
 4303SOL    HW124371   0.921   3.248   1.587  0.4806 -2.9027  0.1969
 4303SOL    HW224372   0.889   3.134   1.487  0.2227 -0.0618 -1.5167
 4304SOL     OW24373   0.098   4.596  15.312 -0.1646 -0.6844 -0.1057
 4304SOL    HW124374   0.185   4.638  15.311 -0.4007 -0.2341 -1.7047
 4304SOL    HW224375   0.056   4.647  15.381  1.1084 -1.2039  1.0691
 4305SOL     OW24376   0.478   2.109   3.336 -0.1596 -0.1642 -0.2243
 4305SOL    HW124377   0.514   2.174   3.275  0.6340 -0.5272 -0.1409
 4305SOL    HW224378   0.492   2.151   3.420 -1.2589 -0.8645  0.3157
 4306SOL     OW24379   1.315   3.249  11.004 -0.3940  0.4796  0.2245
 4306SOL    HW124380   1.288   3.162  11.033  0.0920  0.6932  1.3242
 4306SOL    HW224381   1.410   3.246  11.017 -0.2974 -1.5428 -1.1143
 4307SOL     OW24382   1.159   1.732   0.457 -0.2476  0.0249  0.2370
 4307SOL    HW124383   1.162   1.821   0.423 -0.4174 -0.2287 -0.4370
 4307SOL    HW224384   1.243   1.699   0.424 -1.3817 -0.3541 -2.2367
 4308SOL     OW24385   2.040   3.889   1.069  0.2216  0.2399  0.6574
 4308SOL    HW124386   2.051   3.794   1.080 -1.2792 -0.0494 -0.2875
 4308SOL    HW224387   1.973   3.885   1.000  0.2041 -0.2655  0.7021
 4309SOL     OW24388   0.025   0.743  10.205  0.3421 -0.1950  0.2167
 4309SOL    HW124389   4.694   0.813  10.175 -1.7337 -1.4832  1.2216
 4309SOL    HW224390   4.687   0.712  10.268  0.2881  0.4261  0.4696
 4310SOL     OW24391   2.099   4.209   7.568 -0.4043  0.1224 -0.3385
 4310SOL    HW124392   2.029   4.249   7.620 -1.3466 -1.1187 -0.6690
 4310SOL    HW224393   2.136   4.135   7.616 -2.6725  0.8032  2.4507
 4311SOL     OW24394   1.290   1.343  11.166 -0.0576  0.2897  0.0242
 4311SOL    HW124395   1.240   1.403  11.223  0.5639  0.0825  0.7876
 4311SOL    HW224396   1.372   1.326  11.212  1.3002  1.4398 -1.9776
 4312SOL     OW24397   2.292   0.574  14.328  0.5282 -0.9011 -0.1436
 4312SOL    HW124398   2.373   0.568  14.378  1.2137  1.4157 -0.9944
 4312SOL    HW224399   2.253   0.650  14.371  1.9398  0.6333 -1.5405
 4313SOL     OW24400   1.814   2.627   3.663  0.4777  0.1986  0.3875
 4313SOL    HW124401   1.745   2.570   3.695  0.9173  0.6648  2.1458
 4313SOL    HW224402   1.812   2.683   3.740  1.9271  0.2192  0.4134
 4314SOL     OW24403   3.200   2.019   5.743  0.0454  1.0439  0.1884
 4314SOL    HW124404   3.235   1.930   5.751  0.5264  1.1994 -0.1568
 4314SOL    HW224405   3.130   2.005   5.680 -0.3208  1.6980  0.4566
 4315SOL     OW24406   1.102   4.369   1.920 -0.1289 -0.5325 -0.3137
 4315SOL    HW124407   1.179   4.424   1.905 -0.3312 -0.0838  0.2791
 4315SOL    HW224408   1.044   4.434   1.882  1.5207  0.5520 -0.9587
 4316SOL     OW24409   1.648   0.695   2.861  0.3669  0.0339  0.4080
 4316SOL    HW124410   1.609   0.777   2.889  0.1039  0.0404  0.0259
 4316SOL    HW224411   1.576   0.633   2.872 -0.4735  0.8979 -0.2630
 4317SOL     OW24412   0.046   2.209  13.452  0.2439 -0.4196 -0.4452
 4317SOL    HW124413   4.719   2.287  13.438 -0.2891 -0.8627 -0.9337
 4317SOL    HW224414   0.068   2.212  13.544 -0.6484 -0.6445 -0.2187
 4318SOL     OW24415   2.484   1.568   7.412  0.1713 -0.2385  0.0018
 4318SOL    HW124416   2.500   1.539   7.322  1.3862  1.6073 -0.3676
 4318SOL    HW224417   2.507   1.482   7.448 -1.0695 -1.0281 -1.0272
 4319SOL     OW24418   4.179   1.458   4.759  0.1609 -0.0140 -0.2922
 4319SOL    HW124419   4.099   1.406   4.748  0.1766 -0.2864  0.8235
 4319SOL    HW224420   4.153   1.522   4.826 -1.7025 -0.4474 -0.5841
 4320SOL     OW24421   4.170   3.377   8.219  0.0505  0.4817 -0.3582
 4320SOL    HW124422   4.184   3.445   8.154 -0.5670 -1.3269 -2.4039
 4320SOL    HW224423   4.245   3.325   8.192 -1.6731 -0.8781 -2.5318
 4321SOL     OW24424   0.675   2.568  15.260  0.3753  0.1389  0.4571
 4321SOL    HW124425   0.597   2.552  15.313 -1.0789  2.5957 -0.9158
 4321SOL    HW224426   0.639   2.556  15.172 -0.3089  1.8960  0.4922
 4322SOL     OW24427   4.118   3.098  11.062  0.1809 -0.4121 -0.4888
 4322SOL    HW124428   4.190   3.042  11.093 -2.3547 -2.3100  1.9023
 4322SOL    HW224429   4.170   3.175  11.086  1.0695 -0.6252 -1.7399
 4323SOL     OW24430   1.548   0.547   4.464 -0.3737  0.1077 -0.1351
 4323SOL    HW124431   1.502   0.594   4.534 -0.9080  0.7647 -0.9382
 4323SOL    HW224432   1.476   0.539   4.402  0.5792  0.3800 -1.2702
 4324SOL     OW24433   1.028   4.336   5.560 -0.0624  0.2126  0.5069
 4324SOL    HW124434   1.102   4.362   5.506 -0.4582 -0.9614 -0.5959
 4324SOL    HW224435   1.020   4.242   5.547 -1.4056  0.2755  0.8606
 4325SOL     OW24436   3.759   2.196   1.244 -0.2694  0.2861 -0.4574
 4325SOL    HW124437   3.777   2.288   1.263 -1.0317  0.5771 -1.1283
 4325SOL    HW224438   3.705   2.172   1.319  1.5076 -0.3673  0.5999
 4326SOL     OW24439   1.145   1.330  17.649  0.1357  0.1513  0.2309
 4326SOL    HW124440   1.062   1.283  17.639  0.8068 -0.4959 -2.2997
 4326SOL    HW224441   1.202   1.267  17.693  0.5445  0.4213  0.0901
 4327SOL     OW24442   3.266   1.642   9.645  0.0984  0.3801 -0.5028
 4327SOL    HW124443   3.244   1.720   9.593  0.4299  1.3006  0.7321
 4327SOL    HW224444   3.217   1.663   9.724 -0.6671 -1.3275 -0.5207
 4328SOL     OW24445   0.374   3.603   8.931  0.3401  0.2570  0.3320
 4328SOL    HW124446   0.300   3.542   8.940  0.3678  0.1419 -0.2110
 4328SOL    HW224447   0.327   3.682   8.958 -0.7614  0.4199 -2.0004
 4329SOL     OW24448   4.013   2.700  12.939 -0.2368  0.0182 -0.2368
 4329SOL    HW124449   3.924   2.735  12.950 -0.3643 -0.8370  1.5114
 4329SOL    HW224450   4.034   2.741  12.855 -3.0536  1.6514 -0.1459
 4330SOL     OW24451   4.510   2.509  17.185  0.5768 -0.2268  0.6121
 4330SOL    HW124452   4.521   2.477  17.095  2.8333 -0.5751  1.0219
 4330SOL    HW224453   4.468   2.591  17.162  1.3941 -0.4458 -1.6535
 4331SOL     OW24454   3.411   4.005  12.233  0.6359  0.1350  0.5704
 4331SOL    HW124455   3.363   3.972  12.158  1.6404  2.9590 -1.2939
 4331SOL    HW224456   3.348   3.991  12.303 -1.2792 -0.1467 -1.2162
 4332SOL     OW24457   0.746   0.451   9.054  0.0975 -0.2595  0.0878
 4332SOL    HW124458   0.722   0.392   9.126  0.2000 -0.5358 -0.1070
 4332SOL    HW224459   0.753   0.538   9.094 -1.2074 -1.1608  2.2851
 4333SOL     OW24460   3.285   2.462   5.413 -0.0513 -0.4729  0.4456
 4333SOL    HW124461   3.373   2.480   5.379 -0.2827 -0.0367  0.0786
 4333SOL    HW224462   3.287   2.370   5.388 -0.1829 -0.4924  0.5101
 4334SOL     OW24463   1.898   4.708   9.165 -0.5217 -0.3309 -0.3186
 4334SOL    HW124464   1.923   0.068   9.198  0.1361 -1.1331  1.2996
 4334SOL    HW224465   1.910   4.648   9.239 -1.9761 -0.2774 -0.0494
 4335SOL     OW24466   4.125   0.126   2.860 -0.2026 -0.3898 -0.5856
 4335SOL    HW124467   4.093   0.209   2.825  0.8938 -0.6904 -2.3077
 4335SOL    HW224468   4.119   0.136   2.955  0.5560 -0.0258 -0.5796
 4336SOL     OW24469   0.615   0.256  17.534 -0.1580 -0.1668  0.2812
 4336SOL    HW124470   0.562   0.198  17.588  1.5303 -0.1936  1.9342
 4336SOL    HW224471   0.701   0.218  17.548  0.7994  2.1145  0.6949
 4337SOL     OW24472   2.789   4.349   7.689 -0.2541  0.0426 -0.5846
 4337SOL    HW124473   2.700   4.316   7.706 -0.1257  0.7771  1.5505
 4337SOL    HW224474   2.834   4.356   7.773 -0.9261  0.6844 -0.2765
 4338SOL     OW24475   0.900   3.418  14.501  0.3946 -0.1399  0.3958
 4338SOL    HW124476   0.828   3.477  14.522  0.5438 -0.2672  1.2424
 4338SOL    HW224477   0.873   3.340  14.550  1.2894 -2.1631 -2.2943
 4339SOL     OW24478   4.655   2.784  10.734  0.5855 -0.4752 -0.6046
 4339SOL    HW124479   4.724   2.834  10.779 -0.4411  0.8269 -0.4879
 4339SOL    HW224480   4.696   2.698  10.739  2.4621  0.4745  0.4236
 4340SOL     OW24481   0.231   3.707   2.575 -0.8411  0.2764  0.1762
 4340SOL    HW124482   0.155   3.756   2.605  0.0761  0.3526  2.3304
 4340SOL    HW224483   0.260   3.758   2.499 -1.1316 -0.9657 -0.7748
 4341SOL     OW24484   1.718   1.663   9.925  0.0042 -0.7128 -0.1906
 4341SOL    HW124485   1.660   1.609   9.979  1.2062  0.0221  1.8641
 4341SOL    HW224486   1.654   1.712   9.874  1.2324 -1.4082 -2.3844
 4342SOL     OW24487   4.455   2.239  11.275 -0.1080 -0.4928 -0.2714
 4342SOL    HW124488   4.374   2.287  11.265 -0.0384 -0.2986  0.0817
 4342SOL    HW224489   4.471   2.216  11.184  0.1951 -2.0324  0.1591
 4343SOL     OW24490   3.617   0.282   1.836  0.1831  0.3364  0.7186
 4343SOL    HW124491   3.683   0.322   1.779 -0.1732  0.3031  0.2813
 4343SOL    HW224492   3.655   0.198   1.860  0.5719 -0.2074 -1.7521
 4344SOL     OW24493   0.637   0.910   7.318  0.0476  0.3923  0.1416
 4344SOL    HW124494   0.570   0.916   7.251 -0.5319 -0.6450  0.6319
 4344SOL    HW224495   0.604   0.850   7.385  1.6838  0.6768  1.1962
 4345SOL     OW24496   2.878   2.324   7.053 -0.0186  0.1975  0.3144
 4345SOL    HW124497   2.848   2.354   7.139  1.0450 -0.4042  0.8827
 4345SOL    HW224498   2.817   2.252   7.037 -0.7531  0.5026  1.7590
 4346SOL     OW24499   3.922   1.130   1.917 -0.1885  0.1931 -0.1341
 4346SOL    HW124500   3.834   1.156   1.889 -0.0884 -0.6144 -1.2040
 4346SOL    HW224501   3.966   1.118   1.833 -0.6453 -3.2889  0.1513
 4347SOL     OW24502   0.026   4.395   4.201  0.2583 -0.0849  0.0286
 4347SOL    HW124503   0.112   4.355   4.185  0.0063 -1.5047  2.2661
 4347SOL    HW224504   4.695   4.373   4.128  1.4567 -0.7558 -0.7229
 4348SOL     OW24505   1.290   2.403  14.987  0.3749  0.4505 -0.0030
 4348SOL    HW124506   1.280   2.453  14.906  0.0534 -1.4117 -1.1077
 4348SOL    HW224507   1.229   2.446  15.047  0.0050  0.2048 -0.2039
 4349SOL     OW24508   3.039   1.680   3.518  0.2069  0.1667 -0.1301
 4349SOL    HW124509   3.079   1.734   3.450  0.4327  1.9321  1.4093
 4349SOL    HW224510   3.001   1.745   3.577 -0.5419 -0.3426 -0.0548
 4350SOL     OW24511   3.653   3.782   6.112 -0.3498  0.4938 -0.1353
 4350SOL    HW124512   3.739   3.823   6.105  0.8141 -2.0003 -0.5458
 4350SOL    HW224513   3.666   3.734   6.194  0.0753  0.1744 -0.3936
 4351SOL     OW24514   2.373   4.617   6.187 -0.9464  0.6092 -0.3597
 4351SOL    HW124515   2.333   4.641   6.103  0.4593  0.2648 -1.1310
 4351SOL    HW224516   2.297   4.578   6.229 -1.2236  0.6830 -0.7891
 4352SOL     OW24517   2.636   0.559  15.002 -0.3181 -0.3790 -0.7401
 4352SOL    HW124518   2.714   0.574  15.055 -0.1200  1.4221 -1.5634
 4352SOL    HW224519   2.641   0.463  14.999 -0.8325 -0.4528  0.4688
 4353SOL     OW24520   1.738   3.507  14.385  0.0685 -0.3435  0.2396
 4353SOL    HW124521   1.644   3.506  14.401  0.1840 -2.2355  0.7607
 4353SOL    HW224522   1.752   3.453  14.308  1.4856  0.3766 -0.0042
 4354SOL     OW24523   0.647   1.343  16.586  0.2203 -0.4999 -0.6181
 4354SOL    HW124524   0.558   1.332  16.554  0.7320  0.5667 -2.3822
 4354SOL    HW224525   0.688   1.347  16.500 -0.9198  0.7396 -1.1049
 4355SOL     OW24526   4.484   0.775   3.927 -0.1134  0.1794 -0.6059
 4355SOL    HW124527   4.436   0.799   4.006  3.1379  0.9693  1.1105
 4355SOL    HW224528   4.575   0.768   3.956  0.1726 -3.1036 -2.2618
 4356SOL     OW24529   1.279   1.023  10.010 -0.1195  0.5242 -0.3960
 4356SOL    HW124530   1.269   0.948  10.069  1.8954 -0.0674 -0.8214
 4356SOL    HW224531   1.324   1.078  10.073 -0.7452  0.4732  0.0981
 4357SOL     OW24532   0.676   2.324   5.672  0.2541  0.3395  0.3182
 4357SOL    HW124533   0.746   2.384   5.647  0.2134  0.0459 -0.5292
 4357SOL    HW224534   0.699   2.306   5.763  0.3684 -1.6195 -0.0953
 4358SOL     OW24535   0.090   2.376   6.794  0.3869 -0.1126  0.5245
 4358SOL    HW124536   0.064   2.293   6.755  0.0177  0.4005 -0.3242
 4358SOL    HW224537   0.122   2.348   6.879 -1.0938  1.5289  1.6150
 4359SOL     OW24538   4.170   0.332   9.362 -0.4406 -0.4245  0.2797
 4359SOL    HW124539   4.182   0.369   9.449 -2.5786 -1.6301  1.0786
 4359SOL    HW224540   4.210   0.398   9.305 -0.4678 -0.9789 -0.3802
 4360SOL     OW24541   4.404   1.794   2.585  0.1929 -0.3505 -0.1633
 4360SOL    HW124542   4.400   1.837   2.670 -1.0231  0.5494 -0.6756
 4360SOL    HW224543   4.321   1.746   2.579  0.6128 -0.9436 -1.2112
 4361SOL     OW24544   4.165   0.299   4.562 -0.0245  0.2771 -0.5286
 4361SOL    HW124545   4.077   0.295   4.599  0.8090 -0.1488  1.3945
 4361SOL    HW224546   4.170   0.207   4.539 -0.6885  0.6425 -2.1307
 4362SOL     OW24547   3.845   3.111  11.354  0.0161  0.2210  0.2531
 4362SOL    HW124548   3.761   3.141  11.320 -0.3732  0.4454  1.4400
 4362SOL    HW224549   3.854   3.036  11.295  0.9036  1.9772 -1.8647
 4363SOL     OW24550   2.310   2.054   6.685  0.1958  0.7007 -0.2597
 4363SOL    HW124551   2.317   2.000   6.606  3.5803 -0.2809  0.7377
 4363SOL    HW224552   2.276   1.990   6.747 -1.2141  2.2400  0.5582
 4364SOL     OW24553   3.977   0.114   6.948 -0.1898 -0.4121 -0.0411
 4364SOL    HW124554   3.978   0.023   6.977  1.0109 -0.2245  0.5075
 4364SOL    HW224555   4.073   0.119   6.954 -0.1392 -0.8274 -0.4460
 4365SOL     OW24556   4.570   2.197   7.084 -0.1747 -0.1062  0.3602
 4365SOL    HW124557   4.590   2.280   7.125  1.4289 -0.0187 -0.5974
 4365SOL    HW224558   4.654   2.150   7.090 -1.0317 -1.6985  0.0261
 4366SOL     OW24559   0.784   2.104   4.005  0.4549 -0.1623  0.0674
 4366SOL    HW124560   0.839   2.033   4.037  1.2183  0.3312 -0.1530
 4366SOL    HW224561   0.702   2.056   3.995  1.0847 -0.9273 -1.3540
 4367SOL     OW24562   2.877   2.055   6.744 -0.3051 -0.5577  0.5768
 4367SOL    HW124563   2.845   2.141   6.715  0.3152  0.6889  3.5838
 4367SOL    HW224564   2.873   2.011   6.659 -1.9588  1.1057 -0.2209
 4368SOL     OW24565   2.254   4.153   4.864  0.3940 -0.3882 -0.0133
 4368SOL    HW124566   2.159   4.161   4.861  0.3758  0.2419  2.2217
 4368SOL    HW224567   2.277   4.231   4.913 -2.8011  1.4638 -1.5166
 4369SOL     OW24568   2.667   2.307   7.786 -0.4865 -0.1648  0.2352
 4369SOL    HW124569   2.605   2.237   7.767 -0.3351 -0.5790  1.2248
 4369SOL    HW224570   2.700   2.290   7.874 -0.4988 -0.8216  0.1204
 4370SOL     OW24571   2.832   3.059  17.442 -0.2550  0.0804 -0.1756
 4370SOL    HW124572   2.802   3.027  17.527 -0.9538 -1.2289 -0.9118
 4370SOL    HW224573   2.761   3.113  17.407  0.4852  0.0130 -1.7865
 4371SOL     OW24574   3.819   2.283   2.597 -0.0073 -0.1405 -0.3536
 4371SOL    HW124575   3.817   2.340   2.674 -0.2595  0.2549 -0.6571
 4371SOL    HW224576   3.856   2.201   2.631 -0.3477 -0.6556 -1.2190
 4372SOL     OW24577   3.198   0.813   4.792 -0.0089 -0.5643 -0.2851
 4372SOL    HW124578   3.178   0.865   4.869 -0.1861 -0.8637 -0.1272
 4372SOL    HW224579   3.179   0.869   4.716 -1.7353  2.5152  2.4489
 4373SOL     OW24580   1.519   3.048   4.625  0.4719  0.2300 -0.2555
 4373SOL    HW124581   1.459   3.106   4.578  1.0766  0.7009 -0.4447
 4373SOL    HW224582   1.596   3.104   4.632  0.8698 -0.0472 -2.4008
 4374SOL     OW24583   1.915   0.991  14.854  0.6407  0.3960  0.2065
 4374SOL    HW124584   1.841   1.017  14.799  0.3497 -0.0265  0.3994
 4374SOL    HW224585   1.885   1.026  14.938  2.5617  0.4832  0.8540
 4375SOL     OW24586   2.006   0.841   8.778 -0.0340  0.3463  0.1940
 4375SOL    HW124587   2.073   0.773   8.781 -0.0716  0.3853  1.9228
 4375SOL    HW224588   1.936   0.788   8.817  1.4350 -2.0410 -0.3748
 4376SOL     OW24589   3.469   3.962   0.317 -0.0263 -0.3553 -0.1453
 4376SOL    HW124590   3.428   4.000   0.240  2.6757  1.4715 -0.7123
 4376SOL    HW224591   3.509   3.886   0.274 -2.2045 -1.1643 -0.7215
 4377SOL     OW24592   4.037   1.108   4.288 -0.4481  0.6147  0.3136
 4377SOL    HW124593   4.118   1.139   4.330 -0.3083 -1.4223  1.5558
 4377SOL    HW224594   4.073   1.092   4.201  0.9710 -0.6195  1.1026
 4378SOL     OW24595   1.779   2.876   4.657 -0.0558 -0.5026 -0.1741
 4378SOL    HW124596   1.700   2.922   4.626 -0.7777 -0.4718  1.7568
 4378SOL    HW224597   1.849   2.941   4.660 -0.8313  0.3507 -0.2643
 4379SOL     OW24598   2.823   3.116   1.381 -0.7875  0.0611  0.1430
 4379SOL    HW124599   2.827   3.162   1.465  1.6889 -1.7208  0.9847
 4379SOL    HW224600   2.777   3.181   1.327 -2.0285 -1.7129 -0.9111
 4380SOL     OW24601   4.547   0.978   4.450  0.2245 -0.0428 -0.5233
 4380SOL    HW124602   4.486   1.041   4.411 -0.5789 -1.0502 -0.8948
 4380SOL    HW224603   4.500   0.900   4.424 -1.8789  0.5232  1.5792
 4381SOL     OW24604   1.414   1.296   6.707 -0.1787  0.0189 -0.3961
 4381SOL    HW124605   1.497   1.269   6.669  0.5907 -0.5808  1.7351
 4381SOL    HW224606   1.374   1.217   6.743  0.6531 -0.1582  0.1180
 4382SOL     OW24607   3.307   0.362   6.654 -0.0447 -0.4649  0.1417
 4382SOL    HW124608   3.330   0.430   6.718  0.4872  0.7877 -1.3892
 4382SOL    HW224609   3.327   0.281   6.701 -3.4146 -2.2724 -1.5538
 4383SOL     OW24610   4.046   2.916   7.848  0.2355  0.1419 -0.9893
 4383SOL    HW124611   4.122   2.901   7.792  0.6524 -2.0934  0.1938
 4383SOL    HW224612   3.974   2.873   7.801 -1.4892  1.0162  0.8512
 4384SOL     OW24613   1.540   1.659   3.687 -0.8421 -0.5173 -0.3412
 4384SOL    HW124614   1.477   1.691   3.621 -0.3645 -0.9949 -1.0246
 4384SOL    HW224615   1.490   1.590   3.730  0.9348 -1.5149  0.0824
 4385SOL     OW24616   1.681   0.683   5.599 -0.4670  0.2624 -0.4500
 4385SOL    HW124617   1.682   0.690   5.695 -0.7887 -1.0447 -0.3473
 4385SOL    HW224618   1.590   0.660   5.581 -1.0743  0.3807  2.3857
 4386SOL     OW24619   1.635   1.078  11.796  0.7093 -0.3750 -0.6443
 4386SOL    HW124620   1.591   1.093  11.712 -1.2378 -1.5554  0.1604
 4386SOL    HW224621   1.600   0.990  11.814  2.3451 -1.1493 -1.2902
 4387SOL     OW24622   2.939   0.255   2.277 -0.1871 -0.3774  0.1684
 4387SOL    HW124623   2.858   0.272   2.229 -0.0006  1.5235  0.5117
 4387SOL    HW224624   3.002   0.246   2.206  0.2223 -1.0969  0.6239
 4388SOL     OW24625   2.465   4.063  12.955 -0.3957 -0.7730 -0.0917
 4388SOL    HW124626   2.420   4.073  13.040 -0.5128  2.1486 -0.4818
 4388SOL    HW224627   2.464   3.968  12.956  0.6578 -0.7931 -1.3948
 4389SOL     OW24628   0.968   2.320  10.456 -0.0456 -0.2287 -0.3344
 4389SOL    HW124629   0.882   2.322  10.498  0.2115  1.8609  0.0937
 4389SOL    HW224630   0.941   2.301  10.366  0.0402 -1.0774 -0.1778
 4390SOL     OW24631   0.332   3.323  13.679  0.1024 -0.1083  0.2612
 4390SOL    HW124632   0.314   3.229  13.684 -1.7233  0.2862  1.2260
 4390SOL    HW224633   0.244   3.346  13.648 -0.0567  1.9308  2.1913
 4391SOL     OW24634   2.880   0.391   7.550  0.2869 -0.5051  0.4136
 4391SOL    HW124635   2.819   0.448   7.503  2.4531 -0.6317 -2.5346
 4391SOL    HW224636   2.869   0.308   7.503 -1.4741  0.4708 -0.8821
 4392SOL     OW24637   0.158   3.515   4.873 -0.0293 -0.5895 -0.2155
 4392SOL    HW124638   0.179   3.563   4.953  1.3983 -1.7854  0.1371
 4392SOL    HW224639   0.116   3.580   4.817 -0.5308 -0.4123  0.3642
 4393SOL     OW24640   2.502   2.416   5.307 -0.3508 -0.2655 -0.1855
 4393SOL    HW124641   2.515   2.498   5.354  0.7587 -0.3136 -0.4006
 4393SOL    HW224642   2.581   2.419   5.253 -0.5729  0.3142 -0.4770
 4394SOL     OW24643   1.744   0.843  16.306  0.2835 -0.2013  0.5360
 4394SOL    HW124644   1.727   0.936  16.294  3.5040  0.6560  2.5694
 4394SOL    HW224645   1.759   0.813  16.216  3.0059 -1.6698  1.4782
 4395SOL     OW24646   1.570   1.900   2.446 -0.4522 -0.1218  0.0693
 4395SOL    HW124647   1.616   1.919   2.528 -0.6015 -2.7864  0.7580
 4395SOL    HW224648   1.643   1.884   2.387 -1.0677 -2.0651 -0.1577
 4396SOL     OW24649   3.818   1.977  10.119 -0.9068  0.6820 -0.0135
 4396SOL    HW124650   3.769   1.946  10.194 -1.2148  0.5760 -0.2568
 4396SOL    HW224651   3.905   1.944  10.143 -0.7354  1.7614  0.8152
 4397SOL     OW24652   2.570   2.845   8.059 -0.0663 -0.0234 -0.9136
 4397SOL    HW124653   2.495   2.883   8.012 -0.2299  0.8539  0.0686
 4397SOL    HW224654   2.546   2.754   8.075  0.5384  0.2109  1.2937
 4398SOL     OW24655   2.440   3.630   7.250  0.2765  0.0347  0.7860
 4398SOL    HW124656   2.489   3.702   7.213 -1.6550  0.3596 -1.1252
 4398SOL    HW224657   2.402   3.586   7.174  0.5777 -0.6440  1.0245
 4399SOL     OW24658   0.598   2.987   3.792 -0.2765 -0.0509 -0.1970
 4399SOL    HW124659   0.534   3.031   3.848  0.2219  0.5900 -0.1299
 4399SOL    HW224660   0.608   2.915   3.853  0.3340  0.7710  0.6730
 4400SOL     OW24661   0.944   0.919  11.758  0.1692  0.4138 -0.1089
 4400SOL    HW124662   0.872   0.857  11.767 -0.5304  1.1650 -0.4952
 4400SOL    HW224663   0.985   0.922  11.844 -0.1906  2.0789  0.0172
 4401SOL     OW24664   2.896   1.726   3.959  0.1400  0.7102  0.4064
 4401SOL    HW124665   2.959   1.768   4.017  2.6684 -0.7927 -1.2327
 4401SOL    HW224666   2.937   1.644   3.930  1.3217  1.1523  0.8283
 4402SOL     OW24667   2.544   1.887  11.751  0.2551  0.1396 -0.0896
 4402SOL    HW124668   2.459   1.843  11.760 -1.1947  2.7637 -0.9561
 4402SOL    HW224669   2.521   1.959  11.693 -0.2383  0.9133  1.0696
 4403SOL     OW24670   2.881   0.888   5.102  0.3342 -0.3029  0.1863
 4403SOL    HW124671   2.792   0.860   5.079  1.0532 -2.3614 -0.0810
 4403SOL    HW224672   2.928   0.806   5.111  1.5133  0.3213 -0.3243
 4404SOL     OW24673   0.341   2.510   0.215 -0.1370  0.3206 -0.1759
 4404SOL    HW124674   0.364   2.422   0.245  0.1463  0.4224 -0.0932
 4404SOL    HW224675   0.382   2.519   0.129  1.6963  2.9701  0.9697
 4405SOL     OW24676   3.797   3.217   1.490 -0.2950 -0.0798 -0.2637
 4405SOL    HW124677   3.829   3.168   1.566 -1.4211 -0.7309 -0.2085
 4405SOL    HW224678   3.721   3.159   1.476 -2.4826  2.6136  0.3797
 4406SOL     OW24679   2.683   0.364   0.721 -0.4801 -0.0531 -0.2912
 4406SOL    HW124680   2.643   0.408   0.796 -0.9390 -0.0136 -0.5572
 4406SOL    HW224681   2.690   0.279   0.764 -0.2496 -0.1933 -0.6002
 4407SOL     OW24682   3.652   1.643   7.413  0.5287  0.6468  0.1828
 4407SOL    HW124683   3.624   1.570   7.358 -1.1918  0.6636  1.0420
 4407SOL    HW224684   3.717   1.603   7.472 -1.0241 -3.3614 -0.8542
 4408SOL     OW24685   1.300   1.828   8.671  0.5292 -0.1234 -0.4433
 4408SOL    HW124686   1.225   1.788   8.626  1.9856 -1.1360 -1.9896
 4408SOL    HW224687   1.369   1.768   8.643  1.3561  1.3115 -1.5043
 4409SOL     OW24688   2.924   2.243   7.514  0.8710  0.3754  0.0279
 4409SOL    HW124689   2.836   2.278   7.497  0.1075 -1.9862 -0.9375
 4409SOL    HW224690   2.947   2.217   7.424 -2.7289 -1.3006 -0.4240
 4410SOL     OW24691   3.781   4.015   1.482  0.0230  0.3387 -0.1430
 4410SOL    HW124692   3.732   3.998   1.562 -0.0499 -1.1290 -0.4988
 4410SOL    HW224693   3.813   3.925   1.472 -1.4314 -0.4036  2.0770
 4411SOL     OW24694   2.569   1.123   4.890 -0.3480 -0.1173 -0.4730
 4411SOL    HW124695   2.652   1.163   4.863  0.2312 -0.3774  0.9464
 4411SOL    HW224696   2.586   1.040   4.935 -2.7639 -0.4327 -0.1534
 4412SOL     OW24697   1.661   1.616   4.785  0.5972  0.1846 -0.4509
 4412SOL    HW124698   1.576   1.573   4.775  1.3558 -0.9621 -1.8550
 4412SOL    HW224699   1.715   1.549   4.829  0.7195  0.1066 -0.7242
 4413SOL     OW24700   1.798   0.283  13.143  0.3326 -0.2499 -0.8912
 4413SOL    HW124701   1.715   0.332  13.142 -0.3282 -1.3428  0.9885
 4413SOL    HW224702   1.827   0.293  13.234 -0.7661 -0.6900 -0.4977
 4414SOL     OW24703   3.312   3.532   7.159  0.2704  0.2407  0.1572
 4414SOL    HW124704   3.274   3.587   7.228  0.3972  0.7654 -0.1883
 4414SOL    HW224705   3.260   3.546   7.080 -0.7108  1.6728  1.0496
 4415SOL     OW24706   0.918   4.674   5.432  0.4179  0.2679  0.5613
 4415SOL    HW124707   0.939   0.020   5.373  1.1908  1.2184  1.9847
 4415SOL    HW224708   0.955   4.598   5.387  0.7897  0.6099  0.2892
 4416SOL     OW24709   0.356   2.904  17.362 -0.3679 -0.3111 -0.8775
 4416SOL    HW124710   0.272   2.863  17.344 -1.3537  1.6975 -0.8918
 4416SOL    HW224711   0.331   2.952  17.441  1.2623 -0.9147  0.0088
 4417SOL     OW24712   3.886   1.237   7.683  0.0465 -0.1359  0.3176
 4417SOL    HW124713   3.832   1.184   7.741  0.3611 -0.8209 -0.0171
 4417SOL    HW224714   3.942   1.286   7.743  1.3573 -0.9892 -0.2050
 4418SOL     OW24715   1.209   2.100  10.155 -0.1925  0.0701  0.1634
 4418SOL    HW124716   1.130   2.126  10.109 -0.7160 -1.6443  0.0952
 4418SOL    HW224717   1.259   2.181  10.165 -0.7938  0.6418 -1.6429
 4419SOL     OW24718   0.662   3.358   6.146 -0.7457  0.0091 -0.2301
 4419SOL    HW124719   0.661   3.429   6.082 -2.8692 -0.8909 -1.1892
 4419SOL    HW224720   0.665   3.280   6.090 -1.5885  1.9697 -2.9950
 4420SOL     OW24721   3.548   0.713   5.761  0.1802 -0.4051  0.3499
 4420SOL    HW124722   3.558   0.618   5.769  0.8935 -0.3749 -0.1702
 4420SOL    HW224723   3.527   0.722   5.853 -0.8431 -1.7557  0.2544
 4421SOL     OW24724   0.060   3.648   3.098  0.3959  0.1536  0.4683
 4421SOL    HW124725   0.002   3.713   3.137 -1.3921 -0.1199 -1.7100
 4421SOL    HW224726   0.073   3.580   3.164 -0.3485 -1.6091 -1.1801
 4422SOL     OW24727   3.266   4.694   2.787 -0.1437 -0.2761  0.4060
 4422SOL    HW124728   3.262   0.060   2.762 -3.5848  0.1860  2.6428
 4422SOL    HW224729   3.265   4.646   2.705 -0.4629 -0.1211  0.3209
 4423SOL     OW24730   3.976   4.462   3.108 -0.2648 -0.2845  0.8077
 4423SOL    HW124731   4.001   4.487   3.019  0.3193  2.4805  1.7798
 4423SOL    HW224732   4.053   4.497   3.153  0.7207 -0.4091 -0.7784
 4424SOL     OW24733   3.812   4.161  15.808 -0.9863  0.5332  0.8946
 4424SOL    HW124734   3.898   4.195  15.834 -0.0715 -1.1221  0.0288
 4424SOL    HW224735   3.810   4.172  15.713 -1.8607  1.5962  1.0387
 4425SOL     OW24736   3.183   4.549   0.609 -0.6245 -0.1898 -0.7063
 4425SOL    HW124737   3.170   4.465   0.565  2.4861 -0.7228 -0.6186
 4425SOL    HW224738   3.271   4.575   0.583 -0.2607 -0.6394  0.0683
 4426SOL     OW24739   3.681   1.777   2.509  0.5490  0.2554  0.9318
 4426SOL    HW124740   3.642   1.863   2.524 -0.7524 -0.0342 -0.7975
 4426SOL    HW224741   3.612   1.737   2.457  1.9661 -1.8151  0.6458
 4427SOL     OW24742   3.376   1.325   4.223  0.0446  0.3825  0.1927
 4427SOL    HW124743   3.429   1.278   4.159 -0.5312  1.9199 -1.4411
 4427SOL    HW224744   3.288   1.302   4.192 -0.7863 -0.4693  3.1652
 4428SOL     OW24745   1.606   0.606   6.876 -0.3787  0.4092  0.1872
 4428SOL    HW124746   1.680   0.650   6.836  0.5332 -1.5761 -0.3095
 4428SOL    HW224747   1.608   0.647   6.962 -0.3740 -1.1644  0.9358
 4429SOL     OW24748   1.781   3.671  15.208 -0.3333  0.2990  0.4579
 4429SOL    HW124749   1.872   3.642  15.220 -0.1746  1.1819  1.3564
 4429SOL    HW224750   1.774   3.746  15.266  1.7742  0.4909  0.4574
 4430SOL     OW24751   1.858   0.397   1.134 -0.1257 -0.2803  0.2585
 4430SOL    HW124752   1.912   0.328   1.096 -1.2432 -0.8023 -0.3890
 4430SOL    HW224753   1.787   0.342   1.170 -0.5904  0.0201 -0.2077
 4431SOL     OW24754   4.229   4.157   8.790 -0.2273  0.4518 -0.3503
 4431SOL    HW124755   4.173   4.125   8.861 -1.7281 -0.2819 -1.8520
 4431SOL    HW224756   4.162   4.165   8.722  0.2253  0.8195 -0.7553
 4432SOL     OW24757   2.636   0.786   7.113 -0.2278  0.4538 -0.0884
 4432SOL    HW124758   2.587   0.845   7.056  0.8606  2.0343  0.6166
 4432SOL    HW224759   2.704   0.752   7.056 -0.4895  1.8688 -1.2508
 4433SOL     OW24760   4.184   3.292  17.186 -0.0255  0.0972 -0.4405
 4433SOL    HW124761   4.201   3.246  17.268 -2.0176 -0.0119 -0.0829
 4433SOL    HW224762   4.157   3.375  17.225 -2.2981 -0.8811  0.0728
 4434SOL     OW24763   3.888   2.883   7.563  0.2241  0.1698 -0.5752
 4434SOL    HW124764   3.884   2.976   7.538 -0.1815  0.1924 -0.4185
 4434SOL    HW224765   3.803   2.863   7.599 -0.4182  0.2104 -2.0483
 4435SOL     OW24766   4.432   2.292   8.988  0.3804 -0.0194 -0.0371
 4435SOL    HW124767   4.470   2.211   9.022 -1.2976 -0.5840  0.4503
 4435SOL    HW224768   4.461   2.359   9.050 -2.3598  0.0461  1.1572
 4436SOL     OW24769   0.736   0.106   8.615  0.9353 -0.3482 -0.0477
 4436SOL    HW124770   0.730   0.015   8.585 -1.6534  0.0062 -0.6239
 4436SOL    HW224771   0.708   0.153   8.536  0.8702  2.3911  1.6166
 4437SOL     OW24772   2.884   2.177  13.159 -0.7603 -0.3295 -0.0851
 4437SOL    HW124773   2.909   2.266  13.132 -0.2861 -1.1482 -2.3671
 4437SOL    HW224774   2.963   2.133  13.127 -1.1292 -1.4058  0.4999
 4438SOL     OW24775   0.287   4.115  17.593  0.6776  0.2464  0.0416
 4438SOL    HW124776   0.263   4.031  17.633 -0.3549  0.1269 -0.8274
 4438SOL    HW224777   0.380   4.096  17.583  0.9426  1.5398  0.0719
 4439SOL     OW24778   3.623   2.766   5.444  0.2812 -0.3619 -0.3509
 4439SOL    HW124779   3.531   2.748   5.464 -0.3931  2.2064 -1.2002
 4439SOL    HW224780   3.620   2.808   5.358  0.7395 -1.5877 -0.9667
 4440SOL     OW24781   1.587   2.319   4.659 -0.0510  0.4032 -0.1024
 4440SOL    HW124782   1.649   2.297   4.728 -0.1249 -0.0806 -0.1898
 4440SOL    HW224783   1.521   2.360   4.715 -1.5082 -0.5549 -1.1099
 4441SOL     OW24784   0.287   2.699   7.283  0.4072 -0.5349 -0.0414
 4441SOL    HW124785   0.340   2.697   7.203  0.7650 -1.9109  0.2240
 4441SOL    HW224786   0.335   2.629   7.328 -0.9057 -1.3223  0.1124
 4442SOL     OW24787   3.283   2.708   3.118 -0.5834  0.0781 -0.1361
 4442SOL    HW124788   3.277   2.712   3.023  0.4211 -3.0524 -0.3367
 4442SOL    HW224789   3.203   2.658   3.132 -1.1091  1.7402  2.7574
 4443SOL     OW24790   0.922   2.368   2.650  0.0870 -0.5828 -0.8126
 4443SOL    HW124791   0.968   2.451   2.642  0.5985 -0.6757  1.0208
 4443SOL    HW224792   0.920   2.335   2.560 -1.9907 -2.7773  0.0316
 4444SOL     OW24793   1.183   4.092   4.903 -0.6078  0.0150  0.1354
 4444SOL    HW124794   1.230   4.172   4.879 -2.2051  0.5288 -1.2866
 4444SOL    HW224795   1.123   4.085   4.829  0.4234  0.5317 -0.7598
 4445SOL     OW24796   3.726   4.469  15.663  0.2347  0.1383 -0.6172
 4445SOL    HW124797   3.667   4.394  15.667  1.8640 -1.1093  0.1155
 4445SOL    HW224798   3.813   4.433  15.681 -0.3406 -0.6100  0.6699
 4446SOL     OW24799   0.293   1.693   0.538  0.1671 -0.9380 -0.2563
 4446SOL    HW124800   0.219   1.742   0.575  0.2870 -1.8425  1.2132
 4446SOL    HW224801   0.252   1.607   0.549  0.4292 -0.7136  2.5045
 4447SOL     OW24802   1.361   2.922   5.107  0.3225 -0.3304  0.2556
 4447SOL    HW124803   1.342   2.832   5.080 -0.1666  0.3478 -1.6612
 4447SOL    HW224804   1.280   2.956   5.070 -0.6829 -1.7862  1.1014
 4448SOL     OW24805   3.919   1.758   4.513 -0.5339  0.2303 -0.2131
 4448SOL    HW124806   3.856   1.699   4.554 -0.1585 -0.0268 -0.0136
 4448SOL    HW224807   3.850   1.815   4.479  1.6044  2.1894 -1.3154
 4449SOL     OW24808   2.211   2.736   2.932 -0.3352 -0.6454 -0.3643
 4449SOL    HW124809   2.142   2.680   2.896 -0.6661 -0.3023 -0.2690
 4449SOL    HW224810   2.174   2.762   3.016  0.1036 -1.1303 -0.0259
 4450SOL     OW24811   0.126   0.601   2.796 -0.2244  0.5761  0.0527
 4450SOL    HW124812   0.107   0.692   2.774  0.0217  0.9713  1.4329
 4450SOL    HW224813   0.194   0.614   2.863 -0.0828  2.0421 -0.3719
 4451SOL     OW24814   4.019   4.476   1.777  0.4673 -0.1133 -0.2749
 4451SOL    HW124815   4.014   4.497   1.683 -1.0263 -1.6961 -0.5520
 4451SOL    HW224816   3.956   4.404   1.772  0.4337 -0.0897 -0.1790
 4452SOL     OW24817   0.404   0.112  13.532 -0.2746 -0.0367 -0.0390
 4452SOL    HW124818   0.356   0.159  13.599 -4.0690  2.1395 -4.2473
 4452SOL    HW224819   0.335   0.072  13.479  0.2255 -1.8394  0.6708
 4453SOL     OW24820   0.883   2.451  15.388  0.6024 -0.3964 -0.3320
 4453SOL    HW124821   0.811   2.463  15.325 -1.1077 -2.5282  1.2287
 4453SOL    HW224822   0.920   2.538  15.378 -1.3302  0.5624  0.6962
 4454SOL     OW24823   0.798   4.149   5.779  0.3153  0.4506  0.4629
 4454SOL    HW124824   0.805   4.240   5.751 -1.3237  1.5214  3.5625
 4454SOL    HW224825   0.782   4.100   5.698  3.4944  0.8067 -0.3987
 4455SOL     OW24826   0.019   3.677   7.211  0.4536  0.4248  0.2233
 4455SOL    HW124827   4.686   3.715   7.276  0.3759 -0.2908  0.5656
 4455SOL    HW224828   0.005   3.742   7.142 -0.7820 -1.6778 -1.4812
 4456SOL     OW24829   3.313   3.664   6.618 -0.4654  0.1044  0.2756
 4456SOL    HW124830   3.325   3.663   6.523  0.0902  3.0587  0.3000
 4456SOL    HW224831   3.261   3.586   6.635 -1.9351  0.6396 -1.7730
 4457SOL     OW24832   0.863   1.621  10.436  0.2122  0.2416 -0.9831
 4457SOL    HW124833   0.839   1.683  10.505  0.5862 -0.3574 -0.3126
 4457SOL    HW224834   0.828   1.547  10.486 -0.1494  0.2537 -1.2212
 4458SOL     OW24835   0.123   2.510   5.267  0.4079 -0.1590  0.2430
 4458SOL    HW124836   0.126   2.582   5.204  0.0711 -0.8508 -0.5662
 4458SOL    HW224837   0.043   2.535   5.314 -0.6518 -2.8869 -0.1435
 4459SOL     OW24838   0.635   0.291   3.546 -0.3255  0.2259  0.1006
 4459SOL    HW124839   0.604   0.352   3.612  2.5795  2.6252 -0.7570
 4459SOL    HW224840   0.724   0.321   3.528 -0.3181  1.6645  2.7105
 4460SOL     OW24841   0.905   0.635   6.250 -0.0216 -0.1801  0.5726
 4460SOL    HW124842   0.826   0.685   6.229 -0.9192 -2.2732 -1.0695
 4460SOL    HW224843   0.867   0.549   6.268 -0.0180 -0.3583 -0.2599
 4461SOL     OW24844   4.705   0.412   8.446  0.8122 -0.0858 -0.2531
 4461SOL    HW124845   4.694   0.379   8.535 -0.2331  0.2410 -0.2705
 4461SOL    HW224846   4.681   0.504   8.450 -0.8186 -0.4963 -0.5549
 4462SOL     OW24847   1.934   2.803   3.871  0.6956  0.2706 -0.8295
 4462SOL    HW124848   1.931   2.786   3.965  0.6030 -0.9300 -1.0569
 4462SOL    HW224849   2.019   2.847   3.870  1.0366 -0.4268 -1.9335
 4463SOL     OW24850   1.931   1.863  15.182 -0.0838 -0.1550 -0.1445
 4463SOL    HW124851   2.003   1.897  15.129  1.6953 -2.7713  0.6033
 4463SOL    HW224852   1.967   1.788  15.230 -2.6772 -0.5560  1.1637
 4464SOL     OW24853   0.237   4.673   1.362 -0.1599  0.1356 -0.1369
 4464SOL    HW124854   0.298   4.601   1.342  0.9945  1.4828 -1.4582
 4464SOL    HW224855   0.267   0.016   1.304  0.0844  0.6896  0.6615
 4465SOL     OW24856   2.860   2.914   2.561  0.1588 -0.0732  0.2287
 4465SOL    HW124857   2.904   2.941   2.480 -0.6303  0.3233 -0.0597
 4465SOL    HW224858   2.820   2.835   2.526  0.3397  0.6590 -1.6794
 4466SOL     OW24859   1.903   3.952   3.192  0.3134 -0.1803  0.4032
 4466SOL    HW124860   1.934   3.894   3.123 -0.1300 -0.4338  0.4189
 4466SOL    HW224861   1.987   3.988   3.220  1.2834 -0.7630 -1.7737
 4467SOL     OW24862   1.731   2.012   5.765 -0.6398  0.0274 -0.1065
 4467SOL    HW124863   1.745   1.985   5.674 -0.5245  1.5247 -0.5487
 4467SOL    HW224864   1.733   1.923   5.800 -0.5806 -0.0881 -0.4031
 4468SOL     OW24865   4.024   4.646   9.800  0.0183  0.2711 -0.2655
 4468SOL    HW124866   3.950   4.633   9.860  0.6029 -1.2644  0.1119
 4468SOL    HW224867   4.062   4.723   9.842 -0.6593  1.6446 -2.1775
 4469SOL     OW24868   4.286   1.519  12.831 -0.3321 -0.1545 -0.8782
 4469SOL    HW124869   4.322   1.438  12.868  0.9061  1.4577  1.4607
 4469SOL    HW224870   4.329   1.529  12.746 -1.4244  0.6157 -1.3366
 4470SOL     OW24871   3.319   0.607  14.960  0.1552  0.2194  0.1895
 4470SOL    HW124872   3.281   0.618  14.873 -4.1123  0.5554  2.1209
 4470SOL    HW224873   3.339   0.514  14.975  1.6551  0.7196  1.1948
 4471SOL     OW24874   2.493   2.068   1.350 -0.2152  0.2947  0.1893
 4471SOL    HW124875   2.415   2.030   1.308  0.4749 -3.3277  2.1590
 4471SOL    HW224876   2.462   2.138   1.407 -0.8370  1.2995 -1.3855
 4472SOL     OW24877   0.059   1.179  14.896  0.3409  0.0385 -0.2726
 4472SOL    HW124878   0.111   1.114  14.943 -0.3265  0.2519  0.7477
 4472SOL    HW224879   0.077   1.268  14.927  0.5858 -1.0063  2.4851
 4473SOL     OW24880   1.132   3.701   9.083  0.1015  0.0568 -0.6618
 4473SOL    HW124881   1.068   3.758   9.128 -0.7172 -1.3319 -0.0820
 4473SOL    HW224882   1.068   3.631   9.070  0.2210 -0.0738 -0.5375
 4474SOL     OW24883   1.968   3.419   8.063 -0.2702  0.2363  0.1441
 4474SOL    HW124884   2.007   3.420   8.150 -0.3747  0.7012  0.1890
 4474SOL    HW224885   1.877   3.427   8.092 -0.0706 -0.8288  1.0474
 4475SOL     OW24886   3.573   2.512   1.209  0.3354  0.3537 -0.0863
 4475SOL    HW124887   3.520   2.464   1.272 -1.2070 -0.1175 -1.7525
 4475SOL    HW224888   3.546   2.603   1.219 -0.5145  0.2869 -1.7474
 4476SOL     OW24889   4.308   1.342   8.543  0.5563  0.3710  0.5222
 4476SOL    HW124890   4.380   1.396   8.509  1.2550 -0.7308  0.2629
 4476SOL    HW224891   4.294   1.386   8.627 -0.3416  1.2892 -0.1056
 4477SOL     OW24892   4.343   4.159  13.327 -0.0201 -0.0484  0.3913
 4477SOL    HW124893   4.412   4.190  13.386  1.4601  0.1271 -1.4386
 4477SOL    HW224894   4.266   4.164  13.384 -0.7679  0.3804 -0.6711
 4478SOL     OW24895   0.473   2.651  12.110 -0.0144  0.3341  0.0724
 4478SOL    HW124896   0.426   2.722  12.154 -0.0860  0.2960  0.0572
 4478SOL    HW224897   0.564   2.682  12.117  0.2878  0.1879 -3.3487
 4479SOL     OW24898   3.210   2.239   9.501  0.2498  0.6178 -0.1073
 4479SOL    HW124899   3.261   2.172   9.547  1.4015  1.1708 -0.5757
 4479SOL    HW224900   3.282   2.282   9.454  0.5836 -0.4377 -0.5747
 4480SOL     OW24901   1.836   2.799   0.610  0.2852  0.6345 -0.1102
 4480SOL    HW124902   1.894   2.861   0.566 -1.8505  2.8213  0.1936
 4480SOL    HW224903   1.833   2.843   0.695 -2.1162  0.2278 -0.0016
 4481SOL     OW24904   0.864   4.283  15.524  0.2130 -0.3441  0.0229
 4481SOL    HW124905   0.813   4.312  15.448 -0.5413 -0.0493  0.6336
 4481SOL    HW224906   0.955   4.293  15.495 -0.2400  0.8839 -0.9575
 4482SOL     OW24907   3.925   2.682   8.527 -0.1347  0.0237 -0.1826
 4482SOL    HW124908   4.018   2.695   8.508  0.0993  0.6707  1.3548
 4482SOL    HW224909   3.923   2.730   8.610 -1.6953  0.2139 -0.3386
 4483SOL     OW24910   2.586   3.995   4.349 -0.2655  0.4304 -0.5442
 4483SOL    HW124911   2.490   4.003   4.349 -0.2239  0.7918  1.4613
 4483SOL    HW224912   2.601   4.031   4.436 -1.2969  0.2257 -0.2776
 4484SOL     OW24913   0.276   3.720  11.813  0.3004  0.0484  0.2014
 4484SOL    HW124914   0.332   3.793  11.839  1.3503  0.0595 -2.0960
 4484SOL    HW224915   0.323   3.641  11.839  1.7229  0.7690 -0.2326
 4485SOL     OW24916   3.508   3.264  17.509  0.0639 -0.7258 -0.0832
 4485SOL    HW124917   3.533   3.353  17.530  0.2789 -1.1735  1.5102
 4485SOL    HW224918   3.414   3.273  17.492  0.5580  3.5893 -0.5146
 4486SOL     OW24919   1.897   0.758   2.788 -0.3650 -0.3049  0.0809
 4486SOL    HW124920   1.907   0.853   2.792 -1.1549 -0.2933  1.8199
 4486SOL    HW224921   1.810   0.737   2.822 -1.7362  4.1406 -0.6827
 4487SOL     OW24922   1.709   1.612   8.809  0.0397 -0.1364 -0.0521
 4487SOL    HW124923   1.704   1.555   8.886 -1.0676  1.1464  0.8178
 4487SOL    HW224924   1.721   1.699   8.848 -2.1766  0.7599 -1.3553
 4488SOL     OW24925   3.782   3.489   1.473 -0.1410  0.3473  0.0996
 4488SOL    HW124926   3.716   3.476   1.405 -0.4918 -0.8362  0.6602
 4488SOL    HW224927   3.813   3.399   1.481  1.3999  0.8068 -0.8229
 4489SOL     OW24928   1.954   4.135  11.704  0.4775 -0.0049 -0.2435
 4489SOL    HW124929   1.977   4.201  11.769 -1.8684  1.1561 -0.6037
 4489SOL    HW224930   2.026   4.074  11.718 -1.8775 -3.1065 -1.6084
 4490SOL     OW24931   0.036   0.326  13.146  0.1121 -0.6054  0.2886
 4490SOL    HW124932   4.672   0.294  13.147  0.2250 -0.9956 -1.3329
 4490SOL    HW224933   0.062   0.284  13.063 -2.8129  1.5110 -1.7175
 4491SOL     OW24934   3.532   4.424  14.923  0.0817  0.3767  0.1040
 4491SOL    HW124935   3.540   4.351  14.862  3.4150  0.3262  0.5991
 4491SOL    HW224936   3.439   4.420  14.944 -0.4396  2.2608 -1.9516
 4492SOL     OW24937   0.015   3.231   8.045  0.4057  0.0888  0.0026
 4492SOL    HW124938   0.061   3.268   7.970  0.9950 -1.7971 -0.5614
 4492SOL    HW224939   0.070   3.251   8.121 -0.3364 -2.2981  1.1822
 4493SOL     OW24940   2.449   1.239  11.170  0.1851  0.4177  0.0659
 4493SOL    HW124941   2.534   1.260  11.209 -0.4342  1.7746  0.6560
 4493SOL    HW224942   2.399   1.294  11.230 -1.1425 -1.0842  0.3410
 4494SOL     OW24943   0.221   2.982   3.113  0.1623  0.0998  0.1864
 4494SOL    HW124944   0.276   2.929   3.055  1.3508  0.1980  1.2211
 4494SOL    HW224945   0.280   3.057   3.122  0.7055 -0.3599  0.4592
 4495SOL     OW24946   3.676   1.993   7.002  0.2367 -0.6460  0.2418
 4495SOL    HW124947   3.714   1.908   7.023 -2.3141 -1.3511  1.9796
 4495SOL    HW224948   3.586   1.974   6.976 -0.6195  0.6713  2.2013
 4496SOL     OW24949   1.083   3.306   0.562 -0.4792 -0.5056 -0.4492
 4496SOL    HW124950   0.989   3.318   0.556 -0.7300 -1.5628  1.7301
 4496SOL    HW224951   1.095   3.211   0.563  2.9652 -0.0340  2.4418
 4497SOL     OW24952   0.282   1.407  15.312 -0.5656 -0.2678  0.0140
 4497SOL    HW124953   0.239   1.468  15.371  0.0011 -0.3719  0.5346
 4497SOL    HW224954   0.289   1.445  15.224  1.5731 -1.3870 -0.2931
 4498SOL     OW24955   1.254   0.395   6.516 -0.1149  0.2542  0.1724
 4498SOL    HW124956   1.184   0.448   6.555 -0.6434 -0.8335  0.6817
 4498SOL    HW224957   1.332   0.441   6.547  1.3728 -2.2144  0.0851
 4499SOL     OW24958   3.810   3.465   0.340 -0.5369  0.1199 -0.6352
 4499SOL    HW124959   3.836   3.377   0.312  0.1469 -0.2856  1.2507
 4499SOL    HW224960   3.874   3.514   0.288 -1.1100  2.2997  0.7531
 4500SOL     OW24961   1.836   3.598   3.866 -0.3021 -0.1744  0.1103
 4500SOL    HW124962   1.825   3.544   3.944 -1.6973 -1.5825 -1.0725
 4500SOL    HW224963   1.779   3.557   3.801  0.4356 -0.2054 -0.5060
 4501SOL     OW24964   2.941   0.936   8.646 -0.0017 -0.4091 -0.3066
 4501SOL    HW124965   2.937   0.993   8.569  2.5898  1.3615  0.8686
 4501SOL    HW224966   3.013   0.973   8.697  0.6161 -0.4529 -1.1492
 4502SOL     OW24967   2.518   3.266   3.961  0.0637 -0.0588 -0.6897
 4502SOL    HW124968   2.552   3.224   3.882  0.2099 -0.2931 -0.4984
 4502SOL    HW224969   2.598   3.254   4.011  0.8007  0.2321 -1.8062
 4503SOL     OW24970   3.270   3.627   8.608  0.4592 -0.4098 -0.7148
 4503SOL    HW124971   3.235   3.698   8.662 -0.7152 -1.9986  0.6276
 4503SOL    HW224972   3.188   3.582   8.591 -0.1806  0.5482 -0.1405
 4504SOL     OW24973   2.943   2.867   5.347 -0.2394  0.5797  0.1308
 4504SOL    HW124974   3.007   2.917   5.397 -4.4290  2.4929  3.6091
 4504SOL    HW224975   2.981   2.779   5.347  1.2764  1.2393  0.6687
 4505SOL     OW24976   4.122   2.127  10.498  0.2097  0.3723 -0.4682
 4505SOL    HW124977   4.089   2.158  10.582  1.1009 -1.0588  0.3995
 4505SOL    HW224978   4.037   2.107  10.458 -0.6238  0.4535  1.3011
 4506SOL     OW24979   2.037   4.541   9.705 -0.6495  0.5340 -0.1086
 4506SOL    HW124980   1.970   4.494   9.655  0.0990  0.1893 -0.7738
 4506SOL    HW224981   2.041   4.494   9.789  0.1547  2.6833  1.0529
 4507SOL     OW24982   4.160   3.026   2.402 -1.0023 -0.1569  0.2983
 4507SOL    HW124983   4.105   2.970   2.457 -1.0562  0.9749  1.3819
 4507SOL    HW224984   4.096   3.086   2.363 -0.1978 -0.3717 -1.3655
 4508SOL     OW24985   4.186   3.049   6.131  0.5903 -0.1597  0.1472
 4508SOL    HW124986   4.264   3.042   6.076  0.5246  1.9461 -0.1987
 4508SOL    HW224987   4.217   3.125   6.179  1.2382 -0.7612  0.6776
 4509SOL     OW24988   3.762   3.647   4.971  0.6282 -0.1369 -0.0653
 4509SOL    HW124989   3.819   3.703   5.024  2.9040 -0.7283 -1.9123
 4509SOL    HW224990   3.747   3.571   5.027  1.4733  0.2678  0.7049
 4510SOL     OW24991   1.638   1.223   7.357 -0.5171 -0.2352 -0.1453
 4510SOL    HW124992   1.561   1.175   7.325 -0.7247  0.9465 -1.4127
 4510SOL    HW224993   1.709   1.165   7.328 -0.3302 -0.8055  1.4013
 4511SOL     OW24994   1.770   1.649  10.505  0.4052  0.4309 -0.1090
 4511SOL    HW124995   1.861   1.654  10.535  0.5026 -2.0588  0.0540
 4511SOL    HW224996   1.755   1.556  10.486  0.3261  0.3860  0.1792
 4512SOL     OW24997   3.593   3.805   9.560 -0.1487  0.5354 -0.3125
 4512SOL    HW124998   3.608   3.880   9.503  0.2757  0.1529 -0.7070
 4512SOL    HW224999   3.522   3.846   9.608  0.5473  0.8983  0.4139
 4513SOL     OW25000   0.207   1.609   6.028  0.0481  0.5563 -0.7544
 4513SOL    HW125001   0.224   1.676   6.094 -1.0511 -0.8477  0.9515
 4513SOL    HW225002   0.290   1.602   5.980 -0.2604  3.4368 -1.7061
 4514SOL     OW25003   4.276   1.487   8.779  0.0227  0.2638 -0.0705
 4514SOL    HW125004   4.243   1.562   8.827  0.4724 -0.9782  2.1909
 4514SOL    HW225005   4.219   1.414   8.803 -1.9318  1.8590  0.1239
 4515SOL     OW25006   3.601   3.711   2.446 -0.0814 -0.2193 -0.3608
 4515SOL    HW125007   3.634   3.758   2.523  0.2314  0.3052 -0.8203
 4515SOL    HW225008   3.617   3.620   2.472  1.7833  1.0543  3.0509
 4516SOL     OW25009   4.289   3.197   8.023  0.0770 -0.7611  0.8322
 4516SOL    HW125010   4.243   3.228   7.945  0.8522 -0.1710  0.6011
 4516SOL    HW225011   4.236   3.119   8.039 -1.5294  0.4709  1.5487
 4517SOL     OW25012   4.193   3.731   4.434 -0.7158  0.1187  0.0123
 4517SOL    HW125013   4.166   3.729   4.342 -1.5011 -0.3648  0.2593
 4517SOL    HW225014   4.174   3.820   4.464 -1.4991 -0.6385  1.7274
 4518SOL     OW25015   1.959   2.348   3.322  0.4645 -0.1958 -0.1991
 4518SOL    HW125016   1.899   2.414   3.357  0.2378  0.0824 -1.1304
 4518SOL    HW225017   1.974   2.381   3.234 -0.2603 -0.8774 -0.5690
 4519SOL     OW25018   2.611   4.194  10.129 -0.2715  0.7790 -0.0381
 4519SOL    HW125019   2.666   4.117  10.111  0.0911  0.9785  0.2327
 4519SOL    HW225020   2.542   4.154  10.182  0.1085  2.0634  1.3934
 4520SOL     OW25021   0.183   0.807   6.560  0.2278 -0.1137 -0.3822
 4520SOL    HW125022   0.092   0.799   6.535 -0.0113 -0.6962  0.6485
 4520SOL    HW225023   0.214   0.866   6.491  0.6159  0.4340  0.2569
 4521SOL     OW25024   1.096   3.423   2.039 -0.1714 -0.0202 -1.0724
 4521SOL    HW125025   1.044   3.496   2.073  2.7466  1.5812 -0.0706
 4521SOL    HW225026   1.101   3.375   2.121 -0.8750 -0.1770 -1.1180
 4522SOL     OW25027   3.835   1.381  15.081 -0.4296 -0.0198 -0.2061
 4522SOL    HW125028   3.882   1.301  15.103 -0.7228  0.4177  1.9433
 4522SOL    HW225029   3.743   1.354  15.077 -0.6427  0.4912  1.2972
 4523SOL     OW25030   0.103   2.202   2.301  0.4343 -0.2995  0.4345
 4523SOL    HW125031   0.079   2.214   2.393 -0.9959  0.4707 -0.0461
 4523SOL    HW225032   0.153   2.281   2.279 -1.5773  0.1456 -2.5378
 4524SOL     OW25033   4.002   4.609   2.856  0.0178 -0.9660 -0.1559
 4524SOL    HW125034   4.085   4.562   2.845  1.2850  1.4333 -0.8211
 4524SOL    HW225035   4.029   4.700   2.868  0.1482 -1.3137  2.1784
 4525SOL     OW25036   3.804   0.677  16.735  0.5140 -0.5108 -0.1429
 4525SOL    HW125037   3.733   0.740  16.720  1.5949  0.7311 -0.0972
 4525SOL    HW225038   3.861   0.669  16.659 -2.6074  0.3302 -2.5930
 4526SOL     OW25039   4.605   1.056   8.626  0.7696 -0.4820 -0.0791
 4526SOL    HW125040   4.633   1.145   8.605  0.6698 -0.1563  1.2159
 4526SOL    HW225041   4.582   1.047   8.718 -0.9866  1.4372 -0.3416
 4527SOL     OW25042   0.162   3.409   5.322  0.1955  0.2202 -0.6011
 4527SOL    HW125043   0.197   3.494   5.348  0.6970 -0.2868  0.3992
 4527SOL    HW225044   0.157   3.408   5.227 -3.0397  0.9378 -0.4491
 4528SOL     OW25045   3.337   0.816  10.872  0.2503 -0.3147 -0.0658
 4528SOL    HW125046   3.383   0.783  10.950  2.3348 -0.6152 -1.4225
 4528SOL    HW225047   3.245   0.810  10.898 -0.3500  0.3368 -2.0130
 4529SOL     OW25048   4.268   1.491   3.130 -0.7775  0.2856  0.5048
 4529SOL    HW125049   4.269   1.555   3.059 -0.9635 -0.6602 -0.3480
 4529SOL    HW225050   4.352   1.511   3.172 -0.1722  0.7738 -0.9382
 4530SOL     OW25051   4.052   4.539   4.971 -0.3184 -0.4603 -0.1819
 4530SOL    HW125052   4.136   4.581   4.990 -1.0708  1.8674 -1.9781
 4530SOL    HW225053   4.012   4.514   5.054 -0.7476 -1.2946 -0.6390
 4531SOL     OW25054   2.152   0.995   8.368  0.2766  0.0346  0.3191
 4531SOL    HW125055   2.119   1.019   8.455  0.5320 -0.0914  0.4489
 4531SOL    HW225056   2.203   0.917   8.386  1.3060  0.3960 -1.0109
 4532SOL     OW25057   0.248   2.802  13.885 -0.1075 -0.1135  0.0857
 4532SOL    HW125058   0.310   2.850  13.939 -0.7554  1.4015 -0.5172
 4532SOL    HW225059   0.212   2.741  13.950  1.5570 -1.0415  0.1233
 4533SOL     OW25060   2.002   2.746   3.296  0.2457 -0.0616  0.0156
 4533SOL    HW125061   2.019   2.680   3.229  1.5535 -1.4023  1.7087
 4533SOL    HW225062   2.044   2.824   3.258 -0.0512 -0.2420 -0.6994
 4534SOL     OW25063   2.728   0.090   4.880  0.7072  0.6020  0.4434
 4534SOL    HW125064   2.762   0.171   4.844  1.3753 -0.0752 -0.4491
 4534SOL    HW225065   2.738   0.105   4.974  0.5522  0.3829  0.4942
 4535SOL     OW25066   4.137   3.379   7.184 -0.1531 -0.5244 -0.3697
 4535SOL    HW125067   4.111   3.454   7.237  2.7860  0.2521 -0.0520
 4535SOL    HW225068   4.112   3.311   7.246  2.3808 -0.9539  0.1595
 4536SOL     OW25069   0.432   1.344   4.308 -0.1274 -0.9949  0.2701
 4536SOL    HW125070   0.447   1.254   4.335 -1.6918 -1.2939  0.1125
 4536SOL    HW225071   0.340   1.332   4.286  0.3327  0.0262 -2.1906
 4537SOL     OW25072   2.277   1.988   3.137 -0.0770 -0.2568  0.0111
 4537SOL    HW125073   2.256   2.064   3.191 -1.1314  0.2186 -1.0767
 4537SOL    HW225074   2.234   1.915   3.181  0.0567 -0.8391 -0.8216
 4538SOL     OW25075   1.832   3.943   7.771  0.3066 -0.3153  0.4267
 4538SOL    HW125076   1.826   3.904   7.684 -1.9196  1.7357 -0.3315
 4538SOL    HW225077   1.926   3.960   7.782  0.0843  0.1768  1.6085
 4539SOL     OW25078   4.105   1.776  14.365  0.1806  0.3789  0.2051
 4539SOL    HW125079   4.021   1.730  14.369  0.8619 -0.8592 -0.0318
 4539SOL    HW225080   4.170   1.710  14.344  2.8158  2.1317  2.8979
 4540SOL     OW25081   0.241   0.122  11.766 -0.1884  0.0816 -0.6958
 4540SOL    HW125082   0.317   0.132  11.824 -0.6165  1.3753 -0.3567
 4540SOL    HW225083   0.169   0.123  11.829  0.9287 -1.9404  0.6198
 4541SOL     OW25084   3.069   2.733   1.083  0.1347 -0.1960  0.1126
 4541SOL    HW125085   3.070   2.705   0.991  1.0610 -1.6883  0.5755
 4541SOL    HW225086   3.063   2.652   1.134  4.9490 -0.1385  0.8159
 4542SOL     OW25087   4.273   2.631   8.929 -0.5067  0.2212 -0.4747
 4542SOL    HW125088   4.198   2.598   8.979  0.4905 -0.0932  0.7969
 4542SOL    HW225089   4.244   2.592   8.847 -2.7431  2.4653 -0.7564
 4543SOL     OW25090   3.102   1.623   7.782  0.4322 -0.4745  0.0821
 4543SOL    HW125091   3.052   1.602   7.703  2.6796 -0.5658 -1.3063
 4543SOL    HW225092   3.190   1.642   7.751  1.2472 -1.5409  1.7046
 4544SOL     OW25093   0.349   2.416   7.340  0.3592  0.5487  0.5410
 4544SOL    HW125094   0.289   2.373   7.401 -0.5884  1.2101  0.0617
 4544SOL    HW225095   0.350   2.360   7.262 -2.1922  0.1065  0.8316
 4545SOL     OW25096   2.607   1.577   2.038  0.3709 -0.0236  0.2601
 4545SOL    HW125097   2.642   1.621   2.116 -3.6106  0.9048  1.5644
 4545SOL    HW225098   2.610   1.488   2.072 -2.2384 -0.4587 -0.6469
 4546SOL     OW25099   1.823   0.422   2.628 -0.3039 -0.1842 -0.5466
 4546SOL    HW125100   1.860   0.405   2.715  1.4303  1.2002 -1.0362
 4546SOL    HW225101   1.888   0.485   2.600 -0.8300  1.0198  0.9326
 4547SOL     OW25102   4.611   1.961   2.232  0.2730 -0.5107 -0.7348
 4547SOL    HW125103   4.649   1.937   2.148  2.6312 -1.2591  0.5394
 4547SOL    HW225104   4.680   2.022   2.259 -1.7180  1.4019  0.0620
 4548SOL     OW25105   4.636   0.009   3.302  0.4288 -0.5819 -0.1104
 4548SOL    HW125106   4.681   0.093   3.312  1.3605 -1.0674 -0.1955
 4548SOL    HW225107   4.662   4.711   3.214 -1.9520  0.2449 -1.0454
 4549SOL     OW25108   3.977   4.672   2.309 -0.0535  0.0151  0.3728
 4549SOL    HW125109   4.051   4.696   2.365  0.8312 -0.3845 -0.6175
 4549SOL    HW225110   3.939   0.031   2.286 -0.2986 -0.5744 -1.4090
 4550SOL     OW25111   4.095   3.058   1.192 -0.2220  0.2171 -0.6855
 4550SOL    HW125112   4.186   3.052   1.163  0.1839  0.8680  0.5069
 4550SOL    HW225113   4.073   2.966   1.208 -3.4385  1.2159  0.6637
 4551SOL     OW25114   0.483   1.000   2.345 -0.1047  0.1003  0.0702
 4551SOL    HW125115   0.506   0.947   2.421  0.0444  0.9124  0.5935
 4551SOL    HW225116   0.567   1.036   2.316 -2.4422  2.8635 -3.2792
 4552SOL     OW25117   2.678   3.861   7.449  0.6883 -0.1089 -0.1471
 4552SOL    HW125118   2.757   3.845   7.397  0.2677  0.1676 -0.8671
 4552SOL    HW225119   2.648   3.940   7.404  1.1266  1.4211  2.2663
 4553SOL     OW25120   2.485   3.005   5.577  0.4092 -0.5401  0.1134
 4553SOL    HW125121   2.421   2.940   5.602  0.7901 -0.4198  1.3929
 4553SOL    HW225122   2.566   2.954   5.576  0.3525 -0.6459  2.3051
 4554SOL     OW25123   1.174   4.533   4.468 -0.0814  0.2892  0.1835
 4554SOL    HW125124   1.141   4.461   4.522 -4.6655  0.4217 -2.3964
 4554SOL    HW225125   1.111   4.605   4.480 -0.4628 -0.2595  1.4724
 4555SOL     OW25126   3.802   2.785  16.439 -0.3111  0.1417  0.1203
 4555SOL    HW125127   3.820   2.879  16.437 -2.2236  0.5012  0.7540
 4555SOL    HW225128   3.715   2.782  16.477 -1.2039  0.4476 -1.8611
 4556SOL     OW25129   0.104   3.912   2.836 -0.2321 -0.3863 -0.0402
 4556SOL    HW125130   0.060   3.985   2.880  1.7182  1.6296 -1.4468
 4556SOL    HW225131   0.189   3.921   2.878  0.1626 -1.5553 -0.6025
 4557SOL     OW25132   1.863   0.948  13.629  0.0925 -0.3769 -0.2958
 4557SOL    HW125133   1.777   0.913  13.649  0.6756  0.0404  2.8714
 4557SOL    HW225134   1.895   0.889  13.560 -0.9272 -2.7662  1.2943
 4558SOL     OW25135   0.627   1.531   4.391 -0.4496  0.7757 -0.3625
 4558SOL    HW125136   0.582   1.448   4.373  0.7910 -0.2357  1.2903
 4558SOL    HW225137   0.719   1.513   4.374 -0.5933  0.1408 -0.4609
 4559SOL     OW25138   3.583   3.257   6.185 -0.3425 -0.0593 -0.2076
 4559SOL    HW125139   3.539   3.333   6.146 -2.0745 -0.1763  1.4766
 4559SOL    HW225140   3.533   3.245   6.266 -2.7063  1.3903 -1.4390
 4560SOL     OW25141   4.277   4.648   4.854 -0.2630 -0.0218  0.3390
 4560SOL    HW125142   4.323   4.588   4.795  0.9166  0.1494  1.0672
 4560SOL    HW225143   4.314   4.616   4.936  0.3022 -1.3905 -0.4429
 4561SOL     OW25144   2.403   1.225   6.595 -0.6251  0.0605 -0.2951
 4561SOL    HW125145   2.423   1.132   6.605  0.4442  0.3444  0.1721
 4561SOL    HW225146   2.308   1.221   6.605 -0.7183 -0.5653 -1.3759
 4562SOL     OW25147   3.197   0.911  14.659  0.9617 -0.2032  0.0319
 4562SOL    HW125148   3.255   0.968  14.609  1.7085 -0.7617  0.2651
 4562SOL    HW225149   3.232   0.913  14.748 -1.0031  1.2114  0.7740
 4563SOL     OW25150   2.836   0.986   8.984  0.3676 -0.3921 -0.0661
 4563SOL    HW125151   2.889   1.065   8.995  0.7187 -0.3733 -2.0458
 4563SOL    HW225152   2.836   0.980   8.889  1.6077  0.1407 -0.1006
 4564SOL     OW25153   1.072   0.167   0.666  0.1445 -0.5750 -0.0822
 4564SOL    HW125154   1.091   0.218   0.745 -0.0964  0.2802 -0.5707
 4564SOL    HW225155   1.128   0.090   0.670  0.3326 -0.5116 -1.7314
 4565SOL     OW25156   3.016   1.631   2.797 -0.3012  1.0789  0.5295
 4565SOL    HW125157   3.000   1.584   2.879 -3.4832  0.9111 -0.2206
 4565SOL    HW225158   2.933   1.673   2.776 -1.2705  0.4177  3.0430
 4566SOL     OW25159   3.401   1.912   7.064  0.2803  0.3593  0.8762
 4566SOL    HW125160   3.388   1.887   6.972 -1.7915  1.3148  0.8922
 4566SOL    HW225161   3.316   1.903   7.107 -1.3550 -0.3704 -2.4302
 4567SOL     OW25162   2.492   4.049   2.400 -0.2047 -0.1147 -0.4163
 4567SOL    HW125163   2.570   4.018   2.354  1.4900  0.2461  2.1542
 4567SOL    HW225164   2.517   4.141   2.400 -0.5176 -0.0307  0.8426
 4568SOL     OW25165   2.665   3.194   5.061  0.1780 -0.1395 -0.2251
 4568SOL    HW125166   2.741   3.153   5.102 -0.0410 -0.9756 -0.6658
 4568SOL    HW225167   2.600   3.162   5.124  1.4843 -0.1230  1.1342
 4569SOL     OW25168   3.160   1.865  16.272 -0.1518 -0.4507  0.3804
 4569SOL    HW125169   3.238   1.828  16.232  1.5291  0.7000  2.5949
 4569SOL    HW225170   3.171   1.958  16.253  2.8880 -1.3713 -2.2753
 4570SOL     OW25171   0.178   0.091  13.370  0.2177 -0.4587  0.2572
 4570SOL    HW125172   0.187   0.022  13.303 -0.9472  2.1600 -2.6061
 4570SOL    HW225173   0.083   0.106  13.367  0.0067 -1.6562  0.9691
 4571SOL     OW25174   4.431   0.565  12.891 -0.3233 -0.0672 -0.8780
 4571SOL    HW125175   4.456   0.583  12.982  0.0717 -0.2904 -0.9413
 4571SOL    HW225176   4.370   0.496  12.914 -0.0815 -0.0486 -0.1403
 4572SOL     OW25177   0.032   3.007   4.621 -0.3022  0.0250  0.1972
 4572SOL    HW125178   0.000   3.094   4.646 -0.4140 -0.1674  0.7227
 4572SOL    HW225179   0.123   3.020   4.594  0.5328 -3.8908  1.1359
 4573SOL     OW25180   3.469   3.857   0.570  0.1190 -0.3495 -0.5724
 4573SOL    HW125181   3.450   3.895   0.485  0.8323  1.7042  0.1975
 4573SOL    HW225182   3.563   3.872   0.567  0.1508 -0.8725 -2.0843
 4574SOL     OW25183   3.423   0.015   5.790 -0.1594  0.0786 -0.1309
 4574SOL    HW125184   3.336   4.712   5.761  0.9328 -0.9635 -2.3521
 4574SOL    HW225185   3.403   0.093   5.841  1.5746  0.9827 -0.8393
 4575SOL     OW25186   3.500   0.759   6.106  0.1308  0.1797  0.0225
 4575SOL    HW125187   3.589   0.744   6.072 -1.1239 -1.2877 -2.6223
 4575SOL    HW225188   3.524   0.739   6.197 -0.5038  0.2630  0.2095
 4576SOL     OW25189   1.005   0.912  15.929 -0.1517  0.3111  0.0373
 4576SOL    HW125190   0.945   0.953  15.991 -1.7152  1.0315 -1.9798
 4576SOL    HW225191   0.980   0.820  15.928 -1.5239  0.6646  1.8058
 4577SOL     OW25192   0.232   2.820  14.980  0.0859 -0.4852 -0.0849
 4577SOL    HW125193   0.281   2.882  14.926  0.9541 -1.2354 -0.1473
 4577SOL    HW225194   0.149   2.820  14.932 -0.5382  2.2739  0.9781
 4578SOL     OW25195   4.552   2.105   9.617 -0.4566  1.2346  0.0141
 4578SOL    HW125196   4.553   2.099   9.712 -1.5302  1.1482  0.0151
 4578SOL    HW225197   4.591   2.192   9.613  1.3708  0.4920  1.2145
 4579SOL     OW25198   2.211   3.110   6.212  0.0113  0.6517  0.0950
 4579SOL    HW125199   2.176   3.196   6.189 -0.6352 -0.0653 -1.6702
 4579SOL    HW225200   2.149   3.073   6.275 -1.4780 -0.8113 -2.2236
 4580SOL     OW25201   4.002   4.242   3.789  0.2979  0.0033  0.2340
 4580SOL    HW125202   4.010   4.210   3.879 -1.1456  0.9666  0.6969
 4580SOL    HW225203   4.000   4.336   3.807  1.9038 -0.1150  1.0489
 4581SOL     OW25204   2.772   2.262  16.663 -0.3914  0.0324  0.6640
 4581SOL    HW125205   2.744   2.180  16.703 -3.5554 -0.3997 -2.4267
 4581SOL    HW225206   2.787   2.250  16.569  1.7868  3.3795  0.5739
 4582SOL     OW25207   3.031   1.722   2.163 -0.1632  0.1250  0.5546
 4582SOL    HW125208   2.945   1.765   2.164 -1.7434 -3.0313 -0.0427
 4582SOL    HW225209   3.040   1.693   2.253 -0.0601  0.1273  0.5457
 4583SOL     OW25210   2.016   1.355   0.645 -0.2088 -0.0959 -0.0790
 4583SOL    HW125211   1.967   1.298   0.704  0.0499  0.8069  1.0058
 4583SOL    HW225212   2.075   1.294   0.601 -1.4523 -0.0241 -1.8280
 4584SOL     OW25213   0.490   0.688   9.137  0.5629  0.5776  0.9897
 4584SOL    HW125214   0.458   0.602   9.163  0.1894  0.1007 -1.0371
 4584SOL    HW225215   0.584   0.686   9.157  0.3212 -1.4638  1.9262
 4585SOL     OW25216   1.317   4.679   3.748 -0.1509 -0.0141  0.2451
 4585SOL    HW125217   1.258   4.692   3.822  0.1957 -1.3603  0.7687
 4585SOL    HW225218   1.261   4.692   3.672  1.2851  1.4742 -0.5593
 4586SOL     OW25219   4.188   4.260   3.064 -0.4882  0.4419 -0.1639
 4586SOL    HW125220   4.266   4.235   3.114 -0.5460  0.6726  0.0409
 4586SOL    HW225221   4.118   4.273   3.128  1.4230  2.6872  1.4541
 4587SOL     OW25222   0.958   0.809  12.011  0.2255 -0.0996 -0.0114
 4587SOL    HW125223   0.886   0.746  12.017 -0.9362  1.1258 -0.9840
 4587SOL    HW225224   0.930   0.873  12.076  2.5112  1.4351 -0.5579
 4588SOL     OW25225   1.236   2.962   2.490  0.0025  0.3310  0.0828
 4588SOL    HW125226   1.264   2.872   2.477 -1.8505 -0.1649 -0.4041
 4588SOL    HW225227   1.149   2.951   2.530 -0.7806 -0.8169 -1.9477
 4589SOL     OW25228   3.480   3.304   3.445  0.4694 -0.4747  0.1437
 4589SOL    HW125229   3.411   3.274   3.385 -0.6610  1.5588  0.3979
 4589SOL    HW225230   3.515   3.377   3.393 -2.9744  0.6686 -0.5965
 4590SOL     OW25231   0.875   4.726   2.798  0.5158 -0.0594 -0.3846
 4590SOL    HW125232   0.904   4.711   2.888 -2.1792 -0.7082  0.3738
 4590SOL    HW225233   0.890   4.637   2.767  0.3503 -0.7147  1.4179
 4591SOL     OW25234   3.044   3.854   9.298  0.4205 -0.1008  0.4022
 4591SOL    HW125235   3.035   3.767   9.258  0.8523  0.6834 -1.4033
 4591SOL    HW225236   3.131   3.855   9.337 -0.1962  2.8859  1.7028
 4592SOL     OW25237   0.342   2.139   0.044  0.3397 -0.0893 -0.4521
 4592SOL    HW125238   0.322   2.048   0.025  0.1275  0.7952 -4.4674
 4592SOL    HW225239   0.347   2.187  17.668 -1.9501  1.2894  0.2102
 4593SOL     OW25240   2.024   3.601   1.066 -0.0046  1.3215  0.1699
 4593SOL    HW125241   1.939   3.592   1.022  0.8143 -1.2932 -0.8301
 4593SOL    HW225242   2.018   3.527   1.126 -1.9002  1.4637  0.1496
 4594SOL     OW25243   3.825   1.785   1.642  0.2540  0.3946 -0.8877
 4594SOL    HW125244   3.906   1.810   1.598 -0.2507  0.0726 -2.0118
 4594SOL    HW225245   3.783   1.869   1.658 -0.7331 -0.1625 -0.5469
 4595SOL     OW25246   1.314   3.468   6.138 -0.1886 -0.5114 -0.0647
 4595SOL    HW125247   1.277   3.504   6.218  0.8602  0.5179 -0.0408
 4595SOL    HW225248   1.400   3.506   6.120 -1.1480  1.1662 -1.2363
 4596SOL     OW25249   3.732   1.363  13.140 -0.5538  0.0087  0.4004
 4596SOL    HW125250   3.717   1.368  13.235  1.2738 -1.0015  0.7408
 4596SOL    HW225251   3.646   1.381  13.103 -1.7519 -2.3781  2.0074
 4597SOL     OW25252   2.240   0.514  16.707  0.1619  0.1517 -0.1464
 4597SOL    HW125253   2.200   0.586  16.756  1.4177  1.5978 -1.2737
 4597SOL    HW225254   2.225   0.549  16.619 -1.2767 -2.4858 -0.9415
 4598SOL     OW25255   1.203   1.210   3.606 -0.0132  0.6194 -0.0695
 4598SOL    HW125256   1.126   1.255   3.573 -1.7650 -1.5718  1.0003
 4598SOL    HW225257   1.161   1.152   3.670  0.9892  0.7818  0.7396
 4599SOL     OW25258   1.452   2.920   3.286  0.4004 -0.2805  0.3945
 4599SOL    HW125259   1.486   2.995   3.335 -0.8740  1.2742 -1.0713
 4599SOL    HW225260   1.472   2.851   3.349 -1.7698 -1.4904 -0.2420
 4600SOL     OW25261   0.661   2.848  15.282 -0.4788  0.0257 -0.2246
 4600SOL    HW125262   0.684   2.755  15.276  0.2906  0.1221  1.1115
 4600SOL    HW225263   0.575   2.842  15.241 -0.9610  3.2719  0.3485
 4601SOL     OW25264   2.296   1.936  13.432 -0.2674  0.0449 -0.6367
 4601SOL    HW125265   2.272   1.893  13.349 -1.6377 -2.3447  1.0033
 4601SOL    HW225266   2.390   1.918  13.437 -0.6030 -0.6298  2.7811
 4602SOL     OW25267   4.108   4.100   9.817  0.3878  0.0903  0.3045
 4602SOL    HW125268   4.022   4.140   9.801 -0.2193 -1.0887  0.6491
 4602SOL    HW225269   4.152   4.184   9.832  4.2507 -2.0440  0.9161
 4603SOL     OW25270   2.586   3.762   9.494 -0.2502 -0.0832  0.0276
 4603SOL    HW125271   2.604   3.785   9.585 -0.2510  0.7521 -0.1773
 4603SOL    HW225272   2.668   3.797   9.460 -0.2975  1.0004  1.0103
 4604SOL     OW25273   2.925   1.225  14.730  0.2965 -0.0343 -0.0152
 4604SOL    HW125274   2.830   1.217  14.738  0.2714  1.0255  0.7240
 4604SOL    HW225275   2.940   1.249  14.639  0.2796 -1.2996 -0.3537
 4605SOL     OW25276   2.860   4.534  10.272  0.0964  0.1159  0.2695
 4605SOL    HW125277   2.812   4.528  10.189  2.2561 -0.5564 -0.9178
 4605SOL    HW225278   2.826   4.458  10.319 -2.0089 -0.1311 -1.6980
 4606SOL     OW25279   1.854   0.453  14.393 -0.3725 -0.5345 -0.2867
 4606SOL    HW125280   1.820   0.488  14.310 -0.3198  3.8463  1.5427
 4606SOL    HW225281   1.772   0.417  14.427  0.0159 -1.8251 -0.7148
 4607SOL     OW25282   1.174   0.470  16.067  0.3083  0.0940 -0.3566
 4607SOL    HW125283   1.227   0.394  16.090 -0.1366  0.1671  0.8748
 4607SOL    HW225284   1.226   0.542  16.102 -1.0874 -1.2819  4.4754
 4608SOL     OW25285   0.639   0.258   8.431 -0.2928 -0.0086 -0.1188
 4608SOL    HW125286   0.572   0.324   8.414  1.6414  0.6684 -5.0219
 4608SOL    HW225287   0.617   0.206   8.354 -2.3885  1.4246 -0.4721
 4609SOL     OW25288   3.879   0.474  15.433  0.2317  0.5616  0.3631
 4609SOL    HW125289   3.828   0.434  15.504 -1.8329 -0.2165 -1.5589
 4609SOL    HW225290   3.960   0.427  15.451  0.0217  0.3743  0.8083
 4610SOL     OW25291   0.153   4.065  12.049  0.4802  0.6016 -0.5317
 4610SOL    HW125292   0.192   4.140  12.006  0.8988  0.3404 -0.6086
 4610SOL    HW225293   0.121   4.020  11.971  1.3850 -1.2610  0.1627
 4611SOL     OW25294   2.938   4.005   5.538 -0.0583 -0.2835  0.3311
 4611SOL    HW125295   2.852   3.982   5.573 -1.3114  1.0606 -1.8646
 4611SOL    HW225296   2.948   4.087   5.587 -1.2269  0.0666 -0.0203
 4612SOL     OW25297   3.051   1.636   8.690  1.1898  0.6873  0.0760
 4612SOL    HW125298   2.981   1.697   8.664  0.2889  0.1232  1.1675
 4612SOL    HW225299   3.092   1.626   8.604  0.4029 -0.8034 -0.1249
 4613SOL     OW25300   4.666   2.825   3.765 -0.0942  0.0775  0.1581
 4613SOL    HW125301   4.718   2.744   3.761 -1.8165 -0.9678 -1.4943
 4613SOL    HW225302   4.638   2.830   3.674 -0.3736  1.4059  0.3287
 4614SOL     OW25303   3.169   3.005  11.163 -0.2928 -0.3456 -0.0328
 4614SOL    HW125304   3.228   3.074  11.193  1.0034 -0.7098 -1.7137
 4614SOL    HW225305   3.147   2.964  11.247 -0.0183 -0.3495  0.0385
 4615SOL     OW25306   2.651   1.205  14.750  0.1919 -0.0337  0.0025
 4615SOL    HW125307   2.587   1.236  14.687 -0.1563  1.1267  0.9142
 4615SOL    HW225308   2.619   1.121  14.781 -0.9269 -0.6635 -2.9450
 4616SOL     OW25309   2.140   1.860   4.147 -0.5409 -0.3147 -0.7089
 4616SOL    HW125310   2.158   1.946   4.187 -0.0834 -1.6637  2.0260
 4616SOL    HW225311   2.173   1.868   4.058 -0.6852 -2.7362 -0.9767
 4617SOL     OW25312   0.680   1.141   6.974  0.5423  0.0912 -0.2371
 4617SOL    HW125313   0.759   1.155   6.922  0.8288 -0.9696 -0.0856
 4617SOL    HW225314   0.690   1.049   7.002  0.8596 -0.6901 -2.9400
 4618SOL     OW25315   3.877   1.537  16.278 -0.1017  0.4148  0.0393
 4618SOL    HW125316   3.930   1.527  16.358 -0.9441 -2.1021  0.2638
 4618SOL    HW225317   3.943   1.498  16.221  0.8297 -2.5323  3.1409
 4619SOL     OW25318   1.197   2.388  13.623 -0.1703  0.2423 -0.1677
 4619SOL    HW125319   1.280   2.416  13.662 -0.2445 -0.6982  0.6819
 4619SOL    HW225320   1.141   2.445  13.676 -1.1065 -0.9308  0.1224
 4620SOL     OW25321   4.014   0.753   6.106  0.1798 -0.0298 -0.8285
 4620SOL    HW125322   4.047   0.668   6.136 -2.3396 -0.9667 -0.7307
 4620SOL    HW225323   4.077   0.770   6.035  1.0867  0.7270  0.1534
 4621SOL     OW25324   2.288   2.249  15.319  0.2779  0.4486  0.0998
 4621SOL    HW125325   2.313   2.296  15.399  0.8015  0.5951 -0.1540
 4621SOL    HW225326   2.200   2.219  15.344  0.8913 -0.6750  0.9360
 4622SOL     OW25327   2.043   1.779   2.880  0.0459  0.1078  0.1271
 4622SOL    HW125328   2.030   1.853   2.939 -0.9046 -0.7241  0.9634
 4622SOL    HW225329   1.990   1.716   2.928 -0.2014 -0.5404 -1.0074
 4623SOL     OW25330   1.547   0.693  17.481 -0.2906 -0.2076 -0.0832
 4623SOL    HW125331   1.588   0.669  17.397  0.1994 -0.6253  0.2736
 4623SOL    HW225332   1.603   0.647  17.544  0.1400 -0.3707 -0.5833
 4624SOL     OW25333   1.769   1.755   5.089 -0.2757  0.1464 -0.1129
 4624SOL    HW125334   1.772   1.753   5.185  0.8140  2.3474 -0.1117
 4624SOL    HW225335   1.805   1.671   5.059  0.2625  0.9527 -1.7194
 4625SOL     OW25336   2.949   1.872  16.788 -0.0092  0.0202  0.0646
 4625SOL    HW125337   2.968   1.837  16.701  1.9731 -2.0794  1.3170
 4625SOL    HW225338   2.870   1.924  16.781  0.2479  0.3722 -0.1861
 4626SOL     OW25339   0.889   1.222   5.350 -0.3740  0.1964 -0.4272
 4626SOL    HW125340   0.923   1.134   5.364  0.3308  0.7055  1.0516
 4626SOL    HW225341   0.969   1.266   5.382 -0.5857 -0.4388  0.9610
 4627SOL     OW25342   0.636   2.882   5.402 -0.0940  0.1936  0.5773
 4627SOL    HW125343   0.660   2.949   5.466  0.2644  1.7626 -1.2142
 4627SOL    HW225344   0.632   2.805   5.459  1.2023  0.7656  1.4401
 4628SOL     OW25345   3.752   0.660   7.166  0.4715  0.3183 -0.4520
 4628SOL    HW125346   3.746   0.626   7.076  1.5556  1.2025 -0.8447
 4628SOL    HW225347   3.686   0.729   7.164  0.5776  0.3902 -1.4542
 4629SOL     OW25348   4.110   4.166   9.125 -0.1348  0.5704 -0.4050
 4629SOL    HW125349   4.067   4.143   9.207  1.4158 -0.4718  0.0983
 4629SOL    HW225350   4.195   4.125   9.141 -0.3864  0.0630 -0.3893
 4630SOL     OW25351   3.977   3.357   3.382  0.1796  0.5820  0.1020
 4630SOL    HW125352   4.051   3.381   3.438  0.4136 -0.6794  0.3141
 4630SOL    HW225353   3.905   3.380   3.442  0.4236 -0.0879  0.6458
 4631SOL     OW25354   2.052   3.517  17.456  0.2562 -0.2980 -0.5305
 4631SOL    HW125355   2.036   3.451  17.389  2.0283  0.2615 -1.4980
 4631SOL    HW225356   2.026   3.468  17.534  0.6234 -0.9086 -0.7969
 4632SOL     OW25357   2.323   0.575   9.801  1.0229  0.6078 -0.6595
 4632SOL    HW125358   2.237   0.539   9.825  1.8928 -1.3764 -0.5251
 4632SOL    HW225359   2.312   0.661   9.842  0.7897 -0.3675  1.3582
 4633SOL     OW25360   4.327   1.384   8.153  0.4711  0.2218 -0.0661
 4633SOL    HW125361   4.267   1.421   8.088  0.8541 -0.0596 -0.5732
 4633SOL    HW225362   4.264   1.381   8.225  1.9860  1.5396  1.2991
 4634SOL     OW25363   2.063   3.052   2.915  0.5382  0.1867 -0.2098
 4634SOL    HW125364   2.091   3.007   2.835 -0.2096 -1.9376  0.7220
 4634SOL    HW225365   1.969   3.034   2.922  0.9035 -2.3338 -1.9931
 4635SOL     OW25366   1.409   3.109   2.927  0.0271  0.0932  0.1995
 4635SOL    HW125367   1.366   3.024   2.920  0.5024 -0.0816 -0.6966
 4635SOL    HW225368   1.358   3.155   2.860 -2.2980 -1.0385  1.2226
 4636SOL     OW25369   1.148   3.250  11.883 -0.3446 -0.5854 -0.1682
 4636SOL    HW125370   1.076   3.240  11.945 -1.1601  0.7059 -0.9171
 4636SOL    HW225371   1.176   3.158  11.886 -0.8669 -0.7843 -1.6583
 4637SOL     OW25372   3.092   0.079   6.934  0.1211 -0.0864  0.3476
 4637SOL    HW125373   3.116   0.162   6.976  0.6168 -1.0346  1.9459
 4637SOL    HW225374   3.043   0.122   6.864 -0.6083 -2.1305 -0.3877
 4638SOL     OW25375   3.239   1.803   9.387  0.3364  0.4305 -0.0701
 4638SOL    HW125376   3.190   1.881   9.362  0.4177  0.0513 -1.4483
 4638SOL    HW225377   3.250   1.764   9.300  0.0501  1.5283 -0.5889
 4639SOL     OW25378   1.471   0.528   3.133 -0.5773  0.1727 -0.4564
 4639SOL    HW125379   1.502   0.617   3.146 -1.6108  0.4008  0.4953
 4639SOL    HW225380   1.514   0.465   3.192 -1.2700 -2.6716 -2.9691
 4640SOL     OW25381   2.389   2.768   3.453  0.0751 -0.4076 -0.3373
 4640SOL    HW125382   2.455   2.778   3.384 -0.1339  0.7276 -0.3758
 4640SOL    HW225383   2.407   2.845   3.507 -1.5848 -1.3533  1.5407
 4641SOL     OW25384   1.605   2.247  11.875 -0.4604  0.2519 -0.4349
 4641SOL    HW125385   1.567   2.271  11.790 -0.5618 -0.7840 -0.6849
 4641SOL    HW225386   1.609   2.332  11.918  3.6081 -0.1448 -0.0293
 4642SOL     OW25387   0.839   1.506   3.415  0.0844 -0.2927 -0.4941
 4642SOL    HW125388   0.812   1.523   3.325 -0.9619 -1.3031 -0.3778
 4642SOL    HW225389   0.763   1.546   3.457 -0.5862 -0.4682 -1.5546
 4643SOL     OW25390   4.236   3.595   5.128  0.0999  0.1246 -0.5392
 4643SOL    HW125391   4.177   3.536   5.082 -0.7274  0.8709 -0.4296
 4643SOL    HW225392   4.316   3.545   5.107 -1.4469 -1.1300 -3.3263
 4644SOL     OW25393   3.947   3.798  15.763 -0.4721 -0.1733  0.1553
 4644SOL    HW125394   3.878   3.747  15.720 -0.4707 -1.2410  1.4094
 4644SOL    HW225395   3.980   3.859  15.698 -1.5450  0.6657  0.4175
 4645SOL     OW25396   2.958   3.581   3.640  0.0534  0.2282 -0.1662
 4645SOL    HW125397   2.983   3.558   3.729  1.4610  1.3148 -0.2752
 4645SOL    HW225398   3.047   3.572   3.606  0.3401  0.6577  0.4736
 4646SOL     OW25399   4.050   1.961   8.699  0.9247 -0.1267  0.6411
 4646SOL    HW125400   4.127   1.942   8.753 -0.4878 -1.7224  2.0946
 4646SOL    HW225401   4.039   1.879   8.652 -0.0865  0.1914  0.3201
 4647SOL     OW25402   0.778   2.107   8.011 -0.2783  0.2873  0.3969
 4647SOL    HW125403   0.741   2.042   8.070  0.8318  0.0579  0.8469
 4647SOL    HW225404   0.730   2.107   7.928 -1.8697 -3.7525  1.3494
 4648SOL     OW25405   1.032   3.114  13.547 -0.4701  0.0341 -0.1558
 4648SOL    HW125406   0.993   3.202  13.549  2.7957  1.4980 -0.3049
 4648SOL    HW225407   0.959   3.055  13.531 -0.1285 -0.8168  1.4401
 4649SOL     OW25408   3.699   1.934   9.417 -0.3974 -0.0617  0.1292
 4649SOL    HW125409   3.668   2.013   9.462 -2.6380  0.0890 -1.6879
 4649SOL    HW225410   3.633   1.874   9.451 -1.7073  1.3696  0.1449
 4650SOL     OW25411   0.318   2.237   6.872  0.1297  0.7947 -0.1219
 4650SOL    HW125412   0.297   2.178   6.799 -0.6374 -1.3874  1.8744
 4650SOL    HW225413   0.403   2.195   6.888  0.5509  2.7931  2.8604
 4651SOL     OW25414   1.408   0.266   4.060  0.4031 -0.7112  0.4092
 4651SOL    HW125415   1.361   0.292   3.981  1.4913 -1.6497 -0.5562
 4651SOL    HW225416   1.489   0.315   4.045  0.9392 -1.0048  2.3408
 4652SOL     OW25417   3.618   0.998   7.413  0.5371  0.1487  0.2401
 4652SOL    HW125418   3.542   0.961   7.457  1.0004 -2.0059 -0.7681
 4652SOL    HW225419   3.570   1.014   7.332 -0.1815 -0.7220  0.4925
 4653SOL     OW25420   2.774   3.407   2.439 -0.5397 -0.2734 -0.4035
 4653SOL    HW125421   2.720   3.400   2.518  2.1257 -1.6273  1.3296
 4653SOL    HW225422   2.858   3.429   2.480 -2.0034  2.7534  0.9581
 4654SOL     OW25423   2.276   1.566   3.118  0.1064  1.0654  0.5060
 4654SOL    HW125424   2.367   1.588   3.095 -0.0992  0.6207 -0.7301
 4654SOL    HW225425   2.254   1.516   3.039 -2.3137  0.5298  1.5420
 4655SOL     OW25426   0.264   0.357   3.073  0.2696 -0.0974 -0.1465
 4655SOL    HW125427   0.295   0.320   3.155  1.9253 -0.0407 -0.7534
 4655SOL    HW225428   0.290   0.282   3.018  0.3525 -0.6283  0.6150
 4656SOL     OW25429   0.473   3.591   2.645 -0.4338 -0.1166  0.4275
 4656SOL    HW125430   0.379   3.611   2.651 -0.8035 -1.1707 -1.8114
 4656SOL    HW225431   0.490   3.527   2.714 -1.0065 -0.0857  0.6010
 4657SOL     OW25432   4.496   3.061  17.465 -0.3297 -0.0227  0.6272
 4657SOL    HW125433   4.468   3.004  17.536  3.9322  0.1562  2.4980
 4657SOL    HW225434   4.413   3.104  17.444  0.2797  0.1042 -1.5630
 4658SOL     OW25435   1.386   3.113   7.144 -0.2114 -0.4180  0.6640
 4658SOL    HW125436   1.354   3.059   7.071 -1.3174 -1.5956  2.0404
 4658SOL    HW225437   1.303   3.110   7.190 -0.0872 -1.2833  0.8461
 4659SOL     OW25438   2.794   0.603   4.268 -0.0391 -0.2501 -0.4874
 4659SOL    HW125439   2.708   0.605   4.309  0.3631 -0.8667  0.3760
 4659SOL    HW225440   2.815   0.512   4.246  0.5592 -0.0012 -0.9762
 4660SOL     OW25441   2.006   4.343  11.877 -0.3721 -0.0524 -0.6321
 4660SOL    HW125442   1.945   4.414  11.858  1.2115  1.1445 -1.3232
 4660SOL    HW225443   2.038   4.379  11.961 -0.9709 -3.3074  0.9892
 4661SOL     OW25444   3.060   2.189   3.058  0.0840 -0.1017  0.0952
 4661SOL    HW125445   3.030   2.098   3.062 -0.7846  0.2614  1.8651
 4661SOL    HW225446   2.996   2.229   3.000 -1.8148 -2.3534  0.6398
 4662SOL     OW25447   0.663   4.707   4.393 -0.2759 -0.0879 -0.1575
 4662SOL    HW125448   0.596   0.009   4.454 -0.1472 -0.6895  0.2709
 4662SOL    HW225449   0.662   0.053   4.331 -1.3790 -1.1753 -1.4129
 4663SOL     OW25450   0.084   2.396  15.769  0.0304 -0.0432 -0.0887
 4663SOL    HW125451   0.083   2.480  15.723 -2.0640 -0.1233 -0.1766
 4663SOL    HW225452   0.157   2.411  15.829  1.1653  1.0222 -1.7478
 4664SOL     OW25453   4.185   4.517   8.877  0.2548  0.1778  0.0654
 4664SOL    HW125454   4.104   4.474   8.901 -0.3997  0.9880 -0.6808
 4664SOL    HW225455   4.194   4.480   8.789  2.6220 -1.2484  0.8983
 4665SOL     OW25456   0.406   2.520   5.461  0.2032 -0.1798  0.0122
 4665SOL    HW125457   0.408   2.500   5.367  0.9932  1.5550 -0.3334
 4665SOL    HW225458   0.463   2.455   5.503  1.9577 -0.1981 -2.3771
 4666SOL     OW25459   0.923   3.235   3.850 -0.0594  0.6028 -0.3300
 4666SOL    HW125460   0.851   3.224   3.788 -0.6217  0.7596  0.2918
 4666SOL    HW225461   0.948   3.324   3.827 -0.3711  0.1105 -2.5466
 4667SOL     OW25462   3.126   2.631  15.787 -0.5019  0.2645 -0.3953
 4667SOL    HW125463   3.101   2.661  15.875 -0.1802 -2.8260  0.7765
 4667SOL    HW225464   3.086   2.694  15.728 -0.4388  0.3231 -0.3755
 4668SOL     OW25465   4.226   1.331   9.595 -0.2990  0.3746  0.5964
 4668SOL    HW125466   4.227   1.422   9.622  2.0179  0.1173  1.3566
 4668SOL    HW225467   4.135   1.325   9.564  0.7371 -0.5329 -2.2344
 4669SOL     OW25468   3.168   0.950  13.238 -0.2581  0.6766 -0.3362
 4669SOL    HW125469   3.196   1.002  13.313  5.1939  1.4087 -2.8611
 4669SOL    HW225470   3.222   0.979  13.164  1.0590 -1.7143 -0.3429
 4670SOL     OW25471   4.202   3.420   2.589 -0.0502  0.1131 -0.4193
 4670SOL    HW125472   4.195   3.505   2.545  0.7393 -0.2501 -1.2375
 4670SOL    HW225473   4.143   3.427   2.664  1.2758  2.4890  0.4245
 4671SOL     OW25474   1.322   1.470   2.109 -0.4274 -0.3620 -0.2144
 4671SOL    HW125475   1.293   1.383   2.081  1.2577 -1.4136  1.3226
 4671SOL    HW225476   1.347   1.451   2.199  2.3510  0.2204 -0.8592
 4672SOL     OW25477   4.265   0.256   3.495  0.4097  0.0299 -0.2024
 4672SOL    HW125478   4.206   0.193   3.538  1.7589 -1.2727 -0.2622
 4672SOL    HW225479   4.237   0.340   3.532 -0.7920 -0.2219 -0.5140
 4673SOL     OW25480   3.872   0.125   6.430 -0.4791 -0.5536  0.3189
 4673SOL    HW125481   3.890   0.144   6.522 -0.1468 -1.1191  0.3688
 4673SOL    HW225482   3.826   0.042   6.443  0.1293 -1.0857 -0.9014
 4674SOL     OW25483   1.502   3.133  10.015 -0.0922 -0.0902  0.6600
 4674SOL    HW125484   1.485   3.057  10.070 -2.4572  0.2356  0.3538
 4674SOL    HW225485   1.514   3.090   9.930 -0.1037  0.7994  0.2124
 4675SOL     OW25486   2.228   1.420   3.933 -0.3686 -0.2547 -0.4469
 4675SOL    HW125487   2.285   1.348   3.906 -1.2187 -1.3499  0.6522
 4675SOL    HW225488   2.262   1.490   3.877 -0.3256  1.1567  1.3182
 4676SOL     OW25489   0.211   2.322  15.445 -0.4141  0.3431 -0.6536
 4676SOL    HW125490   0.146   2.392  15.439  1.0581  1.7348 -0.3222
 4676SOL    HW225491   0.206   2.284  15.533  0.4601 -1.8362 -1.5387
 4677SOL     OW25492   0.963   1.948   8.895  0.5360 -0.3906 -0.0650
 4677SOL    HW125493   0.909   1.869   8.896  0.6522 -0.4680  0.1015
 4677SOL    HW225494   0.928   1.988   8.815 -2.9595  1.0576  2.1660
 4678SOL     OW25495   2.338   0.557  13.332 -0.0575 -1.0359  0.1330
 4678SOL    HW125496   2.421   0.597  13.309 -0.9283  1.0490  0.6021
 4678SOL    HW225497   2.320   0.502  13.256  1.9598 -1.3871 -0.0830
 4679SOL     OW25498   0.452   0.950   1.222  0.0107 -0.2729  0.0331
 4679SOL    HW125499   0.466   0.872   1.275 -0.0248 -2.2387 -2.8619
 4679SOL    HW225500   0.477   0.923   1.133  4.3119  0.8251  0.8916
 4680SOL     OW25501   1.416   0.755   5.861  0.2929 -0.0874  0.1011
 4680SOL    HW125502   1.354   0.692   5.897  0.1040 -0.1453 -0.3264
 4680SOL    HW225503   1.399   0.751   5.767  0.1827  1.2185  0.0684
 4681SOL     OW25504   0.903   2.769   0.727 -0.5986 -0.7252 -0.2363
 4681SOL    HW125505   0.853   2.753   0.807  0.6169 -2.0890  0.2487
 4681SOL    HW225506   0.841   2.825   0.679 -2.0419  0.2071  2.7477
 4682SOL     OW25507   3.185   3.116   1.190  0.7551 -0.2180  0.2157
 4682SOL    HW125508   3.192   3.059   1.266  0.1811  0.0695  0.4873
 4682SOL    HW225509   3.277   3.142   1.190  0.1043  2.1111 -1.6123
 4683SOL     OW25510   3.541   1.698   1.029  0.1068  0.5658 -0.0390
 4683SOL    HW125511   3.450   1.714   1.054 -0.4820  1.5899 -2.7975
 4683SOL    HW225512   3.573   1.788   1.036 -0.2988  0.7142 -0.0904
 4684SOL     OW25513   3.733   3.493   8.370 -1.2063  0.0902 -0.2467
 4684SOL    HW125514   3.680   3.534   8.301 -0.6240  2.4003  0.6808
 4684SOL    HW225515   3.669   3.492   8.441 -0.3683  0.2008  0.5050
 4685SOL     OW25516   4.281   3.928   9.690  0.3251 -0.2701 -0.1786
 4685SOL    HW125517   4.221   3.995   9.723 -0.4371 -1.8743  1.6343
 4685SOL    HW225518   4.229   3.860   9.649 -0.6562  0.1794  0.3195
 4686SOL     OW25519   1.540   1.747  10.367 -0.3180 -0.3509  0.2726
 4686SOL    HW125520   1.629   1.713  10.373 -0.3027 -0.1149  1.4751
 4686SOL    HW225521   1.526   1.785  10.454 -2.4333 -0.2023 -0.1308
 4687SOL     OW25522   1.802   0.644  13.792  0.4615 -0.1689  0.2623
 4687SOL    HW125523   1.745   0.708  13.835 -0.3772 -0.3622 -0.5693
 4687SOL    HW225524   1.784   0.663  13.700 -0.3127  0.0041  0.4474
 4688SOL     OW25525   1.932   4.489   8.394 -0.2217 -0.2792 -0.5411
 4688SOL    HW125526   1.860   4.539   8.433  0.5495 -0.0166  0.5121
 4688SOL    HW225527   1.978   4.477   8.476 -2.2898  0.4317  0.7209
 4689SOL     OW25528   0.582   0.438   2.724 -0.0687 -0.0415 -0.5919
 4689SOL    HW125529   0.637   0.472   2.653 -0.4091 -1.6289 -1.6281
 4689SOL    HW225530   0.495   0.436   2.682  0.0149  1.3203 -0.8319
 4690SOL     OW25531   0.101   0.379   9.519  0.0306  0.3725  0.2549
 4690SOL    HW125532   0.059   0.309   9.569  2.1325  0.1432  1.6821
 4690SOL    HW225533   0.192   0.378   9.546  0.0697 -0.6031  0.0839
 4691SOL     OW25534   3.040   1.095   8.142  0.0358  0.3747  0.0519
 4691SOL    HW125535   3.016   1.033   8.073 -0.3921  0.0416  0.4966
 4691SOL    HW225536   3.133   1.081   8.156 -0.6264 -1.8884  2.2898
 4692SOL     OW25537   0.208   1.312   3.980  0.2018  0.4411  0.2372
 4692SOL    HW125538   0.166   1.372   3.918 -1.4880  1.1775  2.1026
 4692SOL    HW225539   0.133   1.284   4.033 -1.1035  1.2226 -1.1705
 4693SOL     OW25540   3.267   3.012   1.476  0.4015 -0.0466 -0.8353
 4693SOL    HW125541   3.188   2.969   1.445  0.7180  0.8047 -2.8444
 4693SOL    HW225542   3.233   3.078   1.536  1.1313  0.3860 -0.9004
 4694SOL     OW25543   1.521   3.478   8.577 -0.8044 -0.0560  0.3424
 4694SOL    HW125544   1.615   3.462   8.575 -0.8502 -0.5172  1.6425
 4694SOL    HW225545   1.494   3.493   8.486  0.5284 -1.5821 -0.3115
 4695SOL     OW25546   3.550   4.129   2.703 -0.0538  0.2638  0.5767
 4695SOL    HW125547   3.518   4.212   2.738  3.2572  1.1783  1.4221
 4695SOL    HW225548   3.625   4.158   2.652 -1.1079  1.1080 -0.4702
 4696SOL     OW25549   3.333   0.990   7.527 -0.0916 -0.1689 -0.3041
 4696SOL    HW125550   3.248   0.990   7.572 -0.1294  1.0911 -0.3642
 4696SOL    HW225551   3.350   1.083   7.541 -0.3741 -0.2515  0.6307
 4697SOL     OW25552   4.565   3.871   5.269 -0.1246  0.0242 -0.4467
 4697SOL    HW125553   4.623   3.942   5.241  0.1936 -0.1691 -0.2798
 4697SOL    HW225554   4.499   3.915   5.322  1.1064  1.5268 -0.1474
 4698SOL     OW25555   1.528   1.512  15.872  0.2426 -0.2411 -0.4278
 4698SOL    HW125556   1.606   1.520  15.927 -0.8088 -0.8086  1.1434
 4698SOL    HW225557   1.514   1.604  15.849 -3.3522 -0.8493 -0.6623
 4699SOL     OW25558   2.216   1.159   0.607 -0.7083  0.4571 -0.4013
 4699SOL    HW125559   2.285   1.116   0.556 -2.3375 -1.7799 -0.6908
 4699SOL    HW225560   2.196   1.096   0.675 -0.0117 -1.0675 -1.6144
 4700SOL     OW25561   0.954   1.141  10.340  0.5625  0.1775  0.1230
 4700SOL    HW125562   0.942   1.221  10.289 -0.7307 -0.8341 -1.1634
 4700SOL    HW225563   1.024   1.163  10.402  1.3961  0.2790 -0.8583
 4701SOL     OW25564   0.709   3.187  17.116  0.4480 -0.2380 -0.0099
 4701SOL    HW125565   0.768   3.221  17.048 -0.7224  0.1533 -0.8273
 4701SOL    HW225566   0.633   3.213  17.064  0.0639  0.8346  1.1023
 4702SOL     OW25567   1.553   4.714   0.352 -0.6507 -0.1992 -0.4673
 4702SOL    HW125568   1.634   0.037   0.350 -2.2343  2.3621 -1.1183
 4702SOL    HW225569   1.519   0.008   0.265 -0.0800 -0.3561 -0.7214
 4703SOL     OW25570   0.307   2.459   4.768 -0.2824 -0.3493  0.1995
 4703SOL    HW125571   0.261   2.379   4.792  2.0078 -1.0164  2.4414
 4703SOL    HW225572   0.235   2.499   4.720 -0.0845 -0.7066 -0.4026
 4704SOL     OW25573   0.058   2.772   2.101  0.3134 -0.3332  0.1098
 4704SOL    HW125574   0.043   2.680   2.077  2.0318 -1.2178  2.4151
 4704SOL    HW225575   0.082   2.807   2.015 -3.3532  1.2254 -0.2744
 4705SOL     OW25576   0.119   3.427   5.597  0.3910 -0.6926  0.1349
 4705SOL    HW125577   0.169   3.397   5.521  2.5052  1.0992  0.8223
 4705SOL    HW225578   0.189   3.438   5.661 -0.9437  0.9978  1.3073
 4706SOL     OW25579   0.133   4.030   4.660  0.3059  0.1996  0.3157
 4706SOL    HW125580   0.065   4.006   4.723 -1.1607 -0.9362 -1.6612
 4706SOL    HW225581   0.121   4.125   4.664 -1.7440 -0.0477  0.0251
 4707SOL     OW25582   2.508   2.220   3.452 -0.2676  0.4098  0.0499
 4707SOL    HW125583   2.422   2.248   3.483 -0.9121 -3.4771  1.6932
 4707SOL    HW225584   2.567   2.251   3.521  1.4809  0.4762 -1.4688
 4708SOL     OW25585   2.736   1.607   1.797 -0.0498  0.2516 -0.2270
 4708SOL    HW125586   2.713   1.694   1.765 -0.1734 -0.1586 -1.2512
 4708SOL    HW225587   2.711   1.605   1.889  1.8131 -0.1824  0.2776
 4709SOL     OW25588   1.109   0.890   6.747 -0.4844 -0.3096  0.4358
 4709SOL    HW125589   1.204   0.904   6.746 -0.7249  1.0560 -3.6599
 4709SOL    HW225590   1.093   0.827   6.816 -0.3495 -1.8442 -0.9456
 4710SOL     OW25591   3.889   1.314   3.422  0.4616 -0.3830  0.5995
 4710SOL    HW125592   3.878   1.407   3.443  2.4782 -0.5326  2.3934
 4710SOL    HW225593   3.880   1.315   3.327  1.1316  1.8228  0.5625
 4711SOL     OW25594   3.757   2.885   7.814  0.4810  0.8150  0.3892
 4711SOL    HW125595   3.720   2.886   7.902  0.9089 -1.6131  0.6075
 4711SOL    HW225596   3.706   2.953   7.771 -0.1152  0.4110  0.4543
 4712SOL     OW25597   2.676   2.846   5.252  0.3084  0.2473 -0.0326
 4712SOL    HW125598   2.760   2.831   5.295  0.5876  0.9487 -0.3319
 4712SOL    HW225599   2.711   2.815   5.168 -1.3225  1.3060 -1.0921
 4713SOL     OW25600   0.483   4.339   4.499 -0.5721  0.0569 -0.1524
 4713SOL    HW125601   0.578   4.338   4.496 -0.5629  0.5687  0.0673
 4713SOL    HW225602   0.453   4.373   4.414  0.7709  1.8242  0.0827
 4714SOL     OW25603   0.594   0.687   3.215  0.0434  0.0112 -0.1496
 4714SOL    HW125604   0.589   0.623   3.144  0.4291 -0.9747  0.7061
 4714SOL    HW225605   0.682   0.721   3.200  0.6490 -0.3603  2.5305
 4715SOL     OW25606   2.014   3.047   9.054  0.6238 -0.4032 -0.5994
 4715SOL    HW125607   1.970   2.966   9.027  1.3725 -1.4352  1.3036
 4715SOL    HW225608   1.941   3.110   9.053  0.3184 -0.7465  0.2587
 4716SOL     OW25609   1.619   4.196   6.712 -0.5211 -0.2990  0.0379
 4716SOL    HW125610   1.603   4.171   6.803 -0.3530  1.7355  0.6251
 4716SOL    HW225611   1.715   4.190   6.710 -0.4669  0.3238  0.5267
 4717SOL     OW25612   0.001   4.183  13.996 -0.5009  0.4830 -0.0872
 4717SOL    HW125613   4.646   4.176  13.945  1.5885  0.5583 -3.4277
 4717SOL    HW225614   4.690   4.149  14.077  1.4343 -0.4515  0.4118
 4718SOL     OW25615   2.978   2.536   5.828  0.0879  0.3024 -0.3679
 4718SOL    HW125616   3.035   2.477   5.878 -2.5698  0.1945  2.5499
 4718SOL    HW225617   2.992   2.493   5.744  3.0100 -1.1934  0.8632
 4719SOL     OW25618   1.793   2.370   2.663 -0.3642 -0.8240  0.2539
 4719SOL    HW125619   1.725   2.437   2.665  1.1576  0.6795  0.6474
 4719SOL    HW225620   1.755   2.303   2.721 -1.3487 -0.8385 -0.4066
 4720SOL     OW25621   3.137   4.573   3.312  0.0323 -0.4414  0.5901
 4720SOL    HW125622   3.084   4.641   3.354  0.7886 -0.6995  1.9698
 4720SOL    HW225623   3.152   4.516   3.387 -6.0082  0.5855  2.6307
 4721SOL     OW25624   0.083   2.852  15.811 -0.1816 -0.4878 -0.5131
 4721SOL    HW125625   0.125   2.776  15.770 -0.3932 -1.2299  0.6520
 4721SOL    HW225626   0.004   2.855  15.757 -0.4500  1.5677 -0.0074
 4722SOL     OW25627   0.375   0.657  15.792 -0.4404 -0.1789  0.1394
 4722SOL    HW125628   0.337   0.624  15.873 -0.5824  2.4313  1.1282
 4722SOL    HW225629   0.350   0.589  15.730 -0.0760  0.2544 -0.4875
 4723SOL     OW25630   2.351   3.314   1.329 -0.4639  0.2296  0.4178
 4723SOL    HW125631   2.313   3.234   1.366 -2.0646  1.0674  0.5886
 4723SOL    HW225632   2.328   3.374   1.400 -0.5496  0.0735  0.5221
 4724SOL     OW25633   2.114   4.558   6.301  0.1410 -0.8802 -0.3041
 4724SOL    HW125634   2.087   4.481   6.351 -1.1317 -1.3410 -1.7059
 4724SOL    HW225635   2.106   4.624   6.370 -1.5451 -0.5809 -0.7834
 4725SOL     OW25636   3.063   1.296   6.681 -0.5101 -0.7513 -0.0137
 4725SOL    HW125637   3.094   1.312   6.592 -3.1317  3.4929 -0.2091
 4725SOL    HW225638   2.973   1.274   6.658 -1.0909  0.4367  1.1151
 4726SOL     OW25639   4.328   3.418   9.461  0.1423 -0.2130  0.1536
 4726SOL    HW125640   4.399   3.431   9.398  0.1152  2.0119  0.5826
 4726SOL    HW225641   4.320   3.501   9.509 -1.9511  0.0371 -0.6241
 4727SOL     OW25642   0.037   3.505   6.981 -0.4919 -0.2051 -0.0961
 4727SOL    HW125643   0.033   3.584   7.035 -1.5265 -0.3993  0.1151
 4727SOL    HW225644   0.095   3.531   6.909 -0.0759  0.6383  0.5517
 4728SOL     OW25645   2.502   1.503   8.809 -0.1869 -0.4852 -0.7238
 4728SOL    HW125646   2.586   1.472   8.778 -0.4048  0.3057 -2.0968
 4728SOL    HW225647   2.509   1.599   8.804 -1.2772 -0.4884 -2.2336
 4729SOL     OW25648   0.310   1.806   5.602 -0.1829 -0.3335  0.2418
 4729SOL    HW125649   0.319   1.712   5.583  0.3872 -0.5470  1.5268
 4729SOL    HW225650   0.368   1.837   5.532 -1.6731 -0.8204 -1.2045
 4730SOL     OW25651   4.279   2.734   5.902  0.2615 -0.2404 -0.3222
 4730SOL    HW125652   4.354   2.780   5.939 -2.6062  2.6208  1.9874
 4730SOL    HW225653   4.254   2.688   5.982  1.6285  0.3863  0.4653
 4731SOL     OW25654   2.939   0.866  13.106 -0.7338  0.2285  0.0991
 4731SOL    HW125655   3.003   0.814  13.057 -1.5835 -0.6749 -0.0628
 4731SOL    HW225656   3.002   0.899  13.170 -0.9003  0.6767  0.0343
 4732SOL     OW25657   3.053   1.388   5.391 -0.2787 -0.4278 -0.0715
 4732SOL    HW125658   2.996   1.436   5.331  0.4289 -0.6749 -0.9477
 4732SOL    HW225659   3.136   1.393   5.344  0.5053  0.7702  1.4365
 4733SOL     OW25660   3.916   2.798   9.750  0.3006  0.6266 -0.6123
 4733SOL    HW125661   3.954   2.724   9.702 -0.7401 -0.3589  0.0754
 4733SOL    HW225662   3.848   2.754   9.800 -0.7189 -0.3097 -2.8438
 4734SOL     OW25663   4.230   2.356  11.125  0.0900  0.4645 -0.1626
 4734SOL    HW125664   4.227   2.306  11.044  0.9663  1.6709 -0.9239
 4734SOL    HW225665   4.166   2.423  11.102 -0.9188 -1.0088 -1.6679
 4735SOL     OW25666   1.995   1.285   2.838 -0.0402 -0.2682  0.3258
 4735SOL    HW125667   1.977   1.334   2.758 -0.0822  0.3150  0.6879
 4735SOL    HW225668   1.916   1.299   2.889  0.5070 -1.3986  1.4999
 4736SOL     OW25669   1.188   4.486   3.932  0.3348  0.0245 -0.3744
 4736SOL    HW125670   1.194   4.419   3.864  0.6318  0.5725 -0.8888
 4736SOL    HW225671   1.217   4.436   4.008 -0.1864  1.1876  0.5928
 4737SOL     OW25672   3.205   2.308   8.789  0.2271  0.1805  0.0791
 4737SOL    HW125673   3.185   2.257   8.867  0.7338  2.0540  1.4372
 4737SOL    HW225674   3.301   2.311   8.794  0.1811  1.0933  0.3316
 4738SOL     OW25675   1.032   3.675  17.040  0.4791  0.0745 -0.0747
 4738SOL    HW125676   0.988   3.677  16.955  1.1547  0.1909 -0.4242
 4738SOL    HW225677   1.039   3.770  17.052 -0.5077  0.0866  0.4129
 4739SOL     OW25678   0.583   0.971   7.870 -0.1407 -0.0463  0.6406
 4739SOL    HW125679   0.671   0.954   7.837 -0.4106 -2.0075  0.9110
 4739SOL    HW225680   0.528   0.947   7.795 -0.0400  2.0011 -0.0641
 4740SOL     OW25681   3.826   2.097   4.542 -0.2245 -0.2434 -0.0844
 4740SOL    HW125682   3.869   2.153   4.477  1.1142 -0.9604  0.1949
 4740SOL    HW225683   3.771   2.036   4.493  1.3467 -0.5143 -1.4809
 4741SOL     OW25684   1.547   0.015   8.812 -0.5121  0.0951 -0.5046
 4741SOL    HW125685   1.583   0.054   8.892  1.4319 -0.4350 -1.1105
 4741SOL    HW225686   1.457   0.003   8.840 -0.8592  1.8939 -0.8342
 4742SOL     OW25687   3.328   0.077  12.643  0.3230 -0.1472  0.6631
 4742SOL    HW125688   3.287   0.049  12.725 -1.9281 -1.2200 -0.8265
 4742SOL    HW225689   3.314   0.171  12.654 -0.9285 -0.1701 -0.6784
 4743SOL     OW25690   1.161   4.316   0.604  0.3085  0.0102  0.3829
 4743SOL    HW125691   1.204   4.367   0.672  2.3943 -0.9789 -0.1745
 4743SOL    HW225692   1.067   4.327   0.618 -0.3081 -1.0703 -2.6992
 4744SOL     OW25693   0.393   3.332  12.988 -0.1642 -0.5767 -0.3705
 4744SOL    HW125694   0.398   3.425  13.013 -0.8680 -1.0271  1.4605
 4744SOL    HW225695   0.410   3.348  12.895 -2.7176 -0.6311 -0.8480
 4745SOL     OW25696   1.900   1.148   9.448 -0.1711 -0.1776 -0.6245
 4745SOL    HW125697   1.807   1.138   9.468 -0.0258  1.7457  1.0059
 4745SOL    HW225698   1.912   1.104   9.364 -0.4112 -0.6825 -0.3996
 4746SOL     OW25699   0.032   0.742   3.632  0.4141  0.4603 -0.5043
 4746SOL    HW125700   0.046   0.703   3.546  0.2027 -1.5129  0.3588
 4746SOL    HW225701   4.724   0.828   3.608 -1.8168 -0.2939  0.0506
 4747SOL     OW25702   3.006   2.910   4.066  0.3362 -0.4372  0.5051
 4747SOL    HW125703   2.913   2.887   4.076 -0.3487  0.3704 -3.8116
 4747SOL    HW225704   3.036   2.861   3.990 -0.9447 -0.0010 -0.2928
 4748SOL     OW25705   2.479   3.645   2.266  0.1558 -0.0274 -0.7710
 4748SOL    HW125706   2.505   3.586   2.336  0.4149 -0.5124 -1.2806
 4748SOL    HW225707   2.421   3.711   2.305  1.5485 -0.9138  2.7623
 4749SOL     OW25708   0.894   2.325   5.515  0.8304 -0.3841 -0.0508
 4749SOL    HW125709   0.982   2.349   5.544 -0.8532  0.5298  4.3773
 4749SOL    HW225710   0.897   2.352   5.424  2.1058 -1.7342 -0.4058
 4750SOL     OW25711   1.069   0.022  13.331  0.0418 -0.4736 -0.0844
 4750SOL    HW125712   1.134   4.685  13.360  2.1876  1.3941 -0.7873
 4750SOL    HW225713   1.028   0.042  13.416 -0.1842  0.6170 -0.4437
 4751SOL     OW25714   0.558   2.943   0.396  0.0309 -0.1334 -0.0983
 4751SOL    HW125715   0.577   3.030   0.361 -1.5377  0.6955  1.1139
 4751SOL    HW225716   0.589   2.873   0.338 -0.6026 -0.4718 -0.0251
 4752SOL     OW25717   4.044   0.809   2.412  0.0788 -0.5550 -0.1688
 4752SOL    HW125718   4.089   0.889   2.437 -1.6950  0.4650 -0.2429
 4752SOL    HW225719   4.111   0.749   2.380  1.0875 -0.5343  1.9148
 4753SOL     OW25720   3.106   1.321   4.180 -0.0281 -0.3895  0.1617
 4753SOL    HW125721   3.113   1.415   4.194  1.5350 -0.3157 -1.2236
 4753SOL    HW225722   3.031   1.319   4.121  1.6089  0.3195 -1.9259
 4754SOL     OW25723   0.116   2.873   7.649 -0.2071 -0.1561  0.9401
 4754SOL    HW125724   0.189   2.825   7.688 -1.1179 -0.8644  1.7598
 4754SOL    HW225725   0.142   2.886   7.558 -0.9625  2.5851  1.1081
 4755SOL     OW25726   3.845   0.060   8.255  0.0333 -0.0831  0.4179
 4755SOL    HW125727   3.844   0.156   8.251  0.6684 -0.1115 -0.4576
 4755SOL    HW225728   3.926   0.039   8.208  1.1842  0.5101  2.1407
 4756SOL     OW25729   1.936   2.540   4.856 -0.2578 -0.0865  0.0816
 4756SOL    HW125730   1.891   2.533   4.772 -0.0619 -1.9560  0.1260
 4756SOL    HW225731   1.863   2.535   4.918  0.0880 -1.2287  0.3991
 4757SOL     OW25732   2.256   2.156   3.696  0.0658  0.3173  0.6796
 4757SOL    HW125733   2.229   2.246   3.683  0.3944  0.0854 -1.5732
 4757SOL    HW225734   2.218   2.138   3.782 -0.8526 -1.2052 -0.0370
 4758SOL     OW25735   1.907   1.184   4.965  0.1395  0.3965 -0.0450
 4758SOL    HW125736   1.942   1.174   4.877  1.6260 -2.0096  0.8053
 4758SOL    HW225737   1.992   1.191   5.009 -0.2162  1.3596  0.4959
 4759SOL     OW25738   2.549   4.449  12.030  0.0036 -0.4620 -0.7409
 4759SOL    HW125739   2.631   4.403  12.013  1.0949  1.2666 -0.1203
 4759SOL    HW225740   2.528   4.430  12.121  0.0260 -1.4095 -0.9295
 4760SOL     OW25741   1.393   1.209   2.667 -0.3734  0.0392  0.6389
 4760SOL    HW125742   1.362   1.154   2.595 -0.2591  0.7638  0.0345
 4760SOL    HW225743   1.311   1.223   2.714 -0.0445 -1.0089  1.5273
 4761SOL     OW25744   2.901   3.092   5.169 -0.2527 -0.2766  0.3616
 4761SOL    HW125745   2.883   3.003   5.200  2.6315 -0.6190  1.0066
 4761SOL    HW225746   2.949   3.071   5.089 -1.0204  0.6844 -0.3507
 4762SOL     OW25747   3.860   2.622  16.655  0.1740  0.2517 -0.0694
 4762SOL    HW125748   3.929   2.672  16.699 -0.1060  0.9128 -0.3732
 4762SOL    HW225749   3.864   2.674  16.574  2.2071 -0.0925 -0.1929
 4763SOL     OW25750   3.990   4.646   6.043  0.2974  0.0489 -0.0670
 4763SOL    HW125751   4.063   4.707   6.035 -0.3944  0.9870  0.7334
 4763SOL    HW225752   3.920   4.711   6.052  1.4800  1.2794  0.1573
 4764SOL     OW25753   0.861   3.795  11.813 -0.1303 -0.4916  0.0997
 4764SOL    HW125754   0.783   3.769  11.862 -0.6201 -0.6615 -0.7617
 4764SOL    HW225755   0.852   3.732  11.742 -0.9867 -1.5715  1.1673
 4765SOL     OW25756   0.199   3.572  10.201 -0.3813  0.0735  0.7295
 4765SOL    HW125757   0.257   3.549  10.274  0.1775 -0.4611  0.1174
 4765SOL    HW225758   0.158   3.491  10.170  0.7446 -1.0196  2.1035
 4766SOL     OW25759   1.429   0.335   1.283  0.5686 -0.0188  0.5182
 4766SOL    HW125760   1.338   0.337   1.253  0.1400 -0.9214  1.7572
 4766SOL    HW225761   1.419   0.305   1.373  1.8403  1.6673  1.2061
 4767SOL     OW25762   1.757   2.950  12.617  0.2954  0.0847 -0.0118
 4767SOL    HW125763   1.697   2.887  12.579  0.8560 -0.8074  0.5880
 4767SOL    HW225764   1.704   3.011  12.668  0.7684  0.5665 -0.0911
 4768SOL     OW25765   2.822   1.823   4.360  0.4624  0.0288 -0.2483
 4768SOL    HW125766   2.842   1.851   4.270 -1.1920 -1.4712 -1.0852
 4768SOL    HW225767   2.808   1.730   4.342 -1.2462  0.3002 -0.2861
 4769SOL     OW25768   0.405   0.031  12.529  0.3696  0.3080 -0.1691
 4769SOL    HW125769   0.476   0.087  12.561  0.4148 -1.7439  3.4093
 4769SOL    HW225770   0.441   4.674  12.559  2.6299  1.5927  0.6999
 4770SOL     OW25771   2.322   1.696   9.135  0.1088 -0.2719 -0.3126
 4770SOL    HW125772   2.317   1.602   9.118  2.5251 -0.7116  1.3768
 4770SOL    HW225773   2.408   1.725   9.108  0.5172 -1.3495 -0.1687
 4771SOL     OW25774   0.808   2.337   4.490 -0.1180 -0.3766  0.3972
 4771SOL    HW125775   0.757   2.404   4.444 -0.7235  0.0577  1.6969
 4771SOL    HW225776   0.729   2.283   4.499 -0.8306  0.1653 -2.2959
 4772SOL     OW25777   3.380   2.109   8.423  0.3804 -0.4080 -0.3291
 4772SOL    HW125778   3.394   2.087   8.515 -1.0939  0.6116  0.1337
 4772SOL    HW225779   3.375   2.204   8.426 -0.6324 -0.4285 -1.2643
 4773SOL     OW25780   0.229   2.724  11.370 -0.0023 -0.2645 -0.3973
 4773SOL    HW125781   0.137   2.743  11.351 -0.2397 -0.3866  0.6061
 4773SOL    HW225782   0.250   2.802  11.423  1.7712 -0.4960 -0.7524
 4774SOL     OW25783   1.258   2.657   5.041 -0.8546 -0.2002 -0.4736
 4774SOL    HW125784   1.164   2.646   5.059 -1.2663  3.4172 -0.2929
 4774SOL    HW225785   1.247   2.699   4.956 -2.5496  0.7387  0.1876
 4775SOL     OW25786   2.162   4.667  16.007  0.1156 -0.1131  0.4043
 4775SOL    HW125787   2.136   4.578  15.983 -0.5691  0.0379  0.5948
 4775SOL    HW225788   2.162   4.712  15.923 -0.9596  0.0141  0.4722
 4776SOL     OW25789   3.975   3.011   3.671  0.0937  0.0193  0.0087
 4776SOL    HW125790   4.003   2.953   3.742  1.7855 -0.5033 -1.0874
 4776SOL    HW225791   3.981   2.953   3.595 -1.4366 -2.0751  1.4693
 4777SOL     OW25792   3.647   4.068  17.538 -0.5883  0.0496  0.0327
 4777SOL    HW125793   3.602   3.987  17.563  0.2683 -1.2468 -2.6639
 4777SOL    HW225794   3.593   4.084  17.461 -1.7714 -0.3305  0.7801
 4778SOL     OW25795   2.119   1.160  10.856  0.1268  0.1927 -0.2909
 4778SOL    HW125796   2.128   1.136  10.764  0.2411 -0.9483  0.0140
 4778SOL    HW225797   2.061   1.090  10.887  1.0077  0.2179  1.3819
 4779SOL     OW25798   2.408   1.015  16.983 -0.3279 -0.2754 -0.2369
 4779SOL    HW125799   2.379   1.064  16.907 -2.0463  1.9601  1.8917
 4779SOL    HW225800   2.419   1.081  17.052  0.7551 -2.0971  1.3626
 4780SOL     OW25801   3.214   0.451   8.162  0.0071 -0.3559 -0.2145
 4780SOL    HW125802   3.165   0.369   8.155 -1.4293  0.2106  3.4834
 4780SOL    HW225803   3.299   0.424   8.196  0.7144  3.6818  1.2053
 4781SOL     OW25804   1.022   3.159  17.614  0.2018  0.2482  0.4945
 4781SOL    HW125805   0.930   3.159  17.587  0.1763  1.0305  0.5590
 4781SOL    HW225806   1.069   3.173  17.533 -1.2652  0.0632 -0.3883
 4782SOL     OW25807   3.369   1.971   8.175  0.1894 -0.1367 -0.4170
 4782SOL    HW125808   3.399   2.013   8.256 -0.7290  1.2332 -0.7942
 4782SOL    HW225809   3.402   1.882   8.185 -1.9547 -0.7457  1.1943
 4783SOL     OW25810   2.860   0.285   1.330 -0.1787 -0.1201 -0.0824
 4783SOL    HW125811   2.822   0.373   1.335  0.3650  0.1430 -0.5800
 4783SOL    HW225812   2.842   0.265   1.238 -1.6342 -0.0447  0.1859
 4784SOL     OW25813   3.844   2.508   2.747  0.0827  0.5994 -0.1385
 4784SOL    HW125814   3.811   2.568   2.681  1.2179  2.1739  0.7112
 4784SOL    HW225815   3.860   2.564   2.823  0.4145 -0.8057  0.8358
 4785SOL     OW25816   4.625   1.209   0.408  0.3096  0.2972  0.3472
 4785SOL    HW125817   4.618   1.160   0.490 -2.4755 -0.6299 -0.4178
 4785SOL    HW225818   4.665   1.289   0.441  3.3573 -2.1310  2.5126
 4786SOL     OW25819   3.155   3.055  16.303  0.5152 -0.1557  0.3199
 4786SOL    HW125820   3.117   3.143  16.297  0.2358 -0.2160  1.2654
 4786SOL    HW225821   3.083   3.008  16.261 -0.5952 -0.2497  2.3299
 4787SOL     OW25822   2.374   4.460   5.590  0.1294  0.4182  0.5421
 4787SOL    HW125823   2.404   4.430   5.504  1.8953  1.6533  0.7226
 4787SOL    HW225824   2.454   4.458   5.643  0.3245 -1.5188  0.1715
 4788SOL     OW25825   0.298   4.520  13.269 -0.3631  0.0535 -0.1033
 4788SOL    HW125826   0.345   4.574  13.205 -0.1821  0.2318  0.1798
 4788SOL    HW225827   0.316   4.433  13.234 -0.5926 -0.5423  1.2906
 4789SOL     OW25828   3.031   3.379  16.555 -0.1056  0.0888  0.5112
 4789SOL    HW125829   3.002   3.455  16.505  1.6396  0.9258  0.7598
 4789SOL    HW225830   3.046   3.317  16.484  0.9590  0.0150  0.7971
 4790SOL     OW25831   2.639   1.348   3.035  0.3804  0.1750  0.1015
 4790SOL    HW125832   2.669   1.371   2.947  1.8696 -0.7587  0.3835
 4790SOL    HW225833   2.572   1.285   3.007 -0.2177 -0.0870  2.1291
 4791SOL     OW25834   1.617   2.958   2.742 -0.2093 -0.0570  0.2898
 4791SOL    HW125835   1.595   3.039   2.789 -1.7817 -2.4327  3.6257
 4791SOL    HW225836   1.711   2.962   2.728 -0.2795  2.1548  0.3944
 4792SOL     OW25837   1.783   2.357   6.041 -0.2292  0.4348 -0.1774
 4792SOL    HW125838   1.773   2.388   5.951 -1.9409 -2.4403 -0.9655
 4792SOL    HW225839   1.768   2.433   6.097  1.1569  0.6395 -0.0761
 4793SOL     OW25840   2.870   0.779   7.813  0.1073  0.5550  0.3287
 4793SOL    HW125841   2.900   0.796   7.902  0.5386 -0.4007  0.3627
 4793SOL    HW225842   2.828   0.693   7.814  0.5605  0.3211 -0.4055
 4794SOL     OW25843   0.587   2.762   0.581 -0.0108 -0.5463 -0.2638
 4794SOL    HW125844   0.593   2.801   0.494  0.2300 -0.3043 -0.1389
 4794SOL    HW225845   0.593   2.839   0.638 -1.3266  0.4469 -1.4698
 4795SOL     OW25846   3.296   2.360  13.755  0.1148 -0.3153 -0.3503
 4795SOL    HW125847   3.232   2.401  13.696  0.4024  0.0632 -0.3981
 4795SOL    HW225848   3.372   2.335  13.702 -0.9100  0.0188 -1.9602
 4796SOL     OW25849   0.315   4.270   5.183  0.2235 -0.1614 -0.1168
 4796SOL    HW125850   0.309   4.227   5.268 -0.6376  0.6984  0.2551
 4796SOL    HW225851   0.304   4.363   5.204 -1.9321 -0.2426 -0.8659
 4797SOL     OW25852   3.686   1.435   5.321  0.1484 -0.0187 -0.0469
 4797SOL    HW125853   3.621   1.398   5.261 -0.7754 -0.3317  1.1622
 4797SOL    HW225854   3.764   1.387   5.293 -0.9975 -1.4131 -0.8772
 4798SOL     OW25855   3.867   3.245   0.213 -0.1619 -0.1125  0.0489
 4798SOL    HW125856   3.781   3.217   0.245 -0.4118  0.0762 -0.4476
 4798SOL    HW225857   3.914   3.162   0.215  2.5388  1.4465  2.8931
 4799SOL     OW25858   2.680   0.070   5.905  0.1549 -1.0708  0.1038
 4799SOL    HW125859   2.738   0.094   5.977 -1.8108  1.4646  0.8571
 4799SOL    HW225860   2.661   0.157   5.869 -2.0415 -2.5804 -2.2937
 4800SOL     OW25861   3.972   3.332  11.818 -0.1590  0.0953 -0.3074
 4800SOL    HW125862   3.933   3.294  11.739  1.6840  0.4274 -1.3827
 4800SOL    HW225863   3.951   3.425  11.815 -0.6029  0.0408  1.0378
 4801SOL     OW25864   1.997   4.052   1.861 -0.9756  0.4238 -0.1000
 4801SOL    HW125865   2.049   4.014   1.790  0.0169  0.0399  0.8195
 4801SOL    HW225866   1.962   4.134   1.827 -1.0066  2.0078  3.7053
 4802SOL     OW25867   3.800   0.097   7.391  0.0716 -0.1512 -0.1336
 4802SOL    HW125868   3.773   0.134   7.308 -1.8712 -1.1370  0.0570
 4802SOL    HW225869   3.720   0.050   7.416 -0.7291  0.1521 -2.1409
 4803SOL     OW25870   1.021   2.291   8.100 -0.1294  0.0102 -0.0710
 4803SOL    HW125871   0.960   2.330   8.163 -2.1601 -1.0209 -1.3649
 4803SOL    HW225872   0.969   2.224   8.056 -0.4982 -0.4705  1.0770
 4804SOL     OW25873   0.296   3.416   5.839  0.3145 -0.0316 -0.0596
 4804SOL    HW125874   0.358   3.366   5.785  2.6867  2.4321  0.3244
 4804SOL    HW225875   0.296   3.357   5.914 -1.3369  0.1064  0.0442
 4805SOL     OW25876   0.027   4.313  13.670 -0.4594  0.4091  0.4698
 4805SOL    HW125877   4.687   4.270  13.724 -1.6353  1.6636  0.0370
 4805SOL    HW225878   4.693   4.359  13.610  2.6258  2.2798 -1.2094
 4806SOL     OW25879   3.439   0.010   6.491 -0.2354 -0.3489 -0.2362
 4806SOL    HW125880   3.403   4.648   6.482  1.0079 -1.1009  2.0368
 4806SOL    HW225881   3.533   4.720   6.496 -0.3206 -0.3389  1.5688
 4807SOL     OW25882   2.477   2.240  12.158 -0.1283 -0.2895  0.1919
 4807SOL    HW125883   2.543   2.230  12.090 -0.4796  0.1465 -0.2125
 4807SOL    HW225884   2.500   2.163  12.210  2.2505  0.1290 -0.2386
 4808SOL     OW25885   3.858   1.039   6.695  0.6928  0.2001 -0.0555
 4808SOL    HW125886   3.862   1.093   6.616  0.8816  1.3719  0.7677
 4808SOL    HW225887   3.947   1.003   6.695  0.8114  0.5080 -3.3749
 4809SOL     OW25888   4.726   0.583   9.091  0.3333 -0.1707 -0.3600
 4809SOL    HW125889   4.715   0.574   9.186  2.7784  0.0282 -0.0622
 4809SOL    HW225890   0.017   0.677   9.085  0.2929 -0.2341 -1.4154
 4810SOL     OW25891   4.614   1.982   8.015  0.2477  0.3806 -0.2261
 4810SOL    HW125892   4.543   2.042   7.996 -1.0550 -0.6401  1.4102
 4810SOL    HW225893   4.676   2.047   8.049  2.4166 -2.3493  1.0828
 4811SOL     OW25894   1.393   1.905  14.638 -0.0781  0.0639  0.1027
 4811SOL    HW125895   1.386   1.987  14.687  1.2901  1.9504 -2.8719
 4811SOL    HW225896   1.471   1.927  14.587  0.6409 -0.9483  0.7876
 4812SOL     OW25897   3.076   2.629  12.945  0.3857 -0.5406  0.3924
 4812SOL    HW125898   3.068   2.713  12.991  0.3782  0.2123 -0.9852
 4812SOL    HW225899   3.100   2.656  12.857 -0.2441 -0.2349  0.3166
 4813SOL     OW25900   0.317   2.959  11.484 -0.4665 -0.2369  0.3991
 4813SOL    HW125901   0.399   2.966  11.534 -0.2879 -0.4107  0.1324
 4813SOL    HW225902   0.269   3.040  11.500 -0.9547 -0.4976  0.2332
 4814SOL     OW25903   4.366   2.607  11.818 -0.0860 -0.0256  0.6211
 4814SOL    HW125904   4.399   2.570  11.900  2.0245 -1.8329 -1.0432
 4814SOL    HW225905   4.288   2.643  11.860 -0.0291  1.0118 -0.1614
 4815SOL     OW25906   2.138   3.381  11.529  0.2406  0.1314 -0.5575
 4815SOL    HW125907   2.086   3.352  11.603  0.5318 -0.3361 -0.5344
 4815SOL    HW225908   2.174   3.301  11.491  3.2194 -0.2367  3.0385
 4816SOL     OW25909   2.967   4.647  16.120  0.2074 -0.5946  0.1506
 4816SOL    HW125910   2.909   4.614  16.188 -0.1968 -1.3781 -0.5659
 4816SOL    HW225911   2.934   0.010  16.118  2.8002  0.3274 -0.5900
 4817SOL     OW25912   2.076   1.015  11.251  1.0864 -0.4656 -0.5613
 4817SOL    HW125913   2.093   1.096  11.204  0.6157  0.3922  0.7621
 4817SOL    HW225914   2.011   1.042  11.316  1.3805 -1.9578  0.3645
 4818SOL     OW25915   3.789   1.747   7.128  0.1413 -0.0005 -0.1166
 4818SOL    HW125916   3.821   1.684   7.193 -0.1326 -0.9785 -0.9202
 4818SOL    HW225917   3.845   1.726   7.053 -1.1399 -0.4389 -0.9525
 4819SOL     OW25918   0.930   0.873   9.155  0.4654  0.3373  0.1596
 4819SOL    HW125919   0.989   0.948   9.162  0.7985  0.2846 -2.1145
 4819SOL    HW225920   0.906   0.882   9.063  0.0117  2.5636  0.4822
 4820SOL     OW25921   2.515   3.052  10.269  0.1917 -0.2293  0.2877
 4820SOL    HW125922   2.442   2.998  10.238  0.7427  0.2314 -1.7582
 4820SOL    HW225923   2.547   3.097  10.191 -3.5045 -0.0390 -1.1260
 4821SOL     OW25924   1.509   3.143  16.008 -0.1847 -0.2264  0.0214
 4821SOL    HW125925   1.531   3.070  15.950  1.7247 -0.9527  1.6756
 4821SOL    HW225926   1.556   3.113  16.085 -0.1927  1.7725  0.8158
 4822SOL     OW25927   0.438   3.154   9.075 -0.0031 -0.6026 -0.7959
 4822SOL    HW125928   0.403   3.194   9.154  1.0266 -2.3358  0.5412
 4822SOL    HW225929   0.436   3.063   9.106 -0.3076 -0.1646  0.4787
 4823SOL     OW25930   2.414   2.031  11.557 -0.0812 -0.1382 -0.4317
 4823SOL    HW125931   2.360   2.101  11.595 -1.0233 -0.6859 -0.7660
 4823SOL    HW225932   2.349   1.969  11.524  0.6374 -1.8998  1.4053
 4824SOL     OW25933   3.848   3.299  15.279  0.1544  0.2600  0.3339
 4824SOL    HW125934   3.922   3.241  15.295  0.4822  0.6041  0.0665
 4824SOL    HW225935   3.859   3.356  15.355 -0.7291 -0.2043  0.8109
 4825SOL     OW25936   3.275   3.432  11.447 -0.3417 -0.5859 -0.6106
 4825SOL    HW125937   3.368   3.454  11.446 -0.1534 -1.3931 -0.2022
 4825SOL    HW225938   3.270   3.356  11.505  1.7247 -1.1565 -1.2061
 4826SOL     OW25939   2.882   4.204   6.764  0.5597 -0.2887 -0.1935
 4826SOL    HW125940   2.974   4.185   6.778 -0.1250 -0.8158  3.6681
 4826SOL    HW225941   2.881   4.273   6.697 -0.4683  0.8549  0.9950
 4827SOL     OW25942   3.417   2.480  15.590 -0.4180  0.0173  0.3218
 4827SOL    HW125943   3.510   2.458  15.586 -0.3390  0.5546 -1.0361
 4827SOL    HW225944   3.392   2.430  15.512 -0.7391  0.4061  0.1771
 4828SOL     OW25945   3.462   0.459  16.013 -1.0922  0.2680  0.4610
 4828SOL    HW125946   3.400   0.413  15.957 -0.0508 -2.9044  1.9141
 4828SOL    HW225947   3.409   0.539  16.017 -0.5832  0.6585 -0.6973
 4829SOL     OW25948   0.649   3.195   7.349 -0.7086 -0.3876 -0.1675
 4829SOL    HW125949   0.618   3.198   7.440  3.0457  0.3051  1.0856
 4829SOL    HW225950   0.570   3.160   7.306 -1.9523  1.0141  0.9688
 4830SOL     OW25951   3.590   4.491  17.191 -0.4788 -0.4353 -0.0258
 4830SOL    HW125952   3.560   4.504  17.281 -0.7124  1.0212 -0.3114
 4830SOL    HW225953   3.624   4.579  17.175  0.3878 -0.8365 -0.3785
 4831SOL     OW25954   2.392   1.828   2.561 -0.1411 -0.0551  0.4871
 4831SOL    HW125955   2.396   1.864   2.650  3.0325 -1.3767  0.8582
 4831SOL    HW225956   2.349   1.744   2.579 -2.3485  0.8923 -0.2843
 4832SOL     OW25957   3.873   0.364   6.319  0.0486 -0.6293 -0.1078
 4832SOL    HW125958   3.782   0.384   6.295  0.1478 -0.7887 -0.6169
 4832SOL    HW225959   3.856   0.276   6.354 -0.8509 -1.3008 -2.2438
 4833SOL     OW25960   4.138   1.490   5.926  0.4585  0.3005 -0.4889
 4833SOL    HW125961   4.150   1.442   5.844  0.3002 -1.7720  0.7117
 4833SOL    HW225962   4.045   1.512   5.918  0.8697  2.7196  1.3276
 4834SOL     OW25963   2.560   2.188  15.495  0.3230  0.3875  0.1397
 4834SOL    HW125964   2.507   2.208  15.572 -1.5164 -2.0376 -0.4949
 4834SOL    HW225965   2.558   2.266  15.440  1.2070  0.1450 -0.2454
 4835SOL     OW25966   2.259   0.377   4.222  0.0482  0.1474 -0.0837
 4835SOL    HW125967   2.249   0.400   4.314  1.7553 -1.1672  0.4118
 4835SOL    HW225968   2.337   0.322   4.222  0.0050  0.0821 -0.8861
 4836SOL     OW25969   0.354   0.195  12.005  0.2047  0.0124  0.1462
 4836SOL    HW125970   0.295   0.269  11.987 -0.4834 -0.7966 -0.9011
 4836SOL    HW225971   0.414   0.235  12.068  1.2693  0.4480 -1.1143
 4837SOL     OW25972   0.474   0.856   4.214 -0.7282  0.3858  0.1402
 4837SOL    HW125973   0.471   0.776   4.267  1.9711 -2.8147 -4.4964
 4837SOL    HW225974   0.384   0.858   4.184 -0.0317  0.8997 -1.9053
 4838SOL     OW25975   4.720   1.657   4.788 -0.0233  0.0108  0.2642
 4838SOL    HW125976   4.695   1.617   4.872 -1.0956 -1.1726 -0.6186
 4838SOL    HW225977   0.071   1.607   4.765  0.4550  0.6219  0.5311
 4839SOL     OW25978   3.669   1.412   6.697 -0.2813 -0.2133  0.3930
 4839SOL    HW125979   3.581   1.385   6.669 -1.0659  1.6775  1.0748
 4839SOL    HW225980   3.652   1.445   6.785 -2.3395 -1.8390  0.6104
 4840SOL     OW25981   2.934   0.949   4.199  0.1167  0.2603  0.0824
 4840SOL    HW125982   2.997   0.888   4.160  0.3912 -0.3084  1.4119
 4840SOL    HW225983   2.882   0.897   4.261  1.1212 -2.1958 -1.1016
 4841SOL     OW25984   2.655   3.571   1.273  0.7395  0.2169  0.1187
 4841SOL    HW125985   2.660   3.665   1.260 -1.4753  0.2316 -0.6763
 4841SOL    HW225986   2.611   3.569   1.358 -0.6591 -2.3604 -0.6329
 4842SOL     OW25987   4.239   0.661   2.321 -0.9072 -0.2126 -0.4207
 4842SOL    HW125988   4.298   0.717   2.270  2.9757 -2.0287  2.1257
 4842SOL    HW225989   4.295   0.616   2.384 -0.3948  2.1774  0.8452
 4843SOL     OW25990   0.626   2.128   8.786  0.9705  0.2870 -0.4295
 4843SOL    HW125991   0.558   2.193   8.768  0.0536 -0.6776 -0.4601
 4843SOL    HW225992   0.585   2.042   8.785 -0.5541  1.0160 -0.2499
 4844SOL     OW25993   3.524   4.574   8.493  0.3552 -0.1903  0.2094
 4844SOL    HW125994   3.436   4.597   8.463  1.4595  0.0135 -2.8711
 4844SOL    HW225995   3.566   4.607   8.413  0.4053  1.5559  0.9686
 4845SOL     OW25996   3.918   2.429   6.104 -0.6931 -0.3359  0.0572
 4845SOL    HW125997   3.908   2.508   6.050 -1.3885 -0.2948  0.2590
 4845SOL    HW225998   3.882   2.356   6.054 -0.0662 -2.5683  2.9191
 4846SOL     OW25999   0.664   0.863   5.893  0.7958  0.2673  0.4644
 4846SOL    HW126000   0.661   0.939   5.951 -2.9951  0.3346  0.1365
 4846SOL    HW226001   0.644   0.790   5.951  0.6393  0.3553  0.5185
 4847SOL     OW26002   3.729   3.413   5.111  0.8031 -0.6289  0.0237
 4847SOL    HW126003   3.676   3.335   5.093  2.3595 -1.1477 -2.2440
 4847SOL    HW226004   3.809   3.365   5.135  0.8762 -0.4737  0.0904
 4848SOL     OW26005   2.870   0.170  16.129 -0.4607  0.1988 -0.7051
 4848SOL    HW126006   2.889   0.223  16.206  3.0413 -0.3101 -1.1713
 4848SOL    HW226007   2.777   0.155  16.145 -0.1650 -0.7426  0.1387
 4849SOL     OW26008   3.563   3.767  15.913  0.4990  0.2134  0.2473
 4849SOL    HW126009   3.529   3.797  15.997  3.0650 -1.0185  1.7138
 4849SOL    HW226010   3.576   3.853  15.871 -0.8045  0.2188 -0.1422
 4850SOL     OW26011   4.287   3.419  14.335 -0.2189 -0.6411 -0.1769
 4850SOL    HW126012   4.354   3.362  14.372 -0.0781 -0.3344  0.0395
 4850SOL    HW226013   4.318   3.499  14.376 -0.7430  0.3904 -1.7798
 4851SOL     OW26014   4.056   4.252   6.300  0.0595 -0.2851 -0.0495
 4851SOL    HW126015   4.139   4.263   6.254 -0.3076  1.0207 -0.4113
 4851SOL    HW226016   4.075   4.192   6.373 -0.7170  0.3845  0.7138
 4852SOL     OW26017   0.705   0.520  15.342  0.4668 -0.2745 -0.4050
 4852SOL    HW126018   0.616   0.515  15.308 -0.1408 -2.5916  1.5010
 4852SOL    HW226019   0.727   0.613  15.340 -0.6062  0.0362  1.9861
 4853SOL     OW26020   2.807   4.030   5.107 -0.0840  0.6111  0.3622
 4853SOL    HW126021   2.896   4.002   5.128 -0.0778  0.4688  0.1532
 4853SOL    HW226022   2.799   3.980   5.026 -0.2060 -1.2995  1.5506
 4854SOL     OW26023   4.419   2.662   3.901  0.1955  0.2175  0.2368
 4854SOL    HW126024   4.451   2.709   3.978 -0.3254 -1.0142  1.2093
 4854SOL    HW226025   4.464   2.578   3.913 -1.0805 -0.4038  0.6207
 4855SOL     OW26026   2.224   2.194  11.651  0.8752  0.2981 -0.0796
 4855SOL    HW126027   2.174   2.197  11.569  0.8003 -1.9431 -0.1270
 4855SOL    HW226028   2.241   2.287  11.663 -1.1560  0.4479  1.6185
 4856SOL     OW26029   3.603   3.727  10.735  0.3194  0.7650  0.1799
 4856SOL    HW126030   3.555   3.730  10.652  0.7763  0.3428 -0.1086
 4856SOL    HW226031   3.648   3.642  10.737  0.3697  0.7802 -0.3650
 4857SOL     OW26032   4.642   0.134  13.391  0.2234 -0.0775  0.2419
 4857SOL    HW126033   4.604   0.213  13.352  0.3252  1.1190  2.5348
 4857SOL    HW226034   4.624   0.143  13.485  0.0853  3.6059 -0.1515
 4858SOL     OW26035   4.438   1.189  12.348 -0.2973  0.0647  0.6359
 4858SOL    HW126036   4.487   1.269  12.368  0.3861 -0.3731  0.7204
 4858SOL    HW226037   4.414   1.198  12.256 -1.8771 -2.6681  0.7816
 4859SOL     OW26038   4.145   1.805  13.266  0.4162 -0.2959  0.5605
 4859SOL    HW126039   4.109   1.864  13.199 -1.7800  0.2205  2.1964
 4859SOL    HW226040   4.237   1.790  13.244  0.5298 -1.0694  1.6072
 4860SOL     OW26041   1.889   4.121   8.522  0.3088 -0.3237 -0.0707
 4860SOL    HW126042   1.820   4.184   8.542  1.4703  0.3657  1.8220
 4860SOL    HW226043   1.967   4.173   8.543 -0.9234  2.5215 -2.5301
 4861SOL     OW26044   3.839   1.684   3.771  0.0266  0.1997  0.0125
 4861SOL    HW126045   3.901   1.730   3.827  0.2038  0.1626 -0.1542
 4861SOL    HW226046   3.797   1.621   3.830  0.1824 -1.2550 -1.4313
 4862SOL     OW26047   4.326   0.605  12.600  0.6013 -0.2330 -0.2033
 4862SOL    HW126048   4.364   0.569  12.681  0.3632  0.4305  0.2015
 4862SOL    HW226049   4.281   0.685  12.626  1.4277  0.0195  0.4468
 4863SOL     OW26050   3.549   3.815  17.639 -0.5947 -0.0664  0.5855
 4863SOL    HW126051   3.455   3.821  17.651 -0.2319  2.7171  2.1084
 4863SOL    HW226052   3.568   3.795   0.024  1.1003  2.0225  0.6959
 4864SOL     OW26053   0.602   0.311   1.651 -0.3789  0.4924  0.3908
 4864SOL    HW126054   0.695   0.285   1.653 -0.6463 -0.6481 -3.0201
 4864SOL    HW226055   0.550   0.234   1.631 -0.7690  0.1594  2.6851
 4865SOL     OW26056   1.273   1.560   2.373  0.0309  0.0643  0.1390
 4865SOL    HW126057   1.185   1.575   2.337 -0.0356 -0.0514  0.2513
 4865SOL    HW226058   1.273   1.468   2.401  3.3703  0.6666  2.1348
 4866SOL     OW26059   0.726   2.398   6.956  0.1899 -0.5697  0.1076
 4866SOL    HW126060   0.644   2.394   6.907  1.5567  0.0362 -2.2468
 4866SOL    HW226061   0.714   2.313   6.998  0.4176 -1.2558 -1.1850
 4867SOL     OW26062   0.906   3.173   7.450  0.0557 -0.1350 -0.1738
 4867SOL    HW126063   0.932   3.105   7.512 -0.0337  0.1396  0.1596
 4867SOL    HW226064   0.816   3.147   7.429  0.0375 -1.8338  2.0076
 4868SOL     OW26065   4.652   3.703   3.974 -0.1428 -0.0674 -0.1583
 4868SOL    HW126066   4.654   3.741   4.062 -0.3690  0.3548 -0.3384
 4868SOL    HW226067   0.004   3.743   3.937 -2.7721  3.6711 -1.5700
 4869SOL     OW26068   0.381   0.134  10.479 -0.4494  0.5917  0.0915
 4869SOL    HW126069   0.395   0.103  10.390 -1.1216  2.3618 -0.6136
 4869SOL    HW226070   0.454   0.103  10.533  0.0686 -1.0371 -1.5239
 4870SOL     OW26071   2.809   0.855   4.757  0.1037  0.1035  0.5496
 4870SOL    HW126072   2.867   0.783   4.734 -1.3444 -0.8676 -0.0893
 4870SOL    HW226073   2.857   0.921   4.707  0.0334 -1.3578 -1.4432
 4871SOL     OW26074   0.534   0.203  17.237 -0.4219 -0.2114 -0.0045
 4871SOL    HW126075   0.576   0.232  17.318 -1.2439  1.0681 -0.0458
 4871SOL    HW226076   0.595   0.139  17.200 -0.6508  0.3262 -1.3193
 4872SOL     OW26077   2.861   0.314   5.296  0.3925  0.2022  0.6649
 4872SOL    HW126078   2.780   0.325   5.345  0.3259 -3.0904  1.2766
 4872SOL    HW226079   2.888   0.406   5.295  1.9558 -0.2760 -1.0869
 4873SOL     OW26080   2.650   4.416   7.126  0.5056  0.3616 -0.1347
 4873SOL    HW126081   2.678   4.346   7.067  1.4428 -0.8213  1.6864
 4873SOL    HW226082   2.594   4.366   7.185 -0.8816  2.1323  0.0277
 4874SOL     OW26083   3.400   1.810  16.104 -0.7592  0.0584  0.3440
 4874SOL    HW126084   3.422   1.902  16.097  0.3576 -0.2179  0.2204
 4874SOL    HW226085   3.475   1.782  16.157  0.1600 -1.2179 -1.6185
 4875SOL     OW26086   2.753   0.870   8.088 -0.3217 -0.2656 -0.2451
 4875SOL    HW126087   2.826   0.913   8.131 -1.7597  0.5783  1.3440
 4875SOL    HW226088   2.769   0.782   8.123 -0.1763 -0.0150  0.3153
 4876SOL     OW26089   0.551   1.478   3.779  0.1671 -0.5038 -0.6600
 4876SOL    HW126090   0.480   1.413   3.771 -0.2380 -0.4046  1.9955
 4876SOL    HW226091   0.566   1.479   3.874  0.1899 -0.3956 -0.6658
 4877SOL     OW26092   0.535   2.545   0.013  0.3912 -0.3907 -0.0067
 4877SOL    HW126093   0.544   2.580  17.631  1.3516  3.2857  1.5280
 4877SOL    HW226094   0.574   2.458   0.004 -2.1245 -1.2505 -2.3265
 4878SOL     OW26095   1.586   0.426   2.009 -0.5976 -0.0947  0.0068
 4878SOL    HW126096   1.649   0.492   1.981 -1.3510  0.9560  0.7680
 4878SOL    HW226097   1.512   0.488   2.011 -0.4534  0.0965 -0.8299
 4879SOL     OW26098   3.281   1.873   4.577  0.0054  0.6892 -0.0365
 4879SOL    HW126099   3.287   1.779   4.594 -1.7570  0.3841 -1.0839
 4879SOL    HW226100   3.197   1.886   4.532 -0.2697  2.4096  0.9992
 4880SOL     OW26101   3.688   1.747   5.868 -0.4514  0.5614 -0.5434
 4880SOL    HW126102   3.761   1.696   5.904 -0.3907  0.0760 -1.3438
 4880SOL    HW226103   3.674   1.700   5.786  1.4572  0.7650 -0.9886
 4881SOL     OW26104   0.211   4.283  11.773 -0.0810 -0.0022  0.3091
 4881SOL    HW126105   0.217   4.335  11.853  0.6223  1.4635 -0.7073
 4881SOL    HW226106   0.291   4.307  11.726  0.8679  0.8630  2.3449
 4882SOL     OW26107   0.605   4.291   9.161  0.3667 -0.4003  0.6982
 4882SOL    HW126108   0.620   4.331   9.075 -1.4388 -0.0094  0.5763
 4882SOL    HW226109   0.543   4.350   9.204  0.0266 -2.1950  2.6675
 4883SOL     OW26110   2.957   0.631   6.060 -0.5323 -0.0439 -0.0260
 4883SOL    HW126111   2.956   0.721   6.091  0.3859 -0.1906  0.4140
 4883SOL    HW226112   2.889   0.628   5.992  0.7540  1.5562 -1.3864
 4884SOL     OW26113   2.984   0.896  10.730 -0.0666  0.7086 -0.8195
 4884SOL    HW126114   3.015   0.845  10.805 -2.2996 -2.4167 -2.0062
 4884SOL    HW226115   2.901   0.850  10.713  0.7675 -1.9229  2.2031
 4885SOL     OW26116   0.055   2.890   8.780  0.2741  0.0151  0.1041
 4885SOL    HW126117   0.098   2.900   8.865  0.1168  1.6055  0.0101
 4885SOL    HW226118   0.034   2.981   8.759  1.4253  0.3168  0.2773
 4886SOL     OW26119   4.204   0.658   3.838  0.7583 -0.0382  0.1890
 4886SOL    HW126120   4.251   0.741   3.832 -0.7150  0.7395 -0.4453
 4886SOL    HW226121   4.121   0.696   3.866 -0.3326 -2.1554 -0.1829
 4887SOL     OW26122   4.169   2.855   4.160 -0.3535 -0.0711  0.3122
 4887SOL    HW126123   4.216   2.938   4.160 -0.7492  0.1769 -2.1690
 4887SOL    HW226124   4.088   2.883   4.117  0.1623 -0.9237 -1.2153
 4888SOL     OW26125   1.815   3.797   7.563  0.9150  0.3346  0.4388
 4888SOL    HW126126   1.799   3.731   7.496 -1.6908  0.1657  1.1923
 4888SOL    HW226127   1.882   3.852   7.522  1.0954 -0.8436 -0.8299
 4889SOL     OW26128   2.494   0.507  16.744  0.7270  0.1958  0.5653
 4889SOL    HW126129   2.502   0.421  16.703  0.4127  0.3295  0.2175
 4889SOL    HW226130   2.400   0.513  16.765  1.0407  1.9768  1.5361
 4890SOL     OW26131   2.492   4.530  16.355 -0.3685 -0.1774 -0.0247
 4890SOL    HW126132   2.521   4.620  16.373  1.7633 -1.0546  0.9077
 4890SOL    HW226133   2.473   4.525  16.262  1.3329  2.4476 -0.5161
 4891SOL     OW26134   1.852   4.166   3.019  0.2678 -0.5837 -0.0689
 4891SOL    HW126135   1.884   4.079   3.045 -1.4226 -0.9289  0.8774
 4891SOL    HW226136   1.863   4.160   2.924  1.1787  2.4181 -0.1463
 4892SOL     OW26137   0.912   3.804   5.926  0.0447 -0.2728 -0.8224
 4892SOL    HW126138   0.948   3.866   5.862 -0.2839  0.1839 -0.5709
 4892SOL    HW226139   0.987   3.747   5.941 -0.4710 -0.3399  1.4395
 4893SOL     OW26140   3.994   4.485  17.542  0.0520 -1.0329  0.0818
 4893SOL    HW126141   3.943   4.426  17.598 -1.1327  1.7141  1.9203
 4893SOL    HW226142   3.922   4.514  17.485  0.8305 -0.2894 -0.5354
 4894SOL     OW26143   0.939   1.074  12.581 -0.4934  0.3482 -0.2533
 4894SOL    HW126144   0.902   1.003  12.529  1.1437 -1.1471  0.6207
 4894SOL    HW226145   0.944   1.029  12.665 -1.5893 -1.6669 -1.2659
 4895SOL     OW26146   2.896   1.317   6.914 -0.6084 -0.9855  0.3020
 4895SOL    HW126147   2.967   1.290   6.855 -0.6158 -1.8079  0.6782
 4895SOL    HW226148   2.877   1.406   6.883 -1.7016 -1.9163 -1.6971
 4896SOL     OW26149   2.180   3.112  12.434  0.2280 -0.4199 -0.2529
 4896SOL    HW126150   2.215   3.024  12.453  1.0904 -0.3139 -1.3499
 4896SOL    HW226151   2.095   3.114  12.477 -0.1950  1.1694 -1.1493
 4897SOL     OW26152   3.899   1.659  12.089 -0.5078 -0.0181  0.4661
 4897SOL    HW126153   3.887   1.607  12.010  2.2616  0.7589 -0.4730
 4897SOL    HW226154   3.965   1.610  12.139 -0.1897 -0.0394  0.0218
 4898SOL     OW26155   3.481   1.486   3.022 -0.4211  0.3511  0.4133
 4898SOL    HW126156   3.559   1.433   3.037  0.8664  1.9100 -0.8116
 4898SOL    HW226157   3.496   1.488   2.928  0.8440 -0.3132  0.6036
 4899SOL     OW26158   3.608   1.669   4.296  0.2780 -0.1215  0.0006
 4899SOL    HW126159   3.590   1.692   4.205 -2.8726  0.3746  0.7651
 4899SOL    HW226160   3.693   1.626   4.284 -1.4837 -3.9572  1.6064
 4900SOL     OW26161   2.728   2.500   5.191 -0.3006 -0.0481 -0.4995
 4900SOL    HW126162   2.786   2.451   5.133  1.4191  1.6307 -0.1859
 4900SOL    HW226163   2.776   2.583   5.186 -0.8348  0.4858  3.0728
 4901SOL     OW26164   2.726   4.025   0.732  0.0031  0.3594 -0.5498
 4901SOL    HW126165   2.801   3.974   0.761  0.2334  1.2773  0.4595
 4901SOL    HW226166   2.697   3.973   0.657  0.0345  1.3006 -1.2173
 4902SOL     OW26167   4.190   1.652   9.309 -0.3702 -0.2591  0.4863
 4902SOL    HW126168   4.186   1.744   9.283 -2.8610 -0.5901 -0.4115
 4902SOL    HW226169   4.103   1.617   9.289 -0.3121  0.7052 -1.4575
 4903SOL     OW26170   2.304   2.433   3.208 -0.6600  0.1465 -0.6893
 4903SOL    HW126171   2.263   2.347   3.221  0.0556  0.4478  3.2805
 4903SOL    HW226172   2.322   2.454   3.299 -0.9915 -1.6914 -0.1925
 4904SOL     OW26173   4.086   2.572  11.028  0.1073 -0.7429 -0.1655
 4904SOL    HW126174   4.002   2.618  11.034  2.1862  3.0636  0.3530
 4904SOL    HW226175   4.143   2.636  11.070  0.6912 -0.8745 -0.7566
 4905SOL     OW26176   3.644   0.012  12.349  0.1409  0.0501 -0.5394
 4905SOL    HW126177   3.732   0.003  12.385 -0.4369 -1.6545  0.4463
 4905SOL    HW226178   3.660   0.058  12.267  0.7881  0.5761 -0.1219
 4906SOL     OW26179   1.599   0.442   2.322 -0.4971 -0.3583 -0.8566
 4906SOL    HW126180   1.595   0.436   2.226 -0.2993  1.7699 -0.9808
 4906SOL    HW226181   1.534   0.378   2.352 -0.9240  0.0786 -0.8444
 4907SOL     OW26182   1.017   0.423  15.226  0.0013  0.7912  0.0708
 4907SOL    HW126183   1.053   0.372  15.154 -0.2707  1.6497 -0.6702
 4907SOL    HW226184   0.935   0.446  15.183 -0.3908 -1.8628 -0.6122
 4908SOL     OW26185   1.523   3.191   5.148  0.3896 -0.0254  0.2445
 4908SOL    HW126186   1.601   3.149   5.185  0.6162  0.6966  0.5862
 4908SOL    HW226187   1.476   3.113   5.119 -1.1825  0.5643  1.2361
 4909SOL     OW26188   1.179   3.005   6.709 -0.1072  0.8705  0.3027
 4909SOL    HW126189   1.215   3.093   6.693  1.2809  0.3697  0.6760
 4909SOL    HW226190   1.091   3.022   6.674  1.2012 -0.0586 -3.4731
 4910SOL     OW26191   3.708   1.497   1.084 -0.1719  0.5299 -0.3119
 4910SOL    HW126192   3.643   1.559   1.051 -1.3100 -1.6202 -2.1002
 4910SOL    HW226193   3.646   1.439   1.127 -1.1344  2.5610  1.0421
 4911SOL     OW26194   0.246   0.911   4.066  0.3151 -0.4006 -0.1272
 4911SOL    HW126195   0.173   0.859   4.029 -2.7154  1.3181  3.4305
 4911SOL    HW226196   0.274   0.966   3.993 -0.3165 -0.0546 -0.1124
 4912SOL     OW26197   3.923   2.363   6.386  0.4655  0.3046 -0.1197
 4912SOL    HW126198   3.926   2.401   6.298  0.8092  0.2775 -0.1198
 4912SOL    HW226199   3.950   2.441   6.435 -1.4653  0.0736  1.3095
 4913SOL     OW26200   2.016   2.337  12.315  0.8577 -0.6218  0.2263
 4913SOL    HW126201   2.103   2.305  12.290  0.1992 -1.7646 -0.6076
 4913SOL    HW226202   2.050   2.424  12.336 -0.4343  0.1956 -1.0583
 4914SOL     OW26203   0.358   2.118   7.860 -0.1141  0.1720 -0.8112
 4914SOL    HW126204   0.323   2.081   7.941  1.0165 -0.3384 -0.5566
 4914SOL    HW226205   0.427   2.052   7.862 -0.8114 -0.5205 -0.0546
 4915SOL     OW26206   4.379   4.725  17.203 -0.0734 -0.4190 -0.2811
 4915SOL    HW126207   4.322   4.678  17.263 -0.4334 -0.1121 -0.3893
 4915SOL    HW226208   4.320   0.055  17.154 -0.2220 -2.0578 -2.0121
 4916SOL     OW26209   0.036   4.260   4.756 -0.2519 -0.5516  0.3909
 4916SOL    HW126210   0.002   4.348   4.739 -1.1006 -0.8786  0.4041
 4916SOL    HW226211   4.697   4.233   4.819 -0.7868 -1.1263 -0.4134
 4917SOL     OW26212   3.484   1.248  13.607  0.1584 -0.0584  0.0897
 4917SOL    HW126213   3.418   1.275  13.672 -3.4043 -1.9942 -2.7748
 4917SOL    HW226214   3.552   1.208  13.661  0.3936 -0.8883 -0.8251
 4918SOL     OW26215   1.255   3.539   4.023  0.5659  0.1706 -0.4213
 4918SOL    HW126216   1.283   3.490   4.100 -0.5482 -2.5735 -1.7331
 4918SOL    HW226217   1.280   3.630   4.041 -0.8041  0.6114 -0.7308
 4919SOL     OW26218   1.812   2.561   3.388  0.0620 -0.0229 -0.6151
 4919SOL    HW126219   1.874   2.614   3.338  0.7724 -0.7137 -0.4589
 4919SOL    HW226220   1.806   2.590   3.479 -1.4423 -1.4749 -0.2517
 4920SOL     OW26221   4.481   1.048   6.415  0.7359  0.0463 -0.2041
 4920SOL    HW126222   4.445   1.123   6.462  0.0382  0.1534 -0.9024
 4920SOL    HW226223   4.521   1.095   6.342  0.8930 -0.8827 -0.7161
 4921SOL     OW26224   4.419   4.423  13.169  0.7200 -0.6679  0.4630
 4921SOL    HW126225   4.345   4.372  13.201  1.3132 -1.5116  0.4874
 4921SOL    HW226226   4.409   4.511  13.204  1.2728 -1.2228  1.9916
 4922SOL     OW26227   2.015   3.949   7.440  0.3261  0.4490 -0.2103
 4922SOL    HW126228   2.077   4.018   7.462 -0.2150  0.9057 -0.1144
 4922SOL    HW226229   2.058   3.879   7.489  0.5298  0.6655 -0.0792
 4923SOL     OW26230   0.695   4.369   1.340 -0.0396  0.6994 -0.1944
 4923SOL    HW126231   0.615   4.416   1.363 -0.5721  0.4562 -1.5392
 4923SOL    HW226232   0.657   4.281   1.341  1.4916  0.0081 -1.2223
 4924SOL     OW26233   2.694   2.514   5.668  0.0293 -0.0977 -0.4701
 4924SOL    HW126234   2.766   2.469   5.713 -0.1594 -1.3086 -1.3443
 4924SOL    HW226235   2.742   2.589   5.634 -1.5142  0.6578 -0.9554
 4925SOL     OW26236   2.237   4.284  10.696 -0.0320 -0.1193 -0.1447
 4925SOL    HW126237   2.204   4.262  10.783 -0.9769 -0.5398 -0.6066
 4925SOL    HW226238   2.288   4.362  10.716 -0.8912  0.7350 -1.3196
 4926SOL     OW26239   4.360   3.607  12.247 -0.5224 -0.5541  0.1582
 4926SOL    HW126240   4.330   3.685  12.294  0.7663 -0.3092  0.5664
 4926SOL    HW226241   4.360   3.656  12.164 -2.9158  1.4899  1.3674
 4927SOL     OW26242   1.579   2.000   7.826  0.3711  0.3825 -0.6745
 4927SOL    HW126243   1.650   2.064   7.823  0.8232 -0.1544 -1.2895
 4927SOL    HW226244   1.511   2.032   7.766 -0.3771  1.1528  0.5712
 4928SOL     OW26245   2.399   3.231   0.207 -0.0153  0.1280 -0.0843
 4928SOL    HW126246   2.356   3.231   0.121  1.3237 -1.5558 -0.7471
 4928SOL    HW226247   2.348   3.299   0.252  1.0281 -0.2836  1.7188
 4929SOL     OW26248   1.445   0.755   9.580  0.0126  0.8217 -0.1795
 4929SOL    HW126249   1.516   0.791   9.527 -0.0852 -2.0689 -2.2533
 4929SOL    HW226250   1.419   0.825   9.640  1.0866  0.3832  0.8296
 4930SOL     OW26251   0.186   4.698   5.735  0.0247  0.1633  0.3871
 4930SOL    HW126252   0.156   0.062   5.731 -0.0714  0.1352  0.4872
 4930SOL    HW226253   0.264   4.701   5.680  0.0943  0.7747  0.5133
 4931SOL     OW26254   4.212   2.213   8.861 -0.5557  0.1796 -0.2565
 4931SOL    HW126255   4.256   2.131   8.837 -1.2665 -0.4843  0.6909
 4931SOL    HW226256   4.286   2.257   8.903 -0.8885 -0.9504  1.5354
 4932SOL     OW26257   4.055   1.132  15.760 -0.2365  0.6141  0.1720
 4932SOL    HW126258   3.993   1.059  15.769  1.0772 -0.3049  1.6431
 4932SOL    HW226259   4.105   1.105  15.683 -1.4029 -2.6220  0.5425
 4933SOL     OW26260   2.342   3.357   8.385  0.0158 -0.0814 -0.0111
 4933SOL    HW126261   2.337   3.311   8.301  0.5609 -1.2598  0.6136
 4933SOL    HW226262   2.316   3.292   8.450  0.8780 -0.7610 -0.3413
 4934SOL     OW26263   2.698   0.727  12.431 -0.4412 -0.2149  0.1421
 4934SOL    HW126264   2.729   0.791  12.367 -3.1477 -0.2277 -1.1611
 4934SOL    HW226265   2.778   0.674  12.433  0.1266  0.6931  1.6032
 4935SOL     OW26266   0.099   4.413   6.849  0.3534 -0.4827 -0.2936
 4935SOL    HW126267   0.158   4.488   6.856 -1.2523  0.7974 -0.5777
 4935SOL    HW226268   0.018   4.437   6.895  1.5468 -0.0858  1.6079
 4936SOL     OW26269   3.206   3.269  10.265 -0.1175  0.1981  0.7662
 4936SOL    HW126270   3.120   3.233  10.284  0.0082 -0.7794 -0.4805
 4936SOL    HW226271   3.265   3.221  10.323  1.5650 -2.1368 -2.8162
 4937SOL     OW26272   2.400   1.996   8.123 -0.1513 -0.4324 -0.4444
 4937SOL    HW126273   2.305   1.994   8.111 -0.2145  2.7831 -0.5024
 4937SOL    HW226274   2.406   2.091   8.111  1.8441 -0.3499  1.2565
 4938SOL     OW26275   2.450   2.856   2.920  0.1892 -0.4401  0.2680
 4938SOL    HW126276   2.368   2.808   2.934 -0.1203 -0.6263 -2.0671
 4938SOL    HW226277   2.464   2.838   2.827  2.7206  0.8088  0.4205
 4939SOL     OW26278   1.033   4.077   5.467 -0.3607 -0.3334  0.0644
 4939SOL    HW126279   0.990   4.083   5.382 -0.7205  0.8165  0.3211
 4939SOL    HW226280   1.119   4.045   5.439  0.0271  0.7405  0.0162
 4940SOL     OW26281   0.753   4.568   8.546 -0.4263 -0.3013  0.0886
 4940SOL    HW126282   0.672   4.518   8.539 -0.8594  0.3856  0.1659
 4940SOL    HW226283   0.782   4.535   8.631  0.8272 -1.2116 -0.6984
 4941SOL     OW26284   2.636   2.251   6.434 -0.1614 -0.2743 -0.1390
 4941SOL    HW126285   2.678   2.272   6.517 -0.3564  0.0289 -0.1177
 4941SOL    HW226286   2.554   2.300   6.435 -0.1014 -0.1603 -0.7630
 4942SOL     OW26287   1.158   0.200   7.784  0.0098  0.2235  0.0031
 4942SOL    HW126288   1.237   0.238   7.746  0.9097 -0.8533  0.8003
 4942SOL    HW226289   1.121   0.169   7.701  0.5828  2.1570 -0.9742
 4943SOL     OW26290   1.783   0.323  14.679 -0.0542 -0.0715 -0.0518
 4943SOL    HW126291   1.725   0.323  14.755  0.4394 -0.9084  0.3212
 4943SOL    HW226292   1.723   0.325  14.605 -3.2053  1.0093  2.5311
 4944SOL     OW26293   3.468   2.074   6.386  0.1662  0.3461  0.4013
 4944SOL    HW126294   3.503   2.042   6.469  0.0016 -1.1064 -0.0958
 4944SOL    HW226295   3.552   2.068   6.341 -0.0942 -0.8029  0.0753
 4945SOL     OW26296   0.030   2.066   8.906  0.1011 -0.2067  0.5277
 4945SOL    HW126297   4.686   2.008   8.932  0.1191  0.4533  2.1066
 4945SOL    HW226298   0.084   2.015   8.846 -2.1869 -0.3375 -1.3729
 4946SOL     OW26299   4.432   1.291   4.656  0.2345  0.7483 -0.1297
 4946SOL    HW126300   4.486   1.363   4.624 -0.1130  0.7855 -0.6374
 4946SOL    HW226301   4.354   1.337   4.687 -0.8550 -0.3816 -1.1682
 4947SOL     OW26302   3.092   3.035   5.478  0.3342  0.1678 -0.3970
 4947SOL    HW126303   3.074   3.129   5.481 -3.6659 -0.6120  0.1285
 4947SOL    HW226304   3.164   3.023   5.539 -0.8047 -1.6345  0.5719
 4948SOL     OW26305   4.367   1.776  17.394  0.1600 -0.1923 -0.4232
 4948SOL    HW126306   4.457   1.802  17.375 -0.7683  2.6689 -0.9065
 4948SOL    HW226307   4.348   1.734  17.310  0.7656 -0.4422 -0.4345
 4949SOL     OW26308   2.160   3.636   3.384  0.6133  0.1627  0.4043
 4949SOL    HW126309   2.191   3.698   3.450  2.5299 -0.9930  0.5949
 4949SOL    HW226310   2.195   3.674   3.304 -0.0049  0.8122  0.4406
 4950SOL     OW26311   1.733   4.679   4.980  0.2420  0.4503 -0.4581
 4950SOL    HW126312   1.714   4.688   4.887 -1.5776  2.7726  0.1468
 4950SOL    HW226313   1.819   4.721   4.985  1.6438 -2.3958 -0.7542
 4951SOL     OW26314   4.026   3.807   9.853 -0.0659 -1.0380 -0.9718
 4951SOL    HW126315   3.938   3.839   9.835  0.5327  1.5460  0.7633
 4951SOL    HW226316   4.077   3.888   9.840  0.4098 -0.6922  3.2839
 4952SOL     OW26317   4.380   3.094   5.928  0.2289 -0.2497  0.1613
 4952SOL    HW126318   4.336   3.131   5.852  1.6714  1.4945  0.1916
 4952SOL    HW226319   4.406   3.169   5.980 -1.0425  1.3117 -1.4679
 4953SOL     OW26320   3.602   0.952  12.247 -0.2311  0.0845 -0.1222
 4953SOL    HW126321   3.579   0.926  12.158  1.6180  0.7194 -0.7842
 4953SOL    HW226322   3.694   0.929  12.241 -0.5308 -0.2459 -3.4711
 4954SOL     OW26323   0.182   0.377  13.433 -0.7302  0.6584 -0.6366
 4954SOL    HW126324   0.212   0.291  13.404  0.2937  0.6891  0.3301
 4954SOL    HW226325   0.115   0.381  13.365 -0.4794 -1.5434 -1.0166
 4955SOL     OW26326   0.409   2.212  17.502  0.1946  0.3106 -0.2036
 4955SOL    HW126327   0.419   2.301  17.468 -2.5188 -0.4555 -2.9695
 4955SOL    HW226328   0.376   2.163  17.427 -1.4065  1.6617 -0.3674
 4956SOL     OW26329   4.588   2.441   3.999  0.5311 -0.0830 -0.1868
 4956SOL    HW126330   4.678   2.434   4.031  0.5529  0.9596 -0.0015
 4956SOL    HW226331   4.545   2.401   4.075 -0.3615  0.1786 -0.5618
 4957SOL     OW26332   1.688   3.947   8.416  0.2893 -0.1326 -0.1065
 4957SOL    HW126333   1.761   3.887   8.400 -2.0305 -2.6838 -1.1725
 4957SOL    HW226334   1.740   4.007   8.470 -0.9415  0.9949 -0.1771
 4958SOL     OW26335   2.893   1.920  11.641 -0.2646  0.0505  0.1435
 4958SOL    HW126336   2.837   1.843  11.645 -3.2267  2.1852  0.0219
 4958SOL    HW226337   2.853   1.979  11.577 -1.2800  0.2189  0.9420
 4959SOL     OW26338   4.281   1.620   7.635  0.3934 -0.5601  0.0912
 4959SOL    HW126339   4.304   1.705   7.672  2.8032 -0.1787 -2.2746
 4959SOL    HW226340   4.322   1.635   7.550 -0.8979 -0.7038 -0.5412
 4960SOL     OW26341   3.164   0.455   8.779  0.9491  0.1725 -0.5445
 4960SOL    HW126342   3.215   0.430   8.856  2.0225 -1.7523 -1.8959
 4960SOL    HW226343   3.076   0.424   8.803  1.3105 -1.7831 -1.8208
 4961SOL     OW26344   1.091   3.586   6.328 -0.0260  0.4817 -0.0264
 4961SOL    HW126345   1.069   3.620   6.241 -2.1215  1.3659  0.8511
 4961SOL    HW226346   1.080   3.666   6.379 -1.1150 -0.1187  0.7029
 4962SOL     OW26347   1.220   2.231   4.653  0.0805  0.2195 -0.5374
 4962SOL    HW126348   1.212   2.219   4.747 -0.9530 -0.0828 -0.6579
 4962SOL    HW226349   1.312   2.241   4.630 -0.0189  0.0115 -1.0389
 4963SOL     OW26350   2.345   0.510   8.978  0.2779 -0.2447  0.4528
 4963SOL    HW126351   2.361   0.431   9.030 -3.7185 -0.4934  1.3029
 4963SOL    HW226352   2.432   0.529   8.945 -0.0009  1.0505  0.4621
 4964SOL     OW26353   3.491   3.057   6.390 -0.1780 -1.2554  0.3089
 4964SOL    HW126354   3.488   3.137   6.441  0.0919 -0.3097 -1.1513
 4964SOL    HW226355   3.557   3.009   6.440 -2.2443 -2.3681  1.9701
 4965SOL     OW26356   0.367   2.756   6.232 -0.1813 -0.2176 -0.1753
 4965SOL    HW126357   0.390   2.701   6.157 -2.6443 -0.5305 -0.6990
 4965SOL    HW226358   0.418   2.836   6.215 -0.3084 -0.2519 -0.7183
 4966SOL     OW26359   4.246   2.773   3.471  0.3485 -0.2845 -0.2722
 4966SOL    HW126360   4.305   2.716   3.421 -1.0025 -1.2953 -0.7509
 4966SOL    HW226361   4.181   2.800   3.406  0.5916 -0.0568 -0.4192
 4967SOL     OW26362   3.686   1.160   6.854 -0.3244  0.0988 -0.2711
 4967SOL    HW126363   3.751   1.101   6.816  0.7123  1.4894 -0.6718
 4967SOL    HW226364   3.723   1.245   6.830  0.1594 -0.3966 -1.3028
 4968SOL     OW26365   4.105   4.719   6.350  0.6473  0.6026  0.1409
 4968SOL    HW126366   4.132   0.055   6.283  1.9460  0.2709  0.3568
 4968SOL    HW226367   4.039   0.055   6.381 -0.5926 -0.5602 -0.2107
 4969SOL     OW26368   0.934   1.847  13.506 -0.1378 -0.0667  0.3153
 4969SOL    HW126369   1.017   1.871  13.466 -0.1116 -0.3116  0.2239
 4969SOL    HW226370   0.879   1.922  13.484  2.7574  1.5056 -1.5012
 4970SOL     OW26371   1.914   3.097   8.665 -0.5274  0.3070 -0.3661
 4970SOL    HW126372   1.951   3.184   8.679  0.5012 -0.2389  0.3345
 4970SOL    HW226373   1.821   3.111   8.684 -1.2449 -3.2515 -1.2270
 4971SOL     OW26374   2.724   4.244   8.657  0.3093  0.2967  0.1432
 4971SOL    HW126375   2.754   4.299   8.730  0.0731 -0.6346  0.9469
 4971SOL    HW226376   2.642   4.288   8.637 -0.6369 -1.4144  0.2353
 4972SOL     OW26377   3.677   0.684   3.369  0.1072 -0.8394  0.1970
 4972SOL    HW126378   3.635   0.684   3.283  1.1113  1.5157 -0.2791
 4972SOL    HW226379   3.766   0.690   3.336  0.2048  0.4676  0.7126
 4973SOL     OW26380   3.991   4.518   3.793 -0.0047 -0.3809 -0.1654
 4973SOL    HW126381   4.072   4.543   3.750 -0.6190  1.9211  0.0091
 4973SOL    HW226382   4.005   4.554   3.881  2.0538 -0.4327 -0.4683
 4974SOL     OW26383   0.265   1.902   6.756 -0.2876 -0.7352 -0.5515
 4974SOL    HW126384   0.253   1.862   6.842  0.6686  1.3365  0.5444
 4974SOL    HW226385   0.302   1.838   6.696 -1.2895 -1.1507 -0.7147
 4975SOL     OW26386   1.084   4.565   9.534 -0.2814 -0.2766 -0.3310
 4975SOL    HW126387   1.078   4.520   9.618  2.2531 -2.2261 -1.1994
 4975SOL    HW226388   1.137   4.496   9.493  0.2853  0.5317 -0.9651
 4976SOL     OW26389   4.476   1.337   5.331  0.5995  0.4367  0.0143
 4976SOL    HW126390   4.432   1.421   5.319  3.3752  2.1078  1.5009
 4976SOL    HW226391   4.419   1.274   5.376  1.1437 -0.7812 -0.9842
 4977SOL     OW26392   4.207   2.126   1.886 -0.6636 -0.5920 -0.0114
 4977SOL    HW126393   4.261   2.118   1.965  0.9581 -1.5817 -1.2312
 4977SOL    HW226394   4.283   2.127   1.828  0.7122 -0.2173  1.7701
 4978SOL     OW26395   2.763   3.539   3.957 -0.5063 -0.7455 -0.6581
 4978SOL    HW126396   2.791   3.630   3.945 -0.7679 -0.5446  0.2825
 4978SOL    HW226397   2.769   3.537   4.053  1.5588 -2.2869 -0.8111
 4979SOL     OW26398   0.664   4.070   7.006 -0.1397  0.3510 -0.3562
 4979SOL    HW126399   0.712   4.049   7.086 -2.3231 -0.1221  0.8499
 4979SOL    HW226400   0.692   4.161   6.998 -0.0954  0.3626 -0.0566
 4980SOL     OW26401   0.962   0.362   6.963 -0.2594  0.7825  0.2242
 4980SOL    HW126402   1.034   0.385   6.904  0.2928 -0.2519  0.4937
 4980SOL    HW226403   1.010   0.354   7.046  0.8269  0.8836 -0.3955
 4981SOL     OW26404   0.431   1.081  10.917 -0.8718  0.0298 -0.3245
 4981SOL    HW126405   0.464   1.094  10.828 -1.0323  0.0305 -0.3842
 4981SOL    HW226406   0.456   0.992  10.940 -0.2805 -0.0153 -1.1193
 4982SOL     OW26407   1.158   3.608   6.781  0.5994 -0.1780 -0.2781
 4982SOL    HW126408   1.092   3.677   6.773  0.8978  0.2071  0.6481
 4982SOL    HW226409   1.102   3.553   6.836 -2.7618  2.7072 -0.7968
 4983SOL     OW26410   0.885   1.519   4.338 -0.1067 -0.6446 -0.3019
 4983SOL    HW126411   0.910   1.426   4.335 -2.3793 -1.2667 -0.2969
 4983SOL    HW226412   0.960   1.552   4.288 -1.0936  0.5461 -0.9826
 4984SOL     OW26413   4.390   1.092   5.470 -0.0909 -0.3961 -0.1998
 4984SOL    HW126414   4.408   1.092   5.564  0.3378 -0.3491 -0.2816
 4984SOL    HW226415   4.297   1.111   5.480  0.4775  2.0784  0.3820
 4985SOL     OW26416   1.693   3.388  11.209 -0.1513  0.2250  0.0339
 4985SOL    HW126417   1.786   3.391  11.233 -0.4321  0.7649  1.0955
 4985SOL    HW226418   1.656   3.338  11.282  1.0674  1.7632  1.6948
 4986SOL     OW26419   0.496   0.108   6.435  0.5484  0.9201  0.4171
 4986SOL    HW126420   0.540   0.061   6.505 -0.5310 -0.3973  0.2064
 4986SOL    HW226421   0.523   0.056   6.359  2.5555 -0.7248  2.2845
 4987SOL     OW26422   0.110   4.688   7.562 -0.4297  0.7757 -0.5472
 4987SOL    HW126423   0.169   4.617   7.587 -2.5650 -0.8850 -0.2130
 4987SOL    HW226424   0.027   4.641   7.550  0.0063 -0.4861  1.3648
 4988SOL     OW26425   0.661   0.064   5.180  0.9633 -0.5226  0.2209
 4988SOL    HW126426   0.649   0.016   5.262 -0.8198  0.6827  0.6702
 4988SOL    HW226427   0.574   0.104   5.179  0.2448 -2.0547  0.5694
 4989SOL     OW26428   1.550   2.299   3.410 -0.0792 -0.0735  0.0495
 4989SOL    HW126429   1.539   2.243   3.487  1.0836  0.8006  0.8482
 4989SOL    HW226430   1.632   2.341   3.437 -0.6757  1.0792  0.0744
 4990SOL     OW26431   1.405   1.448   7.522 -0.6653  0.5872  0.1253
 4990SOL    HW126432   1.447   1.437   7.437  0.5727 -0.0165  0.8210
 4990SOL    HW226433   1.363   1.364   7.543  0.8888 -0.1998  0.1228
 4991SOL     OW26434   4.402   4.068   1.786  0.2578 -0.1395 -0.0625
 4991SOL    HW126435   4.377   4.138   1.847 -3.5556 -0.7183 -0.9635
 4991SOL    HW226436   4.474   4.103   1.734  0.7760  0.2040  0.8868
 4992SOL     OW26437   0.056   0.029   8.489  0.7931 -0.3168  0.0520
 4992SOL    HW126438   0.045   4.716   8.576 -2.6283 -0.7641 -0.5766
 4992SOL    HW226439   4.720   0.101   8.497  0.1824 -0.7164 -1.2265
 4993SOL     OW26440   2.596   3.517  12.836  0.0493 -0.0437  0.6967
 4993SOL    HW126441   2.655   3.494  12.764 -0.5481  0.9661 -0.1139
 4993SOL    HW226442   2.527   3.553  12.780  1.6821 -0.6794 -1.7077
 4994SOL     OW26443   1.060   0.926   3.272 -0.0469 -0.6541  0.2717
 4994SOL    HW126444   1.012   0.926   3.355 -2.0612 -0.4012 -0.8794
 4994SOL    HW226445   1.127   0.993   3.287 -1.6645  0.9536  0.3195
 4995SOL     OW26446   2.866   3.119   6.089  0.1439  0.1231 -0.0684
 4995SOL    HW126447   2.891   3.029   6.112 -0.2282  0.3462  1.2183
 4995SOL    HW226448   2.877   3.157   6.177  1.7301 -1.7942  0.5681
 4996SOL     OW26449   3.669   2.046   5.553  0.0041 -0.1465 -0.1907
 4996SOL    HW126450   3.638   2.082   5.469  2.4881  2.1104 -0.1465
 4996SOL    HW226451   3.712   2.124   5.589 -1.4737 -0.8969  3.1608
 4997SOL     OW26452   3.430   3.903   5.841  0.0538  0.1642  0.0056
 4997SOL    HW126453   3.404   3.847   5.768 -1.7820 -0.3864  1.0806
 4997SOL    HW226454   3.512   3.862   5.867 -0.2821 -0.4077  0.1647
 4998SOL     OW26455   3.940   2.453   3.892 -0.4626  0.0711 -0.6932
 4998SOL    HW126456   3.879   2.501   3.835 -0.1100  1.7346  0.3233
 4998SOL    HW226457   4.005   2.522   3.906  0.3917 -1.3246  2.1463
 4999SOL     OW26458   0.945   4.666   8.943 -0.5565 -0.1625 -0.5137
 4999SOL    HW126459   0.985   4.629   8.864  3.2735  2.3405  0.2565
 4999SOL    HW226460   0.968   4.593   9.001  0.7227  0.9246  0.3541
 5000SOL     OW26461   3.036   4.324   2.672  0.3877 -0.1023 -0.3820
 5000SOL    HW126462   2.957   4.311   2.724  0.7867 -1.5396 -0.1420
 5000SOL    HW226463   3.060   4.239   2.637  1.7666  1.0042 -2.1159
 5001SOL     OW26464   4.220   1.390   5.124  0.0580 -0.2060 -0.1118
 5001SOL    HW126465   4.227   1.447   5.201  1.7026 -0.0447 -0.3796
 5001SOL    HW226466   4.305   1.407   5.084 -0.5654 -0.7973 -1.6716
 5002SOL     OW26467   3.189   1.598   6.889  0.3360  0.5879  0.3024
 5002SOL    HW126468   3.219   1.689   6.881  0.0104  0.4930 -1.8848
 5002SOL    HW226469   3.134   1.602   6.967  0.0221  1.4322  0.0410
 5003SOL     OW26470   2.362   4.240   9.175 -0.3892 -0.2034  0.2380
 5003SOL    HW126471   2.385   4.268   9.264 -0.6139 -4.5279  1.6666
 5003SOL    HW226472   2.307   4.165   9.197 -1.0668  0.1357 -0.2763
 5004SOL     OW26473   1.972   2.358   3.909 -0.1694 -0.0170  0.4673
 5004SOL    HW126474   2.054   2.389   3.948  0.3422  0.1932 -0.7768
 5004SOL    HW226475   1.972   2.401   3.824 -1.1236 -1.2157 -0.1342
 5005SOL     OW26476   4.052   1.807   3.890  0.5205  0.6182 -0.1383
 5005SOL    HW126477   4.041   1.883   3.833 -2.2154  0.4356  0.1830
 5005SOL    HW226478   4.038   1.847   3.975 -0.2737 -2.6462  1.2497
 5006SOL     OW26479   0.879   1.484   4.774 -0.1788 -0.2111 -0.4906
 5006SOL    HW126480   0.801   1.493   4.829 -1.0026  0.1686 -1.7212
 5006SOL    HW226481   0.892   1.575   4.748 -0.0263  0.0977  0.6478
 5007SOL     OW26482   4.129   0.332   2.168 -0.3458  0.8434 -0.1056
 5007SOL    HW126483   4.210   0.290   2.198 -0.2418 -0.4917 -2.2694
 5007SOL    HW226484   4.104   0.285   2.088 -0.0849  2.3207 -1.0542
 5008SOL     OW26485   3.084   2.619   9.346 -0.8019 -0.0778 -0.2241
 5008SOL    HW126486   3.092   2.695   9.404  1.5374  0.2951 -1.0426
 5008SOL    HW226487   3.166   2.620   9.298 -0.3278 -2.8061  0.5348
 5009SOL     OW26488   1.451   0.003  12.392  0.6543 -0.4139  0.1929
 5009SOL    HW126489   1.433   0.016  12.299 -0.5316  0.3046  0.5176
 5009SOL    HW226490   1.454   0.092  12.425  0.2587 -0.3542  0.0735
 5010SOL     OW26491   1.177   3.053   4.119  0.3471  0.0872 -0.3036
 5010SOL    HW126492   1.249   2.993   4.136 -2.0737 -1.7564  3.6635
 5010SOL    HW226493   1.189   3.133   4.171 -0.4914  0.2429 -0.3390
 5011SOL     OW26494   3.311   1.720   1.326  0.6217  0.2726 -0.3555
 5011SOL    HW126495   3.232   1.741   1.376  0.8910  1.0297 -0.2404
 5011SOL    HW226496   3.304   1.625   1.328 -0.8353  0.4307  3.2163
 5012SOL     OW26497   2.970   4.726  11.526 -0.3314 -0.2295  0.1011
 5012SOL    HW126498   2.998   4.704  11.615  0.0942 -1.3784 -0.3183
 5012SOL    HW226499   2.897   4.666  11.513 -0.4844  0.0365 -0.2599
 5013SOL     OW26500   0.368   2.889  12.202 -0.6909 -0.3401  0.2251
 5013SOL    HW126501   0.359   2.921  12.292 -0.8733 -0.1068  0.1224
 5013SOL    HW226502   0.314   2.955  12.159  1.1282  0.7876 -0.2891
 5014SOL     OW26503   0.893   0.852  12.391  0.0125  0.3188  0.0522
 5014SOL    HW126504   0.949   0.799  12.449  1.3216  1.4504 -0.1770
 5014SOL    HW226505   0.961   0.894  12.337  0.2016  0.2508  0.2356
 5015SOL     OW26506   1.116   1.474   6.883  0.0309 -0.1579 -0.8379
 5015SOL    HW126507   1.094   1.386   6.914 -1.4208 -0.3023 -2.2617
 5015SOL    HW226508   1.031   1.517   6.880  1.2480  2.2085 -1.9962
 5016SOL     OW26509   1.711   2.294  16.073  0.7165  0.4219 -0.2018
 5016SOL    HW126510   1.620   2.321  16.083  0.4032 -0.0961 -1.5837
 5016SOL    HW226511   1.755   2.373  16.103 -0.2837  0.3842  1.3363
 5017SOL     OW26512   2.581   3.794   3.770 -1.0214 -0.2281  0.6330
 5017SOL    HW126513   2.556   3.853   3.699  0.9816  0.0284  0.1243
 5017SOL    HW226514   2.598   3.714   3.722  1.4414 -0.5045  1.9625
 5018SOL     OW26515   3.014   4.671  13.635 -0.4995  0.3942  0.6539
 5018SOL    HW126516   3.087   4.691  13.694 -1.1362  1.0484  1.2136
 5018SOL    HW226517   3.059   4.639  13.557 -0.0764 -0.1355  1.1173
 5019SOL     OW26518   3.386   3.898   8.574 -0.5281 -0.1583 -0.0757
 5019SOL    HW126519   3.441   3.828   8.608  1.3483  1.1838 -0.3208
 5019SOL    HW226520   3.306   3.892   8.626  0.1437  1.5843  1.1722
 5020SOL     OW26521   4.241   0.899   8.672  0.0222  0.1832 -0.3228
 5020SOL    HW126522   4.281   0.982   8.701 -2.3273  1.0933  0.3481
 5020SOL    HW226523   4.181   0.897   8.747  1.5536 -2.6054  0.8132
 5021SOL     OW26524   4.590   2.778   3.181  0.0100  0.4831 -0.4074
 5021SOL    HW126525   4.623   2.699   3.224  0.7696  0.5766 -0.8163
 5021SOL    HW226526   4.527   2.804   3.248  0.3942 -0.6874  0.4089
 5022SOL     OW26527   3.198   0.371   9.049 -0.0229 -0.4048 -0.2377
 5022SOL    HW126528   3.285   0.344   9.080 -0.2466  0.2997  1.0266
 5022SOL    HW226529   3.170   0.410   9.132 -1.1812  1.9295 -1.7182
 5023SOL     OW26530   2.226   1.215   9.542  0.2138  0.2091 -0.0493
 5023SOL    HW126531   2.226   1.175   9.455 -0.4541  0.7629 -0.2977
 5023SOL    HW226532   2.224   1.306   9.513 -0.0209  0.5214  0.9484
 5024SOL     OW26533   0.661   1.317  16.845  0.1783  0.0101  0.3663
 5024SOL    HW126534   0.645   1.400  16.890  1.1365 -0.0707  0.8609
 5024SOL    HW226535   0.663   1.328  16.750 -3.2003  0.0351  0.2963
 5025SOL     OW26536   4.232   3.209   6.394  0.8011 -0.7301  0.3108
 5025SOL    HW126537   4.162   3.274   6.389  0.0166 -1.5202  0.7763
 5025SOL    HW226538   4.181   3.139   6.435 -1.9853  0.4197 -1.1916
 5026SOL     OW26539   3.455   1.106  16.038  0.3342  0.1847  0.0700
 5026SOL    HW126540   3.442   1.037  15.974 -0.4736  1.1770 -0.8421
 5026SOL    HW226541   3.380   1.166  16.029  0.0018 -0.4640 -1.4065
 5027SOL     OW26542   1.589   3.723  15.488  0.0605 -0.1756  0.2546
 5027SOL    HW126543   1.676   3.712  15.527  0.5054  2.7114  0.0738
 5027SOL    HW226544   1.611   3.795  15.429 -1.7715 -0.2963 -0.5578
 5028SOL     OW26545   1.327   2.580   2.175 -0.2973 -0.0263  0.5274
 5028SOL    HW126546   1.305   2.595   2.083  0.5520 -0.4214  0.2571
 5028SOL    HW226547   1.388   2.506   2.177  1.7937  1.6592 -0.8625
 5029SOL     OW26548   1.505   4.172   6.008  0.4617  0.2175 -0.0714
 5029SOL    HW126549   1.439   4.217   6.060 -0.1553  0.3678 -0.9754
 5029SOL    HW226550   1.545   4.240   5.954 -1.1057  0.3247 -1.0950
 5030SOL     OW26551   4.619   0.639   6.318 -0.2293  0.5734  0.5487
 5030SOL    HW126552   4.662   0.557   6.294  0.2430  1.2129 -0.7702
 5030SOL    HW226553   4.584   0.666   6.233 -1.3724 -0.4956  0.6755
 5031SOL     OW26554   1.807   3.992  11.204 -0.4060  0.4397 -0.2085
 5031SOL    HW126555   1.746   3.920  11.191  3.0534 -2.3356 -1.1665
 5031SOL    HW226556   1.841   3.974  11.292 -1.6065  1.5963  0.4896
 5032SOL     OW26557   3.336   0.200   8.647  0.1927 -0.0455 -0.1426
 5032SOL    HW126558   3.347   0.173   8.556  0.2989 -0.5914  0.0301
 5032SOL    HW226559   3.288   0.129   8.690 -0.9178 -0.0707 -1.4574
 5033SOL     OW26560   1.796   3.583   6.313  0.0151 -0.9942 -0.0571
 5033SOL    HW126561   1.797   3.653   6.248 -1.8368 -0.2714  0.6912
 5033SOL    HW226562   1.889   3.561   6.308  0.4098  0.1491  1.9229
 5034SOL     OW26563   0.552   0.534   6.145 -0.4482 -0.4154 -0.2248
 5034SOL    HW126564   0.545   0.439   6.154 -0.7967 -0.4074 -0.4205
 5034SOL    HW226565   0.459   0.555   6.153  0.0914  2.4399 -1.3793
 5035SOL     OW26566   3.514   0.314   2.327  0.4955  0.0612 -0.2760
 5035SOL    HW126567   3.587   0.368   2.358 -0.2255  0.8524  0.0623
 5035SOL    HW226568   3.560   0.237   2.293 -0.3468 -1.5009  2.1404
 5036SOL     OW26569   2.072   0.356   4.887  0.0506 -0.2518 -0.6539
 5036SOL    HW126570   2.024   0.358   4.971  4.1593 -0.7783  1.6834
 5036SOL    HW226571   2.030   0.432   4.847  1.7147  0.5368 -0.8990
 5037SOL     OW26572   0.035   0.883   1.194 -0.3123  0.6919 -0.3306
 5037SOL    HW126573   4.674   0.908   1.165 -1.2354 -1.0264  0.9164
 5037SOL    HW226574   0.096   0.914   1.127 -1.3805  1.2632 -1.0267
 5038SOL     OW26575   0.883   2.121  17.394  0.0665  0.3129  0.1267
 5038SOL    HW126576   0.820   2.119  17.466 -1.2510 -0.8962 -1.0483
 5038SOL    HW226577   0.828   2.162  17.327  2.1257 -0.7917 -2.2226
 5039SOL     OW26578   2.197   2.216   8.010  0.3831  0.1112  0.2485
 5039SOL    HW126579   2.233   2.249   7.928  1.0368 -0.6879  0.2130
 5039SOL    HW226580   2.133   2.156   7.972  1.5809  0.7739 -2.7878
 5040SOL     OW26581   1.989   4.668   3.252 -0.0888 -0.0771  0.4176
 5040SOL    HW126582   1.988   4.592   3.194  0.8784 -0.7654  1.3003
 5040SOL    HW226583   2.084   4.678   3.259  0.3273 -2.1716 -2.2251
 5041SOL     OW26584   0.790   3.416  15.860 -0.1212 -0.3784  0.9414
 5041SOL    HW126585   0.829   3.503  15.851  0.1408 -0.6822 -0.7891
 5041SOL    HW226586   0.842   3.389  15.936 -1.3935 -0.9109  1.6286
 5042SOL     OW26587   1.936   4.652   0.511  0.3900 -0.2137 -0.0401
 5042SOL    HW126588   1.904   4.678   0.425  1.7346  4.5007  0.8642
 5042SOL    HW226589   1.921   0.010   0.554  2.2061  0.3279 -0.4874
 5043SOL     OW26590   1.295   1.412   8.480 -0.3881 -0.2721  0.0027
 5043SOL    HW126591   1.375   1.406   8.531  1.0612  1.6417 -2.0111
 5043SOL    HW226592   1.333   1.473   8.416  0.6486 -1.4936 -0.5424
 5044SOL     OW26593   2.140   1.804   0.586  0.4626 -0.1339  0.4419
 5044SOL    HW126594   2.111   1.883   0.540  1.4619 -0.6477 -1.0676
 5044SOL    HW226595   2.233   1.821   0.578  0.7149 -1.6255  0.2111
 5045SOL     OW26596   0.904   0.690   5.255 -0.0254 -0.7785  0.0553
 5045SOL    HW126597   0.810   0.705   5.248  0.5032  2.1211 -0.9150
 5045SOL    HW226598   0.930   0.714   5.166 -4.1274 -1.1817 -1.2390
 5046SOL     OW26599   2.388   0.065   8.120 -0.2014 -0.0285  0.1513
 5046SOL    HW126600   2.323   0.083   8.051  0.4027 -0.8778 -0.6394
 5046SOL    HW226601   2.464   0.033   8.071  0.9261  1.6322  0.8210
 5047SOL     OW26602   1.900   0.019  16.096  0.7107  0.4253 -0.4005
 5047SOL    HW126603   1.992   4.720  16.101  0.6583  0.1776 -0.7179
 5047SOL    HW226604   1.897   0.113  16.077 -0.4662  0.6291  0.7521
 5048SOL     OW26605   2.463   2.832   8.444 -0.1531 -0.2779  0.3042
 5048SOL    HW126606   2.538   2.798   8.395 -0.7283 -0.3566 -0.5267
 5048SOL    HW226607   2.489   2.805   8.532 -0.9266  1.9657  1.2211
 5049SOL     OW26608   3.415   1.253   7.580  0.0055  0.3417 -0.1145
 5049SOL    HW126609   3.419   1.271   7.674  2.5930  0.5796 -0.2823
 5049SOL    HW226610   3.510   1.260   7.573 -0.1559  2.2432 -0.3989
 5050SOL     OW26611   2.256   4.612   7.139  0.3222 -0.3138 -1.0423
 5050SOL    HW126612   2.255   4.654   7.225 -2.6847  0.4601 -1.4422
 5050SOL    HW226613   2.348   4.614   7.116  0.5959 -0.6880  0.0095
 5051SOL     OW26614   0.375   4.166   8.344 -0.5376  0.0756 -0.3663
 5051SOL    HW126615   0.316   4.199   8.276 -0.1720  1.3717 -0.0430
 5051SOL    HW226616   0.413   4.096   8.291  0.9429 -0.0776  0.9121
 5052SOL     OW26617   1.813   2.878   1.172 -0.4302 -0.1794  0.7345
 5052SOL    HW126618   1.772   2.850   1.253 -0.3383 -1.2399  0.4179
 5052SOL    HW226619   1.855   2.798   1.140 -2.0067 -0.8246  0.2772
 5053SOL     OW26620   0.616   1.625   3.519  0.3764  0.1539 -0.1911
 5053SOL    HW126621   0.601   1.575   3.600  2.2711 -0.4452 -0.2103
 5053SOL    HW226622   0.536   1.606   3.471  0.3279  0.6735 -0.3179
 5054SOL     OW26623   2.487   0.996  17.327 -0.1406 -0.0355 -0.1061
 5054SOL    HW126624   2.397   0.973  17.303 -0.3258 -0.2237  0.7526
 5054SOL    HW226625   2.527   0.911  17.310 -0.5498 -0.7406  2.3284
 5055SOL     OW26626   1.868   1.024   2.600  0.0502 -0.2987 -0.7403
 5055SOL    HW126627   1.925   1.028   2.677 -0.2059 -0.9171 -0.5218
 5055SOL    HW226628   1.923   1.053   2.527  0.4101  1.2977  0.1673
 5056SOL     OW26629   2.334   0.686   6.312  0.0121  0.3163  0.2927
 5056SOL    HW126630   2.400   0.695   6.243  1.2458 -0.9702  1.3174
 5056SOL    HW226631   2.293   0.771   6.294 -0.7844  0.4450  2.8336
 5057SOL     OW26632   2.060   1.437   8.443 -0.0716  0.3066  0.0679
 5057SOL    HW126633   1.994   1.481   8.498 -0.5291  1.9865 -1.7955
 5057SOL    HW226634   2.144   1.474   8.471 -1.6427  4.2034 -0.3631
 5058SOL     OW26635   1.990   1.356   7.535  0.2377 -0.5597 -0.4320
 5058SOL    HW126636   2.043   1.340   7.457  1.4235  1.2558 -0.0030
 5058SOL    HW226637   2.045   1.418   7.582  0.6019 -0.7199 -0.6486
 5059SOL     OW26638   3.717   2.901   5.190 -0.1637  0.2147  0.4780
 5059SOL    HW126639   3.714   2.862   5.103  1.2259  0.6345  0.2451
 5059SOL    HW226640   3.625   2.926   5.201 -0.1696 -0.5573  2.2509
 5060SOL     OW26641   2.275   1.731   5.382  0.2497  0.7496 -0.2098
 5060SOL    HW126642   2.360   1.754   5.421  0.1224  1.0016 -0.0825
 5060SOL    HW226643   2.296   1.683   5.302 -2.2518 -0.0077 -0.4148
 5061SOL     OW26644   1.634   1.745   7.327  0.2783 -0.2517  0.0672
 5061SOL    HW126645   1.552   1.700   7.350  0.5249 -0.7190  0.0332
 5061SOL    HW226646   1.690   1.672   7.301  0.3310 -0.3415  0.4241
 5062SOL     OW26647   3.433   4.387   2.727  0.9146 -0.1057  0.5005
 5062SOL    HW126648   3.450   4.390   2.633  0.7850  2.7994  0.5742
 5062SOL    HW226649   3.470   4.469   2.761  2.6117 -0.3216 -0.8358
 5063SOL     OW26650   4.346   0.443   2.975  0.2167  0.6136 -0.4601
 5063SOL    HW126651   4.262   0.478   3.003  0.4375 -0.1819  1.1679
 5063SOL    HW226652   4.379   0.383   3.042  0.4147  1.4676  0.2044
 5064SOL     OW26653   0.390   4.046   9.182  0.0096 -0.0191 -0.3236
 5064SOL    HW126654   0.369   4.136   9.156  1.6965  0.9235  1.6074
 5064SOL    HW226655   0.349   4.039   9.268  1.6420 -1.0839  0.3611
 5065SOL     OW26656   2.880   2.784   2.786  0.1054  0.2286 -0.4512
 5065SOL    HW126657   2.849   2.839   2.713  2.1102 -0.8899 -2.1650
 5065SOL    HW226658   2.887   2.703   2.735 -2.8118  0.3505 -1.0591
 5066SOL     OW26659   4.277   2.367   8.067  0.4889  0.0132  0.3186
 5066SOL    HW126660   4.292   2.383   8.160 -2.1920 -0.9619  0.9206
 5066SOL    HW226661   4.187   2.397   8.055  0.1098 -0.9379  0.7663
 5067SOL     OW26662   3.630   0.315  13.213  0.1969 -0.2527 -0.1372
 5067SOL    HW126663   3.619   0.365  13.132 -0.2977  1.7216  1.1291
 5067SOL    HW226664   3.664   0.230  13.185 -2.0338 -0.6487 -1.6769
 5068SOL     OW26665   3.193   1.097  10.842 -0.1430 -0.0619  0.2737
 5068SOL    HW126666   3.253   1.031  10.807  0.8643  0.6821  0.6021
 5068SOL    HW226667   3.116   1.079  10.788  0.0346 -0.6709  0.2272
 5069SOL     OW26668   3.485   0.518   5.144 -0.6991  0.1691 -0.1024
 5069SOL    HW126669   3.479   0.450   5.211 -1.7672  1.4641  1.1189
 5069SOL    HW226670   3.545   0.474   5.083  0.2353 -1.2554  1.8670
 5070SOL     OW26671   2.313   0.790   9.974 -0.1420  0.2965  0.3441
 5070SOL    HW126672   2.288   0.779  10.066  0.6624 -0.9956  0.4057
 5070SOL    HW226673   2.282   0.878   9.952 -0.1149 -0.1229 -1.3537
 5071SOL     OW26674   3.903   3.449  15.869  0.0306 -0.8355  0.0295
 5071SOL    HW126675   3.863   3.520  15.919 -1.2024  0.1129 -2.2975
 5071SOL    HW226676   3.984   3.491  15.839  0.4869 -2.7991 -1.4894
 5072SOL     OW26677   0.562   2.229   2.609 -0.2000 -0.9163 -0.1705
 5072SOL    HW126678   0.482   2.263   2.648  1.4303  1.8557  0.7684
 5072SOL    HW226679   0.539   2.233   2.516  1.0094  1.5155 -0.3686
 5073SOL     OW26680   3.463   1.852  11.172 -0.3254  0.6733  0.5660
 5073SOL    HW126681   3.456   1.808  11.256 -1.5138  1.5457  0.9262
 5073SOL    HW226682   3.447   1.940  11.205 -2.0952  0.3998  0.4316
 5074SOL     OW26683   0.929   3.939   7.483  0.4020 -0.0333 -0.6951
 5074SOL    HW126684   0.865   3.887   7.434  2.9112 -1.4239 -2.4255
 5074SOL    HW226685   0.885   3.954   7.567  0.6051 -1.6642 -0.2894
 5075SOL     OW26686   0.020   2.245   8.577 -0.3972  0.0027 -0.2107
 5075SOL    HW126687   0.070   2.242   8.496  0.7929  0.6264  0.5033
 5075SOL    HW226688   0.037   2.335   8.603 -0.1661  0.1949 -1.0299
 5076SOL     OW26689   3.868   0.468   4.906 -0.3527 -0.9123 -0.1767
 5076SOL    HW126690   3.787   0.463   4.956 -0.6063  1.6100 -0.3263
 5076SOL    HW226691   3.881   0.563   4.898  0.0924 -0.9322  0.3395
 5077SOL     OW26692   0.990   4.576  13.725  0.0880  0.2019 -1.1157
 5077SOL    HW126693   0.937   4.502  13.696  0.3273 -0.1273 -0.7111
 5077SOL    HW226694   0.999   4.563  13.819 -3.8439 -2.7296 -1.1375
 5078SOL     OW26695   0.361   3.908  16.207  0.0119  0.7065 -0.6624
 5078SOL    HW126696   0.394   3.820  16.188  1.9812  0.9786  1.5434
 5078SOL    HW226697   0.385   3.932  16.297  1.3859 -0.8703 -0.5999
 5079SOL     OW26698   4.405   2.270  15.881  0.4400  0.0538  0.3980
 5079SOL    HW126699   4.340   2.212  15.921  1.1409 -0.7630  0.3694
 5079SOL    HW226700   4.429   2.221  15.803  1.1035 -3.1058  2.5852
 5080SOL     OW26701   3.648   3.159  14.147 -0.3472 -0.3917 -0.2585
 5080SOL    HW126702   3.599   3.242  14.146  2.5345  1.3356  1.5520
 5080SOL    HW226703   3.725   3.182  14.199 -2.9185  2.7379  2.2211
 5081SOL     OW26704   4.426   3.887  11.583 -0.2712  0.0175 -0.3205
 5081SOL    HW126705   4.336   3.911  11.607 -0.1276  1.4950 -1.2817
 5081SOL    HW226706   4.435   3.943  11.505  0.0896  1.1258  0.5168
 5082SOL     OW26707   0.248   0.941  11.902 -0.1138 -0.1000 -0.4807
 5082SOL    HW126708   0.228   0.847  11.899 -0.3946 -0.1370  2.9911
 5082SOL    HW226709   0.166   0.981  11.931 -1.2533 -3.1375  0.4155
 5083SOL     OW26710   2.854   3.517   6.941  0.3154 -0.1084  0.6011
 5083SOL    HW126711   2.837   3.448   6.877 -1.1148  1.6748 -0.9440
 5083SOL    HW226712   2.799   3.588   6.908  1.1116 -0.3104 -1.1366
 5084SOL     OW26713   0.998   2.237   3.205  0.3392 -0.5980 -0.3956
 5084SOL    HW126714   1.023   2.272   3.120  1.2693 -1.2318 -0.3776
 5084SOL    HW226715   1.056   2.161   3.200 -0.2807 -0.8868 -3.0503
 5085SOL     OW26716   3.206   3.773   5.051 -0.1504 -0.3070 -0.0306
 5085SOL    HW126717   3.296   3.744   5.034 -1.0683 -2.0626 -1.8373
 5085SOL    HW226718   3.159   3.690   5.058  0.3620 -0.5967 -0.0217
 5086SOL     OW26719   1.217   2.115  13.889  0.2163  0.0124 -0.1431
 5086SOL    HW126720   1.195   2.025  13.911 -1.4323  0.4606  0.0065
 5086SOL    HW226721   1.238   2.098  13.797  1.7359 -0.4701  0.2830
 5087SOL     OW26722   0.201   2.511  10.348  0.0355 -0.0108 -0.7568
 5087SOL    HW126723   0.208   2.429  10.299  2.0067  0.6297 -1.5319
 5087SOL    HW226724   0.196   2.578  10.281  1.5831  0.6826 -0.1812
 5088SOL     OW26725   2.169   3.283   3.028 -0.1732 -0.1509  0.3635
 5088SOL    HW126726   2.141   3.197   2.996 -1.0354 -0.1544  1.1357
 5088SOL    HW226727   2.263   3.273   3.044 -0.4032 -1.7046  0.7144
 5089SOL     OW26728   1.042   3.285   2.289 -0.6581 -0.3223  0.5764
 5089SOL    HW126729   0.995   3.268   2.370  1.3367  1.3386  2.0674
 5089SOL    HW226730   1.117   3.228   2.300 -0.2754 -0.1505 -1.0704
 5090SOL     OW26731   1.729   0.616  13.517 -0.2853 -0.1936 -0.2588
 5090SOL    HW126732   1.667   0.608  13.445 -0.5084  1.3871 -0.2410
 5090SOL    HW226733   1.784   0.678  13.469  2.8504 -1.5498  1.5443
 5091SOL     OW26734   2.760   1.446   7.349  0.1705  0.6286 -0.4518
 5091SOL    HW126735   2.743   1.354   7.328  0.7418 -0.1038  2.3368
 5091SOL    HW226736   2.818   1.465   7.275  0.8605  2.1766  0.5065
 5092SOL     OW26737   3.672   0.198   5.291  0.1221 -0.9752  0.0109
 5092SOL    HW126738   3.596   0.183   5.347 -0.6599 -0.8895 -1.0293
 5092SOL    HW226739   3.729   0.126   5.320  0.6420  0.2347  1.9748
 5093SOL     OW26740   2.094   4.673   6.926 -0.8296 -0.4573 -0.0145
 5093SOL    HW126741   2.022   4.614   6.945  0.4663 -1.9961  0.1434
 5093SOL    HW226742   2.152   4.665   7.001  1.2067  2.1697 -1.3001
 5094SOL     OW26743   2.768   4.332  14.765 -0.1528 -0.2299 -0.6554
 5094SOL    HW126744   2.696   4.273  14.740 -1.1730  0.2108  1.2501
 5094SOL    HW226745   2.843   4.291  14.722 -0.1579 -0.6363 -0.2808
 5095SOL     OW26746   0.130   0.049   3.996 -0.1848 -0.1774 -0.1135
 5095SOL    HW126747   0.068   0.108   3.953 -0.1438  1.6053  2.2865
 5095SOL    HW226748   0.093   4.691   3.972  0.1780 -0.5694  0.6887
 5096SOL     OW26749   4.017   4.448   4.712 -0.0233  0.1494  0.5028
 5096SOL    HW126750   3.990   4.364   4.747  0.7817  0.0599  0.9169
 5096SOL    HW226751   3.993   4.502   4.787  1.3219  0.9519  0.3536
 5097SOL     OW26752   2.068   1.252  16.923 -0.1797 -1.1967 -0.0125
 5097SOL    HW126753   2.072   1.195  16.846 -0.0193 -0.9279 -0.2025
 5097SOL    HW226754   2.161   1.266  16.942 -0.3188 -0.9669  0.5186
 5098SOL     OW26755   1.447   2.870  14.783 -0.1241  0.8451  0.1935
 5098SOL    HW126756   1.471   2.796  14.840 -0.3234 -0.4407 -1.3907
 5098SOL    HW226757   1.351   2.862  14.778 -0.0432 -1.6947  2.5508
 5099SOL     OW26758   0.562   1.543  13.212  0.5485  0.0871  0.2108
 5099SOL    HW126759   0.504   1.500  13.148 -1.1320  1.9603  0.4898
 5099SOL    HW226760   0.499   1.611  13.236  0.1196 -0.9722  2.1298
 5100SOL     OW26761   0.411   2.491   6.846 -0.2037 -0.4469 -0.0221
 5100SOL    HW126762   0.376   2.406   6.816 -1.8088  0.0700  0.4021
 5100SOL    HW226763   0.401   2.529   6.759 -2.3834  0.7384  0.7390
 5101SOL     OW26764   2.059   2.185   9.856 -0.2397 -0.2290 -0.8484
 5101SOL    HW126765   1.970   2.158   9.879 -0.7573  1.2731 -1.1022
 5101SOL    HW226766   2.095   2.099   9.835  1.5890 -0.1807  1.9268
 5102SOL     OW26767   3.694   3.207   4.740  0.4916  0.0857 -0.5977
 5102SOL    HW126768   3.665   3.144   4.675  1.3504 -0.0443 -0.8516
 5102SOL    HW226769   3.784   3.223   4.714  0.2490  0.0171 -1.4779
 5103SOL     OW26770   4.190   2.951   8.113 -0.0818  0.5297 -0.4326
 5103SOL    HW126771   4.147   2.878   8.159  1.5371 -0.4296 -0.4694
 5103SOL    HW226772   4.193   2.925   8.021  0.9043 -0.4959 -0.1037
 5104SOL     OW26773   3.997   2.776   8.785  0.0162  0.1690 -0.7733
 5104SOL    HW126774   3.938   2.749   8.855 -0.9465  1.0707 -1.2232
 5104SOL    HW226775   4.048   2.697   8.772 -0.0962  0.0856 -0.7072
 5105SOL     OW26776   0.674   2.116   6.162  0.4095  0.5328 -0.1788
 5105SOL    HW126777   0.590   2.098   6.205 -0.5230  1.8585 -1.4548
 5105SOL    HW226778   0.695   2.030   6.123  0.4351  0.7337 -0.6114
 5106SOL     OW26779   2.692   4.601   6.638  0.0473  0.0477 -0.1736
 5106SOL    HW126780   2.668   4.686   6.674  0.1577 -0.5123  1.1918
 5106SOL    HW226781   2.692   4.629   6.546 -0.4148  0.8359  0.0603
 5107SOL     OW26782   1.355   4.029   3.134  0.5911 -0.0078  0.3667
 5107SOL    HW126783   1.431   4.071   3.094  0.4341 -1.5951 -1.6124
 5107SOL    HW226784   1.361   4.061   3.224 -1.3316  1.3542  0.0019
 5108SOL     OW26785   4.459   1.149   4.945  0.0019  0.7584 -0.5389
 5108SOL    HW126786   4.461   1.175   4.853 -2.4653  3.2474  0.0915
 5108SOL    HW226787   4.544   1.181   4.974  0.3946  0.5567 -1.4565
 5109SOL     OW26788   1.361   3.329   3.615 -0.7793 -0.0297 -0.4706
 5109SOL    HW126789   1.299   3.345   3.543  1.3356  3.0775 -1.5989
 5109SOL    HW226790   1.394   3.419   3.622 -0.0352 -0.4310  0.9757
 5110SOL     OW26791   1.546   2.175   2.488 -0.0181  0.1353  0.2552
 5110SOL    HW126792   1.619   2.215   2.440 -2.6304  2.2070 -2.0121
 5110SOL    HW226793   1.555   2.080   2.477  0.2551  0.2194 -0.2587
 5111SOL     OW26794   0.886   0.151   9.171  0.2346 -0.0932  0.1828
 5111SOL    HW126795   0.885   0.244   9.193  0.9543 -0.4124  1.5539
 5111SOL    HW226796   0.892   0.164   9.077  0.2053 -0.0990  0.1799
 5112SOL     OW26797   0.751   4.393   3.021  0.5955  0.2442  0.6304
 5112SOL    HW126798   0.799   4.347   3.090 -1.2246  0.0263  1.7765
 5112SOL    HW226799   0.767   4.338   2.945  0.0789  1.0532 -0.0732
 5113SOL     OW26800   1.593   3.175   6.956  0.3375  0.3216 -0.1694
 5113SOL    HW126801   1.514   3.201   7.003  0.6739  0.3362  0.3813
 5113SOL    HW226802   1.665   3.194   7.016  0.0383  2.8489 -0.6065
 5114SOL     OW26803   1.623   2.840   2.281  0.3729 -0.2935 -0.5605
 5114SOL    HW126804   1.646   2.793   2.201  1.0025 -0.0267 -0.5342
 5114SOL    HW226805   1.650   2.777   2.348  0.1785  1.1071  0.8378
 5115SOL     OW26806   0.292   4.428   2.916 -0.4364 -0.2407  0.7470
 5115SOL    HW126807   0.362   4.474   2.961 -1.0049  0.9958  0.3685
 5115SOL    HW226808   0.267   4.361   2.980  1.8425 -0.1392  1.7522
 5116SOL     OW26809   2.447   1.740  12.020 -0.3341  0.6459  0.5025
 5116SOL    HW126810   2.353   1.747  12.032 -0.7643 -1.7556 -1.7163
 5116SOL    HW226811   2.479   1.831  12.026  0.1245  0.5983 -1.3521
 5117SOL     OW26812   2.944   4.173  10.152  0.4580  0.2663 -0.2451
 5117SOL    HW126813   2.914   4.169  10.061 -1.1038 -0.2936  0.3048
 5117SOL    HW226814   2.905   4.253  10.186 -0.6805 -0.2308 -0.4085
 5118SOL     OW26815   1.378   3.681  10.181  0.2868  0.3012  0.6303
 5118SOL    HW126816   1.395   3.625  10.105 -0.9038 -0.9286  1.2797
 5118SOL    HW226817   1.456   3.665  10.234  1.5149 -1.1909 -1.6193
 5119SOL     OW26818   2.789   1.577   2.448 -0.0257  0.1448  0.0747
 5119SOL    HW126819   2.789   1.481   2.437 -2.3393 -0.0062  1.3334
 5119SOL    HW226820   2.696   1.591   2.430 -0.3879 -0.9068  1.1187
 5120SOL     OW26821   0.329   2.946  12.471 -0.0143  0.4338  0.8952
 5120SOL    HW126822   0.335   2.852  12.490 -0.8890  0.0915 -0.5413
 5120SOL    HW226823   0.410   2.973  12.515 -0.4945  0.4839  1.7546
 5121SOL     OW26824   2.026   1.542   4.499 -0.2609 -0.3788 -0.4317
 5121SOL    HW126825   1.931   1.537   4.487 -0.3729 -0.5829  0.5263
 5121SOL    HW226826   2.055   1.490   4.424  0.2638  0.9582 -1.1698
 5122SOL     OW26827   3.524   3.526   6.790  0.1258 -0.7589  0.2050
 5122SOL    HW126828   3.559   3.603   6.745  0.4274 -1.1509 -0.2363
 5122SOL    HW226829   3.447   3.567   6.827  0.8758 -0.0605  1.0003
 5123SOL     OW26830   2.336   3.227   6.939  0.2067 -0.3101  0.5098
 5123SOL    HW126831   2.343   3.170   6.862 -0.7220 -0.6742  0.6914
 5123SOL    HW226832   2.413   3.192   6.983  1.1677  1.3777  0.1527
 5124SOL     OW26833   0.916   2.169   0.527  0.3895  0.7026 -0.1302
 5124SOL    HW126834   0.934   2.075   0.526  0.2130  0.6870 -1.7334
 5124SOL    HW226835   0.959   2.196   0.608 -1.1589  0.4911  0.7668
 5125SOL     OW26836   1.056   3.820   7.111  0.0300 -0.4519  0.2874
 5125SOL    HW126837   1.121   3.814   7.181 -0.5174 -2.1340  0.6474
 5125SOL    HW226838   1.007   3.742   7.134  0.3768 -0.7964 -0.1581
 5126SOL     OW26839   0.336   0.227   9.052 -0.1445 -0.0669 -0.0193
 5126SOL    HW126840   0.296   0.308   9.083 -1.1570 -0.6902  0.2890
 5126SOL    HW226841   0.423   0.227   9.092  0.4445 -2.8761 -1.2934
 5127SOL     OW26842   4.375   4.716  13.004  0.4066  0.1355 -0.4784
 5127SOL    HW126843   4.313   4.659  12.959 -2.0623  0.9656  1.8436
 5127SOL    HW226844   4.375   4.674  13.090 -1.0406 -1.6430 -1.3677
 5128SOL     OW26845   1.164   2.803   4.835  0.6965  0.5032 -0.6918
 5128SOL    HW126846   1.152   2.775   4.745  1.0303  0.5017 -0.7378
 5128SOL    HW226847   1.071   2.808   4.854  1.0444 -0.6993  1.3183
 5129SOL     OW26848   0.580   0.181   9.206 -0.3023  0.2791 -0.2990
 5129SOL    HW126849   0.646   0.212   9.270 -0.2656 -0.4733  0.0271
 5129SOL    HW226850   0.611   0.093   9.183 -0.8360 -0.5188  2.0016
 5130SOL     OW26851   4.122   2.027   4.218  0.1569  0.2885 -0.1719
 5130SOL    HW126852   4.194   2.078   4.181  0.4948  0.9443  1.4282
 5130SOL    HW226853   4.171   1.984   4.288 -0.7624 -0.1785  0.1908
 5131SOL     OW26854   4.155   0.629   7.644  0.0162  0.1440 -0.0596
 5131SOL    HW126855   4.171   0.548   7.595 -0.7357  0.5103 -0.9099
 5131SOL    HW226856   4.217   0.691   7.605  0.0275 -0.0541 -0.3578
 5132SOL     OW26857   2.035   0.694  13.961  0.0340  0.4461  0.4373
 5132SOL    HW126858   1.963   0.661  13.906 -0.0030  1.4178 -0.0921
 5132SOL    HW226859   2.010   0.784  13.980 -1.2248  0.5244 -1.5152
 5133SOL     OW26860   0.820   2.433   2.395 -0.4854 -0.0884  0.1776
 5133SOL    HW126861   0.806   2.501   2.329 -3.0992  0.8968  1.7738
 5133SOL    HW226862   0.753   2.463   2.455 -1.3651 -0.7783 -0.4506
 5134SOL     OW26863   1.793   4.223   9.721 -0.1405 -0.2861 -0.0974
 5134SOL    HW126864   1.760   4.233   9.632  2.2214 -0.6783 -0.9971
 5134SOL    HW226865   1.856   4.295   9.728  1.6714 -1.8590 -0.3257
 5135SOL     OW26866   0.968   0.468   3.949 -0.7213 -0.0223  0.1088
 5135SOL    HW126867   1.041   0.434   3.897 -1.3077 -0.7147 -0.2539
 5135SOL    HW226868   0.963   0.408   4.023 -3.4749  1.7403  1.3470
 5136SOL     OW26869   4.104   1.275   8.744  0.2287  0.0561  0.5950
 5136SOL    HW126870   4.048   1.210   8.702  0.3042  0.6294 -0.3850
 5136SOL    HW226871   4.173   1.215   8.774  2.9750  2.5094 -0.7900
 5137SOL     OW26872   0.346   4.156  14.924 -0.8547  0.3600 -0.2796
 5137SOL    HW126873   0.428   4.203  14.910 -0.9707  0.3426 -1.0055
 5137SOL    HW226874   0.349   4.088  14.857  2.3988  0.4670 -0.2327
 5138SOL     OW26875   2.773   0.606   8.184  0.5698 -0.0702 -0.5222
 5138SOL    HW126876   2.721   0.595   8.264  0.8310  1.0403 -0.2113
 5138SOL    HW226877   2.851   0.636   8.230  0.8596  0.4613 -1.3718
 5139SOL     OW26878   2.006   3.945   8.169  0.5652  0.5209  0.7335
 5139SOL    HW126879   1.924   3.905   8.143  2.4056 -1.5048 -1.9681
 5139SOL    HW226880   2.024   3.899   8.251 -0.7325 -0.5568  0.4076
 5140SOL     OW26881   3.295   4.098   4.895 -0.0422 -0.1096  0.4787
 5140SOL    HW126882   3.254   4.037   4.956  0.7104 -0.1849  0.9111
 5140SOL    HW226883   3.219   4.124   4.842  0.6921 -0.9785 -1.0072
 5141SOL     OW26884   3.545   3.856   5.146  0.3809  0.8300  0.0066
 5141SOL    HW126885   3.530   3.767   5.179 -0.3518  1.8488  2.4151
 5141SOL    HW226886   3.532   3.838   5.053 -1.7800  2.9888 -0.1061
 5142SOL     OW26887   0.629   1.950   5.742 -0.2876  0.2101  0.4187
 5142SOL    HW126888   0.634   1.857   5.720  1.7637  0.4744 -0.2834
 5142SOL    HW226889   0.683   1.999   5.680  2.1282 -2.7176  0.1940
 5143SOL     OW26890   2.764   2.860   8.430  0.3968  0.2563 -0.3739
 5143SOL    HW126891   2.739   2.952   8.440  1.8149  0.8599 -2.3938
 5143SOL    HW226892   2.722   2.828   8.510  0.4608  2.9622  0.7601
 5144SOL     OW26893   1.846   3.648   9.672 -0.2710 -0.4102 -0.2346
 5144SOL    HW126894   1.908   3.652   9.745  0.5088 -1.4536 -0.8483
 5144SOL    HW226895   1.764   3.671   9.717  0.7568  1.1671  0.8438
 5145SOL     OW26896   1.861   3.959  16.558 -0.7400 -0.0633 -0.1786
 5145SOL    HW126897   1.918   3.963  16.635  0.1731 -0.1750 -0.8555
 5145SOL    HW226898   1.869   3.864  16.549  0.2523 -0.1089  1.1882
 5146SOL     OW26899   1.860   4.463   9.533 -0.5829  0.2463 -0.4452
 5146SOL    HW126900   1.857   4.419   9.448 -0.7626 -2.2842  0.8561
 5146SOL    HW226901   1.800   4.537   9.525 -0.4952  0.4131  0.5048
 5147SOL     OW26902   0.400   2.377   0.545 -0.0267  0.3837 -0.0732
 5147SOL    HW126903   0.481   2.345   0.584 -1.8738 -1.7594  1.9765
 5147SOL    HW226904   0.432   2.402   0.458 -1.9893 -0.0387 -0.9158
 5148SOL     OW26905   2.703   2.909   3.834 -0.1202 -0.7826  0.0424
 5148SOL    HW126906   2.735   2.996   3.857  1.3413 -1.0933 -0.8091
 5148SOL    HW226907   2.622   2.943   3.795 -0.9535 -1.9172  0.8165
 5149SOL     OW26908   4.599   2.928   2.734  0.4689  0.3673 -0.2838
 5149SOL    HW126909   4.556   2.843   2.731  0.1493  0.4954  0.8539
 5149SOL    HW226910   4.610   2.943   2.828 -2.1216  0.5040  0.0021
 5150SOL     OW26911   2.426   3.398   3.242  0.1353 -0.0620 -0.3064
 5150SOL    HW126912   2.403   3.463   3.175 -1.8384  1.9550  2.3252
 5150SOL    HW226913   2.435   3.450   3.322 -0.0689  1.3006 -1.1631
 5151SOL     OW26914   4.716   3.073   4.216  0.3660  0.1718  0.0885
 5151SOL    HW126915   4.693   3.029   4.134  0.7444 -3.2973  1.8795
 5151SOL    HW226916   4.693   3.013   4.286 -2.5476  2.8660  1.4666
 5152SOL     OW26917   2.094   1.632   7.951  0.8996 -0.2775 -0.1471
 5152SOL    HW126918   2.000   1.611   7.954  0.7262  0.6226  0.7394
 5152SOL    HW226919   2.097   1.698   8.020  1.9483  0.3891 -0.8440
 5153SOL     OW26920   2.944   3.398  17.191  0.0658 -0.5445  0.2766
 5153SOL    HW126921   2.987   3.349  17.121  2.0600  0.5575  0.7288
 5153SOL    HW226922   2.851   3.379  17.175 -0.6732  2.0520  1.3828
 5154SOL     OW26923   2.807   1.600  11.778  0.2376  0.2083 -0.4850
 5154SOL    HW126924   2.807   1.524  11.720 -1.4127 -0.5022  0.4751
 5154SOL    HW226925   2.892   1.583  11.819 -0.2266 -0.8419  0.0483
 5155SOL     OW26926   1.150   1.680   2.056  0.1521  0.2504 -0.3682
 5155SOL    HW126927   1.095   1.676   2.135 -0.5659 -1.3190 -0.9469
 5155SOL    HW226928   1.203   1.600   2.060 -0.7265 -0.3239  0.0337
 5156SOL     OW26929   0.598   3.832   5.723 -0.3935  0.4695 -0.0853
 5156SOL    HW126930   0.590   3.878   5.806  0.3343 -0.3441  0.4357
 5156SOL    HW226931   0.667   3.882   5.679  0.8854 -1.3609 -0.1803
 5157SOL     OW26932   4.129   2.161   5.353  0.5055  0.1975 -0.6868
 5157SOL    HW126933   4.194   2.186   5.419 -0.2205 -0.2443  0.2015
 5157SOL    HW226934   4.051   2.197   5.395  0.7033 -2.5174  2.0216
 5158SOL     OW26935   3.004   2.357   7.783  0.4482  0.0663 -0.0722
 5158SOL    HW126936   3.068   2.342   7.713  1.1282  0.3836  0.4876
 5158SOL    HW226937   2.925   2.315   7.748 -0.6136  1.9253  0.0733
 5159SOL     OW26938   2.963   3.679  13.217  0.0101  0.0929 -0.4831
 5159SOL    HW126939   2.880   3.702  13.175  0.1581  0.4913 -0.5582
 5159SOL    HW226940   2.940   3.701  13.307  0.0981  2.1509 -0.9553
 5160SOL     OW26941   4.533   4.045   2.571 -0.1889 -0.1229  0.3193
 5160SOL    HW126942   4.447   4.003   2.574 -0.4163  0.3080  0.0057
 5160SOL    HW226943   4.518   4.116   2.634  0.5933  0.4383 -0.1256
 5161SOL     OW26944   2.418   0.698  15.083  0.3742 -0.2348  0.1885
 5161SOL    HW126945   2.358   0.624  15.097  1.7055 -1.6025 -1.3329
 5161SOL    HW226946   2.502   0.661  15.055  0.1360  0.2080 -1.1249
 5162SOL     OW26947   0.227   2.210   4.820  0.0768 -0.4853  0.2704
 5162SOL    HW126948   0.285   2.167   4.882 -0.5478  0.0283  1.2077
 5162SOL    HW226949   0.150   2.164   4.853  0.3022 -0.8123  0.3455
 5163SOL     OW26950   1.424   0.999   8.550  0.6819  0.3888  0.0889
 5163SOL    HW126951   1.402   0.935   8.618 -1.9738  0.3035 -0.8696
 5163SOL    HW226952   1.352   1.061   8.546 -1.4831 -2.1465 -0.6978
 5164SOL     OW26953   3.375   1.416   6.941 -0.0255 -0.2940 -0.3775
 5164SOL    HW126954   3.327   1.488   6.900 -0.8736  0.0350  1.1848
 5164SOL    HW226955   3.388   1.353   6.871 -0.1335 -1.8742  1.0344
 5165SOL     OW26956   0.670   1.301  10.079 -0.0054  0.1000 -0.0556
 5165SOL    HW126957   0.638   1.245  10.009 -3.2744  1.1464  0.5842
 5165SOL    HW226958   0.672   1.248  10.159  1.0195  0.3242  0.0691
 5166SOL     OW26959   4.085   4.606  16.678 -0.2592 -0.0410  0.5123
 5166SOL    HW126960   4.008   4.556  16.707 -1.0187  1.1338  0.5323
 5166SOL    HW226961   4.064   4.698  16.695 -1.8138 -0.2046 -0.5240
 5167SOL     OW26962   2.140   2.295   7.609 -0.7392 -0.2013 -0.0018
 5167SOL    HW126963   2.058   2.284   7.562  0.2824  0.4653 -1.9327
 5167SOL    HW226964   2.134   2.206   7.643 -1.2336 -0.0001  0.4485
 5168SOL     OW26965   3.008   0.649   4.716 -0.2416 -0.1583 -0.4386
 5168SOL    HW126966   2.990   0.595   4.793  2.7109 -1.1177 -0.4350
 5168SOL    HW226967   3.089   0.692   4.743  0.6985 -0.0527 -3.3855
 5169SOL     OW26968   1.209   2.321   5.209 -0.4124 -0.1219  0.2724
 5169SOL    HW126969   1.129   2.364   5.237  0.0434  0.7550  0.2229
 5169SOL    HW226970   1.247   2.278   5.286  0.4362 -1.1425 -0.7013
 5170SOL     OW26971   4.535   4.489   7.354  0.6257 -0.0918 -0.3557
 5170SOL    HW126972   4.557   4.582   7.355  1.7171 -0.3766  2.1116
 5170SOL    HW226973   4.455   4.492   7.301 -0.7844  0.4426  1.7928
 5171SOL     OW26974   1.783   3.563   6.007  0.1909 -0.1471 -0.3541
 5171SOL    HW126975   1.815   3.481   6.045  1.2793 -0.0134 -0.9818
 5171SOL    HW226976   1.827   3.631   6.059 -0.1124 -1.0880  1.1500
 5172SOL     OW26977   3.360   1.994   5.468  0.2110  0.3789  0.4273
 5172SOL    HW126978   3.340   1.910   5.509  2.1796  0.3366  1.2774
 5172SOL    HW226979   3.358   2.050   5.545 -1.5937  0.9979 -0.0711
 5173SOL     OW26980   1.872   4.687   7.214 -1.1407  0.4114 -0.2395
 5173SOL    HW126981   1.938   4.652   7.274 -0.5506 -0.5392 -1.4396
 5173SOL    HW226982   1.809   4.616   7.210 -1.4003  0.4944  2.4864
 5174SOL     OW26983   2.051   4.726   6.528  0.5519 -0.1023 -0.0863
 5174SOL    HW126984   1.972   4.693   6.571 -1.3973  1.8325 -2.1569
 5174SOL    HW226985   2.114   4.654   6.533  0.6405 -0.1063 -1.4171
 5175SOL     OW26986   4.607   3.980   5.837 -0.8922 -0.5936  0.3669
 5175SOL    HW126987   4.646   3.952   5.920 -0.9454  1.8219  1.1947
 5175SOL    HW226988   4.515   3.969   5.858 -1.6821 -1.1890 -3.3924
 5176SOL     OW26989   3.786   0.024  13.434 -0.0307 -0.2695  0.3084
 5176SOL    HW126990   3.788   0.076  13.353  0.7789  0.2198  0.6491
 5176SOL    HW226991   3.792   0.098  13.494 -1.8287  0.5175 -0.4827
 5177SOL     OW26992   4.470   0.653   7.120  0.5405  0.1368 -0.6976
 5177SOL    HW126993   4.528   0.642   7.195  0.0914 -1.5180 -0.5838
 5177SOL    HW226994   4.486   0.743   7.094  0.8546  0.9920  2.4372
 5178SOL     OW26995   0.032   4.563   3.142 -0.3395  0.5531  0.3581
 5178SOL    HW126996   4.699   4.493   3.117  0.9674 -0.2880 -0.3513
 5178SOL    HW226997   0.070   4.529   3.223 -0.2257  0.5388  0.2991
 5179SOL     OW26998   0.178   1.976  10.100 -0.4945 -0.0565 -0.3866
 5179SOL    HW126999   0.148   1.905  10.043 -0.0601  1.4638 -2.4806
 5179SOL    HW227000   0.219   2.028  10.031 -2.2056 -0.8833 -2.0170
 5180SOL     OW27001   1.251   3.017   6.954  0.4449  0.2727 -0.2264
 5180SOL    HW127002   1.237   3.000   6.860  0.9433 -0.7401 -0.1171
 5180SOL    HW227003   1.162   3.047   6.973 -0.2803 -0.7532 -1.9928
 5181SOL     OW27004   2.181   1.295   4.971  0.6877 -0.1379  0.9355
 5181SOL    HW127005   2.200   1.238   5.045  0.8221 -0.8759  0.3363
 5181SOL    HW227006   2.242   1.252   4.911  1.1986  2.8152 -0.6505
 5182SOL     OW27007   2.899   3.049  14.435  0.0653 -0.0608  0.6972
 5182SOL    HW127008   2.878   3.013  14.349  1.4856 -1.7379  1.0439
 5182SOL    HW227009   2.901   2.968  14.487 -0.2823 -0.9741 -0.7279
 5183SOL     OW27010   2.305   3.219  15.300 -0.1122  0.6362 -0.3832
 5183SOL    HW127011   2.376   3.207  15.363  0.1848 -1.4731 -1.1398
 5183SOL    HW227012   2.306   3.137  15.251 -3.6151  1.0104 -1.0795
 5184SOL     OW27013   1.032   3.187   7.032 -0.6276  0.4780 -0.4176
 5184SOL    HW127014   0.949   3.234   7.041 -1.2468 -1.0915  2.0720
 5184SOL    HW227015   1.054   3.179   7.125  0.8116  2.6810 -0.5560
 5185SOL     OW27016   1.179   1.925  14.456 -0.5926 -0.1366  0.4137
 5185SOL    HW127017   1.128   1.985  14.511  0.4012  0.7964  0.3079
 5185SOL    HW227018   1.245   1.898  14.520  1.0087 -1.0835 -1.6660
 5186SOL     OW27019   2.317   4.090   5.853  0.2141 -0.4666 -0.2188
 5186SOL    HW127020   2.389   4.123   5.906 -1.4027  0.6495  1.2666
 5186SOL    HW227021   2.286   4.166   5.804 -1.5444  0.0913  1.7706
 5187SOL     OW27022   2.137   0.085   4.288 -0.1064  0.9831 -0.6462
 5187SOL    HW127023   2.131   4.717   4.296 -0.8690  1.0150 -0.8542
 5187SOL    HW227024   2.128   0.116   4.378  0.8264 -0.6655  0.0085
 5188SOL     OW27025   4.073   1.489  17.391  0.1367 -0.3546 -0.1533
 5188SOL    HW127026   4.033   1.533  17.466 -0.6462 -0.4999 -0.4908
 5188SOL    HW227027   4.051   1.549  17.319 -0.1729 -1.0525 -0.6512
 5189SOL     OW27028   0.251   1.327   2.164  0.3194  0.0783  0.7645
 5189SOL    HW127029   0.180   1.334   2.100 -0.6805  1.8542  2.0603
 5189SOL    HW227030   0.333   1.343   2.116 -0.8399 -0.6923 -1.4671
 5190SOL     OW27031   2.030   3.034   6.849  0.0502 -0.1529 -0.2512
 5190SOL    HW127032   2.057   3.126   6.845  0.8000 -0.3784 -0.3512
 5190SOL    HW227033   1.964   3.041   6.780 -0.1174 -0.8310 -0.1607
 5191SOL     OW27034   2.356   0.311   5.372  0.1682  0.3281 -0.0493
 5191SOL    HW127035   2.275   0.265   5.348  0.0707 -0.4459  1.7722
 5191SOL    HW227036   2.320   0.383   5.424 -0.0363  0.7807 -0.8126
 5192SOL     OW27037   2.468   2.039   2.110 -0.7074  0.1875  0.1228
 5192SOL    HW127038   2.560   2.028   2.133 -1.2323  2.0671  3.1533
 5192SOL    HW227039   2.434   1.964   2.159  0.1947 -0.0664  0.3672
 5193SOL     OW27040   2.229   1.548   4.178 -0.6677  0.2300  0.3858
 5193SOL    HW127041   2.215   1.500   4.096 -0.5458  1.1261 -0.1597
 5193SOL    HW227042   2.172   1.624   4.174 -2.2179 -0.9709 -0.3856
 5194SOL     OW27043   3.809   1.322   2.312 -0.1114  0.1993  0.3735
 5194SOL    HW127044   3.753   1.258   2.267  0.0793 -0.5061  1.1302
 5194SOL    HW227045   3.834   1.377   2.237  1.6926 -0.5675  0.3955
 5195SOL     OW27046   1.437   0.170   5.760 -0.1187  0.0779  0.3796
 5195SOL    HW127047   1.355   0.154   5.808 -0.5784 -0.6217 -0.6314
 5195SOL    HW227048   1.470   0.250   5.801  0.3809 -0.5588  1.2140
 5196SOL     OW27049   0.164   0.847   7.696 -0.4869 -0.1776  0.1553
 5196SOL    HW127050   0.121   0.883   7.774  0.6040  0.9320  0.2425
 5196SOL    HW227051   0.144   0.754   7.706 -2.1469  0.2580  0.8377
 5197SOL     OW27052   0.539   0.340  13.475 -0.0688 -0.2661 -0.5669
 5197SOL    HW127053   0.515   0.343  13.383  1.8712 -0.8422 -1.0881
 5197SOL    HW227054   0.512   0.250  13.495  1.0451 -0.5652 -0.4491
 5198SOL     OW27055   2.711   4.318   2.019  1.0742 -0.5188  0.3419
 5198SOL    HW127056   2.766   4.389   2.053  0.3997  1.0089 -1.7111
 5198SOL    HW227057   2.754   4.287   1.940 -2.4649 -1.3570 -1.2427
 5199SOL     OW27058   1.319   4.345  12.325 -0.6508  0.3609 -0.1050
 5199SOL    HW127059   1.225   4.326  12.326 -0.2201 -1.6425  2.2509
 5199SOL    HW227060   1.333   4.314  12.415 -2.8400 -1.6554 -0.4354
 5200SOL     OW27061   2.566   0.391   3.967  0.7072  0.5299 -0.4854
 5200SOL    HW127062   2.534   0.331   3.899  0.0119  0.4131 -0.0599
 5200SOL    HW227063   2.534   0.351   4.048  1.1472  1.3653  0.0911
 5201SOL     OW27064   2.076   2.380   0.398  0.0727  0.1020  0.4727
 5201SOL    HW127065   2.067   2.471   0.427 -2.1081 -0.5168  1.7312
 5201SOL    HW227066   2.172   2.379   0.395  0.0872  0.0618  0.9080
 5202SOL     OW27067   0.431   2.576   2.140  0.6192 -0.1614 -1.0112
 5202SOL    HW127068   0.447   2.491   2.098  5.4236  1.8427 -3.2280
 5202SOL    HW227069   0.391   2.616   2.063 -0.5159 -1.8979 -1.3466
 5203SOL     OW27070   0.685   3.972   3.712  0.2186 -0.4506  0.4630
 5203SOL    HW127071   0.756   3.930   3.760  0.5185 -1.6692 -1.0550
 5203SOL    HW227072   0.674   3.912   3.638 -1.2563  0.0242  0.2899
 5204SOL     OW27073   3.588   2.372   6.233 -0.0507 -0.8016 -0.5866
 5204SOL    HW127074   3.671   2.337   6.201 -1.1010 -1.5689 -2.4538
 5204SOL    HW227075   3.614   2.456   6.270 -0.5444  0.0968 -2.2882
 5205SOL     OW27076   4.397   0.702   3.515 -0.3852 -0.0815  0.1896
 5205SOL    HW127077   4.427   0.786   3.550  2.2418 -0.5197 -1.0502
 5205SOL    HW227078   4.372   0.740   3.430 -0.9153  0.5044  0.6080
 5206SOL     OW27079   2.450   1.252   7.546 -0.3625 -0.3267 -0.3669
 5206SOL    HW127080   2.424   1.236   7.456  2.1692 -0.6322 -1.0357
 5206SOL    HW227081   2.466   1.166   7.584 -1.0098 -0.2492  0.0890
 5207SOL     OW27082   3.907   0.472   9.902  0.4311 -0.0064 -0.1707
 5207SOL    HW127083   3.925   0.454   9.995 -1.7519 -0.3183  0.1932
 5207SOL    HW227084   3.909   0.380   9.877 -0.2158 -0.6490  2.0780
 5208SOL     OW27085   4.461   4.584   3.717 -0.2637 -0.0758  0.5746
 5208SOL    HW127086   4.431   4.494   3.724  2.6807 -1.0644  0.5359
 5208SOL    HW227087   4.451   4.605   3.624  0.9188  2.1392  0.9467
 5209SOL     OW27088   3.543   3.587   8.189  0.2997  0.2469  0.5166
 5209SOL    HW127089   3.572   3.597   8.099  0.9911  1.7470  0.9101
 5209SOL    HW227090   3.518   3.678   8.208 -0.5291  0.5731 -2.1826
 5210SOL     OW27091   1.075   0.130   7.537  0.4566  0.2565  0.3253
 5210SOL    HW127092   1.050   0.220   7.515  1.4102 -0.4923 -3.8701
 5210SOL    HW227093   1.146   0.122   7.473 -0.9613  4.2869 -1.7845
 5211SOL     OW27094   0.539   4.163   3.316 -0.2396  0.7617 -0.0975
 5211SOL    HW127095   0.463   4.109   3.296  2.7385 -1.8992 -4.3030
 5211SOL    HW227096   0.515   4.187   3.405 -1.7844  2.3804 -0.9420
 5212SOL     OW27097   0.456   2.767   2.431  0.4149  0.3688  0.7934
 5212SOL    HW127098   0.517   2.833   2.398 -1.9409  1.0707 -2.0407
 5212SOL    HW227099   0.386   2.791   2.371  2.3506  2.0733 -0.7991
 5213SOL     OW27100   4.300   2.607   5.017 -0.1225 -0.0874 -0.1629
 5213SOL    HW127101   4.384   2.563   5.022  0.0299  0.0777 -1.2803
 5213SOL    HW227102   4.285   2.614   5.112 -3.7183  0.1101 -0.7323
 5214SOL     OW27103   2.689   4.308   4.068 -0.5872 -0.3223 -0.2297
 5214SOL    HW127104   2.782   4.331   4.070 -0.3931 -1.1986  1.0898
 5214SOL    HW227105   2.668   4.318   3.975 -2.9711 -1.1902  0.2262
 5215SOL     OW27106   3.188   4.158   1.825  0.2627 -0.2663  0.4064
 5215SOL    HW127107   3.276   4.185   1.800  0.3095 -0.8161 -0.0136
 5215SOL    HW227108   3.206   4.092   1.891  1.0029 -1.8077 -1.3178
 5216SOL     OW27109   2.121   2.949   0.936  0.0685  0.1140  0.3482
 5216SOL    HW127110   2.183   2.886   0.899  1.3508  0.7670  1.3577
 5216SOL    HW227111   2.041   2.896   0.938  0.2299 -0.2070 -2.0584
 5217SOL     OW27112   4.659   2.928   8.206 -0.3877 -0.6417  0.2092
 5217SOL    HW127113   4.634   2.837   8.223 -1.1538 -1.1410 -3.5932
 5217SOL    HW227114   4.668   2.935   8.111 -1.1089  1.6497  0.3084
 5218SOL     OW27115   0.592   0.662   8.652 -0.5008 -0.0288  0.3508
 5218SOL    HW127116   0.516   0.691   8.704  0.7073  1.0680  1.5130
 5218SOL    HW227117   0.597   0.574   8.689  0.4724 -0.6674 -1.3328
 5219SOL     OW27118   1.894   3.021  16.105  0.2982  0.1577  0.1492
 5219SOL    HW127119   1.800   3.037  16.105  0.2165 -0.3205  0.4418
 5219SOL    HW227120   1.926   3.070  16.181  1.2685  1.8757 -1.3783
 5220SOL     OW27121   3.115   0.197  13.540 -0.3156 -0.4040 -0.3677
 5220SOL    HW127122   3.091   0.106  13.553  1.0428 -0.7991 -0.5954
 5220SOL    HW227123   3.060   0.245  13.601  1.1167 -0.6477  1.1069
 5221SOL     OW27124   3.644   0.526   1.643  0.6170 -0.3190 -0.1998
 5221SOL    HW127125   3.676   0.529   1.733  0.1930  1.5388 -0.1127
 5221SOL    HW227126   3.729   0.535   1.600  1.8028  0.7344  2.3816
 5222SOL     OW27127   0.178   2.134   3.093  1.1015 -0.1467 -0.0580
 5222SOL    HW127128   0.272   2.116   3.102  0.8695  0.4621  3.7015
 5222SOL    HW227129   0.159   2.103   3.182  2.7101 -0.7273  0.0818
 5223SOL     OW27130   1.518   1.263   9.110  0.0316  0.1215  0.6686
 5223SOL    HW127131   1.447   1.266   9.046  2.4138  0.2255 -1.9962
 5223SOL    HW227132   1.525   1.167   9.117  1.4116  0.1178 -0.6792
 5224SOL     OW27133   3.052   3.351   5.511  0.7209  0.4398 -0.2288
 5224SOL    HW127134   2.974   3.400   5.535 -0.3379 -2.3010  1.9007
 5224SOL    HW227135   3.106   3.354   5.590  1.1162 -0.2369 -0.4696
 5225SOL     OW27136   0.596   1.551   3.191 -0.4902  0.0874  0.1302
 5225SOL    HW127137   0.616   1.642   3.170  1.3162 -0.6334 -1.2875
 5225SOL    HW227138   0.531   1.568   3.259  1.1927  0.7064  1.5630
 5226SOL     OW27139   1.409   1.033   4.717 -0.6669 -0.0879  0.0630
 5226SOL    HW127140   1.476   0.969   4.742 -1.1242 -0.7111 -0.3320
 5226SOL    HW227141   1.461   1.113   4.709  0.2415 -0.6794 -0.0046
 5227SOL     OW27142   3.672   2.040   8.394  0.0543  0.5186  0.0738
 5227SOL    HW127143   3.591   2.032   8.445  0.1476 -2.1561 -0.1903
 5227SOL    HW227144   3.703   2.130   8.405  0.3252  0.0742  3.0735
 5228SOL     OW27145   4.595   1.422  12.026  0.1729  0.4273 -0.3755
 5228SOL    HW127146   4.666   1.368  12.062 -0.1984 -0.2675 -0.6729
 5228SOL    HW227147   4.641   1.459  11.950 -0.0898  2.4070  0.4422
 5229SOL     OW27148   0.677   3.476   7.334 -0.2609 -0.1729 -0.0649
 5229SOL    HW127149   0.649   3.397   7.381 -0.0028  0.4340  1.1034
 5229SOL    HW227150   0.765   3.472   7.372 -0.8183 -0.2938  1.2118
 5230SOL     OW27151   1.349   4.477   4.191 -0.1894 -0.3910  0.0972
 5230SOL    HW127152   1.419   4.519   4.141 -0.8636  1.5751  0.8028
 5230SOL    HW227153   1.284   4.543   4.216  1.3521  1.8654 -1.8247
 5231SOL     OW27154   3.588   3.948   8.842  0.2433 -0.0919 -0.1609
 5231SOL    HW127155   3.637   4.017   8.797  2.2990 -0.9927  0.6996
 5231SOL    HW227156   3.503   3.992   8.846 -0.5112 -1.8387  2.5912
 5232SOL     OW27157   1.244   1.366   4.050 -0.1042 -0.0180 -0.2928
 5232SOL    HW127158   1.241   1.277   4.085  2.2327  0.4940  1.2338
 5232SOL    HW227159   1.184   1.365   3.975 -0.2270  0.7136 -0.2032
 5233SOL     OW27160   3.641   1.093   9.936  0.0071 -0.8654  0.1492
 5233SOL    HW127161   3.736   1.089   9.944  0.2640  0.4895 -2.3559
 5233SOL    HW227162   3.633   1.149  10.013 -0.0530 -1.8586  0.8694
 5234SOL     OW27163   1.421   1.459   4.238 -0.1645 -0.5475  0.4896
 5234SOL    HW127164   1.458   1.371   4.243  2.5018  0.6219  0.9917
 5234SOL    HW227165   1.383   1.450   4.150 -0.5363 -1.1660  0.7111
 5235SOL     OW27166   0.663   1.705   1.065  0.2949 -0.6082  0.7914
 5235SOL    HW127167   0.659   1.637   1.133 -1.3310 -0.8759  0.4352
 5235SOL    HW227168   0.744   1.696   1.014 -0.5018 -1.6870 -0.3146
 5236SOL     OW27169   1.984   3.459  16.968  0.2286  0.3450 -0.3123
 5236SOL    HW127170   2.078   3.453  16.983  0.3786  1.3802 -0.8878
 5236SOL    HW227171   1.957   3.367  16.978  1.1295  0.3058  1.8086
 5237SOL     OW27172   2.501   0.520   4.274  0.0299  0.5096 -0.2258
 5237SOL    HW127173   2.542   0.438   4.249  0.6712  0.6328  0.4358
 5237SOL    HW227174   2.465   0.498   4.360 -1.3048 -0.9302 -1.1451
 5238SOL     OW27175   1.154   3.874   3.757  0.0198  0.6058  0.1835
 5238SOL    HW127176   1.167   3.934   3.830  0.3346  0.9093 -0.1194
 5238SOL    HW227177   1.218   3.804   3.772 -0.7078  0.4895  2.6673
 5239SOL     OW27178   3.543   1.810  15.829 -0.7868  0.3041 -0.0910
 5239SOL    HW127179   3.489   1.784  15.904 -0.1884 -0.9472 -0.1041
 5239SOL    HW227180   3.535   1.904  15.844  1.6342  0.0248  2.7510
 5240SOL     OW27181   3.017   3.039  13.257  0.0069 -1.0101 -0.4532
 5240SOL    HW127182   3.084   3.108  13.257 -0.8032 -0.2318 -1.3738
 5240SOL    HW227183   3.001   3.020  13.350  0.8466 -0.4396 -0.1915
 5241SOL     OW27184   2.011   0.079   6.045 -0.0459  0.0665  0.1100
 5241SOL    HW127185   2.075   0.089   5.974  0.1431 -1.9201 -0.0065
 5241SOL    HW227186   2.075   0.072   6.115 -1.0100 -0.4002  0.9342
 5242SOL     OW27187   1.824   2.412  14.836  0.3329  0.3068  0.1394
 5242SOL    HW127188   1.749   2.363  14.869  1.2179  0.5107  2.4783
 5242SOL    HW227189   1.820   2.399  14.741 -1.7969  1.4713  0.0760
 5243SOL     OW27190   4.580   4.428  13.516 -0.4957 -0.0287 -0.0275
 5243SOL    HW127191   4.585   4.339  13.481 -0.1177 -0.0277  0.0212
 5243SOL    HW227192   4.627   4.485  13.455 -0.5772  0.4384  0.3482
 5244SOL     OW27193   2.438   0.588   8.547 -0.5974  0.5943  0.0681
 5244SOL    HW127194   2.524   0.567   8.512 -1.3807 -2.0165 -0.3077
 5244SOL    HW227195   2.387   0.507   8.553  0.5282 -0.0896  0.3805
 5245SOL     OW27196   4.269   3.342   2.321 -0.2859  0.2574  0.1607
 5245SOL    HW127197   4.346   3.399   2.318  0.0716 -0.3438 -1.7265
 5245SOL    HW227198   4.238   3.361   2.410 -0.5129  0.1639  0.1010
 5246SOL     OW27199   3.193   3.472   4.371  0.4403  0.6004 -0.3000
 5246SOL    HW127200   3.285   3.485   4.394  0.8116  0.1808 -1.5607
 5246SOL    HW227201   3.149   3.461   4.455 -0.1806 -1.8199 -0.9256
 5247SOL     OW27202   2.082   3.560  15.299 -0.2316  0.1895  0.5169
 5247SOL    HW127203   2.093   3.653  15.321 -1.4421  0.8070 -1.3923
 5247SOL    HW227204   2.172   3.536  15.320  0.6344  1.7725 -1.2808
 5248SOL     OW27205   4.176   0.557   7.902 -0.2463 -0.0644  0.0475
 5248SOL    HW127206   4.188   0.572   7.808  0.6055  1.5935  0.4244
 5248SOL    HW227207   4.137   0.640   7.930 -2.9418 -0.8708 -1.2826
 5249SOL     OW27208   0.641   4.140  13.693  0.5499  0.0385  0.0906
 5249SOL    HW127209   0.701   4.112  13.762 -0.7723 -2.7690  0.1251
 5249SOL    HW227210   0.585   4.206  13.733  1.1104  1.0942 -0.8739
 5250SOL     OW27211   4.531   4.194   4.205  0.3518 -0.3318 -0.7778
 5250SOL    HW127212   4.616   4.237   4.211 -0.3384  0.9357 -0.1022
 5250SOL    HW227213   4.510   4.202   4.112  0.1490 -1.9930 -0.8788
 5251SOL     OW27214   2.106   3.449   8.316  0.1498  0.2810 -0.2889
 5251SOL    HW127215   2.192   3.408   8.323  0.1056  0.1103 -0.7505
 5251SOL    HW227216   2.134   3.534   8.348  2.5435 -1.0164  1.0320
 5252SOL     OW27217   1.069   2.530   3.523 -0.2104 -0.1880  0.1952
 5252SOL    HW127218   1.107   2.444   3.543  0.7935 -0.0058 -0.9308
 5252SOL    HW227219   0.989   2.492   3.485  1.0489 -1.2172 -1.4247
 5253SOL     OW27220   1.531   3.236   2.525 -0.0585 -0.2797  0.2374
 5253SOL    HW127221   1.577   3.166   2.479  0.8260 -0.5877  1.5629
 5253SOL    HW227222   1.558   3.309   2.469  0.3163 -0.7701 -0.2253
 5254SOL     OW27223   1.963   2.508   7.736  0.2755  0.1151 -0.1201
 5254SOL    HW127224   1.901   2.522   7.664 -1.8596  1.4893  2.0014
 5254SOL    HW227225   2.007   2.431   7.699  0.6236 -1.0173  2.6630
 5255SOL     OW27226   4.650   2.453   6.422  0.1449  0.5576  0.0495
 5255SOL    HW127227   4.700   2.534   6.434  2.0727 -1.0864  2.8743
 5255SOL    HW227228   4.597   2.465   6.343 -0.7341 -0.9163  0.4219
 5256SOL     OW27229   0.870   1.573  13.501 -0.2835 -0.1656 -0.2126
 5256SOL    HW127230   0.896   1.661  13.529  0.1020 -0.2245 -0.3910
 5256SOL    HW227231   0.961   1.551  13.482  0.2021  0.5059  1.2757
 5257SOL     OW27232   2.382   1.999   9.284  0.2864  0.1087  0.1753
 5257SOL    HW127233   2.474   1.974   9.291  1.2462  2.7003 -3.4055
 5257SOL    HW227234   2.399   2.092   9.292 -0.9288  0.4555 -1.1847
 5258SOL     OW27235   2.938   3.511  12.209  0.4658  0.4118  0.3644
 5258SOL    HW127236   2.891   3.549  12.134 -0.2538 -1.1048  0.0555
 5258SOL    HW227237   2.889   3.548  12.282  0.3643  0.6674  0.1683
 5259SOL     OW27238   1.255   3.452   7.773  0.2750  0.2070  0.1208
 5259SOL    HW127239   1.340   3.441   7.817 -0.5657 -0.7243  1.5154
 5259SOL    HW227240   1.259   3.545   7.749 -1.4400 -0.4181 -2.5114
 5260SOL     OW27241   4.105   0.368   6.624 -0.0881 -0.1312 -0.3433
 5260SOL    HW127242   4.196   0.346   6.644 -0.4487  0.2712  1.7606
 5260SOL    HW227243   4.098   0.323   6.540  0.1984  0.9399 -0.9344
 5261SOL     OW27244   2.380   1.629   3.776 -0.8744 -0.1475 -0.0188
 5261SOL    HW127245   2.440   1.644   3.849  0.5519 -0.5921 -1.0808
 5261SOL    HW227246   2.435   1.576   3.718  0.8852  0.4403  1.1183
 5262SOL     OW27247   1.446   3.589   3.046 -0.7118  0.6837 -0.5754
 5262SOL    HW127248   1.406   3.508   3.076 -0.9755  0.6337 -1.0704
 5262SOL    HW227249   1.374   3.646   3.021 -2.3884 -1.0136  0.3721
 5263SOL     OW27250   3.599   2.518   3.968  0.2357  0.0031  0.2235
 5263SOL    HW127251   3.652   2.525   3.889 -0.3061  0.0379 -0.1385
 5263SOL    HW227252   3.563   2.429   3.967 -1.6134  0.7438 -0.2493
 5264SOL     OW27253   1.343   4.551   5.579  0.1164  0.1629 -0.3629
 5264SOL    HW127254   1.319   4.467   5.541 -0.8046  0.2174  0.0961
 5264SOL    HW227255   1.418   4.576   5.525 -1.2645  2.2052 -1.3724
 5265SOL     OW27256   1.740   1.278  10.021  0.3691 -0.4074 -0.0883
 5265SOL    HW127257   1.795   1.254  10.096 -0.4645 -1.1434  0.3015
 5265SOL    HW227258   1.717   1.367  10.044  0.6202 -0.7905  1.6478
 5266SOL     OW27259   1.454   2.413  15.988 -0.8452  0.3843 -0.2462
 5266SOL    HW127260   1.470   2.482  16.052 -1.3015  0.8962 -0.6793
 5266SOL    HW227261   1.506   2.452  15.918 -1.5617 -0.5893 -1.3053
 5267SOL     OW27262   2.733   2.029  16.815 -0.7667 -0.2905  0.4814
 5267SOL    HW127263   2.750   2.041  16.908  1.0086  1.0514 -0.0107
 5267SOL    HW227264   2.650   1.982  16.824  0.7987 -2.9248  1.0439
 5268SOL     OW27265   1.999   4.380   3.750 -0.1833 -0.5737  0.4691
 5268SOL    HW127266   1.970   4.293   3.777  0.0046 -0.2165  1.8171
 5268SOL    HW227267   2.085   4.363   3.710 -0.6390  0.6218 -0.9946
 5269SOL     OW27268   3.421   0.544   1.423 -0.0794  0.2337  0.0260
 5269SOL    HW127269   3.356   0.494   1.473  0.6553 -1.0368 -0.2934
 5269SOL    HW227270   3.506   0.524   1.462  1.2645  2.3759 -1.8340
 5270SOL     OW27271   0.989   1.149  12.038  0.4913  0.2645 -0.1017
 5270SOL    HW127272   1.017   1.188  11.956  1.0409  2.0402  0.9132
 5270SOL    HW227273   0.896   1.173  12.039  0.3039 -0.4168 -2.5478
 5271SOL     OW27274   3.414   1.035   2.663  0.2369 -0.1883 -0.8473
 5271SOL    HW127275   3.439   0.975   2.732 -0.2350  1.1187  0.4547
 5271SOL    HW227276   3.476   1.012   2.594  1.5710  0.8470  0.0257
 5272SOL     OW27277   1.405   3.170   8.468  0.3083  0.3084 -0.2741
 5272SOL    HW127278   1.387   3.135   8.381 -3.7448 -2.1608  1.5627
 5272SOL    HW227279   1.325   3.151   8.518  0.5298  1.4266  0.5128
 5273SOL     OW27280   1.239   1.777   1.742  0.8538  0.0208 -0.1918
 5273SOL    HW127281   1.275   1.763   1.655  1.8068  1.5471 -0.0362
 5273SOL    HW227282   1.262   1.697   1.790 -0.4550 -0.3088 -0.0846
 5274SOL     OW27283   1.207   4.620  13.532  0.0926  0.0486 -0.0955
 5274SOL    HW127284   1.148   4.633  13.606  0.1667  4.0562 -0.7512
 5274SOL    HW227285   1.222   4.525  13.527 -0.1967  0.0594 -1.1218
 5275SOL     OW27286   2.921   4.511   3.141  0.0826  0.3396 -0.0668
 5275SOL    HW127287   2.983   4.522   3.069 -0.1992 -0.3267 -0.4137
 5275SOL    HW227288   2.975   4.520   3.219  0.4124 -2.4168  0.0124
 5276SOL     OW27289   4.034   3.603  12.085  0.2260  0.1349  0.1350
 5276SOL    HW127290   4.053   3.692  12.115  0.8875  0.8113 -2.3172
 5276SOL    HW227291   4.029   3.614  11.990 -0.0603 -1.7884 -0.0715
 5277SOL     OW27292   1.265   1.917   6.953  1.0454 -0.2362  0.1320
 5277SOL    HW127293   1.223   1.923   6.867  2.2717 -0.6924 -0.5035
 5277SOL    HW227294   1.308   1.832   6.948  1.0590 -0.2631  0.7451
 5278SOL     OW27295   1.434   3.234   1.933  0.2232  0.2379 -0.3180
 5278SOL    HW127296   1.491   3.214   1.858  0.9415 -1.4894  0.6693
 5278SOL    HW227297   1.399   3.147   1.953 -0.2693  0.3026 -0.9219
 5279SOL     OW27298   3.539   2.716   2.677 -0.3437  0.0635  0.0672
 5279SOL    HW127299   3.493   2.793   2.645 -1.8848  0.2681  2.8050
 5279SOL    HW227300   3.546   2.746   2.768 -1.6740 -2.3219  0.9453
 5280SOL     OW27301   2.713   3.670   8.026 -0.1007  0.0584  0.2335
 5280SOL    HW127302   2.643   3.614   7.994  0.3262  0.1007 -0.7759
 5280SOL    HW227303   2.789   3.617   8.002  1.5001  1.6471  1.7678
 5281SOL     OW27304   1.841   2.875   1.837  0.7151 -0.3538 -0.1578
 5281SOL    HW127305   1.870   2.898   1.925  0.0870  3.1828 -0.8874
 5281SOL    HW227306   1.890   2.795   1.816  0.2241 -0.4988 -0.7351
 5282SOL     OW27307   0.781   4.617   1.488  0.4571  0.0639  0.2471
 5282SOL    HW127308   0.748   4.586   1.403 -0.9947  1.3554  0.3373
 5282SOL    HW227309   0.706   4.604   1.546 -0.2184 -2.3234 -1.1878
 5283SOL     OW27310   3.472   4.066   8.388 -0.6894  0.0522 -0.0367
 5283SOL    HW127311   3.556   4.088   8.427  1.1517 -2.2820 -2.7306
 5283SOL    HW227312   3.434   4.030   8.468 -1.3242  0.3515 -0.2028
 5284SOL     OW27313   0.613   2.342   4.037  0.1480 -0.1024 -0.2855
 5284SOL    HW127314   0.586   2.373   4.123  1.1053 -0.5728  0.1891
 5284SOL    HW227315   0.647   2.255   4.060  2.3869  1.0089  0.6592
 5285SOL     OW27316   1.398   0.298   2.428 -0.3373  0.1027  0.6687
 5285SOL    HW127317   1.381   0.243   2.351 -1.9221  0.1760  0.9696
 5285SOL    HW227318   1.369   0.233   2.492 -0.5534  0.4841  0.9564
 5286SOL     OW27319   1.460   3.293   8.036  0.0518 -0.0697  0.5348
 5286SOL    HW127320   1.492   3.214   7.992 -0.5251 -2.1576  3.8224
 5286SOL    HW227321   1.475   3.370   7.982 -0.4241 -0.5028 -0.2148
 5287SOL     OW27322   3.194   1.973   7.275  0.3293  0.3101  0.1232
 5287SOL    HW127323   3.144   1.901   7.314 -0.5803  0.6675 -0.3867
 5287SOL    HW227324   3.120   2.033   7.265  1.2236  1.4595  0.3263
 5288SOL     OW27325   4.527   1.949   3.220 -0.1630  0.1852 -0.0549
 5288SOL    HW127326   4.503   1.872   3.271  0.2722  1.1333  1.5668
 5288SOL    HW227327   4.455   2.012   3.229 -0.7395 -0.0661 -2.7351
 5289SOL     OW27328   0.291   0.415   4.455 -0.0773  0.1168  1.3466
 5289SOL    HW127329   0.225   0.387   4.519 -1.5626  1.3188  0.3070
 5289SOL    HW227330   0.358   0.348   4.469  1.2649  1.3153  0.6375
 5290SOL     OW27331   4.447   2.167   4.622 -0.8787 -0.3035 -0.3253
 5290SOL    HW127332   4.446   2.166   4.718 -0.8912 -0.9547 -0.3293
 5290SOL    HW227333   4.429   2.074   4.607  0.3113 -0.3876 -1.1752
 5291SOL     OW27334   0.524   0.220   2.870  0.6507 -0.1445  0.7763
 5291SOL    HW127335   0.597   0.259   2.919 -0.7026  0.3482  2.3862
 5291SOL    HW227336   0.518   0.283   2.799  0.5531 -0.5403  0.4327
 5292SOL     OW27337   3.556   0.076   0.854 -0.3522 -0.4904  0.4424
 5292SOL    HW127338   3.503   0.120   0.922  1.1496  1.0592  0.6124
 5292SOL    HW227339   3.573   4.719   0.898 -0.0432 -0.5519  0.2046
 5293SOL     OW27340   4.212   1.367  12.192  0.4029  0.2368 -0.2411
 5293SOL    HW127341   4.245   1.402  12.109  1.5753  1.2453  0.6584
 5293SOL    HW227342   4.175   1.284  12.159  1.3246 -1.4204  2.9125
 5294SOL     OW27343   4.373   3.088   2.249  0.0816 -0.0754  0.4684
 5294SOL    HW127344   4.328   3.171   2.265 -0.7814 -0.1080 -1.8324
 5294SOL    HW227345   4.316   3.037   2.307 -0.3177 -0.2270 -0.0586
 5295SOL     OW27346   2.402   2.788   2.652  0.2908 -0.5291  0.0895
 5295SOL    HW127347   2.439   2.700   2.650  2.2150  0.3051 -0.4087
 5295SOL    HW227348   2.456   2.828   2.584 -0.0887  0.3848  0.3104
 5296SOL     OW27349   2.119   2.016   0.425  0.5288  0.2318  0.0387
 5296SOL    HW127350   2.130   2.090   0.485 -1.1214  3.4078 -3.5759
 5296SOL    HW227351   2.182   2.040   0.358  0.7240  1.9406  0.8322
 5297SOL     OW27352   3.229   4.062   7.412  0.0505  0.0262  1.3543
 5297SOL    HW127353   3.152   4.051   7.357  1.6309 -0.7796 -0.7066
 5297SOL    HW227354   3.293   4.020   7.355  0.1718  2.5913 -0.3765
 5298SOL     OW27355   1.822   1.225  11.958 -0.0055  0.0445  0.8462
 5298SOL    HW127356   1.769   1.178  11.893  0.6843  0.7749 -0.2337
 5298SOL    HW227357   1.834   1.155  12.022  3.2366  1.1038  1.4012
 5299SOL     OW27358   4.110   1.038   3.414 -0.4375  0.0281 -0.0247
 5299SOL    HW127359   4.062   0.969   3.460 -2.1148  0.6403 -0.8637
 5299SOL    HW227360   4.189   0.993   3.385 -0.6756 -0.7614  0.5662
 5300SOL     OW27361   2.121   0.315  10.266 -0.3400  0.2057 -0.0181
 5300SOL    HW127362   2.173   0.377  10.216  0.5117  0.4758  1.1877
 5300SOL    HW227363   2.092   0.369  10.341 -1.3669 -2.1619  1.2709
 5301SOL     OW27364   1.198   4.279   9.564 -0.4408 -0.2724 -0.2199
 5301SOL    HW127365   1.144   4.290   9.642 -0.3934 -2.0893  0.0765
 5301SOL    HW227366   1.281   4.314   9.596 -0.2148 -1.6979  0.7806
 5302SOL     OW27367   2.394   4.682  11.644  0.0992  0.0071 -0.6692
 5302SOL    HW127368   2.403   0.051  11.646 -0.7000 -0.0118  2.7548
 5302SOL    HW227369   2.378   4.658  11.552 -1.7260  0.8567 -0.5681
 5303SOL     OW27370   2.245   4.335   7.168  0.3107 -0.2701 -0.1882
 5303SOL    HW127371   2.246   4.302   7.078  1.5073  0.1649 -0.3314
 5303SOL    HW227372   2.241   4.429   7.151  1.4462 -0.3555 -0.9458
 5304SOL     OW27373   4.713   3.226   6.466  0.0592 -0.0305 -0.1692
 5304SOL    HW127374   4.682   3.149   6.419  0.1749 -1.9010  2.8259
 5304SOL    HW227375   4.715   3.195   6.556  0.9734 -0.6801 -0.4145
 5305SOL     OW27376   2.650   3.811   2.914  0.1144 -0.4567  0.0223
 5305SOL    HW127377   2.728   3.759   2.893  0.8574  0.6623  0.0403
 5305SOL    HW227378   2.584   3.760   2.867  0.8957 -1.2583 -0.2241
 5306SOL     OW27379   2.435   3.743   5.632  0.3592 -0.3760 -0.1184
 5306SOL    HW127380   2.440   3.652   5.661  0.3334 -1.2378 -2.7700
 5306SOL    HW227381   2.414   3.787   5.714 -1.0601  0.1879 -0.7887
 5307SOL     OW27382   1.871   1.577   0.810 -0.4460  0.4198 -0.5017
 5307SOL    HW127383   1.811   1.554   0.881  0.4688 -0.6231 -0.0833
 5307SOL    HW227384   1.887   1.495   0.764 -1.1446 -0.4857  0.8592
 5308SOL     OW27385   1.885   0.822   4.936 -0.3627 -0.2330 -0.1184
 5308SOL    HW127386   1.866   0.824   5.030  1.4400 -1.0869  0.2504
 5308SOL    HW227387   1.958   0.884   4.935  0.2507 -0.9582 -0.2794
 5309SOL     OW27388   4.658   1.427  16.276 -0.0404  0.6699 -0.1363
 5309SOL    HW127389   4.582   1.381  16.240  2.3989 -2.7257 -0.8782
 5309SOL    HW227390   4.617   1.495  16.330 -1.0552 -0.7376  0.8676
 5310SOL     OW27391   3.819   1.538   0.334  0.0698  0.7907  0.0268
 5310SOL    HW127392   3.860   1.461   0.375  0.8651  0.3362 -1.6572
 5310SOL    HW227393   3.886   1.602   0.358  0.4104  0.9585 -1.3785
 5311SOL     OW27394   0.671   3.068   7.023  0.6989 -0.1092 -0.4406
 5311SOL    HW127395   0.667   3.013   7.102  0.3261  0.0558 -0.3504
 5311SOL    HW227396   0.652   3.009   6.950  1.6189  1.3840 -1.8960
 5312SOL     OW27397   1.075   1.544   5.891 -0.2393  0.4416  0.0006
 5312SOL    HW127398   1.136   1.481   5.929 -0.7515  0.9060  1.5807
 5312SOL    HW227399   1.135   1.599   5.840  1.2791 -1.1733  0.0129
 5313SOL     OW27400   4.258   3.258   8.530 -0.2704  0.0560  0.3900
 5313SOL    HW127401   4.251   3.191   8.463  2.1830 -1.3466  1.5580
 5313SOL    HW227402   4.238   3.333   8.474  2.5733  0.9883  0.6257
 5314SOL     OW27403   3.957   2.647   2.247 -0.0649 -0.4325 -0.2451
 5314SOL    HW127404   3.986   2.651   2.338  0.0520  0.9573 -0.3343
 5314SOL    HW227405   3.888   2.583   2.264 -1.0042  0.2482 -1.3740
 5315SOL     OW27406   0.292   4.438   3.482  0.1116  0.1145 -0.6627
 5315SOL    HW127407   0.356   4.394   3.538 -0.4434 -0.5157 -0.5153
 5315SOL    HW227408   0.356   4.476   3.423  0.0824 -1.0388 -1.4265
 5316SOL     OW27409   0.719   2.255  11.801  0.3719  0.4058  0.1663
 5316SOL    HW127410   0.736   2.164  11.825  0.1303  0.7827  1.7436
 5316SOL    HW227411   0.803   2.271  11.759  0.0512 -1.7882 -1.3394
 5317SOL     OW27412   1.248   0.636   5.259  0.1510  0.0230 -0.0581
 5317SOL    HW127413   1.163   0.611   5.296  1.8111 -4.1529  0.8761
 5317SOL    HW227414   1.302   0.575   5.309  1.8359  1.5703 -0.0020
 5318SOL     OW27415   0.615   0.112   4.153  0.1921 -0.0058  0.3178
 5318SOL    HW127416   0.628   0.040   4.092 -0.0633 -0.5143  0.8668
 5318SOL    HW227417   0.519   0.118   4.152  0.1784 -0.8308 -1.7131
 5319SOL     OW27418   0.227   4.012   3.467  0.1856 -0.3276  0.0402
 5319SOL    HW127419   0.232   3.956   3.389  2.6605  2.0509 -1.5117
 5319SOL    HW227420   0.166   4.082   3.445  1.0455 -0.4157 -2.5760
 5320SOL     OW27421   4.613   2.892   1.886 -0.1509 -0.2168  0.2216
 5320SOL    HW127422   4.558   2.825   1.926  0.5120 -1.9679 -1.8008
 5320SOL    HW227423   4.576   2.972   1.924 -0.7615  0.2035 -1.2442
 5321SOL     OW27424   4.633   2.606   0.649 -0.0763  0.2854 -0.0683
 5321SOL    HW127425   4.710   2.626   0.595 -0.1334  1.3051  0.2155
 5321SOL    HW227426   4.676   2.560   0.720 -0.4193  0.2969  0.1452
 5322SOL     OW27427   0.129   1.419  11.446  0.4764 -0.5183  0.8566
 5322SOL    HW127428   0.063   1.479  11.480  2.0134  3.0103 -2.4471
 5322SOL    HW227429   0.142   1.454  11.358  0.5006  1.0347  1.4844
 5323SOL     OW27430   3.891   2.078   3.156 -0.9394  0.2670 -0.9566
 5323SOL    HW127431   3.811   2.045   3.197  0.7198  0.8059  2.6902
 5323SOL    HW227432   3.924   2.123   3.234 -1.9018  2.1500 -1.6525
 5324SOL     OW27433   3.660   1.372   9.662  0.0209 -0.2583  0.7667
 5324SOL    HW127434   3.718   1.300   9.687  0.4554 -0.2215 -0.1300
 5324SOL    HW227435   3.634   1.394   9.751  0.6538 -1.9316  1.3627
 5325SOL     OW27436   1.609   3.104  12.793 -0.3717  0.0327 -0.2844
 5325SOL    HW127437   1.537   3.046  12.819 -0.3734  0.2490  0.1934
 5325SOL    HW227438   1.630   3.157  12.869 -0.6248  0.1425 -0.2918
 5326SOL     OW27439   3.801   2.352  10.982 -0.1245 -0.0213  0.7344
 5326SOL    HW127440   3.814   2.257  10.979  0.8514  0.1655 -0.9687
 5326SOL    HW227441   3.893   2.374  10.966 -0.4292  0.7730  0.0780
 5327SOL     OW27442   4.098   3.801   1.604  0.4429 -0.8074  1.0743
 5327SOL    HW127443   4.079   3.710   1.622 -0.3516 -0.7424  0.5586
 5327SOL    HW227444   4.193   3.794   1.590  0.2003 -0.0048 -1.0351
 5328SOL     OW27445   3.624   0.627   2.128  0.0115  0.3993 -0.0650
 5328SOL    HW127446   3.613   0.640   2.222  1.9189 -1.6346  0.4304
 5328SOL    HW227447   3.541   0.667   2.100 -0.5532 -1.6866 -1.3845
 5329SOL     OW27448   2.677   3.150   2.297  1.3205 -0.4020 -0.0054
 5329SOL    HW127449   2.764   3.146   2.337  1.4244  0.4675 -0.1525
 5329SOL    HW227450   2.648   3.235   2.329  0.8285 -0.6217  0.1419
 5330SOL     OW27451   2.685   2.856   4.694 -0.0528 -0.2215 -0.5035
 5330SOL    HW127452   2.670   2.818   4.781 -0.1299  0.9113 -0.0195
 5330SOL    HW227453   2.628   2.933   4.693  1.0418  0.5682 -1.8703
 5331SOL     OW27454   1.352   4.463   9.320  0.0769  0.6209 -0.4866
 5331SOL    HW127455   1.439   4.448   9.282  1.1148  0.2297  2.0901
 5331SOL    HW227456   1.333   4.550   9.284 -3.2458 -0.0205 -0.3331
 5332SOL     OW27457   3.182   0.801   2.438  0.4043 -0.0551 -0.2253
 5332SOL    HW127458   3.115   0.868   2.455 -1.9671 -2.2382 -1.0009
 5332SOL    HW227459   3.240   0.860   2.391  2.5834 -0.7444  1.6297
 5333SOL     OW27460   2.276   4.087   4.366 -0.3209 -0.9362  0.3350
 5333SOL    HW127461   2.203   4.126   4.318  0.7738 -0.3937 -0.8706
 5333SOL    HW227462   2.279   4.133   4.450  1.1136 -3.6038  1.7568
 5334SOL     OW27463   1.456   1.749  15.735  0.3278 -0.1776 -0.3891
 5334SOL    HW127464   1.480   1.823  15.791  2.3653  0.0130 -1.5169
 5334SOL    HW227465   1.390   1.777  15.672 -0.5208 -2.1202 -0.3724
 5335SOL     OW27466   0.072   1.546   6.918  0.5948 -0.2046 -0.3508
 5335SOL    HW127467   0.003   1.494   6.878  1.2959 -0.7057 -0.9039
 5335SOL    HW227468   0.020   1.620   6.950 -1.6179 -2.6165  1.4873
 5336SOL     OW27469   1.534   4.639   3.154 -0.0943 -0.0896  0.5681
 5336SOL    HW127470   1.521   4.666   3.063  0.6332  2.0224  1.0696
 5336SOL    HW227471   1.616   4.687   3.170 -1.1727  0.5251  4.1805
 5337SOL     OW27472   1.750   2.210   9.181 -0.1220  0.6030  0.2079
 5337SOL    HW127473   1.792   2.291   9.151 -2.1090  1.3669 -0.4824
 5337SOL    HW227474   1.825   2.161   9.213 -1.4425 -1.6635 -0.1797
 5338SOL     OW27475   0.401   2.386  10.983 -0.3512  0.1681 -0.2279
 5338SOL    HW127476   0.460   2.378  11.058 -0.2495 -0.7160 -0.4099
 5338SOL    HW227477   0.334   2.440  11.025 -1.6400 -0.8968 -0.8918
 5339SOL     OW27478   0.593   4.023   7.465  0.2026  0.2427 -0.6992
 5339SOL    HW127479   0.507   4.044   7.501 -0.6190  0.4428 -2.7934
 5339SOL    HW227480   0.577   4.076   7.387 -1.4855  1.3569  0.3837
 5340SOL     OW27481   3.705   1.575   9.484 -0.3621  0.6119 -0.3315
 5340SOL    HW127482   3.692   1.505   9.549 -0.3600 -1.0969 -2.1722
 5340SOL    HW227483   3.796   1.595   9.507  0.0413 -2.5262  0.8121
 5341SOL     OW27484   3.561   4.028   7.951  0.9610  0.3348  0.0669
 5341SOL    HW127485   3.578   4.034   7.857 -1.3040 -1.0337 -0.4232
 5341SOL    HW227486   3.467   4.014   7.962  0.6847  0.8134 -1.6086
 5342SOL     OW27487   1.467   1.622  11.130 -0.4182  0.7876 -0.0060
 5342SOL    HW127488   1.462   1.623  11.225  1.6526  0.6935  0.1008
 5342SOL    HW227489   1.488   1.530  11.113  0.6242  0.6724  1.8680
 5343SOL     OW27490   1.958   1.582   3.472 -0.0475 -0.4434  0.7184
 5343SOL    HW127491   1.911   1.612   3.550  0.5519  0.8468  0.5811
 5343SOL    HW227492   1.885   1.571   3.410  0.0922  1.1683  0.2532
 5344SOL     OW27493   3.679   0.510  15.847  0.0240 -0.0549  0.9375
 5344SOL    HW127494   3.751   0.476  15.900  1.7345  0.5498 -1.0154
 5344SOL    HW227495   3.601   0.485  15.897 -0.4504 -2.9569 -1.3151
 5345SOL     OW27496   3.482   2.210  16.843 -0.5777 -0.1885 -0.2762
 5345SOL    HW127497   3.527   2.290  16.869  0.6003 -0.7072 -0.6828
 5345SOL    HW227498   3.393   2.244  16.849 -0.1249  1.0757 -0.7096
 5346SOL     OW27499   2.269   4.416  11.784 -0.1734 -0.6150 -0.3102
 5346SOL    HW127500   2.193   4.368  11.818 -0.3713  0.2221  0.4079
 5346SOL    HW227501   2.257   4.380  11.696 -1.7496  1.5416 -0.9485
 5347SOL     OW27502   4.695   4.411  10.043 -0.8208  0.3452 -0.2354
 5347SOL    HW127503   4.661   4.446  10.126 -1.5136  0.6401 -0.6465
 5347SOL    HW227504   4.721   4.489   9.993 -1.6952 -0.1999 -1.5322
 5348SOL     OW27505   2.169   2.572   4.318 -0.2678  0.4642 -0.0979
 5348SOL    HW127506   2.251   2.563   4.271 -1.6782  0.9443 -2.6399
 5348SOL    HW227507   2.169   2.494   4.374 -1.0398  1.2300  0.9773
 5349SOL     OW27508   0.770   2.901   9.620  0.0451  0.1260  0.2270
 5349SOL    HW127509   0.724   2.879   9.539  1.7857 -1.0368 -0.4578
 5349SOL    HW227510   0.782   2.996   9.621  0.2638  0.1494 -2.6312
 5350SOL     OW27511   1.536   1.684   9.133  0.5361  0.4799 -0.3136
 5350SOL    HW127512   1.466   1.692   9.069  0.4439 -0.9922 -0.3954
 5350SOL    HW227513   1.544   1.775   9.161 -0.0653  0.5944 -0.5277
 5351SOL     OW27514   1.921   4.115   3.846  0.5919 -0.0013 -0.4655
 5351SOL    HW127515   1.872   4.056   3.903  2.2766 -1.1794 -0.2221
 5351SOL    HW227516   1.857   4.138   3.778 -2.1874 -1.2094  1.7514
 5352SOL     OW27517   4.353   2.100   2.482  0.3857  0.3307  0.0991
 5352SOL    HW127518   4.261   2.080   2.464  0.1606  0.5939  0.9475
 5352SOL    HW227519   4.350   2.185   2.525 -0.2127  0.6778 -0.6458
 5353SOL     OW27520   0.916   4.571   3.893  0.3970  0.3585  0.1341
 5353SOL    HW127521   1.002   4.582   3.933 -0.9963  0.7437  2.9827
 5353SOL    HW227522   0.947   4.593   3.805 -1.7910 -0.8839 -0.9644
 5354SOL     OW27523   4.531   4.179   2.796 -0.1332  0.1910  0.1610
 5354SOL    HW127524   4.535   4.273   2.812  1.8675  0.0672  0.3694
 5354SOL    HW227525   4.584   4.141   2.866 -0.8136 -0.3820  0.3656
 5355SOL     OW27526   3.363   0.894   8.637 -0.2874 -0.4640  0.2384
 5355SOL    HW127527   3.319   0.837   8.700 -0.1893  1.3898  1.9942
 5355SOL    HW227528   3.422   0.843   8.583 -2.8701 -2.2967 -0.8649
 5356SOL     OW27529   1.050   3.489   3.820 -0.0992 -0.3022 -0.4264
 5356SOL    HW127530   1.091   3.514   3.737  1.0745  0.0655  0.2726
 5356SOL    HW227531   1.129   3.461   3.865 -2.1393 -1.7439  2.2566
 5357SOL     OW27532   0.316   3.671   5.356  0.6567  0.2891  0.3506
 5357SOL    HW127533   0.299   3.741   5.419  1.1580 -1.9073  2.9388
 5357SOL    HW227534   0.411   3.663   5.353  0.4429 -1.8796 -0.5277
 5358SOL     OW27535   0.563   1.140  11.834 -0.0581 -0.2598 -0.2539
 5358SOL    HW127536   0.497   1.130  11.765 -0.8073  0.0021  0.4239
 5358SOL    HW227537   0.637   1.153  11.775 -0.8990  1.1001 -1.0045
 5359SOL     OW27538   1.948   3.702  16.360 -0.1555  0.1107  0.0148
 5359SOL    HW127539   2.028   3.671  16.403 -0.7584 -0.4925  0.7048
 5359SOL    HW227540   1.985   3.768  16.302 -0.3687  0.2455  0.0328
 5360SOL     OW27541   2.463   1.368   9.705  0.1153  0.8165  0.0622
 5360SOL    HW127542   2.446   1.303   9.637  0.9823 -1.6027  2.1432
 5360SOL    HW227543   2.396   1.436   9.703 -0.6947 -0.0071 -0.3191
 5361SOL     OW27544   3.460   4.438   0.798 -0.6264  0.0664  0.3655
 5361SOL    HW127545   3.511   4.476   0.727 -0.7548  0.0320  0.2544
 5361SOL    HW227546   3.528   4.382   0.834 -0.0922  1.4190  1.4778
 5362SOL     OW27547   1.957   1.727   3.850  0.0261  0.3396 -0.2145
 5362SOL    HW127548   1.953   1.817   3.882  2.1307 -1.0668  3.9639
 5362SOL    HW227549   2.030   1.727   3.787  3.3396  0.0396  3.6308
 5363SOL     OW27550   2.150   1.504   7.675  0.2697 -0.5327  0.4913
 5363SOL    HW127551   2.233   1.516   7.722  0.5583 -0.3339 -0.0639
 5363SOL    HW227552   2.096   1.532   7.748 -1.4490  0.3292 -1.1386
 5364SOL     OW27553   0.936   1.113   7.159 -0.2622  0.0757  0.0397
 5364SOL    HW127554   0.879   1.157   7.223 -1.4092  0.7824 -1.4516
 5364SOL    HW227555   0.886   1.039   7.123  0.4288 -0.0189 -0.7315
 5365SOL     OW27556   3.277   0.039   0.307  0.0254  0.1601  0.3806
 5365SOL    HW127557   3.211   0.064   0.372 -0.0973 -1.7577  1.0174
 5365SOL    HW227558   3.267   0.108   0.241 -2.9058 -2.2369 -1.6757
 5366SOL     OW27559   1.715   1.780  16.991  0.6347 -0.0422 -0.1135
 5366SOL    HW127560   1.626   1.762  16.963  0.9708 -0.3917 -0.9477
 5366SOL    HW227561   1.707   1.755  17.083  0.2522 -0.4723 -0.2627
 5367SOL     OW27562   2.900   2.663  13.853 -0.3275 -0.3358  0.6098
 5367SOL    HW127563   2.828   2.605  13.828 -0.2559  0.0758 -0.5535
 5367SOL    HW227564   2.970   2.634  13.794 -0.7906  0.3338 -0.2712
 5368SOL     OW27565   3.956   1.310   9.528 -0.4205 -0.6160 -0.0058
 5368SOL    HW127566   3.904   1.250   9.582 -1.2079  0.9953  1.0467
 5368SOL    HW227567   3.945   1.392   9.576  1.0007 -0.5328  0.1553
 5369SOL     OW27568   0.282   2.791  15.455 -0.1472  0.0039 -0.4220
 5369SOL    HW127569   0.326   2.742  15.386 -0.5125  1.1983 -1.4845
 5369SOL    HW227570   0.215   2.838  15.405 -1.4001 -3.5213 -2.0616
 5370SOL     OW27571   3.598   2.424  16.969 -0.2148  0.2071  0.1365
 5370SOL    HW127572   3.687   2.450  16.989 -0.1590 -0.4827  0.7876
 5370SOL    HW227573   3.565   2.514  16.962 -2.7627 -0.7343 -0.0605
 5371SOL     OW27574   3.220   0.748   6.290  0.1557 -0.0048 -1.2343
 5371SOL    HW127575   3.234   0.841   6.270  0.2747  0.2500  0.0375
 5371SOL    HW227576   3.306   0.731   6.328  0.3058  0.6874 -1.2571
 5372SOL     OW27577   1.203   3.804  13.731  0.0823 -0.0381 -0.1557
 5372SOL    HW127578   1.277   3.835  13.784 -0.2873  2.0832 -0.9132
 5372SOL    HW227579   1.194   3.875  13.668 -3.0267 -0.6031 -0.3352
 5373SOL     OW27580   4.655   0.266   5.063 -0.1817 -0.3709 -0.0175
 5373SOL    HW127581   4.626   0.207   5.133 -1.7800 -0.9346 -1.1474
 5373SOL    HW227582   4.574   0.317   5.058  0.9230  1.6609  3.3117
 5374SOL     OW27583   1.001   4.505   7.118  0.2720  0.3597  0.2343
 5374SOL    HW127584   1.089   4.468   7.128  1.2634  2.7084  0.2539
 5374SOL    HW227585   0.952   4.433   7.158  0.4482  0.9221  1.4792
 5375SOL     OW27586   3.579   4.401   9.996 -0.2420  0.6531  0.0843
 5375SOL    HW127587   3.607   4.411  10.087 -0.4668  0.5613  0.1641
 5375SOL    HW227588   3.632   4.331   9.959 -0.5735  1.2674 -1.5307
 5376SOL     OW27589   3.301   3.454   4.869 -0.7938  0.4902 -0.3518
 5376SOL    HW127590   3.364   3.434   4.800 -0.6202 -0.9861  0.2478
 5376SOL    HW227591   3.358   3.422   4.940  1.9390  1.2921 -2.1690
 5377SOL     OW27592   4.364   3.505   3.665  0.5425 -0.1618 -0.0005
 5377SOL    HW127593   4.435   3.442   3.677 -0.2240 -0.5227  2.5250
 5377SOL    HW227594   4.317   3.470   3.589 -0.9714  1.8944 -0.0184
 5378SOL     OW27595   0.610   3.079  13.202 -0.3628  0.4767 -0.6709
 5378SOL    HW127596   0.583   3.036  13.283  0.9627 -0.3061 -0.6436
 5378SOL    HW227597   0.525   3.092  13.160 -0.2772  0.6664 -0.7856
 5379SOL     OW27598   0.689   0.665  14.995  0.3187 -0.1184 -0.5124
 5379SOL    HW127599   0.669   0.748  14.952 -0.4840  0.5996  1.2684
 5379SOL    HW227600   0.635   0.606  14.942  0.1611 -1.1907  0.8321
 5380SOL     OW27601   2.047   3.382   1.983  0.0137  0.4868 -0.0218
 5380SOL    HW127602   2.074   3.472   1.968 -1.7427  1.1846  1.0108
 5380SOL    HW227603   2.075   3.346   1.899  0.0799  2.9833 -1.0696
 5381SOL     OW27604   0.748   2.750  17.240  0.2378 -0.0971  0.0390
 5381SOL    HW127605   0.809   2.800  17.186 -0.7138  0.8502 -0.1564
 5381SOL    HW227606   0.803   2.676  17.264 -2.1585 -1.1544  2.2797
 5382SOL     OW27607   3.441   1.103   3.741  0.6151  0.3804  0.2231
 5382SOL    HW127608   3.396   1.184   3.716 -0.8337 -0.3300  0.4893
 5382SOL    HW227609   3.418   1.052   3.663  3.3720  1.3256 -1.2032
 5383SOL     OW27610   4.342   3.545   7.611 -0.3704  0.0296  0.0837
 5383SOL    HW127611   4.349   3.560   7.516  1.3788  2.3496  0.5759
 5383SOL    HW227612   4.251   3.567   7.631  0.1421  0.4419  1.9412
 5384SOL     OW27613   4.141   3.397   4.918  0.5526  0.0539 -0.4643
 5384SOL    HW127614   4.116   3.429   4.831  1.2509 -1.8055 -1.3346
 5384SOL    HW227615   4.186   3.315   4.900 -2.4343 -1.5339 -0.6815
 5385SOL     OW27616   1.142   3.583   2.933 -0.0475 -0.1706  0.3566
 5385SOL    HW127617   1.082   3.604   2.861  0.2097 -1.4933 -0.2340
 5385SOL    HW227618   1.185   3.668   2.945 -1.9987  1.1515 -1.9962
 5386SOL     OW27619   0.028   2.217  10.794  0.4371 -0.1783 -0.1999
 5386SOL    HW127620   0.079   2.237  10.873 -1.5633  0.6291  0.8935
 5386SOL    HW227621   4.686   2.163  10.833 -1.2442  1.7307 -0.5349
 5387SOL     OW27622   0.535   1.277   1.426  0.3728  0.1969 -0.1369
 5387SOL    HW127623   0.583   1.255   1.346 -0.1240  1.2523 -0.7246
 5387SOL    HW227624   0.459   1.219   1.418  0.4837 -0.0752  0.7184
 5388SOL     OW27625   4.529   1.570  16.502  0.4404  1.0332 -0.2049
 5388SOL    HW127626   4.446   1.522  16.498  2.1393 -2.1024  2.9621
 5388SOL    HW227627   4.547   1.556  16.594 -1.5940 -0.1197  0.0125
 5389SOL     OW27628   1.793   3.560   5.733 -0.7867  0.1086  0.8763
 5389SOL    HW127629   1.708   3.591   5.702 -0.0219  1.1480 -0.2157
 5389SOL    HW227630   1.774   3.565   5.827  1.3363 -0.0838  1.3309
 5390SOL     OW27631   2.898   0.023   4.051 -0.2980  0.3331 -0.3378
 5390SOL    HW127632   2.805   0.032   4.071 -0.4361  0.1453 -0.8740
 5390SOL    HW227633   2.946   0.050   4.129 -2.3600  0.7658  0.7889
 5391SOL     OW27634   0.506   2.454  17.411 -0.5574 -0.3760 -0.2650
 5391SOL    HW127635   0.539   2.544  17.407  2.5248 -1.5694 -1.1215
 5391SOL    HW227636   0.543   2.413  17.334  0.2372  0.4552 -0.3248
 5392SOL     OW27637   1.911   2.259   7.150  0.1637 -0.1570 -0.1866
 5392SOL    HW127638   1.848   2.286   7.216 -1.9598  0.4789 -2.4772
 5392SOL    HW227639   1.849   2.236   7.081 -0.2661 -0.5257  0.3287
 5393SOL     OW27640   2.084   1.080   6.435 -0.1328  0.4720  0.5884
 5393SOL    HW127641   2.156   1.036   6.388  0.3456  2.3552 -0.4180
 5393SOL    HW227642   2.003   1.045   6.399 -0.8687  2.3383  0.4784
 5394SOL     OW27643   1.023   1.570   5.148  0.5230  0.3531 -0.1190
 5394SOL    HW127644   1.097   1.513   5.127 -0.2845 -0.7857  0.1584
 5394SOL    HW227645   1.051   1.643   5.093  1.9553 -0.9035 -1.0687
 5395SOL     OW27646   1.646   1.253   7.640 -0.1301 -0.1025 -0.3057
 5395SOL    HW127647   1.652   1.230   7.547 -0.4537 -0.8152 -0.1481
 5395SOL    HW227648   1.607   1.170   7.669  0.2564 -0.0929  0.2559
 5396SOL     OW27649   0.315   1.691   4.717  0.1678 -0.0115  0.0163
 5396SOL    HW127650   0.376   1.617   4.715 -0.9209 -0.9086 -0.4478
 5396SOL    HW227651   0.301   1.707   4.624 -1.5901  1.2467  0.4944
 5397SOL     OW27652   1.007   3.894  11.061  0.0404 -0.1660 -0.1564
 5397SOL    HW127653   1.042   3.978  11.031 -0.1564  0.2173  0.6836
 5397SOL    HW227654   0.948   3.871  10.989 -1.7386  2.3728  0.5177
 5398SOL     OW27655   0.602   3.666   4.064  0.5680 -0.4353 -0.8069
 5398SOL    HW127656   0.686   3.669   4.018  0.4157  0.4590 -1.0446
 5398SOL    HW227657   0.598   3.571   4.067 -3.5102 -0.2405  0.4307
 5399SOL     OW27658   2.333   3.074   5.832  0.0241  0.2989 -0.0599
 5399SOL    HW127659   2.326   2.980   5.811  2.5058 -0.0043  0.4757
 5399SOL    HW227660   2.415   3.065   5.881  0.5329  3.0353 -0.4538
 5400SOL     OW27661   3.782   4.115   6.993  0.1770 -0.2680  0.8731
 5400SOL    HW127662   3.705   4.153   6.951  0.7969  0.6667  0.5854
 5400SOL    HW227663   3.758   4.040   7.049  0.1111 -1.7246 -1.0882
 5401SOL     OW27664   3.752   4.664   4.386 -0.0139 -0.3965  0.3130
 5401SOL    HW127665   3.764   4.725   4.313  2.1704 -1.2305 -0.0298
 5401SOL    HW227666   3.665   4.633   4.360 -0.1158  0.1529  0.0010
 5402SOL     OW27667   2.202   0.894  11.013 -0.0232 -0.2919  0.0853
 5402SOL    HW127668   2.193   0.894  11.109  3.3530 -0.3316  0.4228
 5402SOL    HW227669   2.110   0.895  10.988  0.3690 -0.5974 -1.3543
 5403SOL     OW27670   2.026   2.625   8.702 -0.4849  0.1074 -0.5165
 5403SOL    HW127671   2.034   2.720   8.692 -0.7247  0.1661 -0.1384
 5403SOL    HW227672   1.979   2.590   8.627  1.2725  2.2556 -2.6542
 5404SOL     OW27673   0.313   3.620   4.213  0.3737  0.2108  0.4086
 5404SOL    HW127674   0.378   3.682   4.179  0.7563  0.2290  1.1660
 5404SOL    HW227675   0.258   3.672   4.271 -0.1936  1.0104 -0.8548
 5405SOL     OW27676   2.870   1.265   3.120 -0.2815  0.2660  0.0993
 5405SOL    HW127677   2.779   1.286   3.101  0.1660  3.1850  1.2135
 5405SOL    HW227678   2.867   1.181   3.167 -0.0446 -0.1500 -0.6305
 5406SOL     OW27679   2.975   0.405   6.190 -0.2764 -0.2958  0.0534
 5406SOL    HW127680   2.975   0.489   6.144 -0.3964 -0.4221 -0.1801
 5406SOL    HW227681   3.059   0.415   6.235 -0.3698  0.3794  0.0813
 5407SOL     OW27682   4.213   4.046   2.502  0.5044  0.2648  0.1853
 5407SOL    HW127683   4.176   3.986   2.438 -0.5722  1.5316 -0.3723
 5407SOL    HW227684   4.240   3.979   2.564  0.3138  0.4664  0.4868
 5408SOL     OW27685   2.116   2.942   3.156 -0.4846  0.1645 -0.2878
 5408SOL    HW127686   2.089   3.014   3.213  0.4596 -0.7503  1.3154
 5408SOL    HW227687   2.102   2.978   3.069 -1.7340 -1.8033 -0.9056
 5409SOL     OW27688   1.359   1.902  14.260  0.1699 -0.1709 -0.8657
 5409SOL    HW127689   1.338   1.840  14.190  1.1356 -1.8960  0.4000
 5409SOL    HW227690   1.280   1.900  14.314  0.4979 -0.8541 -0.4124
 5410SOL     OW27691   3.036   4.664   0.917 -0.8835  0.2770 -0.3056
 5410SOL    HW127692   3.103   4.597   0.930 -3.2300 -1.6646  1.6400
 5410SOL    HW227693   3.026   4.701   1.004 -1.3320 -0.9992  0.1847
 5411SOL     OW27694   3.374   0.444   7.603  0.2864 -0.1646  0.4175
 5411SOL    HW127695   3.349   0.499   7.677  1.5904  0.3835  0.4545
 5411SOL    HW227696   3.292   0.395   7.601  0.0712  0.1763  0.9418
 5412SOL     OW27697   2.612   2.675   4.911 -0.0401 -0.3578 -0.0307
 5412SOL    HW127698   2.578   2.586   4.902 -1.2122  0.3416 -2.4411
 5412SOL    HW227699   2.530   2.722   4.925  0.5199  0.2557  1.2387
 5413SOL     OW27700   4.673   1.055   6.671 -0.8094 -0.6498 -0.0218
 5413SOL    HW127701   4.637   1.055   6.760 -3.1720 -0.2747 -0.9962
 5413SOL    HW227702   4.613   1.000   6.621 -0.4505 -1.7458  0.7587
 5414SOL     OW27703   4.415   4.007   3.458 -0.1331 -0.1315  0.4596
 5414SOL    HW127704   4.391   3.915   3.475  2.1338 -0.5501  1.3859
 5414SOL    HW227705   4.510   4.009   3.465 -0.2981 -1.0947  2.9945
 5415SOL     OW27706   3.795   3.811   6.864 -0.1571  0.2171 -0.0854
 5415SOL    HW127707   3.837   3.752   6.801 -0.1678 -1.4023  1.4385
 5415SOL    HW227708   3.820   3.772   6.947 -0.9778 -0.5099 -0.1902
 5416SOL     OW27709   2.223   2.899   0.377  0.3635  0.2075  0.8420
 5416SOL    HW127710   2.142   2.912   0.426  1.1459  1.3903  1.8340
 5416SOL    HW227711   2.265   2.832   0.431  1.0884 -0.1257 -0.1226
 5417SOL     OW27712   0.900   3.857   6.590 -0.1758  0.2960 -0.2461
 5417SOL    HW127713   0.876   3.884   6.679  1.3972 -1.1207  0.6121
 5417SOL    HW227714   0.835   3.790   6.571 -1.4650  0.6017  3.0385
 5418SOL     OW27715   3.464   2.830   0.983 -0.6347  0.3851  0.2004
 5418SOL    HW127716   3.403   2.799   1.050 -0.8937 -0.7459 -0.5686
 5418SOL    HW227717   3.429   2.916   0.959 -0.2303  0.5252  0.1122
 5419SOL     OW27718   3.352   2.929   2.887 -0.3789 -0.1882  0.4667
 5419SOL    HW127719   3.343   2.920   2.792 -0.0760 -0.3552  0.4533
 5419SOL    HW227720   3.440   2.893   2.903  1.0112  1.6357 -2.9095
 5420SOL     OW27721   1.674   1.566  12.628 -0.2359  1.0740  0.4691
 5420SOL    HW127722   1.613   1.540  12.698  1.0340  0.0519  1.1897
 5420SOL    HW227723   1.656   1.660  12.623  0.4396  1.2053  0.6046
 5421SOL     OW27724   1.936   0.955   5.214  0.0793  0.5106 -0.0936
 5421SOL    HW127725   1.922   0.861   5.222  0.5528  0.2007 -2.7297
 5421SOL    HW227726   1.853   0.994   5.184 -0.4716 -0.6444 -0.0724
 5422SOL     OW27727   4.067   2.373   1.886  0.0327 -0.3013  0.0882
 5422SOL    HW127728   4.141   2.426   1.855 -0.6756  0.5770 -0.0822
 5422SOL    HW227729   4.109   2.287   1.895  1.5445  0.3450 -0.7518
 5423SOL     OW27730   4.038   1.874   6.858  0.2340  0.2004  0.5714
 5423SOL    HW127731   3.996   1.791   6.880 -4.4412  2.2250 -0.5963
 5423SOL    HW227732   3.965   1.923   6.820  0.9052 -0.6742 -1.8665
 5424SOL     OW27733   2.193   3.415   7.234 -0.4121  0.1886 -0.3290
 5424SOL    HW127734   2.248   3.469   7.177 -1.6000 -1.1876 -2.7721
 5424SOL    HW227735   2.110   3.454   7.209 -0.2762  1.8472  1.7843
 5425SOL     OW27736   0.141   0.316   4.696 -0.2014  0.6624 -0.1173
 5425SOL    HW127737   0.186   0.244   4.742  1.4937  0.3653 -2.2701
 5425SOL    HW227738   0.053   0.284   4.678  0.3663 -0.5953 -0.7035
 5426SOL     OW27739   1.142   2.551  14.016  0.2365  0.7877  0.1036
 5426SOL    HW127740   1.079   2.583  14.080 -0.1402 -0.0469  0.1551
 5426SOL    HW227741   1.224   2.593  14.039  2.6000 -3.1463 -1.0378
 5427SOL     OW27742   1.830   0.761  11.706 -0.0945 -0.8601  0.0615
 5427SOL    HW127743   1.917   0.769  11.667 -0.7136  2.0265 -0.6886
 5427SOL    HW227744   1.838   0.817  11.783  0.0456 -0.0063 -0.5842
 5428SOL     OW27745   4.598   1.719  14.383  0.3467  0.2222 -0.5073
 5428SOL    HW127746   4.692   1.710  14.372  0.5347 -0.8232  1.9335
 5428SOL    HW227747   4.582   1.665  14.460  0.3263  0.1926 -0.5321
 5429SOL     OW27748   3.777   2.340   5.682  0.0697 -0.1744  0.0616
 5429SOL    HW127749   3.793   2.435   5.681 -0.3235 -0.0953  2.0030
 5429SOL    HW227750   3.682   2.337   5.691  0.3269 -1.4137  2.2732
 5430SOL     OW27751   3.568   3.884  12.970 -0.1709  0.8045 -0.3187
 5430SOL    HW127752   3.588   3.825  13.043 -2.0144  0.8943  0.2488
 5430SOL    HW227753   3.622   3.851  12.898  0.9098 -0.0750  0.8913
 5431SOL     OW27754   1.505   1.372  10.362  0.7579  0.5015  0.0648
 5431SOL    HW127755   1.446   1.395  10.434  2.8455  1.4936  1.4694
 5431SOL    HW227756   1.451   1.348  10.287  0.0660 -0.2708  0.8106
 5432SOL     OW27757   3.709   4.573   1.464  0.0506  0.0910  0.5665
 5432SOL    HW127758   3.787   4.622   1.436  0.0498 -0.1718  0.1061
 5432SOL    HW227759   3.684   4.619   1.544 -0.4613 -0.4373  0.7098
 5433SOL     OW27760   2.779   2.465  14.126 -0.2033 -0.1904 -0.6331
 5433SOL    HW127761   2.716   2.535  14.113 -0.6067 -0.4943 -0.3146
 5433SOL    HW227762   2.856   2.518  14.107 -0.0083 -0.3933 -0.4096
 5434SOL     OW27763   1.270   2.461   7.761  0.5890 -0.3469 -0.0990
 5434SOL    HW127764   1.266   2.430   7.671 -2.9021  2.5702 -0.9503
 5434SOL    HW227765   1.255   2.379   7.809 -1.1388  1.4569  2.4715
 5435SOL     OW27766   3.025   0.650   4.435 -0.3463 -0.0178 -0.1853
 5435SOL    HW127767   3.031   0.641   4.530 -1.4502 -1.6266 -0.2609
 5435SOL    HW227768   2.935   0.622   4.416 -0.7230  0.5762  0.7385
 5436SOL     OW27769   2.956   3.157   8.712  0.0226 -0.2550 -0.1585
 5436SOL    HW127770   3.039   3.202   8.698  0.3700 -0.7987  0.1270
 5436SOL    HW227771   2.934   3.138   8.621 -1.4014  0.2242  0.0903
 5437SOL     OW27772   1.298   3.668  15.825  0.4106  0.4122  0.5381
 5437SOL    HW127773   1.354   3.596  15.799 -1.1743 -0.5530 -0.2042
 5437SOL    HW227774   1.371   3.726  15.845  2.7250 -1.6787 -1.7813
 5438SOL     OW27775   4.186   3.799   4.080  0.5058  0.7201  0.0544
 5438SOL    HW127776   4.205   3.706   4.093 -3.3600  0.1580  1.6722
 5438SOL    HW227777   4.264   3.846   4.110  1.0351  0.4578 -0.9219
 5439SOL     OW27778   1.410   2.478   4.795 -0.3718 -0.0065  0.0363
 5439SOL    HW127779   1.457   2.514   4.870 -2.0568 -0.6471  1.3940
 5439SOL    HW227780   1.427   2.549   4.733  0.1525  0.4604  0.7150
 5440SOL     OW27781   4.253   3.878   7.697  0.5869 -0.5475  0.1993
 5440SOL    HW127782   4.175   3.891   7.751  0.1891 -0.4959 -0.3908
 5440SOL    HW227783   4.212   3.872   7.611  1.7818 -0.5410 -0.3672
 5441SOL     OW27784   1.776   1.504   7.732  0.0306 -0.2623 -0.6350
 5441SOL    HW127785   1.840   1.446   7.692  0.2884  0.2270 -0.9361
 5441SOL    HW227786   1.712   1.515   7.662  1.5286  1.6233 -1.6994
 5442SOL     OW27787   2.523   2.480   0.458 -0.5231 -0.8347 -0.2262
 5442SOL    HW127788   2.459   2.409   0.455 -0.8229 -0.5168 -1.2074
 5442SOL    HW227789   2.533   2.488   0.363  0.6847  0.1502 -0.0152
 5443SOL     OW27790   3.300   0.216  12.181  0.4078  0.4644 -0.3524
 5443SOL    HW127791   3.356   0.224  12.258 -1.0790 -1.4507  0.9149
 5443SOL    HW227792   3.322   0.134  12.137  0.5124 -0.8941  2.2151
 5444SOL     OW27793   0.336   2.315  10.719  0.3642  0.2128  0.0053
 5444SOL    HW127794   0.322   2.336  10.811 -1.7300  0.1085 -0.2737
 5444SOL    HW227795   0.352   2.405  10.690 -1.9213  0.2286 -1.2257
 5445SOL     OW27796   3.231   1.483   1.411  0.4799  0.6442  0.1991
 5445SOL    HW127797   3.176   1.516   1.482 -0.2701 -0.3677  0.0967
 5445SOL    HW227798   3.229   1.388   1.426  0.0306  0.9318  1.9594
 5446SOL     OW27799   2.034   0.022   2.453  0.6557  0.5024 -0.3704
 5446SOL    HW127800   1.998   0.110   2.468 -0.5685 -0.0775  0.1034
 5446SOL    HW227801   2.054   0.029   2.360  1.3879  0.8649 -0.1876
 5447SOL     OW27802   0.974   4.204  13.445  0.4584  0.2174  0.1018
 5447SOL    HW127803   0.973   4.284  13.496 -1.2622  0.3205 -0.0952
 5447SOL    HW227804   0.883   4.183  13.424 -0.0618 -0.3936  2.9789
 5448SOL     OW27805   4.417   0.171   4.868  0.3952 -0.5448 -0.1664
 5448SOL    HW127806   4.328   0.136   4.864  0.7362 -1.3294 -0.7701
 5448SOL    HW227807   4.448   0.125   4.945 -0.7624 -0.8104  0.1507
 5449SOL     OW27808   2.947   0.925   6.151 -0.1488 -0.2843  0.6840
 5449SOL    HW127809   2.921   0.948   6.241 -2.7729  0.0639 -0.1491
 5449SOL    HW227810   3.028   0.971   6.130  1.0002 -1.5220  2.3347
 5450SOL     OW27811   4.203   1.735  12.956 -0.0156 -0.3271  0.3761
 5450SOL    HW127812   4.259   1.762  13.029 -2.2977  0.0663  1.9851
 5450SOL    HW227813   4.242   1.657  12.916 -2.1823 -0.0243 -2.3433
 5451SOL     OW27814   3.850   1.069  14.896  0.5382  0.6446  0.1728
 5451SOL    HW127815   3.867   1.161  14.915 -2.6813  0.7443  2.5215
 5451SOL    HW227816   3.890   1.058  14.809  0.6504  1.7394  0.0891
 5452SOL     OW27817   0.188   3.748   6.052  0.3178  0.2050  0.3811
 5452SOL    HW127818   0.194   3.787   5.965  0.6084  0.0834  0.3447
 5452SOL    HW227819   0.279   3.720   6.065  0.6412  0.6816 -0.9308
 5453SOL     OW27820   2.614   0.317   5.821  0.3804 -0.0006  1.1740
 5453SOL    HW127821   2.562   0.365   5.756  1.3908  1.8358  1.7183
 5453SOL    HW227822   2.565   0.337   5.901 -0.4091  1.7227  0.2814
 5454SOL     OW27823   4.127   0.017  10.109  0.6374  0.4984 -0.3107
 5454SOL    HW127824   4.199   0.080  10.099  0.1165  1.4572  1.9188
 5454SOL    HW227825   4.053   0.074  10.132  1.5972  1.4373  0.4349
 5455SOL     OW27826   3.474   2.199  14.000  0.7004 -1.2717  0.9164
 5455SOL    HW127827   3.538   2.156  13.943 -1.0269 -1.4703 -0.8627
 5455SOL    HW227828   3.394   2.152  13.975  1.3444 -1.7971 -0.1633
 5456SOL     OW27829   2.815   4.487  16.638 -0.1638  0.1641 -0.5793
 5456SOL    HW127830   2.874   4.424  16.679 -0.3685 -0.6821 -1.5951
 5456SOL    HW227831   2.851   4.563  16.683 -1.5704 -0.1536  1.0697
 5457SOL     OW27832   2.088   4.370  15.955  0.2135  0.4364 -0.2408
 5457SOL    HW127833   2.132   4.313  15.893 -1.6333  0.8144 -1.9054
 5457SOL    HW227834   2.055   4.313  16.025  1.6408 -1.1511 -0.8652
 5458SOL     OW27835   2.878   3.672   0.487  0.2134  0.4414 -0.0952
 5458SOL    HW127836   2.857   3.607   0.554  2.4438  1.1771  1.3367
 5458SOL    HW227837   2.791   3.692   0.452  1.0069  2.3892 -0.9624
 5459SOL     OW27838   0.127   0.574   7.829 -0.5468  0.1352  0.3562
 5459SOL    HW127839   0.043   0.529   7.826 -0.3866 -0.1187 -0.3708
 5459SOL    HW227840   0.185   0.497   7.826 -0.8206 -0.0492 -0.3274
 5460SOL     OW27841   0.528   3.930   4.073  0.3751  0.1618 -0.1389
 5460SOL    HW127842   0.567   3.844   4.090  2.7320  0.5348 -3.5838
 5460SOL    HW227843   0.605   3.988   4.075  0.0558  0.6823 -2.3990
 5461SOL     OW27844   2.264   1.558   2.357 -0.4822  0.4526 -0.5267
 5461SOL    HW127845   2.223   1.559   2.271 -1.5153 -1.6044 -0.0677
 5461SOL    HW227846   2.223   1.477   2.387 -3.0825  1.0928 -2.3962
 5462SOL     OW27847   0.866   4.026   7.189  0.3155  0.0291 -0.4692
 5462SOL    HW127848   0.919   3.967   7.135  0.1314 -1.1995  0.6922
 5462SOL    HW227849   0.864   3.973   7.269  1.0642  0.3609 -0.2350
 5463SOL     OW27850   2.345   3.368   9.180 -0.1641  0.0040  0.7913
 5463SOL    HW127851   2.299   3.448   9.156  3.2172  1.5918 -0.3251
 5463SOL    HW227852   2.435   3.398   9.188 -1.2833  3.7081 -0.6505
 5464SOL     OW27853   2.199   1.688   5.941 -0.3180  0.2321 -0.4760
 5464SOL    HW127854   2.122   1.664   5.889  0.1162  0.6702 -1.3200
 5464SOL    HW227855   2.240   1.752   5.883 -1.6743  0.4070 -1.2348
 5465SOL     OW27856   2.021   3.025   5.097  0.3087 -0.0614  0.3491
 5465SOL    HW127857   1.968   2.968   5.041  0.1333 -0.2993  0.7580
 5465SOL    HW227858   1.994   2.999   5.185  1.1610 -0.7666  0.4060
 5466SOL     OW27859   0.806   3.859   2.731  0.0355  0.5235 -0.3954
 5466SOL    HW127860   0.844   3.773   2.746  0.3815  0.7471  0.0206
 5466SOL    HW227861   0.857   3.891   2.656  1.3457  2.6098  1.3719
 5467SOL     OW27862   3.650   2.948   4.629  0.4520  0.0666 -0.3152
 5467SOL    HW127863   3.613   2.867   4.596  1.0388 -0.2548 -0.1697
 5467SOL    HW227864   3.726   2.968   4.575  0.3127  0.4616 -0.3664
 5468SOL     OW27865   1.427   2.029   6.250 -0.3656  0.9278  0.0300
 5468SOL    HW127866   1.382   1.955   6.208 -1.2593 -0.2629  3.1009
 5468SOL    HW227867   1.449   2.079   6.171  1.5928 -0.1882 -0.1328
 5469SOL     OW27868   4.386   1.040  16.025 -0.2253  0.0896 -0.0629
 5469SOL    HW127869   4.420   1.064  15.938  1.3673  1.0809  0.8267
 5469SOL    HW227870   4.296   1.073  16.016 -0.2915  0.5203  2.3255
 5470SOL     OW27871   2.618   1.511  16.572  0.0578 -0.3408  0.3528
 5470SOL    HW127872   2.626   1.429  16.524  0.3382 -1.7839  2.8687
 5470SOL    HW227873   2.706   1.548  16.561  0.1933 -0.4164  1.1820
 5471SOL     OW27874   1.432   2.966   3.894  0.1414 -0.4485 -0.0433
 5471SOL    HW127875   1.490   2.897   3.863  1.0717  0.6861 -0.8597
 5471SOL    HW227876   1.423   2.940   3.986  1.0704 -0.7141 -0.0323
 5472SOL     OW27877   2.889   1.178   1.853  0.8248  0.2346  0.5473
 5472SOL    HW127878   2.909   1.215   1.939  1.4583  0.3624  0.3464
 5472SOL    HW227879   2.919   1.243   1.789 -0.7231 -0.0201 -0.4357
 5473SOL     OW27880   3.465   4.407   7.673 -0.3579 -0.0453  0.0518
 5473SOL    HW127881   3.374   4.415   7.702  0.1362  2.0789  1.0104
 5473SOL    HW227882   3.509   4.441   7.751  2.8843 -0.9768 -1.3644
 5474SOL     OW27883   0.840   2.052   5.579  0.4834 -0.3152 -0.5615
 5474SOL    HW127884   0.868   2.140   5.554  0.0956 -0.0560 -0.0939
 5474SOL    HW227885   0.844   2.006   5.495  0.2674 -0.7255 -0.3494
 5475SOL     OW27886   2.112   2.358   5.621  0.1700  0.4515  0.2686
 5475SOL    HW127887   2.072   2.334   5.705  1.1844  0.3394  0.7249
 5475SOL    HW227888   2.193   2.392   5.657  0.4077  0.0176  0.1446
 5476SOL     OW27889   1.917   1.361  16.010 -0.1434  0.0419  0.0317
 5476SOL    HW127890   1.844   1.299  16.003 -1.1408  1.0858  1.1386
 5476SOL    HW227891   1.877   1.436  15.964  1.1287  0.4954 -0.3435
 5477SOL     OW27892   2.680   1.776   5.705 -0.1365  0.3368  0.2514
 5477SOL    HW127893   2.723   1.735   5.781 -1.2748 -0.2420  0.5913
 5477SOL    HW227894   2.705   1.867   5.723  0.0194  0.4092 -0.3363
 5478SOL     OW27895   1.318   1.300  13.168  0.0695 -0.4975  0.0614
 5478SOL    HW127896   1.381   1.339  13.108  0.5350 -0.1951  0.7528
 5478SOL    HW227897   1.382   1.243  13.211  1.8039 -0.5327 -2.5860
 5479SOL     OW27898   3.530   3.176   3.960 -0.1803 -0.1635 -0.4052
 5479SOL    HW127899   3.470   3.250   3.967  1.9078  1.4168  1.0462
 5479SOL    HW227900   3.519   3.147   3.869  2.1052  2.3137 -1.4805
 5480SOL     OW27901   0.990   2.051  11.857 -0.1919 -0.0766  0.2945
 5480SOL    HW127902   1.030   1.966  11.876 -1.7194 -0.9017 -0.1662
 5480SOL    HW227903   0.902   2.024  11.832  0.3991 -0.3319 -1.4696
 5481SOL     OW27904   1.867   0.054   7.627 -0.0260 -0.6897  0.0871
 5481SOL    HW127905   1.894   0.091   7.712 -0.5412  3.4925 -1.5404
 5481SOL    HW227906   1.830   4.706   7.673 -0.8404 -0.2909  0.0661
 5482SOL     OW27907   1.819   2.066  10.718 -0.0060  0.0367  0.3476
 5482SOL    HW127908   1.851   2.057  10.628 -0.1998  2.3310  0.0406
 5482SOL    HW227909   1.804   2.160  10.732 -0.9194  0.0954 -1.0135
 5483SOL     OW27910   1.071   2.614   2.652  0.3124  0.7555 -0.3886
 5483SOL    HW127911   1.051   2.682   2.588 -1.1881  0.3693 -0.3158
 5483SOL    HW227912   1.156   2.583   2.621 -0.6525 -1.5498 -0.7473
 5484SOL     OW27913   3.397   2.239  16.320 -0.0864  0.2406 -0.4834
 5484SOL    HW127914   3.385   2.208  16.410 -1.2593  2.2591  0.0543
 5484SOL    HW227915   3.441   2.323  16.337  2.4646 -1.4651  1.3268
 5485SOL     OW27916   1.968   3.085   2.050 -0.0435  0.1809  0.2222
 5485SOL    HW127917   2.032   3.084   1.979  0.4590  1.4730  0.6630
 5485SOL    HW227918   2.018   3.100   2.130 -0.9169 -0.6195  0.9232
 5486SOL     OW27919   4.551   2.371  16.968 -0.5748 -0.2206 -0.0725
 5486SOL    HW127920   4.490   2.316  16.920 -3.7397  0.4260  3.2387
 5486SOL    HW227921   4.629   2.322  16.944 -0.8159 -0.5808 -0.1130
 5487SOL     OW27922   3.702   4.619   9.061  0.0390  0.2567  0.0368
 5487SOL    HW127923   3.762   4.651   9.128 -0.6164 -0.3586  0.9202
 5487SOL    HW227924   3.720   4.679   8.989  1.2484 -0.1441  0.0151
 5488SOL     OW27925   3.156   3.417  12.314  0.2837  0.4271 -0.1509
 5488SOL    HW127926   3.077   3.440  12.264  0.8206  0.2533 -1.0771
 5488SOL    HW227927   3.114   3.396  12.398 -0.2816  0.0099 -0.5353
 5489SOL     OW27928   3.405   0.786   5.179 -0.4352 -0.5989  0.4319
 5489SOL    HW127929   3.444   0.698   5.182  2.1980  0.4499 -2.7063
 5489SOL    HW227930   3.379   0.791   5.087 -1.7109  1.3558  0.8857
 5490SOL     OW27931   3.379   0.158   4.119  0.1156 -0.5093  0.0145
 5490SOL    HW127932   3.334   0.166   4.034  3.3449  2.7262 -1.3795
 5490SOL    HW227933   3.449   0.221   4.104  1.7906 -3.1228 -3.2941
 5491SOL     OW27934   2.987   1.409   9.645  0.3929  0.5012 -0.1782
 5491SOL    HW127935   2.896   1.396   9.672 -0.3108  1.1134 -2.2168
 5491SOL    HW227936   2.976   1.502   9.624  2.1103  1.0444  1.3818
 5492SOL     OW27937   4.099   2.447   2.672 -0.4170  0.1242 -0.3291
 5492SOL    HW127938   4.007   2.421   2.673 -0.8688  1.7940  2.0186
 5492SOL    HW227939   4.097   2.526   2.619  1.0821 -0.1568 -0.8210
 5493SOL     OW27940   3.271   0.090   8.256 -0.4170 -0.0252  0.0255
 5493SOL    HW127941   3.364   0.071   8.246  0.0916  2.6898 -0.5787
 5493SOL    HW227942   3.240   0.014   8.209  0.8828  0.2901 -1.3253
 5494SOL     OW27943   0.569   0.203   0.286 -0.1230  0.6645  0.0723
 5494SOL    HW127944   0.482   0.218   0.249 -1.0070 -1.0444  1.4623
 5494SOL    HW227945   0.584   0.109   0.290 -0.3655  0.6644  1.0119
 5495SOL     OW27946   0.669   1.880   3.536  0.0188 -0.2670  0.4656
 5495SOL    HW127947   0.694   1.863   3.627  2.2297  0.9101  0.0869
 5495SOL    HW227948   0.665   1.787   3.514 -0.0349 -0.5182  1.5582
 5496SOL     OW27949   1.051   0.363   7.203 -0.2456  0.5407 -0.4281
 5496SOL    HW127950   1.031   0.338   7.294 -0.5269  1.6265 -0.1884
 5496SOL    HW227951   1.027   0.455   7.211 -0.7947  0.2434  1.5408
 5497SOL     OW27952   0.272   0.891   5.866  0.0812 -0.3968  0.1188
 5497SOL    HW127953   0.321   0.810   5.854 -1.3550 -1.1593 -0.5337
 5497SOL    HW227954   0.212   0.873   5.794  0.4134  3.0596 -1.0381
 5498SOL     OW27955   0.318   2.626   4.204 -0.0198 -0.0730 -0.2135
 5498SOL    HW127956   0.341   2.719   4.200  2.5770 -0.6913  0.5413
 5498SOL    HW227957   0.400   2.579   4.218 -0.1691  0.0826  1.2308
 5499SOL     OW27958   4.688   4.483  15.106 -0.2351  0.0322  0.1544
 5499SOL    HW127959   4.685   4.407  15.164  0.1256  0.7321  1.0888
 5499SOL    HW227960   4.711   4.557  15.163 -1.2437  0.6635 -0.2509
 5500SOL     OW27961   1.206   3.876   8.181  0.5605 -0.7855 -0.4583
 5500SOL    HW127962   1.170   3.797   8.221  0.8616 -1.2567 -1.1117
 5500SOL    HW227963   1.284   3.883   8.236  0.5906  0.7889 -0.7060
 5501SOL     OW27964   1.870   2.277   5.272  0.2737 -0.3974  0.4307
 5501SOL    HW127965   1.924   2.225   5.331  1.5928 -0.3325 -0.7059
 5501SOL    HW227966   1.795   2.301   5.326 -1.3621 -1.7744 -1.2476
 5502SOL     OW27967   2.688   1.850   7.813 -0.4563  0.1028 -0.5924
 5502SOL    HW127968   2.700   1.860   7.718 -2.1923 -0.3219 -0.8614
 5502SOL    HW227969   2.776   1.869   7.843  0.1311  1.1193 -2.9608
 5503SOL     OW27970   4.031   1.561  12.297 -0.6239  0.4948  0.3344
 5503SOL    HW127971   4.105   1.500  12.301 -1.2839 -0.3456 -0.3001
 5503SOL    HW227972   4.080   1.643  12.290  1.2962 -0.7630 -0.9451
 5504SOL     OW27973   2.495   3.974   5.482  0.2768 -0.5600  0.3702
 5504SOL    HW127974   2.479   3.881   5.500  0.4089 -0.6012  0.2733
 5504SOL    HW227975   2.527   3.974   5.392 -0.2668 -0.1710  0.1765
 5505SOL     OW27976   1.508   0.610   3.842  0.4978 -0.8167  0.3927
 5505SOL    HW127977   1.491   0.535   3.784  0.7449  0.5521 -1.4592
 5505SOL    HW227978   1.603   0.602   3.853  0.4783 -1.2371  0.2614
 5506SOL     OW27979   2.684   0.569  15.370 -0.1063 -0.3821 -0.2111
 5506SOL    HW127980   2.743   0.582  15.295 -1.0117  0.0423 -0.8583
 5506SOL    HW227981   2.695   0.475  15.383  1.3664 -0.3013 -0.8834
 5507SOL     OW27982   1.768   3.902   0.533 -0.9064 -0.3580  0.5864
 5507SOL    HW127983   1.691   3.860   0.572 -1.0980  0.4982  1.1170
 5507SOL    HW227984   1.781   3.974   0.594  0.1210  1.3429 -1.6201
 5508SOL     OW27985   3.656   1.482   8.129  0.5603 -0.3166 -0.1478
 5508SOL    HW127986   3.718   1.431   8.181 -0.7493 -0.1490  1.5823
 5508SOL    HW227987   3.717   1.536   8.080  0.0228  0.6847  0.2985
 5509SOL     OW27988   0.566   0.099  16.435 -0.0498  0.0150  0.0172
 5509SOL    HW127989   0.643   0.117  16.489  0.3257 -1.7027  0.0750
 5509SOL    HW227990   0.549   0.006  16.451  0.5707  0.1858  1.7949
 5510SOL     OW27991   4.107   4.575   9.563 -0.1504 -0.1286 -0.6070
 5510SOL    HW127992   4.193   4.616   9.562 -0.6510  0.8815 -2.3727
 5510SOL    HW227993   4.075   4.595   9.651  2.1984 -0.7963  0.3995
 5511SOL     OW27994   1.239   0.669   3.014  0.5002 -0.3616  0.1913
 5511SOL    HW127995   1.222   0.642   2.924  1.4708 -1.3629  0.3154
 5511SOL    HW227996   1.317   0.619   3.039  1.0823  0.4316 -0.0215
 5512SOL     OW27997   2.721   2.839   5.578 -0.3456 -0.5237 -0.1986
 5512SOL    HW127998   2.802   2.847   5.527  0.1238  1.6384  0.8642
 5512SOL    HW227999   2.750   2.845   5.669  0.2659  1.9538 -0.5451
 5513SOL     OW28000   3.245   3.326   3.992  0.6983 -0.0459 -0.0806
 5513SOL    HW128001   3.166   3.376   4.010  0.0909 -1.3407  0.8722
 5513SOL    HW228002   3.253   3.345   3.899  2.3904  1.5956  0.3714
 5514SOL     OW28003   0.266   4.275   4.170 -0.7962  0.7516  0.1354
 5514SOL    HW128004   0.342   4.330   4.189 -1.2720  1.4326  0.0686
 5514SOL    HW228005   0.260   4.278   4.074 -1.6985  0.9130  0.1961
 5515SOL     OW28006   0.138   2.246   6.408  0.0839  0.0541  0.1150
 5515SOL    HW128007   0.140   2.310   6.338  0.8498 -1.3801 -1.1823
 5515SOL    HW228008   0.055   2.256   6.454 -0.3602 -1.1783 -0.4009
 5516SOL     OW28009   2.889   3.871   3.435  0.3898  0.3043  0.0818
 5516SOL    HW128010   2.940   3.885   3.355 -1.3163 -1.3652 -1.2875
 5516SOL    HW228011   2.846   3.788   3.413 -1.0486  1.1386 -0.2354
 5517SOL     OW28012   3.856   0.377  16.729  0.2070 -0.2847  0.2293
 5517SOL    HW128013   3.876   0.422  16.811  1.7932 -3.6633  1.7012
 5517SOL    HW228014   3.776   0.423  16.703  0.0070 -0.0611  1.2497
 5518SOL     OW28015   2.657   4.495   1.596 -0.5061  0.2550 -0.3733
 5518SOL    HW128016   2.595   4.567   1.590 -2.3480 -1.2736  0.4261
 5518SOL    HW228017   2.674   4.509   1.689 -1.9785 -3.0368  0.3741
 5519SOL     OW28018   3.968   0.083   9.466  0.1223 -0.7926 -0.2226
 5519SOL    HW128019   3.969   4.715   9.484 -0.9988 -0.8350 -0.3624
 5519SOL    HW228020   4.062   0.102   9.464 -0.4736  2.4619  1.5123
 5520SOL     OW28021   1.920   1.618  16.784  0.4403  0.0667 -0.0721
 5520SOL    HW128022   1.919   1.572  16.868  1.0929 -1.0333 -0.6647
 5520SOL    HW228023   2.013   1.619  16.762  0.0365 -1.5620 -1.9750
 5521SOL     OW28024   2.834   2.693   0.817 -0.2656 -0.4088 -0.2472
 5521SOL    HW128025   2.864   2.625   0.757 -0.0458 -1.6130  1.2076
 5521SOL    HW228026   2.878   2.765   0.772 -2.8210  0.2894 -1.6272
 5522SOL     OW28027   1.959   4.251   5.431  0.1604  0.6990  0.1294
 5522SOL    HW128028   2.042   4.274   5.389 -1.0234  1.7632 -1.6268
 5522SOL    HW228029   1.925   4.175   5.384  0.4642  0.7088 -0.1083
 5523SOL     OW28030   0.482   1.477   1.174 -0.4190  0.1900 -0.0559
 5523SOL    HW128031   0.523   1.427   1.103  0.0481 -0.1659  0.4641
 5523SOL    HW228032   0.426   1.539   1.127 -2.4550 -0.1826  1.8454
 5524SOL     OW28033   0.137   0.678   6.832 -0.0802  0.4746  0.4249
 5524SOL    HW128034   0.195   0.730   6.776 -0.2533 -1.1802 -1.2754
 5524SOL    HW228035   0.124   0.605   6.772 -0.2295  1.0581 -0.2620
 5525SOL     OW28036   0.445   0.212   5.802  1.0535  0.0866  0.3093
 5525SOL    HW128037   0.426   0.142   5.741  0.6366  0.3716  0.1193
 5525SOL    HW228038   0.449   0.291   5.748 -1.0104 -0.7095 -1.0024
 5526SOL     OW28039   0.734   1.007   8.547 -0.1548  0.3172  0.5440
 5526SOL    HW128040   0.725   1.096   8.512  1.1682 -0.1173 -0.9045
 5526SOL    HW228041   0.701   0.960   8.470  0.0788 -1.1416  1.3554
 5527SOL     OW28042   1.356   0.581  15.272 -0.0062 -0.4973 -0.2461
 5527SOL    HW128043   1.430   0.613  15.323  1.7244  0.5264 -3.4328
 5527SOL    HW228044   1.286   0.641  15.299  0.2336 -0.8161  1.0834
 5528SOL     OW28045   0.851   1.808   3.780  0.0691  0.1155  0.0738
 5528SOL    HW128046   0.871   1.723   3.817  0.7699 -0.2747 -1.2135
 5528SOL    HW228047   0.771   1.828   3.830  1.1982  0.3351  1.7845
 5529SOL     OW28048   1.274   2.902   4.423  0.3968 -0.2167  0.2603
 5529SOL    HW128049   1.204   2.854   4.466 -0.8585  1.3064 -0.0560
 5529SOL    HW228050   1.252   2.995   4.431  0.2840 -0.2230  0.0311
 5530SOL     OW28051   1.546   0.198   6.552  0.4577 -0.3512  0.2207
 5530SOL    HW128052   1.509   0.120   6.593 -3.5173  0.1847 -2.3792
 5530SOL    HW228053   1.558   0.262   6.622  0.3067 -1.5813  1.3793
 5531SOL     OW28054   0.853   1.705   8.952  0.2590 -0.4928  0.5659
 5531SOL    HW128055   0.898   1.711   9.036  2.5709  0.6527 -0.7336
 5531SOL    HW228056   0.770   1.666   8.978 -0.8569  2.4404  1.4435
 5532SOL     OW28057   2.839   2.430  16.903 -0.3081 -0.6147 -0.1641
 5532SOL    HW128058   2.805   2.514  16.872  1.4644 -1.3977 -4.2490
 5532SOL    HW228059   2.805   2.376  16.832 -0.4588  1.2409 -1.5169
 5533SOL     OW28060   2.283   2.979   7.455  0.4068  0.0704  0.2540
 5533SOL    HW128061   2.368   3.008   7.421  0.3456  0.9458  0.8538
 5533SOL    HW228062   2.235   2.983   7.372  2.8559  1.2869 -1.0895
 5534SOL     OW28063   3.262   1.605   4.642 -0.1122  0.0124 -0.0932
 5534SOL    HW128064   3.274   1.564   4.556  2.5678  1.4957 -0.4390
 5534SOL    HW228065   3.349   1.589   4.679 -1.0073  0.2730  2.0876
 5535SOL     OW28066   2.834   4.488  12.708 -0.2686  0.0346 -0.3815
 5535SOL    HW128067   2.761   4.549  12.699 -0.9015 -0.9897 -2.1139
 5535SOL    HW228068   2.861   4.515  12.796 -3.1587 -0.5655  0.6926
 5536SOL     OW28069   4.663   3.779   9.735 -0.0723 -0.5967  0.2483
 5536SOL    HW128070   4.626   3.859   9.697 -0.9598 -0.8101  0.6518
 5536SOL    HW228071   4.724   3.760   9.664 -1.4519 -0.6443 -0.9236
 5537SOL     OW28072   4.461   3.658   4.461  0.0931 -0.3035  0.1725
 5537SOL    HW128073   4.508   3.729   4.505  0.5492 -1.1615  1.0837
 5537SOL    HW228074   4.382   3.710   4.445  0.3225 -0.4079 -1.3341
 5538SOL     OW28075   3.521   2.239   4.092  0.3809 -0.2117  0.2425
 5538SOL    HW128076   3.433   2.244   4.130  0.3777 -0.3580  0.2557
 5538SOL    HW228077   3.576   2.267   4.164  0.0164  0.8537  0.0999
 5539SOL     OW28078   2.238   0.394   7.537  0.5765  0.0224  0.0605
 5539SOL    HW128079   2.328   0.387   7.568  1.0110 -0.0814 -1.2425
 5539SOL    HW228080   2.199   0.382   7.623  1.1016  0.3195  0.3416
 5540SOL     OW28081   1.779   1.454   3.170  0.0134 -0.3444 -0.2183
 5540SOL    HW128082   1.802   1.361   3.180 -1.8512 -0.5903  1.8563
 5540SOL    HW228083   1.772   1.466   3.076  0.5857  0.0426 -0.2117
 5541SOL     OW28084   3.521   0.345   3.414  0.2230  0.1111 -0.2519
 5541SOL    HW128085   3.504   0.309   3.327  1.0156  0.3805 -0.5234
 5541SOL    HW228086   3.562   0.271   3.458  1.8003  1.1414  0.0405
 5542SOL     OW28087   4.704   1.558  11.186  0.0418  0.0780 -0.5589
 5542SOL    HW128088   0.015   1.570  11.099  1.8564 -1.6793 -0.0060
 5542SOL    HW228089   4.690   1.649  11.210  2.4124  0.0019  1.1373
 5543SOL     OW28090   1.089   3.624  15.641 -0.2910  0.3386  0.2090
 5543SOL    HW128091   1.115   3.581  15.560  0.5606  1.8293 -0.3025
 5543SOL    HW228092   1.168   3.627  15.695  1.0579 -1.8340 -1.6492
 5544SOL     OW28093   1.971   0.356   5.160  0.1190 -0.2998 -0.7690
 5544SOL    HW128094   2.028   0.338   5.236  0.1416 -0.4130 -0.8125
 5544SOL    HW228095   1.893   0.316   5.199 -1.6571  1.9199 -2.1170
 5545SOL     OW28096   3.385   2.039   5.934 -0.5220 -0.0099  0.6799
 5545SOL    HW128097   3.352   2.086   6.010  1.5097  2.1362  0.2237
 5545SOL    HW228098   3.316   2.059   5.871 -0.5585 -1.5875  0.2024
 5546SOL     OW28099   2.163   4.085   3.358  0.2591 -0.0613 -0.0864
 5546SOL    HW128100   2.099   4.099   3.427 -0.4360  1.2184 -1.0058
 5546SOL    HW228101   2.228   4.155   3.368 -1.8444  1.5399  2.2876
 5547SOL     OW28102   1.235   1.627  10.353  0.8442  0.0825 -0.3424
 5547SOL    HW128103   1.199   1.708  10.318  2.6421  0.5439 -1.1454
 5547SOL    HW228104   1.325   1.659  10.351  0.4456  1.2436  0.4226
 5548SOL     OW28105   3.352   0.741   7.063 -0.2597  0.3707 -0.0591
 5548SOL    HW128106   3.316   0.723   7.150 -1.8804  0.7409 -0.6566
 5548SOL    HW228107   3.432   0.789   7.084  0.4191  0.4674 -2.9124
 5549SOL     OW28108   3.788   4.268   5.781  0.2310  0.0138 -0.6029
 5549SOL    HW128109   3.840   4.188   5.787 -2.4381 -1.6188  1.0652
 5549SOL    HW228110   3.859   4.332   5.781  0.1339  0.1200  0.1215
 5550SOL     OW28111   0.356   1.628   7.844  0.3956  0.2639 -0.2386
 5550SOL    HW128112   0.352   1.719   7.817  0.0286  1.3892  3.5949
 5550SOL    HW228113   0.265   1.604   7.862  0.3259  1.2743  0.7577
 5551SOL     OW28114   1.531   4.417   8.101 -0.1047 -0.0970 -0.3830
 5551SOL    HW128115   1.569   4.335   8.131 -0.9857 -0.9347 -1.5537
 5551SOL    HW228116   1.454   4.392   8.050  0.1587 -1.0094 -0.3356
 5552SOL     OW28117   4.006   4.255   7.296 -0.3913 -0.3258 -0.1338
 5552SOL    HW128118   4.078   4.214   7.249  0.0541  1.6665 -1.1752
 5552SOL    HW228119   4.014   4.349   7.283  3.1031 -0.6216 -0.2067
 5553SOL     OW28120   1.885   0.428   6.618  0.1888 -0.1151 -0.7907
 5553SOL    HW128121   1.913   0.477   6.695 -0.1841 -0.1098 -0.6593
 5553SOL    HW228122   1.930   0.346   6.641  0.0988 -0.1531 -0.7526
 5554SOL     OW28123   3.489   0.253   2.873  0.0295  0.0173  0.1543
 5554SOL    HW128124   3.464   0.267   2.782  0.1586 -1.4809 -0.1044
 5554SOL    HW228125   3.561   0.190   2.870  0.1012  0.2533 -2.8621
 5555SOL     OW28126   2.340   1.872   2.852 -0.1028  0.5863  0.5687
 5555SOL    HW128127   2.247   1.863   2.869 -0.1466 -1.8875 -1.0668
 5555SOL    HW228128   2.366   1.956   2.890 -0.2256  0.6119  0.5962
 5556SOL     OW28129   1.523   3.614   6.057  0.2658  0.2089 -0.6087
 5556SOL    HW128130   1.531   3.688   6.116  2.0237 -1.4440  1.2374
 5556SOL    HW228131   1.612   3.595   6.028 -0.8603  0.4523 -4.2453
 5557SOL     OW28132   4.553   1.984  13.237 -0.0647 -0.4415 -0.4133
 5557SOL    HW128133   4.560   1.946  13.325  0.4675 -0.1065 -0.3142
 5557SOL    HW228134   4.533   2.075  13.258 -1.0470 -0.6895 -0.2617
 5558SOL     OW28135   0.275   4.204   4.868  0.1779 -0.4328  0.2027
 5558SOL    HW128136   0.297   4.288   4.907 -2.8464  0.1523  0.6954
 5558SOL    HW228137   0.194   4.229   4.823 -0.2134 -1.0627  0.5493
 5559SOL     OW28138   2.329   4.001  13.192  0.1444 -0.6523 -0.5789
 5559SOL    HW128139   2.372   3.931  13.241 -0.5521 -0.8300 -0.2238
 5559SOL    HW228140   2.241   3.987  13.225  0.4977 -2.2985 -0.3076
 5560SOL     OW28141   1.595   4.673  12.632  0.0561 -0.7125 -0.4887
 5560SOL    HW128142   1.617   4.588  12.670 -1.3306  0.4969  3.0158
 5560SOL    HW228143   1.553   4.657  12.547 -0.5303 -0.0787 -0.3211
 5561SOL     OW28144   3.911   4.643   0.871 -0.3189 -0.0903 -0.3157
 5561SOL    HW128145   4.005   4.626   0.863 -0.2914  0.0067 -0.2149
 5561SOL    HW228146   3.904   0.004   0.832 -0.8043 -0.4029 -0.9236
 5562SOL     OW28147   3.837   2.175   1.922  0.4308  0.4013 -0.0837
 5562SOL    HW128148   3.814   2.220   1.841 -0.4371 -0.6353 -0.4136
 5562SOL    HW228149   3.915   2.228   1.938  2.0160 -0.8620 -3.5689
 5563SOL     OW28150   2.435   0.532   4.957 -0.4880 -0.4361 -0.4617
 5563SOL    HW128151   2.480   0.451   4.935  0.6810  0.3812 -1.1061
 5563SOL    HW228152   2.449   0.538   5.052  0.0607 -1.9039 -0.4477
 5564SOL     OW28153   2.607   0.349   1.917 -0.2543 -0.5151 -0.4303
 5564SOL    HW128154   2.582   0.286   1.849  0.8710 -2.9635  1.4104
 5564SOL    HW228155   2.566   0.423   1.872  3.0295  0.4879 -1.7292
 5565SOL     OW28156   0.395   0.772  14.088 -0.6649  0.2496  0.2267
 5565SOL    HW128157   0.356   0.795  14.003 -0.9013 -0.4482  0.1420
 5565SOL    HW228158   0.434   0.856  14.111 -0.3266 -0.2037  1.3123
 5566SOL     OW28159   1.734   4.130   7.468 -0.2171 -0.1980 -0.4979
 5566SOL    HW128160   1.823   4.100   7.451  1.0605  3.2720  0.0346
 5566SOL    HW228161   1.748   4.208   7.522 -0.1834 -0.2672 -0.4068
 5567SOL     OW28162   1.012   0.209   1.531  0.0390  0.2327  0.5538
 5567SOL    HW128163   1.032   0.117   1.514  0.6407  0.3269  0.7589
 5567SOL    HW228164   0.938   0.188   1.587 -0.7244  0.0364 -0.5127
 5568SOL     OW28165   3.567   3.461  11.454 -0.6597 -0.3197  0.2922
 5568SOL    HW128166   3.612   3.378  11.469  0.9589  0.2938 -1.1625
 5568SOL    HW228167   3.599   3.498  11.537 -0.7820 -0.6092  0.4705
 5569SOL     OW28168   2.140   3.380   6.195 -0.1763 -0.1985 -0.2819
 5569SOL    HW128169   2.096   3.461   6.222 -1.3465 -0.4367 -1.4974
 5569SOL    HW228170   2.216   3.413   6.146  1.0227 -0.7650  1.2027
 5570SOL     OW28171   3.109   3.512   5.033 -0.0581  0.2242  0.2084
 5570SOL    HW128172   3.115   3.440   5.097 -1.4058  0.3078  0.4359
 5570SOL    HW228173   3.175   3.489   4.968 -1.4310 -0.9884 -0.7320
 5571SOL     OW28174   3.928   0.528  16.957 -0.1795  0.1302  0.6002
 5571SOL    HW128175   3.894   0.567  17.038 -2.4825  0.7708 -0.6671
 5571SOL    HW228176   3.907   0.602  16.900 -2.9333 -2.4993 -1.8233
 5572SOL     OW28177   0.624   4.722   2.683  0.5962  0.5772  0.3410
 5572SOL    HW128178   0.567   4.720   2.760 -1.9009  2.1301 -1.4411
 5572SOL    HW228179   0.704   0.031   2.722  0.2074  0.4003  1.2947
 5573SOL     OW28180   1.298   0.854   8.802  0.0792 -0.1628  0.0781
 5573SOL    HW128181   1.382   0.869   8.846 -1.1662  0.7923  2.1002
 5573SOL    HW228182   1.265   0.774   8.843 -1.1630  0.0338 -0.5421
 5574SOL     OW28183   3.205   1.723   8.896  0.2576 -0.4445  0.2066
 5574SOL    HW128184   3.139   1.683   8.839  1.2626  1.0102 -1.9687
 5574SOL    HW228185   3.266   1.749   8.828  1.4930  0.0651  1.5061
 5575SOL     OW28186   0.621   3.911   0.078  0.2165  0.3316 -0.5486
 5575SOL    HW128187   0.669   3.841   0.034 -1.5765  0.0496 -2.0870
 5575SOL    HW228188   0.549   3.931   0.018  1.7333  3.1502 -1.4275
 5576SOL     OW28189   3.996   4.223   2.636  0.0630 -0.5981  0.3527
 5576SOL    HW128190   4.085   4.217   2.669 -0.6141 -1.1520  2.1063
 5576SOL    HW228191   4.001   4.317   2.618  1.7160 -0.2731  2.3936
 5577SOL     OW28192   2.753   2.685   5.971  0.6653  0.2685 -0.0414
 5577SOL    HW128193   2.802   2.634   5.906 -1.8083 -0.2798 -1.4944
 5577SOL    HW228194   2.781   2.771   5.941  0.9080 -0.0849 -0.8481
 5578SOL     OW28195   2.932   2.611   2.566  0.3014  0.0772  0.2690
 5578SOL    HW128196   2.967   2.606   2.477  2.1225  0.1556  0.9803
 5578SOL    HW228197   2.954   2.525   2.600 -4.0059 -0.5828  1.3210
 5579SOL     OW28198   1.711   4.028   8.173  0.0008  0.1556  0.4853
 5579SOL    HW128199   1.705   4.002   8.265 -0.0803  0.0368  0.4459
 5579SOL    HW228200   1.626   4.064   8.148 -0.0850  0.1932  0.8281
 5580SOL     OW28201   4.008   0.880   8.854 -0.1614 -0.2038 -0.5819
 5580SOL    HW128202   3.943   0.814   8.830  0.8278 -0.2793 -3.1252
 5580SOL    HW228203   4.053   0.833   8.924  0.5365  0.4106 -0.6180
 5581SOL     OW28204   1.861   4.448   3.369 -0.1050 -0.4045 -0.5252
 5581SOL    HW128205   1.909   4.529   3.352  1.4402 -1.3096 -0.5177
 5581SOL    HW228206   1.902   4.397   3.299  0.9171 -0.1516 -0.1058
 5582SOL     OW28207   4.544   4.205   0.910  0.0421  0.2089 -0.1686
 5582SOL    HW128208   4.510   4.186   0.997 -1.4782 -1.0683 -1.0391
 5582SOL    HW228209   4.529   4.299   0.898  0.1508  0.2438 -0.0320
 5583SOL     OW28210   3.122   4.635  14.221 -0.5376  0.0171  1.0676
 5583SOL    HW128211   3.030   4.660  14.206  0.0398  1.0748 -0.7148
 5583SOL    HW228212   3.144   4.584  14.144 -1.3291  1.5265 -0.1701
 5584SOL     OW28213   2.934   2.894   7.708 -0.0714 -0.2961  0.0896
 5584SOL    HW128214   2.840   2.879   7.717  0.3322 -2.9779 -0.0959
 5584SOL    HW228215   2.949   2.964   7.772  0.3799  0.4769 -0.8461
 5585SOL     OW28216   4.359   1.730   6.822  0.1448  0.3632  0.0297
 5585SOL    HW128217   4.433   1.784   6.850  0.6920  0.7027 -2.1208
 5585SOL    HW228218   4.309   1.810   6.809  1.8514  1.0293 -2.5149
 5586SOL     OW28219   4.494   4.470   0.888 -0.2588  0.0625  0.5236
 5586SOL    HW128220   4.458   4.514   0.965  0.0695  2.6092 -0.7761
 5586SOL    HW228221   4.579   4.515   0.887 -0.9202  1.2603 -0.3189
 5587SOL     OW28222   1.619   3.613  10.236  0.4238  0.1741  0.2250
 5587SOL    HW128223   1.712   3.594  10.252  0.8509  1.3885 -0.8594
 5587SOL    HW228224   1.635   3.692  10.185 -1.3622 -0.8569 -1.9186
 5588SOL     OW28225   1.851   3.523   6.786  0.1987  0.2140  0.9410
 5588SOL    HW128226   1.841   3.558   6.874 -0.1422  1.8151  0.2670
 5588SOL    HW228227   1.781   3.457   6.790  1.1629 -0.9347 -0.8751
 5589SOL     OW28228   1.628   1.086   6.403 -0.0070 -0.2745 -0.4973
 5589SOL    HW128229   1.683   1.164   6.395  0.1853 -0.3702 -0.0899
 5589SOL    HW228230   1.623   1.084   6.498  0.7341 -2.5698 -0.5190
 5590SOL     OW28231   2.906   1.078   7.436  0.6563  0.4492 -0.0063
 5590SOL    HW128232   2.885   1.147   7.373 -1.3775 -0.0087  0.1518
 5590SOL    HW228233   2.916   1.007   7.373  0.6397  1.3520 -1.0223
 5591SOL     OW28234   1.232   4.002   3.521  0.3199  0.0538 -0.0947
 5591SOL    HW128235   1.274   4.088   3.521 -0.2800  0.3403 -1.2230
 5591SOL    HW228236   1.170   4.008   3.594 -2.7282  1.5795 -2.7768
 5592SOL     OW28237   1.606   2.734   7.126  0.0691 -0.2761 -0.1798
 5592SOL    HW128238   1.600   2.639   7.114 -1.8142  0.1555 -2.7191
 5592SOL    HW228239   1.524   2.764   7.086  0.5229  3.0568  1.3687
 5593SOL     OW28240   4.520   3.443   2.341  0.2299  0.4220 -0.0765
 5593SOL    HW128241   4.616   3.440   2.338  0.2270 -1.3730  1.5054
 5593SOL    HW228242   4.510   3.506   2.413 -0.3475  0.0747  0.1489
 5594SOL     OW28243   4.084   3.935   3.463 -0.1486  0.4484 -0.1076
 5594SOL    HW128244   4.096   3.933   3.368  0.6076  1.7014 -0.0394
 5594SOL    HW228245   4.083   4.027   3.487 -3.6581  0.1325  0.9391
 5595SOL     OW28246   0.883   2.959   4.748 -0.2615  0.0625  0.1438
 5595SOL    HW128247   0.897   3.012   4.827 -0.1251  1.4153 -0.7674
 5595SOL    HW228248   0.901   3.028   4.683 -2.1009  0.4920  0.1039
 5596SOL     OW28249   3.432   2.879   3.988  0.5018 -0.2608 -0.1509
 5596SOL    HW128250   3.378   2.955   4.010  1.7888  0.0493  1.8615
 5596SOL    HW228251   3.513   2.906   4.032  1.1586 -0.7654 -1.0412
 5597SOL     OW28252   0.016   3.862   1.951 -0.0110 -0.0020  0.2622
 5597SOL    HW128253   4.687   3.894   1.880  0.4999 -2.1559 -1.1286
 5597SOL    HW228254   0.030   3.937   2.008  2.1025  0.8553 -1.3764
 5598SOL     OW28255   4.308   0.840  12.975  0.2145 -0.5330 -0.0881
 5598SOL    HW128256   4.271   0.753  12.987  1.4121 -1.0879 -0.4515
 5598SOL    HW228257   4.300   0.854  12.881  1.4484 -3.5224 -0.6044
 5599SOL     OW28258   0.179   3.239   4.350  0.0483 -0.6874  0.2592
 5599SOL    HW128259   0.117   3.180   4.308 -2.5913  1.7812  0.6803
 5599SOL    HW228260   0.119   3.276   4.415  0.0233 -1.0624  0.4536
 5600SOL     OW28261   0.720   4.502   6.441 -0.7044 -0.0889  0.6224
 5600SOL    HW128262   0.788   4.490   6.374  0.0084 -1.6642  1.6333
 5600SOL    HW228263   0.757   4.577   6.487 -1.8573 -1.0086  3.0335
 5601SOL     OW28264   0.827   1.716   2.880  0.2300  0.2003  0.1817
 5601SOL    HW128265   0.755   1.721   2.818 -0.8555 -0.7271  1.3652
 5601SOL    HW228266   0.895   1.759   2.829 -0.8466  2.3497  0.5581
 5602SOL     OW28267   3.095   2.804   4.300  0.4816 -0.3026  0.5252
 5602SOL    HW128268   3.025   2.818   4.363 -0.0548  3.8969 -1.0114
 5602SOL    HW228269   3.072   2.846   4.217 -0.1102  0.3466  1.0184
 5603SOL     OW28270   0.313   1.290   9.212 -0.3614 -0.3013 -0.3467
 5603SOL    HW128271   0.360   1.218   9.170 -0.6844 -2.0272  2.2219
 5603SOL    HW228272   0.245   1.238   9.257 -0.1213 -0.4025 -0.0993
 5604SOL     OW28273   1.413   4.030   6.915  0.5839 -0.0285 -0.4159
 5604SOL    HW128274   1.356   4.089   6.964 -0.1063 -1.0892  0.0731
 5604SOL    HW228275   1.500   4.033   6.954  0.6127  0.1291 -0.4941
 5605SOL     OW28276   2.793   3.811   3.968 -0.5293  0.1778  0.0248
 5605SOL    HW128277   2.751   3.880   4.020  0.6418  0.5093  0.5437
 5605SOL    HW228278   2.734   3.806   3.894 -0.1570  0.2157 -0.2757
 5606SOL     OW28279   1.969   4.236   2.145  0.2394 -0.1768  0.2329
 5606SOL    HW128280   1.962   4.262   2.053 -1.8677 -2.0892 -0.1322
 5606SOL    HW228281   2.006   4.148   2.139 -2.3909 -1.1921 -1.0041
 5607SOL     OW28282   4.350   3.130   2.894 -0.5475 -0.6757 -0.2975
 5607SOL    HW128283   4.303   3.051   2.868 -1.1859 -0.7747  1.1502
 5607SOL    HW228284   4.370   3.167   2.808  0.7343 -1.6787 -0.4314
 5608SOL     OW28285   3.279   3.762   5.330 -0.1039 -0.3368 -0.5720
 5608SOL    HW128286   3.370   3.737   5.314  0.7236  0.5665  2.7410
 5608SOL    HW228287   3.248   3.774   5.240 -1.9265  0.6425  0.1925
 5609SOL     OW28288   2.675   2.795   9.147 -0.0958 -0.2626  0.0050
 5609SOL    HW128289   2.705   2.732   9.212 -0.3599 -0.9422 -0.5359
 5609SOL    HW228290   2.585   2.770   9.125 -0.4422  0.0793  0.9953
 5610SOL     OW28291   1.572   0.947   7.967 -1.0310 -0.2290 -0.2919
 5610SOL    HW128292   1.524   0.971   8.046 -1.0594  0.6538 -0.5886
 5610SOL    HW228293   1.521   0.984   7.896 -2.6060 -1.3981  0.2391
 5611SOL     OW28294   1.073   4.003   5.766  0.3366 -0.1022 -0.4031
 5611SOL    HW128295   0.990   4.049   5.760 -0.2701 -1.0284  0.8183
 5611SOL    HW228296   1.098   4.023   5.856  1.1280 -0.6976 -0.4830
 5612SOL     OW28297   3.340   0.306  15.815 -0.2922 -0.0272 -0.7051
 5612SOL    HW128298   3.405   0.319  15.746 -1.7701 -0.7124 -2.2145
 5612SOL    HW228299   3.309   0.219  15.791  3.5727 -1.8693  0.9965
 5613SOL     OW28300   2.603   4.499   9.515 -0.4131  0.2277  0.0082
 5613SOL    HW128301   2.636   4.517   9.602  0.4457 -2.1103  0.1649
 5613SOL    HW228302   2.682   4.484   9.463 -0.3811 -0.4067  0.2436
 5614SOL     OW28303   3.777   2.619   5.624  0.1500 -0.1408 -0.1992
 5614SOL    HW128304   3.768   2.668   5.542 -2.1546 -0.1676  0.0367
 5614SOL    HW228305   3.707   2.662   5.673 -0.2140  0.4572 -1.2324
 5615SOL     OW28306   3.850   3.621   2.238 -0.4830  0.1860  0.0747
 5615SOL    HW128307   3.839   3.698   2.181  0.1923  0.1692 -0.0787
 5615SOL    HW228308   3.929   3.583   2.201 -0.5881  1.0619 -1.0795
 5616SOL     OW28309   3.611   0.984   3.410 -0.0887 -0.1890 -0.5090
 5616SOL    HW128310   3.533   0.939   3.445  0.0538 -0.1192 -0.0940
 5616SOL    HW228311   3.658   0.918   3.360 -0.4399 -1.8786  1.3884
 5617SOL     OW28312   1.481   0.887   4.176 -0.0142  0.3493  0.7714
 5617SOL    HW128313   1.569   0.879   4.140  0.4194 -0.8912  2.1474
 5617SOL    HW228314   1.470   0.982   4.181 -3.1104  0.1409 -1.5095
 5618SOL     OW28315   2.734   0.763   6.278  0.3338 -0.1408 -0.0499
 5618SOL    HW128316   2.707   0.672   6.270 -1.4595  0.2702  1.2565
 5618SOL    HW228317   2.826   0.761   6.303  0.7375 -0.6338 -1.6113
 5619SOL     OW28318   0.435   2.075   5.889  0.3682  0.1214 -0.3900
 5619SOL    HW128319   0.373   2.002   5.887  0.9328 -0.3622 -0.5945
 5619SOL    HW228320   0.510   2.036   5.843  1.0350 -1.2240  1.7976
 5620SOL     OW28321   2.894   1.216   1.465 -0.6974 -0.3902  0.0432
 5620SOL    HW128322   2.858   1.268   1.537 -0.6607 -0.6888  0.2765
 5620SOL    HW228323   2.823   1.243   1.406 -1.0348  0.3438  0.7824
 5621SOL     OW28324   1.168   0.793   4.295 -0.2562 -0.0513 -0.1020
 5621SOL    HW128325   1.194   0.809   4.204  0.8486  1.9762  0.5671
 5621SOL    HW228326   1.202   0.870   4.340 -2.1576  0.3956  0.5801
 5622SOL     OW28327   2.546   3.141   8.899 -0.7785  0.4646 -0.2204
 5622SOL    HW128328   2.588   3.187   8.972 -0.0902 -3.0412  1.6050
 5622SOL    HW228329   2.621   3.084   8.884 -0.9901 -0.3164  1.5893
 5623SOL     OW28330   3.846   1.423   2.064 -0.4466 -0.0194 -1.1401
 5623SOL    HW128331   3.819   1.405   1.974  0.1158  1.6558 -1.6233
 5623SOL    HW228332   3.917   1.485   2.047 -0.1263  0.5510  2.2121
 5624SOL     OW28333   2.786   2.301   0.535 -0.1824 -0.5992  0.6687
 5624SOL    HW128334   2.703   2.347   0.542  0.9569  1.2596  1.8852
 5624SOL    HW228335   2.772   2.253   0.453  1.5833 -1.9464  1.1587
 5625SOL     OW28336   2.368   0.162   6.235 -0.4461 -0.0779  0.0753
 5625SOL    HW128337   2.401   0.072   6.239  0.0070  0.0416 -0.9484
 5625SOL    HW228338   2.275   0.155   6.256 -0.3163 -0.4258  0.5410
 5626SOL     OW28339   1.168   0.353   8.464  0.2107 -0.0357  0.0423
 5626SOL    HW128340   1.232   0.411   8.504  1.4997 -0.3948 -1.5032
 5626SOL    HW228341   1.190   0.267   8.499  0.1769  0.4058  1.1433
 5627SOL     OW28342   0.613   1.617   5.438 -0.0760 -0.1899 -0.0477
 5627SOL    HW128343   0.565   1.685   5.390 -0.2824 -0.2985  0.0052
 5627SOL    HW228344   0.662   1.581   5.365 -0.0362  0.9731 -0.6041
 5628SOL     OW28345   1.067   4.453  12.113 -0.6227 -0.2888  0.1836
 5628SOL    HW128346   1.034   4.374  12.071  3.9336 -1.9379 -0.3039
 5628SOL    HW228347   1.067   4.425  12.205 -0.3865  0.8080  0.5153
 5629SOL     OW28348   0.856   4.622  16.231 -0.9274 -0.1058  0.2213
 5629SOL    HW128349   0.918   4.550  16.219  1.0199  1.3981  1.4476
 5629SOL    HW228350   0.910   4.699  16.216  0.8170 -0.9960  1.9919
 5630SOL     OW28351   4.475   2.252  12.827 -0.3315 -0.6240 -0.8739
 5630SOL    HW128352   4.547   2.205  12.869  0.0543 -0.0312 -0.8755
 5630SOL    HW228353   4.522   2.322  12.782  0.9310 -0.4179  0.7572
 5631SOL     OW28354   2.085   0.226   4.621 -0.3307 -0.2059 -0.5235
 5631SOL    HW128355   2.149   0.296   4.609  0.3078 -0.7453 -0.2719
 5631SOL    HW228356   2.081   0.238   4.716  1.7258 -1.3686 -0.3006
 5632SOL     OW28357   0.100   2.575   3.750 -0.7780  0.0190 -0.3809
 5632SOL    HW128358   0.089   2.522   3.829 -0.1891 -0.1665 -0.4210
 5632SOL    HW228359   0.191   2.603   3.759 -0.1106 -2.2977  0.0197
 5633SOL     OW28360   2.860   0.144   8.820  0.0740  0.6612  0.6991
 5633SOL    HW128361   2.880   0.232   8.853 -1.5997  1.6815 -1.0537
 5633SOL    HW228362   2.926   0.086   8.859  0.4127  1.7400  1.7184
 5634SOL     OW28363   2.528   0.864   7.924  0.0485 -0.2978  0.1847
 5634SOL    HW128364   2.598   0.881   7.988 -1.8615 -3.0481  2.9790
 5634SOL    HW228365   2.488   0.951   7.922 -1.8737 -1.1707  1.3246
 5635SOL     OW28366   4.638   2.310   0.459  0.9829  0.3096  0.7433
 5635SOL    HW128367   4.680   2.310   0.545 -0.7647 -1.1318  1.5835
 5635SOL    HW228368   4.548   2.300   0.490  1.0125 -0.9266  0.4570
 5636SOL     OW28369   2.385   0.360   1.567  0.2834  0.2712 -0.1865
 5636SOL    HW128370   2.478   0.343   1.559  0.7859  1.5594  2.7103
 5636SOL    HW228371   2.359   0.372   1.476  2.0949 -0.2170 -0.7551
 5637SOL     OW28372   1.862   2.379   4.170  0.5628 -0.2391  0.0238
 5637SOL    HW128373   1.868   2.360   4.076 -1.3108  0.6344 -0.2590
 5637SOL    HW228374   1.956   2.396   4.172  0.4407  0.3168  1.1399
 5638SOL     OW28375   1.135   0.116   9.592  0.0548  0.3544 -0.0626
 5638SOL    HW128376   1.181   0.131   9.675 -3.9307 -1.2339  2.4096
 5638SOL    HW228377   1.113   0.023   9.600  0.1353  0.5095  2.0710
 5639SOL     OW28378   1.413   2.497   8.191  0.1047 -0.6947  0.3569
 5639SOL    HW128379   1.332   2.466   8.233  0.3066 -0.7516  0.6962
 5639SOL    HW228380   1.429   2.410   8.154 -1.8603  0.1521 -2.5457
 5640SOL     OW28381   3.858   3.795   2.026  0.4279 -0.1915 -0.8417
 5640SOL    HW128382   3.932   3.849   1.999  1.7277 -1.0880  0.9209
 5640SOL    HW228383   3.833   3.752   1.944 -1.0396 -0.0984 -0.4456
 5641SOL     OW28384   3.547   2.025   6.647 -0.0102 -0.1803 -0.3251
 5641SOL    HW128385   3.522   2.068   6.729 -0.8011  0.0628 -0.6987
 5641SOL    HW228386   3.590   1.946   6.680 -0.1734  0.2089  0.8205
 5642SOL     OW28387   2.262   3.505   0.923 -0.0226 -0.0173 -0.1338
 5642SOL    HW128388   2.303   3.521   1.008  1.8534  0.1005 -1.0405
 5642SOL    HW228389   2.173   3.537   0.936 -0.1296 -0.4302  0.1573
 5643SOL     OW28390   0.812   3.262  14.269 -0.0139  0.0149 -0.0766
 5643SOL    HW128391   0.825   3.333  14.332 -0.0567 -0.0531  0.0090
 5643SOL    HW228392   0.865   3.193  14.310  1.5730  0.8157 -0.7502
 5644SOL     OW28393   2.587   1.105   4.120 -0.0730 -0.6408 -0.2554
 5644SOL    HW128394   2.678   1.113   4.150 -0.2253  2.1944 -0.5479
 5644SOL    HW228395   2.596   1.119   4.026 -0.4472  0.4924 -0.1187
 5645SOL     OW28396   0.889   2.553   0.171  0.4208 -0.2586 -0.0284
 5645SOL    HW128397   0.984   2.564   0.168  0.4820 -0.5461  0.7067
 5645SOL    HW228398   0.886   2.516   0.260  1.5073  1.8047  0.8591
 5646SOL     OW28399   1.839   0.747   6.798 -0.0179 -0.5908 -0.3467
 5646SOL    HW128400   1.871   0.789   6.718  0.6091  0.0654  0.2598
 5646SOL    HW228401   1.907   0.681   6.809  1.0088  0.3795 -0.8516
 5647SOL     OW28402   4.520   0.377  12.233 -0.3240 -0.0589 -0.4312
 5647SOL    HW128403   4.605   0.414  12.209 -1.1980  2.0431 -0.2984
 5647SOL    HW228404   4.542   0.293  12.272  1.3482  0.0117 -1.2357
 5648SOL     OW28405   3.229   2.415   5.054 -0.2498  0.3228 -0.3441
 5648SOL    HW128406   3.265   2.330   5.029  0.2827  0.5569 -0.3644
 5648SOL    HW228407   3.306   2.471   5.046  0.2370 -0.1183  1.2261
 5649SOL     OW28408   3.956   1.219   7.305 -0.1040  0.3555  0.0129
 5649SOL    HW128409   3.995   1.171   7.378  1.3933 -0.4043 -1.2759
 5649SOL    HW228410   4.038   1.249   7.266  0.4544 -1.1522  0.0393
 5650SOL     OW28411   0.635   4.610   4.975  0.0111 -0.4048  0.0944
 5650SOL    HW128412   0.663   4.686   4.924  0.0914 -1.4690 -1.4623
 5650SOL    HW228413   0.659   4.643   5.061 -0.6903 -0.0011  0.1319
 5651SOL     OW28414   4.167   0.854   1.974 -0.4164  0.4609  0.2064
 5651SOL    HW128415   4.152   0.762   1.997 -0.2274 -0.0247 -1.5952
 5651SOL    HW228416   4.077   0.883   1.959 -0.8896 -0.9949  0.2389
 5652SOL     OW28417   1.909   1.136   5.509 -0.1342 -0.2704 -0.2766
 5652SOL    HW128418   1.815   1.150   5.511  0.1711  1.7859  0.1621
 5652SOL    HW228419   1.940   1.210   5.457  0.6731 -0.2610  0.2080
 5653SOL     OW28420   3.433   3.845  11.176 -0.1803  0.3323 -0.0691
 5653SOL    HW128421   3.490   3.767  11.173 -0.4643  0.1782 -1.4647
 5653SOL    HW228422   3.446   3.875  11.086  1.8093  2.5542  0.9451
 5654SOL     OW28423   1.732   2.488   0.979  0.5382 -0.2955 -0.1665
 5654SOL    HW128424   1.666   2.557   0.977  0.8695  0.0323  0.5074
 5654SOL    HW228425   1.675   2.411   0.968 -0.3847  0.7938 -2.9608
 5655SOL     OW28426   1.627   0.387  15.261  0.5941  0.2802 -0.1686
 5655SOL    HW128427   1.625   0.437  15.179  2.3815  0.7461  0.0844
 5655SOL    HW228428   1.608   0.302  15.221  1.8191 -0.6086  1.1735
 5656SOL     OW28429   2.661   0.118   0.860 -0.0283  0.3589 -0.0889
 5656SOL    HW128430   2.599   0.068   0.807  1.6211  0.6088 -2.2477
 5656SOL    HW228431   2.747   0.095   0.825  0.1787 -0.3987  0.9331
 5657SOL     OW28432   0.960   3.858   4.214 -0.5140  0.1628  0.4637
 5657SOL    HW128433   1.003   3.901   4.140  1.6667 -3.1148 -0.1591
 5657SOL    HW228434   0.867   3.871   4.195  0.0330 -2.3709 -3.8383
 5658SOL     OW28435   2.645   4.643   4.161 -0.1958  0.2784  0.6752
 5658SOL    HW128436   2.634   4.549   4.178 -1.5986  0.3875  0.3187
 5658SOL    HW228437   2.646   4.682   4.248 -1.1714  2.0809 -0.1359
 5659SOL     OW28438   4.210   1.091   2.816  0.3467 -0.0264 -0.0238
 5659SOL    HW128439   4.256   1.139   2.747  1.0738 -1.0470 -0.2604
 5659SOL    HW228440   4.216   1.154   2.887  2.2192  1.6424 -1.6626
 5660SOL     OW28441   1.372   1.503  10.582  0.3026  0.0388 -0.3900
 5660SOL    HW128442   1.288   1.520  10.539  0.7629 -0.0253 -1.3190
 5660SOL    HW228443   1.377   1.578  10.642  1.3192 -0.8598  0.6404
 5661SOL     OW28444   4.438   1.914   1.955 -0.0440  0.5331  0.8221
 5661SOL    HW128445   4.442   1.961   1.872  0.2918 -0.0551  0.5093
 5661SOL    HW228446   4.530   1.893   1.969 -0.5417 -1.3802  1.2810
 5662SOL     OW28447   4.564   0.951   1.483  0.0891  0.1237  0.2294
 5662SOL    HW128448   4.656   0.968   1.503  1.0023 -1.7493 -2.3035
 5662SOL    HW228449   4.571   0.929   1.390 -2.6237  0.8893 -0.1679
 5663SOL     OW28450   4.326   0.711   4.983  0.1235  0.3012 -0.1053
 5663SOL    HW128451   4.358   0.620   4.981 -5.5210 -1.6961 -0.9973
 5663SOL    HW228452   4.245   0.699   5.033  0.7742 -0.5605  0.7560
 5664SOL     OW28453   2.974   3.927   3.099 -0.1734  0.1826 -0.4780
 5664SOL    HW128454   2.943   3.850   3.053  0.5260 -1.5007  1.8579
 5664SOL    HW228455   2.894   3.979   3.102  1.2714  2.3299  0.7785
 5665SOL     OW28456   3.495   2.101  15.723  0.5677  0.3405 -0.1621
 5665SOL    HW128457   3.536   2.111  15.637 -0.7522 -2.2200 -1.0934
 5665SOL    HW228458   3.406   2.082  15.695  1.2295 -1.4037 -1.1354
 5666SOL     OW28459   4.229   4.177   2.804 -0.0577  0.3298  0.0669
 5666SOL    HW128460   4.202   4.211   2.889 -0.5830  0.6076 -0.2154
 5666SOL    HW228461   4.325   4.174   2.812  0.3119 -0.1431 -4.2400
 5667SOL     OW28462   3.053   1.982   8.381  0.3308 -0.3573 -0.0814
 5667SOL    HW128463   3.139   1.947   8.405  0.1126  0.5768  2.0335
 5667SOL    HW228464   3.003   1.901   8.367 -1.1679  0.7517 -1.0390
 5668SOL     OW28465   3.224   4.472  14.010  0.2591 -0.1736 -0.1229
 5668SOL    HW128466   3.212   4.425  13.927 -0.9252 -1.5640  0.8305
 5668SOL    HW228467   3.209   4.399  14.070  0.6081 -0.7948 -0.7883
 5669SOL     OW28468   3.345   0.357  12.719 -0.4624 -0.2210  0.1917
 5669SOL    HW128469   3.271   0.387  12.667 -0.5374 -2.1316 -0.8201
 5669SOL    HW228470   3.301   0.342  12.802  0.7441  1.3379  1.1154
 5670SOL     OW28471   2.641   0.839   4.960  0.3412 -0.0755  0.5073
 5670SOL    HW128472   2.715   0.850   4.901  0.1179  3.4183  0.8741
 5670SOL    HW228473   2.579   0.828   4.888  0.3089  0.6247  0.4281
 5671SOL     OW28474   2.838   2.739  16.544 -0.0252  0.1964  0.3726
 5671SOL    HW128475   2.772   2.807  16.529 -1.2988 -1.5523 -1.8779
 5671SOL    HW228476   2.820   2.675  16.475  1.2153  0.5294 -0.2638
 5672SOL     OW28477   2.847   1.484   8.810 -0.4801  0.2903  0.0112
 5672SOL    HW128478   2.908   1.496   8.737 -1.4851 -0.8800 -1.0051
 5672SOL    HW228479   2.863   1.555   8.872  1.9765 -0.8919  0.7446
 5673SOL     OW28480   1.567   4.462   8.863  0.2141 -0.3824 -0.5455
 5673SOL    HW128481   1.588   4.555   8.866  0.6956 -0.4774 -1.1005
 5673SOL    HW228482   1.488   4.459   8.809 -0.8867 -1.0614  1.0716
 5674SOL     OW28483   2.167   3.991   7.142 -0.0934  0.0182  0.0830
 5674SOL    HW128484   2.183   3.984   7.236  0.8969 -1.7482 -0.2137
 5674SOL    HW228485   2.257   4.004   7.111  0.2454 -1.0205  0.6026
 5675SOL     OW28486   2.506   3.212   3.535  0.7058 -0.0206  0.0437
 5675SOL    HW128487   2.439   3.279   3.534  0.8351  0.0778 -1.2088
 5675SOL    HW228488   2.564   3.236   3.463  1.1652  0.5360  0.5986
 5676SOL     OW28489   3.337   3.637   0.589  0.0976  0.3728 -0.4516
 5676SOL    HW128490   3.385   3.554   0.594 -1.2528 -0.4915 -2.2047
 5676SOL    HW228491   3.406   3.703   0.577  0.3680  0.0382 -0.7518
 5677SOL     OW28492   2.980   1.253   8.995 -0.6067 -0.5871 -0.3889
 5677SOL    HW128493   3.074   1.247   9.015 -0.8035  0.6704  0.9791
 5677SOL    HW228494   2.985   1.321   8.928  0.0750 -1.4010 -1.1560
 5678SOL     OW28495   4.126   1.684   8.857  0.1859 -0.4687  0.0834
 5678SOL    HW128496   4.066   1.643   8.920  1.0762 -0.1523  1.1252
 5678SOL    HW228497   4.078   1.694   8.774  0.0005 -1.6210  0.0410
 5679SOL     OW28498   3.466   1.246   2.069 -0.0783  0.5431  0.2744
 5679SOL    HW128499   3.548   1.212   2.106 -0.6773 -1.2205 -0.0499
 5679SOL    HW228500   3.398   1.228   2.133 -1.4736  0.4996 -1.2337
 5680SOL     OW28501   3.819   3.512   0.595 -0.5584 -0.6224  0.5515
 5680SOL    HW128502   3.799   3.483   0.506 -0.9359  0.7353  0.1972
 5680SOL    HW228503   3.911   3.487   0.601 -0.6954 -1.2197  0.1990
 5681SOL     OW28504   0.948   1.233  15.958  0.7534 -0.2827  0.2800
 5681SOL    HW128505   1.037   1.262  15.979  0.5422  1.5779 -1.3942
 5681SOL    HW228506   0.972   1.152  15.914  0.7014 -0.5489  0.7464
 5682SOL     OW28507   3.312   4.708   5.085 -0.0511  0.0947 -0.1195
 5682SOL    HW128508   3.286   0.005   4.996 -2.3861  0.8637  0.7804
 5682SOL    HW228509   3.407   4.720   5.083 -0.4583  3.2692  0.6390
 5683SOL     OW28510   4.408   2.439   7.710 -0.3470 -0.0526 -0.5413
 5683SOL    HW128511   4.469   2.370   7.735 -2.7425 -2.4524 -1.3583
 5683SOL    HW228512   4.377   2.415   7.622  1.8870 -0.2757 -1.2623
 5684SOL     OW28513   2.190   2.822   6.965  0.0151 -0.0382 -0.5843
 5684SOL    HW128514   2.154   2.903   6.931  1.1120  0.5446 -0.3406
 5684SOL    HW228515   2.274   2.847   7.003 -1.0969 -1.1960  2.6522
 5685SOL     OW28516   2.757   0.401   0.475  0.1445  0.6148  0.5019
 5685SOL    HW128517   2.708   0.377   0.554  0.4439  2.2282  1.1568
 5685SOL    HW228518   2.805   0.475   0.512 -0.6879  1.8896 -0.9610
 5686SOL     OW28519   0.010   1.514  11.810  0.8374 -0.0174 -0.2885
 5686SOL    HW128520   0.102   1.542  11.815  1.0729 -1.1005  1.3653
 5686SOL    HW228521   4.711   1.536  11.720 -1.8005  1.9485  0.9725
 5687SOL     OW28522   1.527   4.159   4.030  0.0148 -0.3941  0.1221
 5687SOL    HW128523   1.589   4.225   3.998  0.0025 -0.2875  0.3132
 5687SOL    HW228524   1.458   4.162   3.964  1.2755 -1.2988 -1.2465
 5688SOL     OW28525   2.251   4.503  17.396 -0.2752 -0.1658  0.1840
 5688SOL    HW128526   2.314   4.443  17.355  0.3543  1.7277 -1.6044
 5688SOL    HW228527   2.221   4.553  17.321  1.2561  0.8587  0.2601
 5689SOL     OW28528   1.946   2.451   8.441 -0.3285 -0.0011 -0.1924
 5689SOL    HW128529   1.991   2.520   8.393 -1.6985 -0.4125 -2.0716
 5689SOL    HW228530   1.970   2.385   8.376 -1.2336 -0.1062 -0.4151
 5690SOL     OW28531   2.515   4.473  13.877 -0.2718  0.0712 -1.1009
 5690SOL    HW128532   2.518   4.480  13.782 -0.3087  1.5404 -0.9867
 5690SOL    HW228533   2.509   4.377  13.881  0.6018  0.0382 -0.6479
 5691SOL     OW28534   1.655   4.106  14.888  0.0770  0.5389  0.3196
 5691SOL    HW128535   1.677   4.159  14.812 -1.4509  1.4383  0.5033
 5691SOL    HW228536   1.562   4.087  14.874  0.9596 -1.9651 -2.1037
 5692SOL     OW28537   0.620   3.760  11.461  0.3373 -0.5742 -0.2981
 5692SOL    HW128538   0.702   3.776  11.413  0.1930 -1.1989 -0.7600
 5692SOL    HW228539   0.623   3.664  11.463  0.0590 -0.6499 -3.5022
 5693SOL     OW28540   2.542   4.686  14.417  0.1455 -0.1841  0.2613
 5693SOL    HW128541   2.530   4.597  14.449 -1.1313  0.3027  1.1338
 5693SOL    HW228542   2.471   4.702  14.355  1.2636 -0.5167 -1.0950
 5694SOL     OW28543   2.179   2.158  13.539  0.0330 -0.2079 -0.6866
 5694SOL    HW128544   2.223   2.077  13.513 -1.7360 -1.3073 -0.2897
 5694SOL    HW228545   2.112   2.128  13.600  1.1990  0.3472  0.8730
 5695SOL     OW28546   0.277   4.623   6.408 -0.3159  0.2285  0.0567
 5695SOL    HW128547   0.278   4.530   6.430 -2.1150  1.3324  4.7202
 5695SOL    HW228548   0.271   4.664   6.494 -0.4690 -0.1501  0.2259
 5696SOL     OW28549   4.307   1.616   7.339  0.3945  0.0109  0.4501
 5696SOL    HW128550   4.217   1.623   7.308  0.6037  1.2287  0.1115
 5696SOL    HW228551   4.343   1.696   7.299  2.2708 -1.1566 -0.1917
 5697SOL     OW28552   0.436   1.968   9.078  0.1333 -0.0374 -0.2656
 5697SOL    HW128553   0.432   1.898   9.143  0.0579 -0.0840 -0.3198
 5697SOL    HW228554   0.344   1.994   9.075  0.2348  0.5159  1.4233
 5698SOL     OW28555   3.695   1.155   7.953 -0.1199  0.1467  0.4414
 5698SOL    HW128556   3.771   1.098   7.940 -0.2571  0.0063  0.2538
 5698SOL    HW228557   3.623   1.095   7.975 -0.4183 -0.4381 -2.1222
 5699SOL     OW28558   1.063   0.551   4.416 -0.0748  0.2616 -0.3864
 5699SOL    HW128559   1.067   0.641   4.383  0.8992  0.4309  0.1917
 5699SOL    HW228560   1.155   0.527   4.421  0.5104  3.1761  2.6956
 5700SOL     OW28561   0.931   2.378   4.765  0.0329 -0.4850  0.3275
 5700SOL    HW128562   0.870   2.313   4.729 -0.6985  0.9426 -0.9757
 5700SOL    HW228563   0.904   2.462   4.729 -0.4966  0.5159  3.0580
 5701SOL     OW28564   3.098   2.063   9.778 -0.0035  0.4038 -0.5214
 5701SOL    HW128565   3.157   2.019   9.839  1.0511  2.5769 -0.0063
 5701SOL    HW228566   3.031   1.995   9.765 -0.5290  0.2500  3.0837
 5702SOL     OW28567   3.050   4.353   1.064 -0.4255  0.0096  0.5808
 5702SOL    HW128568   3.103   4.368   0.986 -1.0039 -0.8585  0.0191
 5702SOL    HW228569   3.024   4.262   1.052 -0.7594  0.3500 -1.3961
 5703SOL     OW28570   2.057   2.564   9.157 -0.1042 -0.1312 -0.0735
 5703SOL    HW128571   2.152   2.571   9.153 -0.3199  1.0444 -2.7411
 5703SOL    HW228572   2.037   2.642   9.208 -2.5227 -0.7098 -0.1102
 5704SOL     OW28573   4.272   4.439   1.916 -0.5105  0.0406  0.4223
 5704SOL    HW128574   4.183   4.461   1.887 -0.4778  0.3394  0.5494
 5704SOL    HW228575   4.302   4.412   1.829 -1.1373 -0.6060  0.4036
 5705SOL     OW28576   4.448   0.952   9.815  0.2062  0.9321  0.2341
 5705SOL    HW128577   4.519   0.950   9.879  1.7506  5.0796 -1.2917
 5705SOL    HW228578   4.496   0.901   9.750  0.1260 -0.4370  1.2584
 5706SOL     OW28579   2.669   0.767   5.642  0.0028  0.4932  0.5345
 5706SOL    HW128580   2.730   0.839   5.624  0.2951 -0.1618 -1.0714
 5706SOL    HW228581   2.600   0.778   5.577  1.3484 -1.3646 -1.1916
 5707SOL     OW28582   4.691   3.507  14.388 -0.2093  0.0571  0.5345
 5707SOL    HW128583   4.626   3.445  14.421 -0.6154  0.5939  0.7499
 5707SOL    HW228584   0.006   3.538  14.469  0.6431  0.8475 -0.1978
 5708SOL     OW28585   2.890   1.302   2.099  0.3473  0.5047  0.0205
 5708SOL    HW128586   2.909   1.375   2.157 -0.7448  0.3797  0.5338
 5708SOL    HW228587   2.809   1.279   2.145  0.1730 -0.8288 -0.9211
 5709SOL     OW28588   2.393   0.962   5.684  0.2540  0.7526  0.2322
 5709SOL    HW128589   2.456   1.031   5.665 -0.8493  1.7421  0.1727
 5709SOL    HW228590   2.328   1.006   5.738 -1.0320 -0.9796  0.0933
 5710SOL     OW28591   0.733   3.258   8.019 -0.2501 -0.4467 -0.1939
 5710SOL    HW128592   0.682   3.240   8.098  0.2040  2.5929  0.8211
 5710SOL    HW228593   0.769   3.342   8.051  0.3963 -0.4691 -0.8456
 5711SOL     OW28594   3.972   0.393   3.553 -0.1938  0.3723 -0.3427
 5711SOL    HW128595   4.001   0.308   3.585  0.6245  0.9591  0.4800
 5711SOL    HW228596   4.044   0.446   3.587  0.6693 -1.3122  0.4701
 5712SOL     OW28597   1.731   2.866   9.314 -0.5441 -0.2472 -0.6562
 5712SOL    HW128598   1.694   2.788   9.272 -1.9247  0.7948 -1.3816
 5712SOL    HW228599   1.820   2.836   9.334  0.2154  1.0982 -1.9670
 5713SOL     OW28600   0.177   4.042  11.637 -0.6953 -0.1919 -0.6028
 5713SOL    HW128601   0.190   4.123  11.686 -1.8412 -0.7216  0.5742
 5713SOL    HW228602   0.112   4.005  11.697 -1.1627 -0.4249 -1.2536
 5714SOL     OW28603   4.671   2.065   0.020 -0.3760 -0.4692  0.0575
 5714SOL    HW128604   0.001   2.096   0.090 -2.5691  2.0503  0.6680
 5714SOL    HW228605   4.705   1.975   0.015 -0.1687 -0.3999  0.1983
 5715SOL     OW28606   3.134   4.571   7.405 -0.0131 -0.0179 -0.9461
 5715SOL    HW128607   3.129   4.652   7.354 -0.3230  0.2625 -0.4699
 5715SOL    HW228608   3.167   4.599   7.490  0.3747 -1.3479 -0.6646
 5716SOL     OW28609   1.362   1.539   6.465  0.3942  0.0936 -0.3987
 5716SOL    HW128610   1.299   1.477   6.503  1.5920 -0.8864 -0.0067
 5716SOL    HW228611   1.337   1.539   6.373 -0.9545 -1.0440 -0.0285
 5717SOL     OW28612   0.604   2.248   6.673  0.3308 -0.3924 -0.1337
 5717SOL    HW128613   0.583   2.170   6.725  1.4756  0.7297  2.0179
 5717SOL    HW228614   0.548   2.234   6.597  2.2942 -0.6690 -1.5322
 5718SOL     OW28615   1.197   3.829   6.195  0.1018  0.4155  0.7313
 5718SOL    HW128616   1.292   3.835   6.184 -0.1659  3.0755 -0.2258
 5718SOL    HW228617   1.183   3.849   6.287  1.2465 -0.3475  1.0737
 5719SOL     OW28618   1.613   3.253   2.806 -0.3562 -0.1849  0.0340
 5719SOL    HW128619   1.530   3.238   2.851  0.4954 -1.7709  1.0623
 5719SOL    HW228620   1.585   3.272   2.717 -0.1074  0.1403  0.0246
 5720SOL     OW28621   4.228   0.116   1.945  0.1308 -0.0315 -0.3709
 5720SOL    HW128622   4.146   0.076   1.972 -0.6668  0.3214 -2.2814
 5720SOL    HW228623   4.288   0.065   1.998  0.9631  1.4903  0.1585
 5721SOL     OW28624   2.957   0.166   7.411 -0.8063  0.1337 -0.5670
 5721SOL    HW128625   2.892   0.100   7.434 -1.8517  1.8745  1.4443
 5721SOL    HW228626   3.012   0.123   7.345  2.1834 -0.1053  2.0976
 5722SOL     OW28627   2.931   3.726   2.897  0.0487 -0.1235 -0.2878
 5722SOL    HW128628   2.909   3.639   2.864  0.9842 -1.2058  1.9697
 5722SOL    HW228629   2.993   3.748   2.826  0.0410 -0.9805 -0.5546
 5723SOL     OW28630   1.434   1.060   5.371 -0.2753 -0.0525 -0.2176
 5723SOL    HW128631   1.371   1.018   5.430 -1.3416 -0.4106 -1.5918
 5723SOL    HW228632   1.436   1.014   5.287 -2.4862  0.5257 -0.6083
 5724SOL     OW28633   1.667   4.290   8.544  0.0701  0.2085  0.0876
 5724SOL    HW128634   1.603   4.250   8.484 -1.0162  1.9933  0.0520
 5724SOL    HW228635   1.648   4.383   8.533 -1.4421  0.1474  2.2160
 5725SOL     OW28636   4.472   1.137   5.721 -0.0382 -0.0082  0.4494
 5725SOL    HW128637   4.553   1.160   5.674  0.3074  0.9223  1.5170
 5725SOL    HW228638   4.488   1.186   5.801 -0.7399  1.0075 -0.0239
 5726SOL     OW28639   3.342   2.949  16.105 -0.0678  0.5098  0.5458
 5726SOL    HW128640   3.298   2.995  16.177 -0.0784  0.2772  0.6889
 5726SOL    HW228641   3.279   2.971  16.036  0.1451 -0.6689 -0.0285
 5727SOL     OW28642   3.810   0.923  13.578 -0.1882  0.1317  0.0020
 5727SOL    HW128643   3.772   0.973  13.505  0.6701  1.2683  0.3284
 5727SOL    HW228644   3.832   0.992  13.641  1.3624  0.0107 -0.4196
 5728SOL     OW28645   2.285   3.041   4.598 -0.5514  0.0713 -0.0975
 5728SOL    HW128646   2.257   3.011   4.685 -0.7637  0.9597  0.1468
 5728SOL    HW228647   2.234   2.981   4.545  2.5389 -1.2833 -1.5576
 5729SOL     OW28648   4.033   0.386  16.498  0.1025  0.6869  0.1542
 5729SOL    HW128649   4.087   0.394  16.577  0.5308  1.9055 -0.2535
 5729SOL    HW228650   3.954   0.387  16.551 -0.3870 -0.3441 -0.5580
 5730SOL     OW28651   2.141   2.562  15.504 -0.9591 -0.1971  0.6687
 5730SOL    HW128652   2.070   2.522  15.553  0.4829 -1.5876  1.6332
 5730SOL    HW228653   2.124   2.643  15.552 -1.8011  1.4122 -2.3582
 5731SOL     OW28654   0.051   4.707  10.968  0.2902 -0.4905 -0.7869
 5731SOL    HW128655   0.082   4.710  11.058  0.6922 -2.8301 -0.8404
 5731SOL    HW228656   0.057   0.074  10.947 -1.0532 -0.2397 -0.0462
 5732SOL     OW28657   4.278   1.107   8.846 -0.3612 -0.6760 -0.0297
 5732SOL    HW128658   4.367   1.078   8.866  0.1151  0.7526 -0.0821
 5732SOL    HW228659   4.279   1.177   8.912 -1.1926 -0.0374 -0.7085
 5733SOL     OW28660   1.912   0.506  11.749 -0.2028 -0.1613 -0.1059
 5733SOL    HW128661   1.988   0.533  11.697 -1.1479  2.9416  0.1093
 5733SOL    HW228662   1.853   0.579  11.731  1.0270  1.2261  1.4478
 5734SOL     OW28663   3.447   0.700  11.541 -0.1828  0.4045 -0.1752
 5734SOL    HW128664   3.441   0.632  11.474  0.7619  1.1177 -0.9788
 5734SOL    HW228665   3.500   0.765  11.495 -1.9351  1.3327 -0.8915
 5735SOL     OW28666   3.699   4.105   3.308 -0.0657  0.1079  0.0951
 5735SOL    HW128667   3.606   4.083   3.302  0.3187 -1.5978  0.4597
 5735SOL    HW228668   3.720   4.034   3.369  0.4412  1.4917  1.5260
 5736SOL     OW28669   0.248   3.373   2.169 -0.3081  0.0449 -0.5553
 5736SOL    HW128670   0.309   3.375   2.243  0.6321 -1.5427 -1.2842
 5736SOL    HW228671   0.214   3.463   2.171 -2.5582 -0.8812  2.0598
 5737SOL     OW28672   1.321   4.421   3.121  0.1635  0.2503 -0.4918
 5737SOL    HW128673   1.283   4.508   3.112  3.1824  1.5251 -1.1497
 5737SOL    HW228674   1.407   4.426   3.078 -0.1528  1.4410 -0.9757
 5738SOL     OW28675   0.871   1.580   6.770  0.4177 -0.2271  0.1144
 5738SOL    HW128676   0.838   1.649   6.712  1.6625 -0.4443 -0.8384
 5738SOL    HW228677   0.856   1.498   6.723  0.9265  0.7021 -1.6429
 5739SOL     OW28678   1.414   1.260   9.652 -0.3221  0.0619 -0.3871
 5739SOL    HW128679   1.447   1.269   9.562 -0.9093  0.6565 -0.5441
 5739SOL    HW228680   1.411   1.165   9.662  1.0298  0.2534  1.7378
 5740SOL     OW28681   1.045   1.916   3.435  0.1992 -0.3457 -0.0359
 5740SOL    HW128682   0.958   1.938   3.400  0.1739  0.6752  0.6580
 5740SOL    HW228683   1.095   1.960   3.366  0.9686 -0.1609  0.6441
 5741SOL     OW28684   0.774   1.340  14.916  0.1360  0.0036  0.9262
 5741SOL    HW128685   0.834   1.409  14.887  1.2791 -1.2240  0.3749
 5741SOL    HW228686   0.806   1.334  15.006 -0.7713  1.6699  1.3530
 5742SOL     OW28687   1.402   3.765   8.567  0.1725 -0.1106 -0.1324
 5742SOL    HW128688   1.447   3.689   8.603 -1.3062 -2.3802 -3.1278
 5742SOL    HW228689   1.418   3.747   8.475 -2.9389 -1.4310 -0.4031
 5743SOL     OW28690   0.682   3.352  17.651  0.6256  0.0912 -0.4651
 5743SOL    HW128691   0.647   3.270  17.616 -1.1601 -0.2185  1.9581
 5743SOL    HW228692   0.735   3.367  17.573  1.3243  0.8095  0.1515
 5744SOL     OW28693   4.255   3.436   5.615 -0.1038  0.2094  0.1850
 5744SOL    HW128694   4.197   3.402   5.547 -1.1941 -0.5424  1.4947
 5744SOL    HW228695   4.294   3.512   5.571 -1.0973  0.5859 -0.0523
 5745SOL     OW28696   3.787   3.515  10.746  0.3632 -0.2233  0.1577
 5745SOL    HW128697   3.835   3.530  10.828  2.0012  1.0663 -1.0503
 5745SOL    HW228698   3.711   3.470  10.783  0.7953 -0.3525  0.8970
 5746SOL     OW28699   2.489   3.598   1.489 -0.1831  0.1267  0.0340
 5746SOL    HW128700   2.469   3.509   1.518  0.5206  0.9481  3.1450
 5746SOL    HW228701   2.479   3.644   1.573 -0.3421 -1.5249  0.9227
 5747SOL     OW28702   3.222   4.491   9.595 -0.1466  0.2919  0.2091
 5747SOL    HW128703   3.278   4.486   9.672  2.6333 -0.4603 -1.8987
 5747SOL    HW228704   3.146   4.454   9.640  0.7578  0.8706  2.1811
 5748SOL     OW28705   4.258   2.089   6.891 -0.3162  0.2916  0.4280
 5748SOL    HW128706   4.295   2.175   6.875  0.9650 -0.5070 -0.9252
 5748SOL    HW228707   4.173   2.115   6.926  0.1986  3.4395 -0.6646
 5749SOL     OW28708   3.559   1.083   4.269  0.2939  0.3986  0.6415
 5749SOL    HW128709   3.647   1.074   4.307 -0.3139 -1.4538  1.5653
 5749SOL    HW228710   3.583   1.088   4.176  0.0702  1.6503  0.6514
 5750SOL     OW28711   4.127   4.556  14.643 -0.0524  0.3450 -0.1439
 5750SOL    HW128712   4.062   4.618  14.608  0.3115  0.0526 -1.3363
 5750SOL    HW228713   4.068   4.493  14.684  0.2192  1.0426  1.2955
 5751SOL     OW28714   0.033   2.190   3.499 -0.4251 -0.1807 -0.0082
 5751SOL    HW128715   0.068   2.276   3.521  2.0368 -0.9119 -1.0334
 5751SOL    HW228716   0.079   2.142   3.569  0.5711  1.4488  0.4490
 5752SOL     OW28717   1.563   0.994   4.475  0.1259  0.0723  0.3397
 5752SOL    HW128718   1.545   0.968   4.385 -1.3196  0.0597  0.6356
 5752SOL    HW228719   1.476   1.022   4.504 -0.6007 -0.8333 -0.9463
 5753SOL     OW28720   3.615   2.584   4.628  0.3765 -0.2144  0.1314
 5753SOL    HW128721   3.678   2.597   4.700 -1.5080 -0.9298  1.9073
 5753SOL    HW228722   3.664   2.525   4.571  1.2490  0.2428  0.4020
 5754SOL     OW28723   3.137   1.063   2.997 -0.4863  0.3196 -0.3772
 5754SOL    HW128724   3.126   1.157   3.014 -1.8830 -0.3149  2.2459
 5754SOL    HW228725   3.106   1.057   2.907 -3.1502  1.5879  0.4653
 5755SOL     OW28726   0.077   4.549  11.870  0.2152  1.0487  0.1851
 5755SOL    HW128727   0.106   4.469  11.914  1.3378  1.8432  0.8854
 5755SOL    HW228728   0.159   4.586  11.837 -0.4053  1.7602 -0.5446
 5756SOL     OW28729   3.700   0.069   5.015 -0.0973  0.3567 -0.1732
 5756SOL    HW128730   3.683   0.001   5.080 -2.5191 -0.8275 -2.0814
 5756SOL    HW228731   3.689   0.019   4.934  1.8698 -0.0161 -0.2241
 5757SOL     OW28732   4.030   2.328   4.740 -1.0065  0.2310  0.1146
 5757SOL    HW128733   3.999   2.350   4.828 -1.5956  0.3873 -0.1322
 5757SOL    HW228734   4.106   2.386   4.730  0.4772 -2.2055 -2.8263
 5758SOL     OW28735   1.719   0.427   8.607  0.9710 -0.2370 -0.3320
 5758SOL    HW128736   1.721   0.434   8.512  0.5596 -0.0854 -0.3275
 5758SOL    HW228737   1.795   0.478   8.636  1.8199 -0.5887 -1.9717
 5759SOL     OW28738   2.240   0.338   6.529  0.0579  0.2393  0.4670
 5759SOL    HW128739   2.309   0.274   6.513 -1.5931 -0.8657 -2.1196
 5759SOL    HW228740   2.283   0.424   6.527 -0.5773  0.5878  1.6344
 5760SOL     OW28741   4.398   0.656  15.414 -0.3970  0.8523 -0.1025
 5760SOL    HW128742   4.332   0.681  15.478 -1.5839  1.1546 -1.4545
 5760SOL    HW228743   4.423   0.743  15.385  1.9916 -0.1985 -1.2124
 5761SOL     OW28744   3.473   0.484  11.371 -0.1846  0.1133  0.2101
 5761SOL    HW128745   3.565   0.461  11.362 -0.2106  0.6012 -1.2458
 5761SOL    HW228746   3.436   0.484  11.283 -0.8759  1.2239  0.5096
 5762SOL     OW28747   0.662   1.750  15.945  0.1889 -0.1485 -0.2176
 5762SOL    HW128748   0.596   1.711  15.888  0.8390 -1.6925  0.0806
 5762SOL    HW228749   0.615   1.737  16.028  0.3300  1.3817  0.1007
 5763SOL     OW28750   0.017   4.503  16.762 -0.0699 -0.2430  0.6557
 5763SOL    HW128751   4.659   4.528  16.726  1.6996  3.2517 -1.0393
 5763SOL    HW228752   0.048   4.458  16.683 -0.1083 -0.3773  0.7172
 5764SOL     OW28753   1.178   3.455  17.150 -0.0799  0.2505  0.3215
 5764SOL    HW128754   1.138   3.539  17.127 -0.9425 -0.5884 -1.2131
 5764SOL    HW228755   1.258   3.469  17.100  0.3078 -1.4985  0.4873
 5765SOL     OW28756   2.467   1.585   5.706 -0.2480  0.4830  0.4438
 5765SOL    HW128757   2.378   1.621   5.700 -0.5622  0.0108  2.2753
 5765SOL    HW228758   2.517   1.666   5.702  0.7770 -0.2263 -1.2774
 5766SOL     OW28759   2.525   3.534   0.834  0.2133 -0.0724 -0.0735
 5766SOL    HW128760   2.516   3.500   0.923  0.3315 -0.1048 -0.0736
 5766SOL    HW228761   2.432   3.549   0.816  0.3478 -1.3157 -1.8098
 5767SOL     OW28762   2.236   0.961   7.747  0.4453 -0.1218  0.1245
 5767SOL    HW128763   2.312   0.995   7.700 -1.6812  2.1503 -1.6273
 5767SOL    HW228764   2.235   1.016   7.826 -0.7793 -0.3385  0.2611
 5768SOL     OW28765   0.030   2.888  15.290  0.4164 -0.0033  0.5615
 5768SOL    HW128766   0.012   2.804  15.247 -0.8005  0.7038 -0.3292
 5768SOL    HW228767   4.710   2.950  15.234 -1.4391 -1.4535  0.4632
 5769SOL     OW28768   4.263   3.386   3.452 -0.1820  0.4114  0.4243
 5769SOL    HW128769   4.279   3.418   3.363  1.0412  0.1995  0.5730
 5769SOL    HW228770   4.268   3.292   3.436  0.2821  0.7210 -1.1854
 5770SOL     OW28771   4.117   0.204   8.225  0.3718  0.2068  0.1193
 5770SOL    HW128772   4.134   0.252   8.144 -0.9806  0.4922  0.0144
 5770SOL    HW228773   4.168   0.127   8.200  0.6457  0.4383 -0.0482
 5771SOL     OW28774   4.151   0.168   6.157 -0.2873 -0.3610  0.4113
 5771SOL    HW128775   4.150   0.138   6.066 -0.1749  0.8641  0.0111
 5771SOL    HW228776   4.183   0.258   6.148  1.9619 -1.3488 -1.7079
 5772SOL     OW28777   2.933   4.424   9.525 -0.4371 -0.1611  0.0170
 5772SOL    HW128778   2.960   4.337   9.555 -0.0387 -1.9638 -5.5361
 5772SOL    HW228779   2.952   4.418   9.431 -2.1849  0.6371 -0.4011
 5773SOL     OW28780   3.168   3.601   4.679 -0.0083  0.1232 -0.2427
 5773SOL    HW128781   3.102   3.533   4.666 -0.1704  0.0128  1.1891
 5773SOL    HW228782   3.216   3.554   4.747 -1.3905  1.0953  1.4016
 5774SOL     OW28783   2.261   2.310   4.495  0.0153 -0.1607 -0.4637
 5774SOL    HW128784   2.328   2.271   4.551 -1.7737  0.2538  1.9505
 5774SOL    HW228785   2.228   2.227   4.459 -3.4103  1.8602 -1.9953
 5775SOL     OW28786   1.056   0.154  15.922 -0.4042  0.1015 -0.2987
 5775SOL    HW128787   1.046   0.100  16.000 -1.3263  0.2947 -0.2834
 5775SOL    HW228788   0.969   0.151  15.881 -1.4438 -1.1550  2.0106
 5776SOL     OW28789   0.797   2.898   6.042  0.1171 -0.1436  0.2930
 5776SOL    HW128790   0.844   2.981   6.046  0.2673 -0.2262  0.2572
 5776SOL    HW228791   0.849   2.848   5.978  0.0979 -0.0087  0.1715
 5777SOL     OW28792   0.497   0.542  14.820 -0.1441  0.3572  0.0672
 5777SOL    HW128793   0.478   0.448  14.818 -2.1963  0.7726 -0.5481
 5777SOL    HW228794   0.497   0.564  14.727  0.5249 -0.9430 -0.2427
 5778SOL     OW28795   3.397   0.051   4.402  0.1090  0.2653  0.4987
 5778SOL    HW128796   3.327   0.099   4.446 -0.1786  0.2908  0.0107
 5778SOL    HW228797   3.394   0.082   4.312  1.7418  2.0700  1.0712
 5779SOL     OW28798   2.178   1.999   3.488  0.1988  0.2876  0.4458
 5779SOL    HW128799   2.165   1.909   3.520 -0.3557  0.3874  0.4991
 5779SOL    HW228800   2.219   2.040   3.564 -1.6132 -1.2403  2.2435
 5780SOL     OW28801   0.185   2.657   9.240  0.7272  0.7439 -0.7781
 5780SOL    HW128802   0.133   2.707   9.302 -2.6657 -2.4934 -1.0299
 5780SOL    HW228803   0.131   2.580   9.219  0.7206  0.2359  1.1646
 5781SOL     OW28804   0.743   1.339   2.559 -0.1956  0.3216  0.2249
 5781SOL    HW128805   0.710   1.398   2.627 -2.6856  0.0621 -0.7587
 5781SOL    HW228806   0.681   1.353   2.488 -1.4733 -1.4979  0.9938
 5782SOL     OW28807   0.225   1.893   5.861 -0.3704  0.1798  0.2510
 5782SOL    HW128808   0.271   1.864   5.782  0.6465 -1.9992  1.6293
 5782SOL    HW228809   0.165   1.819   5.859 -0.6464  0.3571  3.1396
 5783SOL     OW28810   1.797   2.502   6.932 -0.5919  0.2714  0.0855
 5783SOL    HW128811   1.843   2.442   6.874  1.4558 -0.6267  2.6416
 5783SOL    HW228812   1.828   2.585   6.897  0.5227  0.5717  1.7924
 5784SOL     OW28813   0.197   3.444   3.300 -0.1288  0.5560 -0.2233
 5784SOL    HW128814   0.138   3.381   3.342  0.8285  1.0482  1.8733
 5784SOL    HW228815   0.266   3.443   3.366 -1.1118 -0.2700  0.8040
 5785SOL     OW28816   0.918   0.895   8.881  0.1366  0.0836  0.5681
 5785SOL    HW128817   0.856   0.862   8.816  0.7636 -1.5815  0.8163
 5785SOL    HW228818   0.984   0.940   8.828  0.1860  2.2531  2.4873
 5786SOL     OW28819   1.501   2.574   6.017  0.2375 -0.1488 -0.2729
 5786SOL    HW128820   1.485   2.516   6.092  2.4649 -1.5414 -0.8674
 5786SOL    HW228821   1.472   2.661   6.045  0.6680  0.2990 -1.2099
 5787SOL     OW28822   2.539   4.399   4.279 -0.0702 -0.4305  0.0078
 5787SOL    HW128823   2.570   4.331   4.218  0.5860  1.0298 -1.2740
 5787SOL    HW228824   2.460   4.426   4.232 -0.6720  1.9874  2.4097
 5788SOL     OW28825   1.834   1.987   7.489  0.1565  0.3067 -0.5986
 5788SOL    HW128826   1.922   1.956   7.468  0.4040 -0.0512  0.9840
 5788SOL    HW228827   1.796   1.900   7.499  1.6370 -0.3741 -0.9446
 5789SOL     OW28828   1.144   0.436   1.444 -0.3557 -0.2864 -0.3879
 5789SOL    HW128829   1.095   0.355   1.460  0.9713 -0.2794  3.7056
 5789SOL    HW228830   1.158   0.438   1.349 -3.2330  1.0285 -0.8133
 5790SOL     OW28831   2.799   2.711   0.508  0.1843 -0.0007 -0.0008
 5790SOL    HW128832   2.730   2.778   0.504  0.9079  0.7768  0.5621
 5790SOL    HW228833   2.769   2.655   0.580 -1.7998  1.2591  0.1709
 5791SOL     OW28834   0.460   1.097   8.668  0.5767 -0.8255  0.5992
 5791SOL    HW128835   0.435   1.153   8.741  3.0780  1.0866 -0.0078
 5791SOL    HW228836   0.441   1.167   8.606 -0.5417 -1.1395  0.5821
 5792SOL     OW28837   1.535   2.657   6.720  0.3679  0.1302  0.7289
 5792SOL    HW128838   1.622   2.658   6.758  1.6258  0.0232 -2.1497
 5792SOL    HW228839   1.503   2.744   6.744 -1.6696  0.1406 -2.0518
 5793SOL     OW28840   3.459   0.585   3.985 -0.2673 -0.2818  0.1070
 5793SOL    HW128841   3.452   0.638   4.064  1.9045  0.3593 -0.1406
 5793SOL    HW228842   3.518   0.637   3.931  0.0486  0.0494  0.7794
 5794SOL     OW28843   3.397   4.272   8.893 -0.0333 -0.0417 -0.1365
 5794SOL    HW128844   3.467   4.327   8.857  0.2842  0.3736  1.1200
 5794SOL    HW228845   3.321   4.331   8.887  1.3261  1.6983 -0.3710
 5795SOL     OW28846   0.715   0.578   3.981 -0.5411  0.9844 -0.0852
 5795SOL    HW128847   0.805   0.546   3.982 -0.7967  0.2012 -1.2905
 5795SOL    HW228848   0.691   0.567   4.073  0.2333 -0.8688 -0.1024
 5796SOL     OW28849   2.022   3.055  10.363  0.1181  0.6774  0.3060
 5796SOL    HW128850   2.045   3.021  10.277  0.5233 -0.9623  1.0572
 5796SOL    HW228851   2.073   3.136  10.369 -0.2790  0.9692 -0.3469
 5797SOL     OW28852   1.790   1.855   8.341 -0.1946  0.6368  0.5677
 5797SOL    HW128853   1.740   1.815   8.271  0.5781  0.3673  0.1617
 5797SOL    HW228854   1.727   1.878   8.408  0.1447  2.1121  0.3894
 5798SOL     OW28855   3.323   3.543   8.341 -0.0203 -0.6793  0.0253
 5798SOL    HW128856   3.310   3.582   8.428 -1.3431 -1.3202  0.1097
 5798SOL    HW228857   3.414   3.560   8.314  0.9067 -2.6733  1.8175
 5799SOL     OW28858   1.774   1.330   5.721 -0.1444 -0.2981  0.2488
 5799SOL    HW128859   1.752   1.285   5.640 -1.8560 -3.7955  2.6419
 5799SOL    HW228860   1.759   1.421   5.695 -0.2396 -0.2708  0.3988
 5800SOL     OW28861   3.634   0.884  10.549  0.0917 -0.0973  0.2584
 5800SOL    HW128862   3.656   0.890  10.456 -1.5972 -0.5588 -0.1715
 5800SOL    HW228863   3.570   0.813  10.552  0.8656 -0.7125  1.9779
 5801SOL     OW28864   3.276   1.599   3.580  0.2828  0.4436  0.2800
 5801SOL    HW128865   3.256   1.660   3.652 -0.0794 -0.5154  0.9904
 5801SOL    HW228866   3.195   1.609   3.530  0.6076  1.8408  0.0313
 5802SOL     OW28867   0.066   1.790   0.907 -0.2101 -0.3429  0.0686
 5802SOL    HW128868   4.697   1.781   0.910 -0.3111  0.8571  0.3354
 5802SOL    HW228869   0.067   1.861   0.971 -1.1472  0.2818 -0.6176
 5803SOL     OW28870   4.212   2.784  13.105  0.1789 -0.1338 -0.4975
 5803SOL    HW128871   4.141   2.848  13.113  1.3532  1.0298  0.6226
 5803SOL    HW228872   4.167   2.731  13.039 -2.3120 -2.3870  3.0096
 5804SOL     OW28873   0.436   4.366   5.889  0.4008  0.9031  0.6984
 5804SOL    HW128874   0.421   4.375   5.795 -2.1016 -0.7595  0.9339
 5804SOL    HW228875   0.356   4.406   5.922  0.1209  0.8188  0.1238
 5805SOL     OW28876   1.457   0.018   3.405 -0.4203 -0.1385  0.8502
 5805SOL    HW128877   1.476   4.704   3.320 -1.8914  1.1088 -0.0743
 5805SOL    HW228878   1.364   0.001   3.417 -1.1876  3.6977  0.3271
 5806SOL     OW28879   2.293   3.036   2.136  0.0917  0.5456  0.1099
 5806SOL    HW128880   2.351   3.069   2.068  0.6207  0.4471  0.5086
 5806SOL    HW228881   2.327   2.946   2.145  0.9050  0.9171  0.7092
 5807SOL     OW28882   0.015   4.553  12.158  0.0467  0.0287 -0.3589
 5807SOL    HW128883   0.075   4.551  12.233 -0.9933  0.9480  0.4972
 5807SOL    HW228884   0.085   4.566  12.094  1.3619 -1.0179  0.8482
 5808SOL     OW28885   1.708   2.103   8.858  0.1575  0.1138 -0.0657
 5808SOL    HW128886   1.699   2.166   8.787  1.9961  0.3616 -0.0854
 5808SOL    HW228887   1.734   2.159   8.931  4.6046 -0.7316 -0.9983
 5809SOL     OW28888   0.960   1.297   3.556 -0.0820  0.5267  0.2024
 5809SOL    HW128889   0.901   1.362   3.517  0.9666  1.2011 -0.2536
 5809SOL    HW228890   0.891   1.247   3.600 -0.4395  2.5360  1.9539
 5810SOL     OW28891   1.803   1.581   3.689 -0.1263 -0.2894 -0.2692
 5810SOL    HW128892   1.709   1.597   3.681 -0.1408 -0.1476  0.2054
 5810SOL    HW228893   1.831   1.628   3.768 -0.4162  0.3482 -0.5437
 5811SOL     OW28894   4.138   1.140  16.018 -0.2430 -0.3232  0.1643
 5811SOL    HW128895   4.099   1.148  15.931  0.5172  0.4998 -0.1042
 5811SOL    HW228896   4.075   1.181  16.076 -2.6555  2.5327 -4.4728
 5812SOL     OW28897   4.647   0.256   2.389 -0.1800 -0.3242  0.4368
 5812SOL    HW128898   4.595   0.192   2.439 -0.7122 -1.2583 -1.3343
 5812SOL    HW228899   4.584   0.288   2.325  2.8903  1.4589 -1.7060
 5813SOL     OW28900   1.917   1.342  14.223  0.8703 -0.1602 -0.0436
 5813SOL    HW128901   1.953   1.267  14.175  0.8890  0.5474 -1.1253
 5813SOL    HW228902   1.908   1.329  14.318  0.0977  0.0378 -0.0909
 5814SOL     OW28903   2.208   2.191   8.585  0.0996  0.4727  0.1891
 5814SOL    HW128904   2.123   2.222   8.617  1.2927  1.8586  2.0115
 5814SOL    HW228905   2.182   2.159   8.499  1.9310 -2.9920  0.9066
 5815SOL     OW28906   1.353   2.985  14.473  0.1234 -0.5294 -0.0162
 5815SOL    HW128907   1.340   3.055  14.537  1.6721  0.2146 -0.5137
 5815SOL    HW228908   1.375   3.024  14.388 -2.1133 -0.1444 -0.4054
 5816SOL     OW28909   2.088   0.338  15.355  0.1934 -0.4034  0.8500
 5816SOL    HW128910   2.142   0.316  15.279  1.4817  2.3811  0.9719
 5816SOL    HW228911   2.114   0.429  15.365  1.6912 -0.8232  0.6886
 5817SOL     OW28912   0.561   4.128   9.435  0.6434 -0.4139 -1.0132
 5817SOL    HW128913   0.499   4.081   9.491 -0.0654  0.9944 -0.6211
 5817SOL    HW228914   0.519   4.134   9.349  1.3786 -0.4652 -1.3789
 5818SOL     OW28915   3.655   1.531   6.916 -0.2975 -0.4530 -0.3450
 5818SOL    HW128916   3.578   1.562   6.964  1.3468  1.3855  1.1402
 5818SOL    HW228917   3.713   1.506   6.989 -1.1196 -3.1201 -0.6247
 5819SOL     OW28918   0.240   2.961   6.649 -0.9481 -0.6126  0.4306
 5819SOL    HW128919   0.275   3.039   6.607 -0.7929  0.6999  3.0474
 5819SOL    HW228920   0.322   2.913   6.655 -0.5390  0.0038 -0.2846
 5820SOL     OW28921   2.617   4.649  12.737  0.2604 -0.0023  0.3287
 5820SOL    HW128922   2.643   4.708  12.808  1.8710 -0.6687  0.2992
 5820SOL    HW228923   2.533   4.623  12.774  0.5001 -0.2257  0.7120
 5821SOL     OW28924   3.512   2.240   4.526 -0.1602  0.3450 -0.2537
 5821SOL    HW128925   3.529   2.300   4.453  1.1329 -0.2880 -0.4724
 5821SOL    HW228926   3.508   2.151   4.492  0.5286 -0.7987  2.6347
 5822SOL     OW28927   2.719   1.084   0.512 -0.4592 -0.7647 -0.0229
 5822SOL    HW128928   2.647   1.053   0.567 -0.4681 -0.9682 -0.1520
 5822SOL    HW228929   2.789   1.048   0.566  0.4634 -4.1685 -3.4978
 5823SOL     OW28930   0.776   2.725   9.049  0.2186  0.0319 -0.4601
 5823SOL    HW128931   0.840   2.655   9.061  2.3122  2.4510  2.3549
 5823SOL    HW228932   0.721   2.702   9.124  0.1799  3.6854  0.6383
 5824SOL     OW28933   4.671   1.649  13.362 -0.1603  0.1283 -0.3640
 5824SOL    HW128934   4.719   1.618  13.438  0.1849  2.0019  0.1780
 5824SOL    HW228935   4.726   1.619  13.290  2.7266 -0.4024  2.1073
 5825SOL     OW28936   0.285   0.998   3.778  0.3033 -0.1474 -0.4843
 5825SOL    HW128937   0.280   0.980   3.684  0.4140  1.1994 -0.7541
 5825SOL    HW228938   0.380   0.991   3.788 -0.0232 -1.5916  1.4843
 5826SOL     OW28939   2.764   2.453   3.763 -0.3964  0.3598  0.1398
 5826SOL    HW128940   2.700   2.521   3.744 -2.4324 -2.4315 -2.8841
 5826SOL    HW228941   2.836   2.511   3.787  0.8245 -0.4246 -1.6612
 5827SOL     OW28942   4.481   3.622  16.250 -0.5175  0.3552  0.2556
 5827SOL    HW128943   4.474   3.682  16.175  0.3655  0.1457  0.0014
 5827SOL    HW228944   4.537   3.549  16.222 -1.2031 -0.5002  1.0964
 5828SOL     OW28945   3.392   0.921   5.666 -0.3399  0.3406 -0.5889
 5828SOL    HW128946   3.456   0.861   5.702  0.7284  0.6968 -1.8886
 5828SOL    HW228947   3.363   0.870   5.590  1.9671  1.9084 -2.5266
 5829SOL     OW28948   2.545   2.702   4.022  0.4130  0.2813 -0.1783
 5829SOL    HW128949   2.560   2.761   4.096  1.0238  0.0481 -0.1117
 5829SOL    HW228950   2.552   2.770   3.955  0.4947  2.3668  1.9279
 5830SOL     OW28951   2.123   2.926   8.120  0.0865 -0.2365  0.3372
 5830SOL    HW128952   2.170   2.936   8.202 -1.6401 -1.2789  1.4604
 5830SOL    HW228953   2.034   2.956   8.141 -0.7673 -1.2492 -1.8387
 5831SOL     OW28954   2.938   2.087  13.450  0.1456 -0.3908 -0.2878
 5831SOL    HW128955   2.942   2.093  13.354  0.2749  0.1651 -0.2487
 5831SOL    HW228956   3.029   2.070  13.474 -0.0024 -0.3276  0.3251
 5832SOL     OW28957   1.157   3.757   4.853  0.2501  0.4463  0.3120
 5832SOL    HW128958   1.145   3.845   4.890 -0.3551  0.5259 -0.0721
 5832SOL    HW228959   1.134   3.773   4.761 -0.1870 -2.8181 -0.1543
 5833SOL     OW28960   4.206   4.313   1.202  0.8034  0.1036  0.4581
 5833SOL    HW128961   4.124   4.360   1.213 -0.0486 -1.1230 -0.6831
 5833SOL    HW228962   4.198   4.287   1.110  0.2984  1.1467  0.2040
 5834SOL     OW28963   1.224   3.303   1.578 -0.5818 -0.2275  0.5300
 5834SOL    HW128964   1.238   3.391   1.613 -0.4475 -0.3228  0.7148
 5834SOL    HW228965   1.153   3.276   1.636  0.3864 -2.2170  0.8028
 5835SOL     OW28966   4.316   3.008  14.605 -0.8434 -0.5097  0.3273
 5835SOL    HW128967   4.288   2.920  14.628  0.9959 -0.9791  0.7259
 5835SOL    HW228968   4.272   3.055  14.676 -1.1478  1.3801 -1.0999
 5836SOL     OW28969   3.880   3.027   2.731 -0.1525  0.3990  0.0501
 5836SOL    HW128970   3.921   3.018   2.818  0.3369 -1.8070 -0.4010
 5836SOL    HW228971   3.903   3.113   2.697  0.1628  1.3747  2.6993
 5837SOL     OW28972   0.750   0.310   5.715 -0.2987  0.2637  0.7454
 5837SOL    HW128973   0.819   0.375   5.728  1.4372 -1.6520  1.0404
 5837SOL    HW228974   0.696   0.351   5.647 -0.9046  0.8113  1.5665
 5838SOL     OW28975   2.911   3.747   8.422 -0.4209 -0.5258 -0.4249
 5838SOL    HW128976   2.946   3.785   8.342  0.2753 -0.3899 -0.0496
 5838SOL    HW228977   2.891   3.823   8.476  0.7724 -1.0194  0.7021
 5839SOL     OW28978   3.838   2.008   2.325 -0.3666  0.1745 -0.2390
 5839SOL    HW128979   3.771   2.063   2.365  1.8318  0.4849  3.0555
 5839SOL    HW228980   3.805   2.006   2.236 -2.3850 -0.5731  0.5387
 5840SOL     OW28981   1.179   1.763   7.999 -0.6426  0.2433 -0.0078
 5840SOL    HW128982   1.270   1.786   7.980 -0.3925  1.0494  2.0861
 5840SOL    HW228983   1.186   1.674   7.967  0.3799  0.9744 -1.8269
 5841SOL     OW28984   0.931   2.914   0.447 -0.1868 -0.3026 -0.2307
 5841SOL    HW128985   0.894   2.963   0.373 -0.4377  0.3567  0.3311
 5841SOL    HW228986   0.865   2.846   0.460  2.4720 -2.4102  2.3614
 5842SOL     OW28987   0.271   0.836  17.603 -0.8682  0.2885  0.1835
 5842SOL    HW128988   0.288   0.789  17.685 -0.8179 -0.4449 -0.2431
 5842SOL    HW228989   0.190   0.800  17.568  0.3609 -1.2975 -1.0517
 5843SOL     OW28990   1.470   2.276   8.042 -0.2971  0.1969 -0.1764
 5843SOL    HW128991   1.529   2.201   8.049  0.5478  0.7148 -1.7804
 5843SOL    HW228992   1.503   2.327   7.968  2.2267  1.5705  1.9270
 5844SOL     OW28993   1.496   4.656  13.539  0.3519 -0.0105  0.2808
 5844SOL    HW128994   1.500   0.016  13.498  1.5749 -0.1367  0.1289
 5844SOL    HW228995   1.403   4.640  13.524  0.5148 -2.9930  2.5371
 5845SOL     OW28996   2.192   3.836   6.197  0.2051 -0.0927 -0.3225
 5845SOL    HW128997   2.277   3.813   6.160  0.0195  1.4403 -1.7244
 5845SOL    HW228998   2.135   3.842   6.121  0.4819  4.2630 -0.2041
 5846SOL     OW28999   0.376   3.952   2.838  0.2909 -0.2279 -0.0062
 5846SOL    HW129000   0.400   3.957   2.746  3.3663 -1.8018  0.7117
 5846SOL    HW229001   0.450   4.004   2.870  0.2601 -0.7400  0.9170
 5847SOL     OW29002   2.265   2.650   7.512 -0.8721  0.1777  0.7313
 5847SOL    HW129003   2.177   2.629   7.482 -0.2415  0.3687 -1.2860
 5847SOL    HW229004   2.265   2.745   7.505  0.8517  0.0865 -0.6671
 5848SOL     OW29005   0.281   3.478  11.647 -0.1367 -0.2748  0.1666
 5848SOL    HW129006   0.255   3.569  11.663  2.5599  0.8438 -2.0270
 5848SOL    HW229007   0.321   3.449  11.729  1.9272  4.0401  0.6708
 5849SOL     OW29008   0.053   3.386   2.901  0.6430 -0.9636 -0.1801
 5849SOL    HW129009   4.700   3.338   2.923 -1.3293  1.4342 -2.1379
 5849SOL    HW229010   0.076   3.344   2.818  1.8680 -0.7506  0.0575
 5850SOL     OW29011   2.796   0.540   7.932  0.2094 -0.4067  0.4212
 5850SOL    HW129012   2.703   0.554   7.914 -0.1659 -3.2663  0.0736
 5850SOL    HW229013   2.800   0.588   8.015 -0.7775  1.1921 -0.4575
 5851SOL     OW29014   3.966   4.434   3.419  0.1953 -0.4671 -0.4357
 5851SOL    HW129015   3.979   4.481   3.337 -2.1232  1.3002  0.2038
 5851SOL    HW229016   3.875   4.410   3.406 -0.2354  2.0974 -2.0025
 5852SOL     OW29017   0.332   3.961   1.881  0.1520 -0.1481 -0.2032
 5852SOL    HW129018   0.362   3.900   1.814 -1.4088 -1.2056  0.0511
 5852SOL    HW229019   0.382   3.936   1.959 -0.2766 -1.9846 -0.5045
 5853SOL     OW29020   0.038   2.201  16.880 -0.0041 -0.1749  0.3322
 5853SOL    HW129021   0.123   2.242  16.861  0.1914 -0.5533  0.3861
 5853SOL    HW229022   0.025   2.162  16.793  1.9461 -0.0750 -0.0156
 5854SOL     OW29023   4.628   4.493   7.661  0.0297  0.0834  0.3504
 5854SOL    HW129024   4.658   4.445   7.584 -2.7335 -1.1781  0.0408
 5854SOL    HW229025   4.609   4.413   7.711 -3.3812  0.8192  0.2617
 5855SOL     OW29026   0.626   2.122  16.488  0.2437 -0.5538 -0.0882
 5855SOL    HW129027   0.667   2.122  16.574 -3.8085 -2.7263  1.8303
 5855SOL    HW229028   0.704   2.124  16.433 -0.5256 -0.2432 -1.1772
 5856SOL     OW29029   0.207   4.245   8.128  0.4872  0.2257 -0.3961
 5856SOL    HW129030   0.218   4.168   8.073  1.0624 -0.7010  1.0087
 5856SOL    HW229031   0.132   4.283   8.082 -0.4101 -0.5401  0.4301
 5857SOL     OW29032   2.548   4.172   0.861 -0.1191 -0.0915 -0.3354
 5857SOL    HW129033   2.614   4.113   0.826 -0.4103 -0.2269 -0.6666
 5857SOL    HW229034   2.571   4.174   0.953 -2.3370 -2.2204  0.2752
 5858SOL     OW29035   3.703   0.548   7.435  0.3160  0.1601  0.0716
 5858SOL    HW129036   3.714   0.601   7.515 -0.1596  0.9142 -0.3696
 5858SOL    HW229037   3.738   0.599   7.362 -2.3362  1.5833 -0.1877
 5859SOL     OW29038   0.558   0.748  13.358 -0.9494 -0.2218 -0.0917
 5859SOL    HW129039   0.564   0.822  13.297 -2.3180 -0.7424 -0.8640
 5859SOL    HW229040   0.628   0.698  13.314  0.2660  2.0902 -0.7732
 5860SOL     OW29041   2.078   2.620  12.394  0.2492  0.1551  0.4832
 5860SOL    HW129042   2.172   2.638  12.402  0.1624  0.6246  0.4541
 5860SOL    HW229043   2.050   2.691  12.452 -2.0002  0.2066 -0.6802
 5861SOL     OW29044   0.807   2.546   7.181 -0.1708 -0.7635  0.1806
 5861SOL    HW129045   0.770   2.495   7.109  0.0933 -1.8101  0.7949
 5861SOL    HW229046   0.737   2.531   7.245  1.0869 -0.7788  1.5596
 5862SOL     OW29047   4.137   4.672   8.105 -0.2026 -0.0466 -0.0566
 5862SOL    HW129048   4.096   4.609   8.047 -0.7929 -0.0697  0.3817
 5862SOL    HW229049   4.183   4.612   8.164  0.7931  0.3721 -0.4012
 5863SOL     OW29050   0.089   0.610   7.299  0.1533  0.4610 -0.1409
 5863SOL    HW129051   0.151   0.608   7.372 -0.7404  1.1011  0.6358
 5863SOL    HW229052   0.143   0.605   7.221 -0.2823 -0.4190 -0.3868
 5864SOL     OW29053   2.595   0.622   9.168  0.3457  0.8501 -0.1507
 5864SOL    HW129054   2.519   0.572   9.199 -0.7891  1.1444 -2.4355
 5864SOL    HW229055   2.652   0.546   9.159  1.5956  1.8193 -0.4094
 5865SOL     OW29056   1.661   1.508   6.917  0.0049  0.3419 -0.0749
 5865SOL    HW129057   1.610   1.447   6.970  1.8860 -0.0579  1.2639
 5865SOL    HW229058   1.733   1.514   6.979  2.0103 -1.1981 -2.2798
 5866SOL     OW29059   2.433   1.154   2.900  0.0662 -0.4681  0.0169
 5866SOL    HW129060   2.373   1.215   2.857  0.4383 -2.3433 -3.1840
 5866SOL    HW229061   2.419   1.076   2.847 -1.3191 -0.4140  0.3095
 5867SOL     OW29062   0.944   2.891   4.420  0.2604  0.8798 -0.2236
 5867SOL    HW129063   0.957   2.968   4.474 -0.1640 -0.4488  1.7813
 5867SOL    HW229064   0.954   2.930   4.333 -1.2718  2.9475  0.5563
 5868SOL     OW29065   2.872   4.609   9.741 -0.2534  0.4484 -0.0697
 5868SOL    HW129066   2.901   4.558   9.666  1.5998 -3.6666  3.4696
 5868SOL    HW229067   2.916   4.694   9.730  0.9703 -0.6739 -3.7249
 5869SOL     OW29068   3.935   4.504   2.610  0.5781  0.0605  0.2290
 5869SOL    HW129069   3.919   4.545   2.695  1.7969  3.0841 -0.9885
 5869SOL    HW229070   3.882   4.564   2.558  1.2115  3.2026  3.1640
 5870SOL     OW29071   1.818   4.218   7.972  0.2689  0.3109 -0.1907
 5870SOL    HW129072   1.832   4.302   8.016  1.8685 -0.8846  1.5278
 5870SOL    HW229073   1.844   4.149   8.032 -0.1531  1.7040  1.6214
 5871SOL     OW29074   3.228   3.569  13.719  0.0261  0.7712 -0.0186
 5871SOL    HW129075   3.160   3.505  13.699  0.1516  0.6841 -0.1698
 5871SOL    HW229076   3.207   3.637  13.656 -0.3015  0.6827 -0.0053
 5872SOL     OW29077   2.396   2.191   5.109 -0.6025  0.5878 -0.1470
 5872SOL    HW129078   2.401   2.104   5.149 -1.4917  0.8037  0.4183
 5872SOL    HW229079   2.371   2.251   5.179 -2.1812  1.3572 -1.3651
 5873SOL     OW29080   1.933   3.202   0.839  0.8095  0.1172  0.3813
 5873SOL    HW129081   2.015   3.165   0.872  0.4231 -1.6647 -0.6521
 5873SOL    HW229082   1.906   3.253   0.916 -1.5076  0.7253 -0.8204
 5874SOL     OW29083   0.911   3.081   5.228  0.0602  0.7340  0.1371
 5874SOL    HW129084   0.975   3.011   5.239  1.2873  1.6006 -1.4943
 5874SOL    HW229085   0.913   3.109   5.320  1.3986  1.4131 -0.0933
 5875SOL     OW29086   4.052   1.424   3.965 -0.2047 -0.5286  0.1503
 5875SOL    HW129087   4.008   1.464   4.041  0.1212 -1.0752  0.6297
 5875SOL    HW229088   4.021   1.335   3.982 -0.9646  0.0396  1.7798
 5876SOL     OW29089   4.139   4.519   6.556 -0.3856 -0.4499  0.3535
 5876SOL    HW129090   4.074   4.460   6.518  1.9497 -1.5963 -1.8043
 5876SOL    HW229091   4.131   4.600   6.505  1.2104 -1.2275 -1.1370
 5877SOL     OW29092   3.595   1.222   4.019  0.2311  0.2679  0.3530
 5877SOL    HW129093   3.601   1.288   4.088  1.6964  0.2740  0.2224
 5877SOL    HW229094   3.605   1.274   3.939 -0.9040 -0.3655 -0.1913
 5878SOL     OW29095   2.036   4.534   8.643  0.2736 -0.3543 -0.3341
 5878SOL    HW129096   2.114   4.481   8.658  0.5344 -0.1756 -1.0294
 5878SOL    HW229097   2.017   4.562   8.733  0.0990 -0.6656 -0.2758
 5879SOL     OW29098   0.119   1.310   7.116  0.1810  0.4706 -0.3249
 5879SOL    HW129099   0.116   1.384   7.055 -1.6432  0.4037 -0.3103
 5879SOL    HW229100   0.047   1.336   7.174  0.2413 -0.5798  0.2187
 5880SOL     OW29101   3.071   1.873   1.424  0.1093 -0.0194 -0.2892
 5880SOL    HW129102   3.048   1.939   1.358  1.2189 -1.3717 -2.0196
 5880SOL    HW229103   2.996   1.817   1.439 -1.2155  2.0054  0.6513
 5881SOL     OW29104   2.399   2.541   4.186  0.2543 -0.2667 -0.1164
 5881SOL    HW129105   2.467   2.492   4.233  1.4664  0.1079 -1.4544
 5881SOL    HW229106   2.451   2.592   4.123  1.0648 -0.7624  0.1555
 5882SOL     OW29107   4.606   3.336   7.261  0.4505  0.1443  0.2996
 5882SOL    HW129108   4.554   3.311   7.185 -0.2508 -0.5858  1.0259
 5882SOL    HW229109   4.543   3.309   7.328  1.5807  0.6683  1.5907
 5883SOL     OW29110   0.431   4.204   9.703  0.7574  0.1992 -0.4831
 5883SOL    HW129111   0.396   4.124   9.666 -2.9314  2.2860 -1.4857
 5883SOL    HW229112   0.522   4.179   9.718 -0.2677 -2.6283  1.0265
 5884SOL     OW29113   0.277   4.412   7.573 -0.2755  0.2243  0.0432
 5884SOL    HW129114   0.334   4.461   7.513  0.3815  0.5077  0.8921
 5884SOL    HW229115   0.323   4.329   7.587 -1.4160 -0.2128  1.1365
 5885SOL     OW29116   3.257   1.149   5.455 -0.6760  0.5605 -0.5756
 5885SOL    HW129117   3.235   1.068   5.500  0.7603  0.8720  0.6967
 5885SOL    HW229118   3.289   1.207   5.524  0.6492 -0.2230 -0.5368
 5886SOL     OW29119   3.704   3.319  15.604 -0.3823  0.8637 -0.5592
 5886SOL    HW129120   3.749   3.375  15.540  1.0856  1.5729  1.0848
 5886SOL    HW229121   3.633   3.375  15.633 -1.6924 -1.1828  0.2273
 5887SOL     OW29122   3.957   3.151   6.398 -0.4005  0.2004  0.4980
 5887SOL    HW129123   3.915   3.221   6.448 -1.8493 -0.2989 -0.0383
 5887SOL    HW229124   3.935   3.071   6.445 -0.4374 -1.4742 -2.3769
 5888SOL     OW29125   0.205   2.940   1.865 -0.1318  0.4346 -0.0182
 5888SOL    HW129126   0.210   3.003   1.937  2.0789  2.2876 -1.7893
 5888SOL    HW229127   0.117   2.946   1.829 -0.5303 -2.1937  0.4914
 5889SOL     OW29128   4.218   3.104   3.395 -0.0858 -0.2885 -0.1669
 5889SOL    HW129129   4.149   3.043   3.421  0.3567 -0.2253  1.1181
 5889SOL    HW229130   4.271   3.061   3.327  0.7245  2.4660 -1.3048
 5890SOL     OW29131   0.760   1.944   5.348 -0.6649 -0.2093 -0.3096
 5890SOL    HW129132   0.821   1.977   5.281  1.3121  1.0130  2.1198
 5890SOL    HW229133   0.813   1.875   5.388 -0.3512  0.4354  0.3881
 5891SOL     OW29134   4.630   2.094  12.987  0.3013 -0.3432 -0.0900
 5891SOL    HW129135   4.612   2.051  13.070  2.6225  0.0817  0.6123
 5891SOL    HW229136   4.616   2.025  12.921  1.7211  0.1712 -0.9341
 5892SOL     OW29137   4.257   0.052   9.143 -0.0138 -0.4579  0.5051
 5892SOL    HW129138   4.319   4.719   9.186  0.2942  0.3560  1.1824
 5892SOL    HW229139   4.268   0.131   9.197 -1.2137 -0.1082  0.2419
 5893SOL     OW29140   2.070   2.596   7.086  0.2483  0.2712 -0.2930
 5893SOL    HW129141   2.126   2.673   7.074  1.4397 -0.6234 -0.5280
 5893SOL    HW229142   1.992   2.604   7.032  0.7787  0.7548 -0.9937
 5894SOL     OW29143   4.196   1.407  16.214 -0.2991  0.1067  0.1098
 5894SOL    HW129144   4.275   1.459  16.205  0.9995 -1.7325  0.9352
 5894SOL    HW229145   4.174   1.382  16.124 -0.9066 -0.0484  0.2968
 5895SOL     OW29146   2.874   2.818  13.447 -0.0036  0.2064 -0.1208
 5895SOL    HW129147   2.939   2.877  13.485  1.1894 -0.1086 -1.7141
 5895SOL    HW229148   2.795   2.865  13.476 -0.4923 -0.3178 -0.6133
 5896SOL     OW29149   2.668   0.285   4.563 -0.4743  0.4650 -0.3185
 5896SOL    HW129150   2.745   0.274   4.620 -0.9227  1.0057  0.4028
 5896SOL    HW229151   2.612   0.328   4.628 -1.0574  0.5654 -0.8974
 5897SOL     OW29152   2.381   0.242  11.577 -0.3674  0.1086 -0.3936
 5897SOL    HW129153   2.318   0.311  11.597  1.1663  1.8165 -1.3956
 5897SOL    HW229154   2.406   0.267  11.487 -0.8798 -0.7203 -0.7644
 5898SOL     OW29155   2.591   1.303   3.293 -0.7076  0.9421 -0.4808
 5898SOL    HW129156   2.609   1.358   3.217 -0.4647 -0.0536 -1.1422
 5898SOL    HW229157   2.499   1.278   3.283 -1.0577  2.3088 -0.5718
 5899SOL     OW29158   3.062   1.437   5.676  0.4256  0.0417  0.5156
 5899SOL    HW129159   3.047   1.343   5.678  0.9173 -0.0889 -1.3884
 5899SOL    HW229160   3.155   1.446   5.655  0.0517  0.7867 -0.8635
 5900SOL     OW29161   0.032   4.590   2.860  0.0696 -0.0242  0.8106
 5900SOL    HW129162   0.087   4.531   2.809  0.9989  1.2316  0.3765
 5900SOL    HW229163   0.058   4.576   2.951 -3.3228 -0.1517  1.7866
 5901SOL     OW29164   3.051   4.463   3.720  0.4434 -0.4082  0.3280
 5901SOL    HW129165   3.108   4.428   3.652  0.1049  1.5170 -0.9350
 5901SOL    HW229166   3.003   4.526   3.666 -0.2542 -1.0841  0.1642
 5902SOL     OW29167   1.956   2.973   2.384  0.5979 -0.4911  0.0045
 5902SOL    HW129168   2.022   3.039   2.407 -1.2320  1.9375 -1.7507
 5902SOL    HW229169   2.021   2.911   2.351 -0.1641 -1.1846 -0.1931
 5903SOL     OW29170   4.336   1.143   3.627  0.0226  0.2093  0.1706
 5903SOL    HW129171   4.366   1.202   3.696  0.0819 -0.1734  0.4783
 5903SOL    HW229172   4.385   1.065   3.655  0.2894  1.6299  3.6962
 5904SOL     OW29173   1.776   3.392   2.632  0.0858  0.3116  0.1464
 5904SOL    HW129174   1.745   3.383   2.542 -0.9270  0.1080  0.5200
 5904SOL    HW229175   1.856   3.340   2.629  0.1437  0.3056  1.7342
 5905SOL     OW29176   3.572   3.530   4.146  0.0821 -0.0275  0.3326
 5905SOL    HW129177   3.552   3.464   4.212  0.5980 -0.2063  0.3069
 5905SOL    HW229178   3.526   3.610   4.172 -0.4412 -0.3750  0.4565
 5906SOL     OW29179   0.780   2.166   2.740 -0.1710  0.6301 -0.6206
 5906SOL    HW129180   0.829   2.244   2.714 -0.8968  1.2892 -0.0264
 5906SOL    HW229181   0.690   2.193   2.720 -0.9259 -1.1797  0.3220
 5907SOL     OW29182   0.934   3.059   6.607 -0.3061 -0.6049  0.4015
 5907SOL    HW129183   0.939   3.128   6.540 -0.0760 -0.7099  0.3092
 5907SOL    HW229184   0.842   3.051   6.630 -0.7880  1.7225 -0.8046
 5908SOL     OW29185   4.544   3.086   3.452  0.3007  0.3286  0.0698
 5908SOL    HW129186   4.549   2.993   3.471 -1.3581  0.2761  0.2263
 5908SOL    HW229187   4.459   3.106   3.413  1.2859  0.0033 -2.2959
 5909SOL     OW29188   3.761   3.136   9.619 -0.1812  0.3176 -0.1474
 5909SOL    HW129189   3.701   3.067   9.647 -0.2833  0.3066 -0.3886
 5909SOL    HW229190   3.793   3.166   9.704  2.3392 -1.2431 -0.5275
 5910SOL     OW29191   1.852   1.804   4.802 -0.3356 -0.3183  0.0741
 5910SOL    HW129192   1.847   1.709   4.797 -0.8912 -0.2488 -0.5682
 5910SOL    HW229193   1.805   1.828   4.882 -1.0409 -0.3467 -0.3357
 5911SOL     OW29194   3.172   4.338   3.508 -0.3798  0.5157  0.2666
 5911SOL    HW129195   3.135   4.290   3.582 -0.0774 -0.3539 -0.1420
 5911SOL    HW229196   3.108   4.313   3.442  0.7089  0.7562 -0.8802
 5912SOL     OW29197   3.094   2.774   9.773 -0.7701  0.3908 -0.1502
 5912SOL    HW129198   3.144   2.694   9.789 -2.0860 -0.9033 -2.4696
 5912SOL    HW229199   3.071   2.763   9.681 -2.7264 -1.6976  0.5887
 5913SOL     OW29200   2.381   3.144   9.936  0.0143 -0.8775  0.0982
 5913SOL    HW129201   2.461   3.173   9.980  0.0519  0.7269 -0.9940
 5913SOL    HW229202   2.372   3.059   9.979 -2.1158  1.7793  4.8861
 5914SOL     OW29203   1.949   0.298  16.074  0.0318 -0.0185  0.0381
 5914SOL    HW129204   1.938   0.383  16.030  0.3959 -0.1499 -0.3027
 5914SOL    HW229205   2.002   0.313  16.152 -2.1205  0.4922  1.4190
 5915SOL     OW29206   0.394   2.904  13.643  0.0794  0.3001  0.1632
 5915SOL    HW129207   0.357   2.860  13.719 -0.1763 -2.2052 -1.3828
 5915SOL    HW229208   0.335   2.979  13.638  0.5310  0.6492  0.0139
 5916SOL     OW29209   4.037   4.547  11.426 -0.0734  0.2275 -0.3494
 5916SOL    HW129210   4.005   4.476  11.480 -0.3686  0.3783 -0.3267
 5916SOL    HW229211   3.987   4.626  11.448  0.2961  0.8912 -1.8774
 5917SOL     OW29212   2.085   3.821  15.342  0.0754  0.6365  0.1776
 5917SOL    HW129213   2.053   3.897  15.391 -0.8590  1.2090 -1.3146
 5917SOL    HW229214   2.072   3.857  15.254 -1.4433  0.2762  0.2698
 5918SOL     OW29215   3.446   3.351   3.027 -0.4258 -0.5789  0.3452
 5918SOL    HW129216   3.425   3.397   2.946 -3.3025 -2.2507  0.1331
 5918SOL    HW229217   3.362   3.317   3.058  0.4913 -2.8138  0.3412
 5919SOL     OW29218   1.526   2.727   2.645 -0.3073  0.3392 -0.2778
 5919SOL    HW129219   1.548   2.814   2.677  0.0246  0.7733 -1.6805
 5919SOL    HW229220   1.608   2.681   2.659 -0.1796  0.6321 -0.0646
 5920SOL     OW29221   3.967   4.274  12.048  0.1071 -0.1756 -0.1689
 5920SOL    HW129222   3.894   4.311  12.099  0.7475  2.9636 -1.5052
 5920SOL    HW229223   4.005   4.222  12.119 -0.1632 -0.4037 -0.1933
 5921SOL     OW29224   0.069   4.023   5.211 -0.2048 -0.5035 -0.3629
 5921SOL    HW129225   0.096   3.982   5.293  0.6639 -0.5810 -0.6932
 5921SOL    HW229226   0.072   4.116   5.236 -0.9085 -0.5036 -0.2822
 5922SOL     OW29227   2.344   3.679  16.643  0.1759  0.4406  0.5063
 5922SOL    HW129228   2.332   3.748  16.707 -0.0462  1.0119 -0.1503
 5922SOL    HW229229   2.403   3.726  16.584 -0.3632  0.1902 -0.2330
 5923SOL     OW29230   1.940   0.594   7.853  0.2914  0.0757  0.5454
 5923SOL    HW129231   1.849   0.623   7.849  0.0280 -0.7886  0.2641
 5923SOL    HW229232   1.980   0.660   7.795  0.6215  0.1704  0.8802
 5924SOL     OW29233   2.010   2.632   0.444 -0.0505 -0.6688 -0.3611
 5924SOL    HW129234   1.999   2.679   0.361 -1.1952 -1.4579 -0.6596
 5924SOL    HW229235   1.935   2.668   0.491 -0.9196 -1.1640 -1.3642
 5925SOL     OW29236   0.439   3.521  11.909 -0.2907  0.0419  0.8861
 5925SOL    HW129237   0.529   3.491  11.894  0.5284  3.0551 -0.2048
 5925SOL    HW229238   0.463   3.593  11.967 -1.7784  0.1742  1.3411
 5926SOL     OW29239   1.515   1.646   3.243  0.0882  0.0331 -0.2531
 5926SOL    HW129240   1.459   1.679   3.173 -1.6071  0.1586  1.1630
 5926SOL    HW229241   1.604   1.669   3.215 -1.1295  2.6611 -1.9804
 5927SOL     OW29242   1.748   1.390  10.453 -0.3583  0.3320  0.6133
 5927SOL    HW129243   1.657   1.380  10.427 -0.2916 -0.0421  0.5207
 5927SOL    HW229244   1.742   1.328  10.526  1.5833  0.8987  1.2410
 5928SOL     OW29245   0.273   1.250   8.500  0.2132  0.6256 -0.2435
 5928SOL    HW129246   0.212   1.258   8.427 -1.0576 -0.5129  0.6989
 5928SOL    HW229247   0.221   1.247   8.580 -0.5862 -0.5942 -0.8028
 5929SOL     OW29248   4.047   0.781   8.009 -0.4299  0.4272  0.1339
 5929SOL    HW129249   4.102   0.786   8.087  1.6138 -2.7841 -1.0777
 5929SOL    HW229250   3.975   0.735   8.051 -0.1289  0.8660  1.1240
 5930SOL     OW29251   1.226   3.284   0.069  0.2203 -0.2488 -0.5997
 5930SOL    HW129252   1.158   3.340   0.107  0.4876  0.5097 -1.2514
 5930SOL    HW229253   1.166   3.225   0.023 -0.4102 -1.6334  1.9659
 5931SOL     OW29254   3.193   3.856   1.879  0.3406 -0.2854  0.3289
 5931SOL    HW129255   3.279   3.841   1.838  0.2435  2.9350 -1.0552
 5931SOL    HW229256   3.195   3.797   1.954  1.3431 -1.0718 -0.3189
 5932SOL     OW29257   4.053   3.888   4.774 -0.0652 -0.2326 -0.4520
 5932SOL    HW129258   4.141   3.858   4.797 -0.3535 -0.6559  0.0934
 5932SOL    HW229259   4.076   3.915   4.685  1.5966  1.5506  0.5263
 5933SOL     OW29260   3.351   1.838   6.810  0.0788 -0.1426  0.1172
 5933SOL    HW129261   3.434   1.836   6.762  2.8797  1.4132  4.9082
 5933SOL    HW229262   3.289   1.882   6.752  2.6961  1.6484 -1.3239
 5934SOL     OW29263   0.984   4.168   2.092 -0.3744  0.6031  0.4672
 5934SOL    HW129264   0.904   4.209   2.058 -0.4531 -2.2566 -2.8749
 5934SOL    HW229265   1.047   4.219   2.041 -1.1147 -0.5301 -1.6001
 5935SOL     OW29266   0.141   2.672  14.088  0.2974  0.4217  0.0175
 5935SOL    HW129267   0.110   2.646  14.175 -1.2313 -0.7245 -0.8738
 5935SOL    HW229268   0.122   2.586  14.050  0.0319  1.6506 -2.6174
 5936SOL     OW29269   4.185   0.971   7.317 -0.1001  0.0320  0.2099
 5936SOL    HW129270   4.137   0.892   7.292  1.3358 -1.2143  1.3502
 5936SOL    HW229271   4.124   1.008   7.381 -0.5959 -0.9288  0.2991
 5937SOL     OW29272   0.011   1.397   2.025  0.0937 -0.4191 -0.6331
 5937SOL    HW129273   4.642   1.389   2.025  0.0753 -0.5077  3.8710
 5937SOL    HW229274   0.031   1.488   2.046  1.7884 -0.4824 -1.9244
 5938SOL     OW29275   3.334   1.377   9.593 -0.6464 -0.2504  0.5634
 5938SOL    HW129276   3.294   1.390   9.680 -0.3014  2.5374  0.3045
 5938SOL    HW229277   3.298   1.452   9.545  2.2893 -0.6393 -2.1825
 5939SOL     OW29278   4.164   3.085   0.265  0.3459  0.1905  0.2319
 5939SOL    HW129279   4.102   3.093   0.338  0.2558  0.3735  0.1369
 5939SOL    HW229280   4.231   3.151   0.284  1.1178 -0.7004  0.6374
 5940SOL     OW29281   4.028   0.360   3.192  0.2834 -0.0561 -1.1076
 5940SOL    HW129282   3.998   0.437   3.144  1.0532  1.7367  1.2615
 5940SOL    HW229283   3.959   0.348   3.257  0.2173 -2.4626 -1.6518
 5941SOL     OW29284   2.807   3.914   9.450 -0.6922  0.3333 -0.3163
 5941SOL    HW129285   2.901   3.923   9.434 -0.5502  0.4253  0.6029
 5941SOL    HW229286   2.783   3.982   9.513  1.5671  2.7939 -2.1302
 5942SOL     OW29287   2.674   1.547   5.307 -0.0485  0.2611  0.1521
 5942SOL    HW129288   2.654   1.464   5.263 -1.6623  1.1865 -0.8916
 5942SOL    HW229289   2.714   1.524   5.390 -1.8973 -2.1796  0.3766
 5943SOL     OW29290   3.900   3.996   7.321 -0.3684  0.2304  0.4474
 5943SOL    HW129291   3.940   4.082   7.308  2.4796 -1.1550  0.0995
 5943SOL    HW229292   3.831   3.993   7.255 -0.9611 -0.7407  1.1026
 5944SOL     OW29293   1.900   3.074   3.818  0.4621  0.2195 -0.3786
 5944SOL    HW129294   1.899   2.980   3.802 -0.5413  0.1299  0.2193
 5944SOL    HW229295   1.972   3.100   3.760 -0.1254 -1.9695 -2.0981
 5945SOL     OW29296   0.620   3.856   1.177 -0.1368 -0.3347 -0.1545
 5945SOL    HW129297   0.681   3.795   1.217 -0.7471  0.5798  2.1911
 5945SOL    HW229298   0.684   3.925   1.160 -0.0277 -0.7744 -1.5494
 5946SOL     OW29299   2.894   1.875   9.733  0.5238 -0.3233 -0.0602
 5946SOL    HW129300   2.807   1.852   9.766  0.5486 -0.0908  0.1634
 5946SOL    HW229301   2.897   1.809   9.664  1.2886 -0.6516  0.3037
 5947SOL     OW29302   2.102   3.070   5.950 -0.1288 -0.5270 -0.3152
 5947SOL    HW129303   2.185   3.100   5.914  1.0174 -2.6323  0.5801
 5947SOL    HW229304   2.127   3.053   6.041 -2.0913  0.3093  0.3755
 5948SOL     OW29305   4.210   1.459   3.414 -0.1241  0.0869  0.7918
 5948SOL    HW129306   4.204   1.449   3.319  0.1509  1.8856  0.5973
 5948SOL    HW229307   4.213   1.553   3.428  0.4788  0.4876 -2.0683
 5949SOL     OW29308   4.172   4.600  17.328 -0.3085 -0.1026  0.0352
 5949SOL    HW129309   4.097   4.575  17.275  1.4363  0.5001 -2.7130
 5949SOL    HW229310   4.129   4.594  17.413  2.2593 -1.1404  1.2682
 5950SOL     OW29311   2.664   0.653  11.510 -0.0183 -0.1299 -0.1505
 5950SOL    HW129312   2.729   0.719  11.486 -0.0606 -0.4148 -1.0213
 5950SOL    HW229313   2.616   0.693  11.583 -0.0931 -0.2850 -0.1141
 5951SOL     OW29314   3.135   0.270   3.672 -0.2396 -0.0953 -0.5384
 5951SOL    HW129315   3.216   0.321   3.678 -0.6022  0.4886 -0.5373
 5951SOL    HW229316   3.091   0.336   3.619  0.5370  1.1486  0.3680
 5952SOL     OW29317   1.763   3.710   1.898 -0.1129  0.2342  0.2387
 5952SOL    HW129318   1.753   3.796   1.939 -0.0816  0.7116 -0.7367
 5952SOL    HW229319   1.828   3.729   1.830 -1.6075  0.1746 -1.1991
 5953SOL     OW29320   0.108   1.850   9.341  0.8062 -0.0361 -0.4376
 5953SOL    HW129321   0.122   1.755   9.339  0.4200 -0.0853 -1.0446
 5953SOL    HW229322   0.151   1.869   9.258 -1.1854  0.7090 -1.3107
 5954SOL     OW29323   3.014   4.239   8.855 -0.8092  0.0384 -0.5955
 5954SOL    HW129324   2.953   4.313   8.857 -1.4294 -0.4332 -2.1432
 5954SOL    HW229325   3.089   4.293   8.828 -1.1934  0.7048 -0.3478
 5955SOL     OW29326   1.605   4.515   7.089 -0.6913  0.1906  0.2357
 5955SOL    HW129327   1.603   4.527   6.994 -1.5028 -1.6731  0.0264
 5955SOL    HW229328   1.656   4.436   7.103  1.4553  1.6334  0.5919
 5956SOL     OW29329   0.413   1.761   1.120  0.2244  0.6012 -0.4438
 5956SOL    HW129330   0.384   1.714   1.042 -1.3238 -0.9182  1.0734
 5956SOL    HW229331   0.509   1.764   1.111  0.1185  1.1095 -1.3663
 5957SOL     OW29332   2.252   2.947  15.207 -0.6051  0.3639 -0.5336
 5957SOL    HW129333   2.298   2.867  15.234 -1.8294 -0.1977 -0.1060
 5957SOL    HW229334   2.184   2.944  15.275 -0.7877 -0.9280 -0.7797
 5958SOL     OW29335   0.268   1.493   5.007 -0.2733 -0.3252  0.3128
 5958SOL    HW129336   0.342   1.434   5.023 -0.4533 -0.3465  1.0803
 5958SOL    HW229337   0.229   1.454   4.929  0.7842  0.2062 -0.4863
 5959SOL     OW29338   2.761   3.719   9.240  0.3604 -0.1253  0.1296
 5959SOL    HW129339   2.802   3.678   9.315  0.1562 -1.3644 -0.4337
 5959SOL    HW229340   2.798   3.804   9.263 -0.0377  0.1459 -0.2257
 5960SOL     OW29341   2.754   4.478   9.233 -0.5201  0.5463  0.1822
 5960SOL    HW129342   2.842   4.441   9.223 -0.4667  0.4806  0.8578
 5960SOL    HW229343   2.697   4.438   9.168  0.2818 -0.4073  0.0675
 5961SOL     OW29344   2.966   4.393   4.203 -0.4102  0.5798 -0.1386
 5961SOL    HW129345   2.969   4.417   4.296 -0.7836 -0.4347  0.1443
 5961SOL    HW229346   3.037   4.439   4.160 -0.8002 -0.3638 -1.8072
 5962SOL     OW29347   1.439   0.086   0.126  0.8830  0.3334 -0.1574
 5962SOL    HW129348   1.367   0.148   0.115 -3.1689 -3.8565  2.9514
 5962SOL    HW229349   1.433   0.029   0.049 -0.6518 -0.9156  0.9001
 5963SOL     OW29350   2.960   0.649   0.210 -0.6249 -0.4571  0.3610
 5963SOL    HW129351   2.902   0.693   0.272 -0.7380  0.8133 -0.6569
 5963SOL    HW229352   3.025   0.719   0.208 -1.1352 -0.0335 -2.2506
 5964SOL     OW29353   2.485   0.120  16.431  0.1495  0.0381 -0.2471
 5964SOL    HW129354   2.514   0.201  16.472 -2.0640  0.9170 -0.3831
 5964SOL    HW229355   2.403   0.140  16.386 -1.3150 -0.0363  2.3934
 5965SOL     OW29356   1.434   3.806   7.951 -0.1066 -0.4163 -0.0259
 5965SOL    HW129357   1.379   3.880   7.924  0.7609  1.4329  3.2154
 5965SOL    HW229358   1.476   3.796   7.866  0.4101  0.6317  0.1073
 5966SOL     OW29359   4.408   3.293   5.284 -0.1703 -0.1173 -0.2790
 5966SOL    HW129360   4.492   3.300   5.329  0.6872 -0.7479 -1.7652
 5966SOL    HW229361   4.405   3.370   5.228 -0.4519  1.5336  2.0372
 5967SOL     OW29362   3.312   0.938   9.349 -0.0442  0.3062 -0.8432
 5967SOL    HW129363   3.248   0.998   9.312 -0.4806  0.1159 -0.3961
 5967SOL    HW229364   3.332   0.973   9.435 -1.1909 -0.5949 -0.2116
 5968SOL     OW29365   4.518   4.704  12.116  0.2599  0.5146 -0.6289
 5968SOL    HW129366   4.585   4.635  12.115 -1.3412 -1.0313 -1.2701
 5968SOL    HW229367   4.534   0.019  12.031  0.0449 -0.6853 -1.2508
 5969SOL     OW29368   4.574   2.844   2.260 -0.6424  0.6002  0.0528
 5969SOL    HW129369   4.649   2.823   2.204  0.6916  2.9816  0.9435
 5969SOL    HW229370   4.515   2.842   2.184 -1.8431  0.7027  1.0013
 5970SOL     OW29371   3.307   2.210   7.752 -0.9698 -0.0752 -0.1849
 5970SOL    HW129372   3.277   2.292   7.712  0.2114  1.4806  2.1523
 5970SOL    HW229373   3.323   2.239   7.841  0.2727 -1.4597  0.0279
 5971SOL     OW29374   2.377   4.402   9.411 -0.3431 -0.0132  0.1627
 5971SOL    HW129375   2.464   4.422   9.443 -0.6530  1.3881  0.1335
 5971SOL    HW229376   2.349   4.363   9.493  0.3653  1.4299  1.0830
 5972SOL     OW29377   1.467   4.141   8.111  0.0613 -0.2616 -0.3613
 5972SOL    HW129378   1.376   4.170   8.123 -0.0323 -0.6730 -0.0717
 5972SOL    HW229379   1.471   4.116   8.019  1.4331  1.2206 -0.7028
 5973SOL     OW29380   0.804   3.958   5.570 -0.9930 -0.1278 -0.1373
 5973SOL    HW129381   0.828   3.872   5.537 -0.8738  0.6676 -2.0968
 5973SOL    HW229382   0.870   4.013   5.529 -0.8529  0.2120  0.5417
 5974SOL     OW29383   3.602   4.447   7.885 -0.0358  0.1725 -0.5155
 5974SOL    HW129384   3.569   4.446   7.974 -0.1010 -2.5731 -0.5544
 5974SOL    HW229385   3.658   4.525   7.880  0.6487 -0.3429 -1.0165
 5975SOL     OW29386   0.855   3.745   4.821 -0.5389 -0.1232 -0.4297
 5975SOL    HW129387   0.878   3.771   4.732  3.0898 -0.2347  0.4677
 5975SOL    HW229388   0.772   3.791   4.821 -0.0910  0.6787 -0.9714
 5976SOL     OW29389   2.695   0.542   8.431  0.3832  0.1332 -0.5680
 5976SOL    HW129390   2.740   0.583   8.504 -1.8683 -0.3563  1.1127
 5976SOL    HW229391   2.745   0.462   8.414  0.7385 -0.2313  2.1582
 5977SOL     OW29392   3.779   2.463   2.383  0.0961  0.1283  0.1945
 5977SOL    HW129393   3.690   2.441   2.354  0.6486 -0.9335 -0.6873
 5977SOL    HW229394   3.782   2.404   2.458 -2.0022 -0.2184  0.0131
 5978SOL     OW29395   0.327   2.996   5.645 -0.2247 -0.3623 -0.5873
 5978SOL    HW129396   0.343   2.940   5.569 -0.4159 -0.3570 -0.6320
 5978SOL    HW229397   0.294   3.072   5.596  1.2195  0.0185 -0.9457
 5979SOL     OW29398   4.542   3.608   4.726  0.0015 -0.1213  0.1945
 5979SOL    HW129399   4.454   3.639   4.705 -0.7234 -2.7483 -0.5645
 5979SOL    HW229400   4.517   3.518   4.745 -2.0984  0.4049 -0.0790
 5980SOL     OW29401   0.909   2.542   2.029 -0.0059  0.0569 -0.2984
 5980SOL    HW129402   0.974   2.594   2.075  0.7338  0.3678 -1.6810
 5980SOL    HW229403   0.839   2.557   2.093  1.0689 -1.1222  1.1497
 5981SOL     OW29404   3.107   3.240  14.521 -0.2080  0.4450  0.5259
 5981SOL    HW129405   3.182   3.181  14.531 -2.3445 -2.1696  1.1980
 5981SOL    HW229406   3.037   3.179  14.496  0.3627  0.7799 -1.9162
 5982SOL     OW29407   3.907   1.539   4.221 -0.1506  0.6472 -0.0343
 5982SOL    HW129408   3.961   1.527   4.299  0.2288  1.1013 -0.2239
 5982SOL    HW229409   3.929   1.632   4.213 -1.0508  0.8328 -0.3404
 5983SOL     OW29410   3.572   4.442   5.701 -0.1718  0.3787  0.1750
 5983SOL    HW129411   3.642   4.390   5.741  0.7519  1.2206 -0.3582
 5983SOL    HW229412   3.599   4.530   5.726 -1.1740  0.9018 -0.5908
 5984SOL     OW29413   0.543   2.133  12.686 -0.4438  0.1868 -0.0044
 5984SOL    HW129414   0.505   2.150  12.599 -1.3546 -1.5722  0.0662
 5984SOL    HW229415   0.529   2.040  12.703  1.0758 -0.5132 -2.6745
 5985SOL     OW29416   2.949   3.192   4.420 -0.3665 -0.4739  0.0218
 5985SOL    HW129417   2.908   3.112   4.388 -0.2417 -0.1673 -0.9296
 5985SOL    HW229418   3.005   3.206   4.343  0.4406  0.6856  0.8184
 5986SOL     OW29419   4.521   1.857   0.896  0.8816  0.0862 -0.5694
 5986SOL    HW129420   4.544   1.881   0.987 -2.7832 -1.2468  0.6866
 5986SOL    HW229421   4.427   1.842   0.909  1.3741 -0.5036  2.4227
 5987SOL     OW29422   2.880   0.950   5.591 -0.4422  0.0946 -0.6335
 5987SOL    HW129423   2.934   1.015   5.635  0.6871  0.1012 -2.0205
 5987SOL    HW229424   2.829   1.001   5.529 -1.6548 -1.3788 -0.8566
 5988SOL     OW29425   2.268   0.317  16.072 -0.1407  0.2052 -0.1455
 5988SOL    HW129426   2.353   0.361  16.069 -0.4110  0.6919 -0.6723
 5988SOL    HW229427   2.207   0.388  16.050  1.3630  1.8634  1.0816
 5989SOL     OW29428   3.020   3.063  14.013 -0.0741 -0.3345 -0.0379
 5989SOL    HW129429   2.967   3.028  14.085  0.9265 -0.7460  0.5063
 5989SOL    HW229430   3.074   3.127  14.058 -3.3258  1.4337  1.3559
 5990SOL     OW29431   1.137   2.922  12.095 -0.4296  0.4544  0.1641
 5990SOL    HW129432   1.123   3.016  12.097  0.9897  0.6509  1.7015
 5990SOL    HW229433   1.168   2.910  12.185 -1.1034 -3.4516 -0.1017
 5991SOL     OW29434   3.786   0.392   4.539 -0.0498  0.3205 -0.6601
 5991SOL    HW129435   3.860   0.390   4.598 -0.1555  0.0143 -0.5354
 5991SOL    HW229436   3.825   0.431   4.461  0.8932  2.1138  0.7064
 5992SOL     OW29437   2.133   3.186   3.344  0.7114  0.0336 -0.0944
 5992SOL    HW129438   2.203   3.208   3.282  1.2521  0.1964  0.5709
 5992SOL    HW229439   2.080   3.265   3.331  0.5171  0.1410  1.3542
 5993SOL     OW29440   0.179   2.138  10.518 -0.5060  0.1002 -0.3555
 5993SOL    HW129441   0.244   2.187  10.567  0.3079  1.0931 -2.4522
 5993SOL    HW229442   0.229   2.130  10.437 -1.3429  2.5504 -1.1049
 5994SOL     OW29443   3.430   2.647  11.062  0.4559  0.4305 -0.5214
 5994SOL    HW129444   3.521   2.660  11.034  0.9860 -1.4405  0.3117
 5994SOL    HW229445   3.382   2.723  11.029 -0.2719  0.1813 -0.0461
 5995SOL     OW29446   2.581   4.637   6.354 -0.4136  0.0952  0.4869
 5995SOL    HW129447   2.664   4.610   6.315 -0.8538  0.4838 -0.7232
 5995SOL    HW229448   2.510   4.618   6.293 -1.1412  0.4531  1.2287
 5996SOL     OW29449   4.133   3.306   3.945  0.5400 -0.0562  0.1882
 5996SOL    HW129450   4.151   3.390   3.903 -1.0778 -0.5521 -1.5042
 5996SOL    HW229451   4.121   3.247   3.870 -0.1567 -0.5341  0.6705
 5997SOL     OW29452   1.617   0.901   6.113 -0.1539 -0.7780 -0.0487
 5997SOL    HW129453   1.581   0.990   6.117 -1.5974 -1.2721 -1.9154
 5997SOL    HW229454   1.540   0.856   6.148  0.6089 -1.9142  0.1480
 5998SOL     OW29455   2.511   2.677   5.420  0.1298 -0.0818 -0.3997
 5998SOL    HW129456   2.551   2.727   5.491 -1.5084 -2.6919  2.3773
 5998SOL    HW229457   2.549   2.719   5.343 -1.5062  0.2585 -1.0318
 5999SOL     OW29458   0.484   0.107   7.454 -0.0924  0.0811  0.6828
 5999SOL    HW129459   0.451   0.115   7.543 -0.2535 -0.7351  0.6938
 5999SOL    HW229460   0.475   0.199   7.431 -1.0444  0.3152  1.9789
 6000SOL     OW29461   0.309   1.371   0.307  0.0007 -0.0863 -0.0773
 6000SOL    HW129462   0.401   1.391   0.322  0.3843 -0.5701 -1.8372
 6000SOL    HW229463   0.304   1.296   0.366  2.7324 -0.6087 -0.5283
 6001SOL     OW29464   1.673   0.600  15.041  0.3008 -0.5552  0.2706
 6001SOL    HW129465   1.742   0.666  15.042  1.2915 -1.6824  3.4483
 6001SOL    HW229466   1.591   0.647  15.024  0.9803  0.9439  1.1604
 6002SOL     OW29467   0.104   1.581   4.187  0.7736 -0.0785  0.0748
 6002SOL    HW129468   0.063   1.509   4.236 -0.4216  0.7341  0.2633
 6002SOL    HW229469   0.166   1.524   4.141  1.5729  2.4160 -1.9149
 6003SOL     OW29470   0.079   2.841   9.711 -0.2245 -0.3345 -0.4159
 6003SOL    HW129471   0.067   2.832   9.617 -3.0892  1.2260 -0.2156
 6003SOL    HW229472   0.165   2.801   9.725  0.2299  0.4088 -1.1092
 6004SOL     OW29473   3.821   3.191  11.065 -0.9462  0.1806 -0.0086
 6004SOL    HW129474   3.876   3.254  11.111  2.4121 -5.0122  3.1174
 6004SOL    HW229475   3.836   3.114  11.120 -0.5558 -1.2365 -2.1040
 6005SOL     OW29476   1.211   1.302   4.769  0.2473  0.1205 -0.6971
 6005SOL    HW129477   1.115   1.305   4.767  0.3090  1.0932 -1.9624
 6005SOL    HW229478   1.233   1.317   4.861 -3.2880  0.2021  0.1346
 6006SOL     OW29479   1.727   3.483  10.954  0.4092  0.1419  0.3250
 6006SOL    HW129480   1.822   3.477  10.951  0.3674  0.7204 -1.5303
 6006SOL    HW229481   1.713   3.467  11.048  0.4834  2.5803  0.7709
 6007SOL     OW29482   0.821   4.200   9.307 -0.0435  0.3726 -0.3757
 6007SOL    HW129483   0.760   4.131   9.333  1.2268  0.0351  1.7387
 6007SOL    HW229484   0.772   4.232   9.231  0.6354  0.8432 -0.6187
 6008SOL     OW29485   2.749   2.517   4.399  0.7865 -0.0009 -0.0112
 6008SOL    HW129486   2.771   2.546   4.310  0.1963 -2.3703 -0.9297
 6008SOL    HW229487   2.685   2.580   4.432  0.8234  0.0435 -0.0251
 6009SOL     OW29488   2.614   0.275   7.947 -0.2674 -0.0990 -0.6246
 6009SOL    HW129489   2.667   0.272   8.027 -0.2737 -0.5601 -0.6370
 6009SOL    HW229490   2.613   0.366   7.919  0.2580 -0.3817 -1.5715
 6010SOL     OW29491   1.783   3.147   5.893 -0.5077  0.1499  0.4009
 6010SOL    HW129492   1.789   3.218   5.830  0.1236 -0.9189 -0.7237
 6010SOL    HW229493   1.858   3.096   5.865 -1.8293 -0.9577 -1.0829
 6011SOL     OW29494   1.371   2.404   6.213  0.1364 -0.0524  0.7080
 6011SOL    HW129495   1.289   2.437   6.250  1.0152  1.0875  1.6221
 6011SOL    HW229496   1.325   2.358   6.142  0.1876  0.8296  0.1002
 6012SOL     OW29497   2.671   4.022   4.074  0.8337  0.4414  0.1181
 6012SOL    HW129498   2.636   4.017   4.163 -0.0799 -0.0538 -0.2747
 6012SOL    HW229499   2.639   4.109   4.050 -1.1091 -0.7062 -1.4732
 6013SOL     OW29500   0.524   2.267   9.073 -0.2781  0.0682  0.1236
 6013SOL    HW129501   0.505   2.194   9.013 -0.1425  1.6279 -1.8024
 6013SOL    HW229502   0.441   2.286   9.115  0.4235  3.1208  0.0910
 6014SOL     OW29503   0.789   2.568   6.114  0.1386 -0.0007 -0.6851
 6014SOL    HW129504   0.715   2.629   6.117 -0.7637 -1.1642  1.3137
 6014SOL    HW229505   0.840   2.584   6.194 -0.1381  1.4738 -0.8169
 6015SOL     OW29506   0.150   1.366   3.664  0.5576  0.4809 -0.3356
 6015SOL    HW129507   0.103   1.437   3.707 -2.7011 -1.3693 -0.7664
 6015SOL    HW229508   0.127   1.389   3.574 -1.0347 -0.8777 -0.2967
 6016SOL     OW29509   0.776   1.193   3.911 -0.1872 -0.3447  0.9942
 6016SOL    HW129510   0.701   1.183   3.969 -0.5821  1.7064  0.8357
 6016SOL    HW229511   0.840   1.217   3.978  0.6481 -0.0713  0.1120
 6017SOL     OW29512   3.937   1.534  13.044  0.0019 -0.5995  0.4284
 6017SOL    HW129513   3.856   1.485  13.055 -1.7118  2.2772  0.4602
 6017SOL    HW229514   3.915   1.627  13.036 -0.5763 -0.8133 -0.3694
 6018SOL     OW29515   3.500   2.105  17.318 -0.2535 -0.5261 -0.1881
 6018SOL    HW129516   3.509   2.030  17.260 -0.3023  0.1366 -1.0403
 6018SOL    HW229517   3.497   2.184  17.264  0.7893 -0.1800  0.2643
 6019SOL     OW29518   3.179   4.639   4.075 -0.2298 -0.3579  0.0379
 6019SOL    HW129519   3.119   4.579   4.031 -0.6556 -0.4741  0.7663
 6019SOL    HW229520   3.253   4.633   4.015 -0.4739 -0.7461 -0.2247
 6020SOL     OW29521   1.696   4.352  14.769  0.1766 -0.3405 -0.6245
 6020SOL    HW129522   1.702   4.291  14.695  0.2946 -1.6809  0.4874
 6020SOL    HW229523   1.749   4.428  14.744  0.9925 -0.6814  0.0668
 6021SOL     OW29524   1.156   1.997   6.729 -0.1930  0.5202 -0.9455
 6021SOL    HW129525   1.190   1.983   6.641 -1.1867 -0.1432 -1.2215
 6021SOL    HW229526   1.064   2.021   6.716 -0.6834  0.0559  1.5800
 6022SOL     OW29527   2.160   3.512   2.624  0.3720 -0.7080  0.1896
 6022SOL    HW129528   2.158   3.417   2.628  2.8140 -0.7014  1.3982
 6022SOL    HW229529   2.121   3.531   2.709 -0.4833 -1.2448 -0.0794
 6023SOL     OW29530   2.983   2.328   5.317 -0.1180  0.2558 -0.5776
 6023SOL    HW129531   3.060   2.273   5.328 -0.3202 -0.0208 -0.5306
 6023SOL    HW229532   2.998   2.360   5.228 -0.0951  0.3849 -0.5276
 6024SOL     OW29533   3.132   0.371  17.067  0.0141 -0.0621  0.1985
 6024SOL    HW129534   3.107   0.462  17.056  2.5263  0.5770 -0.2619
 6024SOL    HW229535   3.082   0.358  17.147 -0.3548 -1.9677 -0.3293
 6025SOL     OW29536   3.036   2.628   2.303 -0.5587 -0.8652 -0.4966
 6025SOL    HW129537   3.109   2.605   2.246  1.2422  2.4081  0.5224
 6025SOL    HW229538   2.976   2.672   2.243  0.3074  0.0202 -0.7052
 6026SOL     OW29539   2.795   3.183   0.523 -0.0792  0.4292  0.1628
 6026SOL    HW129540   2.761   3.272   0.523  4.1749  2.0044 -0.1948
 6026SOL    HW229541   2.787   3.160   0.615 -0.1675 -0.7615 -0.1376
 6027SOL     OW29542   0.696   0.900   2.901 -0.1231 -0.1297  0.2336
 6027SOL    HW129543   0.750   0.882   2.978  0.4257  1.2955  0.1761
 6027SOL    HW229544   0.701   0.995   2.902  0.6771 -0.1586 -0.6513
 6028SOL     OW29545   0.187   1.745   2.550  0.1576 -0.0010  0.1156
 6028SOL    HW129546   0.186   1.714   2.641 -1.1953  2.1505  0.8295
 6028SOL    HW229547   0.233   1.675   2.504  2.3584  1.6144 -0.1229
 6029SOL     OW29548   3.525   3.663   3.846 -0.0893 -0.0002 -0.3747
 6029SOL    HW129549   3.467   3.715   3.902 -0.5510 -1.9121  0.9194
 6029SOL    HW229550   3.528   3.586   3.903 -0.9837 -0.5091 -1.0128
 6030SOL     OW29551   0.574   4.073   9.972  0.1217 -0.1915 -0.3401
 6030SOL    HW129552   0.517   4.022   9.913  0.3304 -0.1604 -0.5664
 6030SOL    HW229553   0.637   4.094   9.903  1.5576 -1.2154  0.6666
 6031SOL     OW29554   2.840   2.157   2.180 -0.5004  0.3057  0.2304
 6031SOL    HW129555   2.898   2.200   2.242  1.9198  2.1641 -3.3238
 6031SOL    HW229556   2.757   2.192   2.212 -0.3577  0.4249  0.4734
 6032SOL     OW29557   1.809   2.629   2.391  0.3959  0.2720 -0.2445
 6032SOL    HW129558   1.867   2.677   2.331  1.1223 -0.2604  0.0387
 6032SOL    HW229559   1.819   2.538   2.364 -1.3954 -0.3647  1.2757
 6033SOL     OW29560   1.106   3.304   2.977 -0.7244  0.6559  0.0554
 6033SOL    HW129561   1.120   3.399   2.982 -2.2844  0.8693  0.5290
 6033SOL    HW229562   1.036   3.294   3.042 -0.9736  0.8715 -0.1807
 6034SOL     OW29563   0.253   4.001   2.367  0.2840  0.2883  0.1026
 6034SOL    HW129564   0.325   4.024   2.426  0.1624  2.2781 -0.5100
 6034SOL    HW229565   0.197   3.954   2.428  1.9070 -2.1472 -0.3103
 6035SOL     OW29566   3.215   2.401   7.574 -0.1036 -0.3402  0.3742
 6035SOL    HW129567   3.205   2.363   7.486  1.0515  0.7086 -0.2201
 6035SOL    HW229568   3.203   2.495   7.564  2.0014  0.1125  2.0081
 6036SOL     OW29569   2.947   2.848   6.160  0.8212 -0.2340  0.2532
 6036SOL    HW129570   2.928   2.795   6.237  1.5148 -0.1919  0.4543
 6036SOL    HW229571   3.028   2.810   6.126  0.9467 -0.4899  0.8334
 6037SOL     OW29572   2.358   2.893  10.103  0.7444 -0.2468 -0.4552
 6037SOL    HW129573   2.367   2.797  10.099  0.7777 -0.2119 -1.2867
 6037SOL    HW229574   2.265   2.908  10.113  0.6107  1.2734 -3.9139
 6038SOL     OW29575   0.255   0.586  13.596 -0.1772  0.1285  0.3058
 6038SOL    HW129576   0.350   0.594  13.610 -0.0766  0.0396 -0.2835
 6038SOL    HW229577   0.242   0.503  13.549 -2.1764  0.8334 -0.3400
 6039SOL     OW29578   4.425   0.677   7.988 -0.2103 -0.3610 -0.1918
 6039SOL    HW129579   4.350   0.630   8.025  2.1737 -1.8645  2.7321
 6039SOL    HW229580   4.486   0.685   8.061 -0.9012 -0.1317  0.3626
 6040SOL     OW29581   1.661   3.150  14.390  0.3359  0.4980 -0.3266
 6040SOL    HW129582   1.648   3.069  14.438  1.2427  0.8643  0.5388
 6040SOL    HW229583   1.701   3.117  14.310  0.5686  0.9937 -0.4203
 6041SOL     OW29584   3.684   0.931   5.486 -0.1960 -0.4840 -0.2116
 6041SOL    HW129585   3.674   0.844   5.446 -1.4024  2.0911 -5.4430
 6041SOL    HW229586   3.714   0.974   5.406  1.5480  0.8746  1.1789
 6042SOL     OW29587   3.687   0.926   1.976 -0.2740  0.3841 -0.6875
 6042SOL    HW129588   3.644   0.841   1.980 -2.9784  1.7899  0.2531
 6042SOL    HW229589   3.782   0.914   1.982 -0.6014 -1.5322  0.8647
 6043SOL     OW29590   2.915   4.021   8.039 -0.3756 -0.5454  0.7281
 6043SOL    HW129591   2.863   4.076   8.098  1.0667  0.8873  0.6482
 6043SOL    HW229592   2.849   3.999   7.973  2.1381 -2.5396 -1.0985
 6044SOL     OW29593   2.367   1.201   9.095 -0.2510  0.0519  0.2186
 6044SOL    HW129594   2.461   1.190   9.082 -0.1603  1.6195 -0.4354
 6044SOL    HW229595   2.335   1.141   9.027  0.4485  0.2236 -0.2510
 6045SOL     OW29596   3.374   4.662   3.907 -0.0245  0.4136 -0.7124
 6045SOL    HW129597   3.398   0.015   3.859  0.5458 -0.3682 -1.7220
 6045SOL    HW229598   3.413   4.592   3.855 -0.5420  0.7530 -1.5563
 6046SOL     OW29599   4.679   1.584  11.568 -0.2507 -0.4835  0.5242
 6046SOL    HW129600   4.683   1.669  11.612 -0.7911  0.8706 -2.0571
 6046SOL    HW229601   4.652   1.624  11.486 -0.2849  0.5050  1.0153
 6047SOL     OW29602   4.323   2.952   8.876  0.3018 -0.3256  0.2226
 6047SOL    HW129603   4.337   2.997   8.793 -3.8857  2.8835  1.2581
 6047SOL    HW229604   4.227   2.956   8.871  0.4159  0.4519 -1.2404
 6048SOL     OW29605   2.292   2.482   3.495  0.1675  0.0704 -0.2074
 6048SOL    HW129606   2.267   2.573   3.483  1.4787  0.5963  0.9827
 6048SOL    HW229607   2.326   2.493   3.584  0.0366 -0.1306 -0.1325
 6049SOL     OW29608   1.245   3.858   5.234 -0.6120  0.1192 -0.2724
 6049SOL    HW129609   1.280   3.806   5.307  1.6137  2.4776  0.3271
 6049SOL    HW229610   1.229   3.793   5.166 -1.2889  0.7133 -0.6740
 6050SOL     OW29611   3.040   1.983   2.672 -0.1505  0.1322  0.1266
 6050SOL    HW129612   3.072   1.938   2.593 -0.8500 -0.8247  0.3790
 6050SOL    HW229613   3.095   1.957   2.746  0.3127  1.8989  0.3938
 6051SOL     OW29614   3.362   2.777   9.598  0.5292 -0.1524 -0.6927
 6051SOL    HW129615   3.360   2.702   9.657 -1.1775  1.0427  0.7415
 6051SOL    HW229616   3.405   2.743   9.519  0.9360 -2.0509  0.3609
 6052SOL     OW29617   3.482   3.016  17.663 -1.0043  0.1072  0.7550
 6052SOL    HW129618   3.536   3.090  17.634 -1.1769 -0.2556 -0.4849
 6052SOL    HW229619   3.426   3.015  17.586 -0.5561  0.9980  0.4155
 6053SOL     OW29620   3.853   0.400   4.132  0.2178  0.0026 -0.1445
 6053SOL    HW129621   3.853   0.477   4.076  0.3987  0.1762  0.0976
 6053SOL    HW229622   3.777   0.425   4.184  0.3446 -2.3520  1.1742
 6054SOL     OW29623   4.243   1.035  14.448  0.2188 -0.0878 -0.3140
 6054SOL    HW129624   4.259   0.942  14.433  1.5759 -0.1192  1.3963
 6054SOL    HW229625   4.328   1.078  14.439  0.7224 -1.0311  0.0023
 6055SOL     OW29626   0.696   0.257   3.226  0.1317 -0.4329 -0.2202
 6055SOL    HW129627   0.707   0.295   3.139  3.1984 -1.4409 -0.2864
 6055SOL    HW229628   0.783   0.219   3.237 -0.2417 -1.4566 -0.7907
 6056SOL     OW29629   0.627   1.645  16.925 -0.3543 -0.0988  1.1035
 6056SOL    HW129630   0.542   1.625  16.885 -0.0803  0.0405  0.4508
 6056SOL    HW229631   0.643   1.734  16.894  0.3010 -0.4296  0.4971
 6057SOL     OW29632   4.713   3.825   6.988  0.0220 -0.3558  0.3957
 6057SOL    HW129633   0.020   3.911   7.012  0.9740 -0.1525 -1.6153
 6057SOL    HW229634   4.677   3.835   6.900  0.4931 -1.4456  0.0734
 6058SOL     OW29635   2.679   4.177   6.526 -0.3215  0.2884  0.4171
 6058SOL    HW129636   2.738   4.125   6.582  0.0680  0.6676  0.3631
 6058SOL    HW229637   2.737   4.174   6.450 -0.5709  2.0012  0.1545
 6059SOL     OW29638   4.555   3.740  11.799 -0.2265  0.6135 -0.0298
 6059SOL    HW129639   4.534   3.777  11.713 -0.2300 -0.2018 -0.3843
 6059SOL    HW229640   4.566   3.645  11.786  0.2329  0.9491 -2.1377
 6060SOL     OW29641   0.176   1.970   7.635  0.4592 -0.3804  0.4675
 6060SOL    HW129642   0.262   1.934   7.611  1.5660  0.8467  2.5675
 6060SOL    HW229643   0.161   1.935   7.723 -0.1115  1.5958  1.1612
 6061SOL     OW29644   3.911   0.096  15.797  0.3439  0.6515  0.2024
 6061SOL    HW129645   3.989   0.150  15.811  2.7568 -2.8804  0.2524
 6061SOL    HW229646   3.889   0.073  15.887  0.2947  3.2342  0.8515
 6062SOL     OW29647   0.980   0.121  16.244  0.0201 -0.3367  0.2178
 6062SOL    HW129648   0.917   0.192  16.238  0.6039  0.3609  2.7362
 6062SOL    HW229649   1.061   0.169  16.262 -1.3809  1.7859  0.8268
 6063SOL     OW29650   4.289   0.017   4.584 -0.3921 -0.4720  0.4941
 6063SOL    HW129651   4.297   4.649   4.574 -0.2116 -0.2822 -1.1389
 6063SOL    HW229652   4.295   0.017   4.680 -0.3374 -0.9579  0.4914
 6064SOL     OW29653   1.386   2.936   5.372 -0.2813  0.1073  0.2890
 6064SOL    HW129654   1.390   2.929   5.276 -0.5006 -1.0043  0.3608
 6064SOL    HW229655   1.469   2.901   5.404 -0.9919 -0.7083  1.2319
 6065SOL     OW29656   0.044   0.242   9.289  0.1520 -0.5204  0.1863
 6065SOL    HW129657   0.011   0.260   9.377  0.8839  0.0679  0.3464
 6065SOL    HW229658   0.110   0.311   9.278 -0.0194 -0.8606 -2.8774
 6066SOL     OW29659   3.085   4.176   5.170  0.3532  0.0966 -0.0242
 6066SOL    HW129660   3.130   4.111   5.223 -0.8866  1.5904  2.8670
 6066SOL    HW229661   3.160   4.234   5.155  0.0478  0.8014  1.1814
 6067SOL     OW29662   2.368   3.700   1.718  0.5153 -0.0171  0.2640
 6067SOL    HW129663   2.344   3.708   1.810 -0.0203  1.9361 -0.0308
 6067SOL    HW229664   2.432   3.770   1.711 -1.3844  1.7628  0.5139
 6068SOL     OW29665   4.302   2.151   3.302 -0.2607 -0.6273  0.2788
 6068SOL    HW129666   4.280   2.081   3.363 -0.4464 -0.1140  0.8053
 6068SOL    HW229667   4.382   2.179   3.347 -0.4277  0.5127 -0.1295
 6069SOL     OW29668   0.761   0.302   2.349 -0.1559 -0.3899  0.1203
 6069SOL    HW129669   0.730   0.275   2.263  0.5553 -1.2028  0.1174
 6069SOL    HW229670   0.708   0.250   2.410  0.3696 -2.2605 -1.0135
 6070SOL     OW29671   4.330   4.622   2.114 -0.6950 -0.0611  0.1337
 6070SOL    HW129672   4.411   4.573   2.123 -1.0721 -0.2560  2.5751
 6070SOL    HW229673   4.282   4.576   2.046  0.2393  0.7117 -1.0392
 6071SOL     OW29674   0.281   0.624   3.689 -0.1134  0.4731 -0.1931
 6071SOL    HW129675   0.225   0.701   3.687  0.0781  0.6489  1.4066
 6071SOL    HW229676   0.325   0.642   3.605 -0.3304 -0.9530 -0.6106
 6072SOL     OW29677   0.424   0.652   4.385 -0.0034  0.1647 -0.3787
 6072SOL    HW129678   0.366   0.577   4.394  1.6726 -1.1308 -0.4494
 6072SOL    HW229679   0.408   0.692   4.471 -2.0257  1.0474 -1.1739
 6073SOL     OW29680   1.693   3.587   7.037 -0.2092  0.3545  0.2972
 6073SOL    HW129681   1.606   3.558   7.065  0.3010 -1.5571 -0.0754
 6073SOL    HW229682   1.680   3.681   7.047 -2.4387 -0.0410  1.0478
 6074SOL     OW29683   2.230   3.504   3.981 -0.5977 -0.4491 -0.0521
 6074SOL    HW129684   2.317   3.525   3.945 -1.0901  1.7601  0.0607
 6074SOL    HW229685   2.211   3.422   3.934  1.5326  0.3024 -2.2646
 6075SOL     OW29686   3.325   1.116  13.393 -0.2471 -0.0709 -0.7928
 6075SOL    HW129687   3.376   1.133  13.472  0.1845  0.8453 -1.2632
 6075SOL    HW229688   3.293   1.200  13.361 -1.1872 -0.1792 -0.1247
 6076SOL     OW29689   1.260   0.566   2.387  0.4946 -0.0415  0.2891
 6076SOL    HW129690   1.189   0.504   2.367  1.2309 -0.8887  0.2998
 6076SOL    HW229691   1.330   0.502   2.404  0.5944 -0.1812 -0.6129
 6077SOL     OW29692   2.540   1.800   5.435 -0.0146 -0.4435 -0.6498
 6077SOL    HW129693   2.595   1.827   5.509 -1.0725 -2.4287  0.8580
 6077SOL    HW229694   2.566   1.712   5.409 -0.6120 -0.6643 -0.4948
 6078SOL     OW29695   3.014   0.285   0.940  0.9432  0.4850 -0.3805
 6078SOL    HW129696   2.997   0.230   0.863  3.7380 -2.3186  1.0258
 6078SOL    HW229697   2.924   0.287   0.971  1.3612  1.4367  0.7509
 6079SOL     OW29698   3.230   2.657   2.533 -0.4464  0.1032 -0.4394
 6079SOL    HW129699   3.155   2.665   2.475  0.6914 -0.4884 -1.9909
 6079SOL    HW229700   3.287   2.588   2.499 -1.0185 -2.0457  3.0391
 6080SOL     OW29701   4.188   1.817   1.853  0.3968  0.0397 -0.2403
 6080SOL    HW129702   4.213   1.820   1.761  0.7344 -3.7057 -0.2672
 6080SOL    HW229703   4.267   1.819   1.907  0.5635  0.0427 -0.4842
 6081SOL     OW29704   0.983   0.580   3.123  0.8863  0.5011  0.0045
 6081SOL    HW129705   1.065   0.623   3.099  0.5700  1.2798  0.3122
 6081SOL    HW229706   0.954   0.536   3.042  1.3935 -0.4975  0.3657
 6082SOL     OW29707   4.417   3.520  11.025  0.0481  0.0927 -0.5647
 6082SOL    HW129708   4.348   3.576  10.989 -1.2077 -1.4402 -0.5544
 6082SOL    HW229709   4.488   3.580  11.048  0.5685 -0.1883 -1.4465
 6083SOL     OW29710   3.274   0.492   3.053 -0.0636  0.1004  0.5858
 6083SOL    HW129711   3.310   0.509   2.966 -1.7254 -0.2866 -0.1889
 6083SOL    HW229712   3.336   0.424   3.077  0.1814  0.2887  0.4877
 6084SOL     OW29713   3.976   3.058   9.384 -1.4934 -0.3511  0.2431
 6084SOL    HW129714   3.939   3.137   9.424 -2.1613 -1.2511  1.3973
 6084SOL    HW229715   4.019   3.018   9.458  1.3426  2.4699  0.1295
 6085SOL     OW29716   3.108   1.615   6.585  0.2224  0.1800  0.3174
 6085SOL    HW129717   3.156   1.619   6.668  0.8646 -0.2338 -0.0320
 6085SOL    HW229718   3.180   1.655   6.536  2.0763 -1.3224  1.8390
 6086SOL     OW29719   3.207   1.864   1.906 -0.7760  0.0478 -0.6418
 6086SOL    HW129720   3.198   1.867   1.810 -0.9339 -2.3745 -0.7174
 6086SOL    HW229721   3.192   1.770   1.913 -0.1986  0.1460  1.6552
 6087SOL     OW29722   1.908   2.040   8.039 -0.3960 -0.1915 -0.0777
 6087SOL    HW129723   1.885   2.052   7.947 -1.0456 -0.8086  0.0011
 6087SOL    HW229724   1.820   2.051   8.077 -0.7664 -0.5495 -0.8330
 6088SOL     OW29725   0.796   4.092   8.587 -0.4704  0.2883 -0.6656
 6088SOL    HW129726   0.887   4.089   8.617 -0.5833  0.6247 -0.2882
 6088SOL    HW229727   0.753   4.090   8.673 -2.1707  1.3926 -1.4930
 6089SOL     OW29728   3.260   4.374   9.348  0.3061 -0.1124  0.4554
 6089SOL    HW129729   3.227   4.434   9.415 -0.3722  2.9056 -2.5934
 6089SOL    HW229730   3.331   4.416   9.300  0.3891  1.9181  2.3783
 6090SOL     OW29731   2.080   2.285   8.905 -0.4700 -0.2641 -0.5207
 6090SOL    HW129732   2.018   2.323   8.968  1.3317 -0.9354  1.6426
 6090SOL    HW229733   2.138   2.361   8.895 -0.3499 -0.4169 -0.9714
 6091SOL     OW29734   1.115   2.789   8.166  0.4228  0.9609 -0.1417
 6091SOL    HW129735   1.083   2.713   8.215 -1.0077  1.5554 -0.1471
 6091SOL    HW229736   1.053   2.787   8.093 -0.0698  1.1625  0.2751
 6092SOL     OW29737   3.700   3.026   3.687 -0.1858 -0.2204 -0.2056
 6092SOL    HW129738   3.698   2.932   3.669  0.3819 -0.3241  0.2603
 6092SOL    HW229739   3.794   3.044   3.681 -0.7385  2.6461 -0.5570
 6093SOL     OW29740   4.530   1.033   1.139  0.7072  0.4843  0.0713
 6093SOL    HW129741   4.553   1.108   1.084  0.3282 -0.3576 -1.2166
 6093SOL    HW229742   4.435   1.026   1.139  0.7048  0.5116  0.4138
 6094SOL     OW29743   2.392   2.324  10.548  0.0535  0.1334  0.3437
 6094SOL    HW129744   2.446   2.344  10.471  0.1369 -0.2707  0.2935
 6094SOL    HW229745   2.433   2.373  10.618 -0.2453 -2.4983  2.3524
 6095SOL     OW29746   4.466   4.583   5.526  0.6746  0.0836  0.1172
 6095SOL    HW129747   4.540   4.541   5.568  0.0848 -0.2102  0.8587
 6095SOL    HW229748   4.512   4.650   5.475  0.7584 -0.4995 -0.5685
 6096SOL     OW29749   1.677   0.657   2.485  0.0570 -0.6732 -0.3705
 6096SOL    HW129750   1.654   0.586   2.424 -0.7204  0.5924 -1.5414
 6096SOL    HW229751   1.668   0.614   2.570 -2.5999 -0.4426 -0.5216
 6097SOL     OW29752   2.438   0.490   5.684 -0.1030  0.0696  0.1869
 6097SOL    HW129753   2.374   0.525   5.621 -0.0922 -1.0245 -0.4343
 6097SOL    HW229754   2.457   0.564   5.742 -3.6172  1.6981 -0.7218
 6098SOL     OW29755   1.566   3.745   2.617  0.4636 -0.2234  0.2968
 6098SOL    HW129756   1.584   3.688   2.692 -2.7250 -1.8328 -0.1688
 6098SOL    HW229757   1.471   3.735   2.623  0.2581  0.8932 -1.0950
 6099SOL     OW29758   0.405   4.501   9.036 -0.2588 -0.4663 -0.6209
 6099SOL    HW129759   0.347   4.432   9.002 -0.8712  0.9257 -2.3958
 6099SOL    HW229760   0.475   4.488   8.972 -1.4611 -2.7650 -1.4942
 6100SOL     OW29761   4.290   2.017   8.423 -0.2897 -0.5677  0.1884
 6100SOL    HW129762   4.303   2.012   8.517  0.1862 -1.3103  0.0880
 6100SOL    HW229763   4.373   2.043   8.382  1.7742 -1.9426  3.5226
 6101SOL     OW29764   3.813   3.938   9.740 -0.2317 -0.4506  0.1424
 6101SOL    HW129765   3.855   4.023   9.728 -2.2206  0.6832  1.3622
 6101SOL    HW229766   3.741   3.933   9.677  1.2435  1.0233 -1.6648
 6102SOL     OW29767   3.619   1.909   5.206  0.0585 -0.1750  0.3115
 6102SOL    HW129768   3.712   1.888   5.219  0.5903  2.1473  0.1377
 6102SOL    HW229769   3.579   1.832   5.166 -2.1882  1.0975  0.1425
 6103SOL     OW29770   0.651   3.730   7.701  0.3719  0.2069 -0.0659
 6103SOL    HW129771   0.610   3.695   7.621  1.3746  0.1233 -0.5363
 6103SOL    HW229772   0.616   3.819   7.695  0.1556  0.1156 -0.2028
 6104SOL     OW29773   3.360   2.539  17.261  0.0314 -0.4139  0.0847
 6104SOL    HW129774   3.402   2.611  17.214 -0.6152 -0.0296  0.0893
 6104SOL    HW229775   3.272   2.576  17.265  0.3245  0.2978 -0.0172
 6105SOL     OW29776   2.360   2.892   7.910  0.0654  0.3233  0.7923
 6105SOL    HW129777   2.289   2.898   7.974 -0.1653  1.4805  0.4323
 6105SOL    HW229778   2.329   2.965   7.856 -0.9488 -1.1087 -0.5776
 6106SOL     OW29779   0.353   0.378   2.572  0.4091 -0.2958 -0.1247
 6106SOL    HW129780   0.262   0.347   2.568  0.5222 -0.5581 -0.6077
 6106SOL    HW229781   0.338   0.466   2.537  2.0488 -0.5461 -1.4130
 6107SOL     OW29782   2.439   0.077   4.826 -0.4269 -0.5691  0.6228
 6107SOL    HW129783   2.510   0.026   4.863 -1.0497 -0.7840  1.5359
 6107SOL    HW229784   2.405   0.014   4.763  0.1177 -0.6628  0.4232
 6108SOL     OW29785   0.452   2.911   7.877  0.2659  0.1873 -0.3274
 6108SOL    HW129786   0.415   2.970   7.811 -0.0407  3.2961  2.6635
 6108SOL    HW229787   0.398   2.931   7.953  3.2330 -1.2619  2.1925
 6109SOL     OW29788   2.649   1.372   8.104 -0.2449 -0.2454 -0.0644
 6109SOL    HW129789   2.648   1.468   8.097 -2.2722 -0.1807  1.2584
 6109SOL    HW229790   2.718   1.351   8.041 -1.5269 -0.9320 -1.2087
 6110SOL     OW29791   0.152   0.402   4.201  0.8137  0.0760 -0.8556
 6110SOL    HW129792   0.090   0.463   4.242  0.4721  0.1392 -1.4763
 6110SOL    HW229793   0.195   0.376   4.283 -0.5505  0.4902  0.0099
 6111SOL     OW29794   0.414   2.744   5.865  0.0638 -0.1135 -0.4877
 6111SOL    HW129795   0.364   2.733   5.784  0.0129 -1.5245 -0.2555
 6111SOL    HW229796   0.470   2.822   5.864  0.6668 -0.5447 -0.6570
 6112SOL     OW29797   2.229   0.233   7.266 -0.5582  0.3235  0.5940
 6112SOL    HW129798   2.186   0.179   7.199 -1.9842 -0.3823  2.0934
 6112SOL    HW229799   2.168   0.303   7.288  0.0928  1.7153 -2.0321
 6113SOL     OW29800   3.234   0.977   3.375  0.3876 -0.1310  0.1578
 6113SOL    HW129801   3.181   1.047   3.413  1.0146 -0.0703  0.9322
 6113SOL    HW229802   3.236   0.913   3.446 -0.6590  0.4362  0.6887
 6114SOL     OW29803   3.274   2.909   3.538 -0.4233 -0.0726 -0.7015
 6114SOL    HW129804   3.293   2.835   3.481 -0.9372 -2.2903  1.9913
 6114SOL    HW229805   3.214   2.960   3.484  0.3944  1.4395 -0.1983
 6115SOL     OW29806   3.814   4.540   5.494 -0.3365  0.4106  0.7094
 6115SOL    HW129807   3.824   4.634   5.480  3.0703  0.1901  1.4452
 6115SOL    HW229808   3.722   4.540   5.517 -0.7370  1.3326 -0.9040
 6116SOL     OW29809   2.158   4.221   2.918  0.1315  0.7545 -0.4597
 6116SOL    HW129810   2.140   4.127   2.918 -1.2571  1.0220 -0.6942
 6116SOL    HW229811   2.092   4.251   2.856  1.0565  0.9115 -1.3804
 6117SOL     OW29812   2.332   2.138   5.707 -0.0226 -0.3365  0.0092
 6117SOL    HW129813   2.267   2.152   5.638  2.7043 -0.3360 -2.5173
 6117SOL    HW229814   2.402   2.199   5.687 -1.0316  0.0774 -2.2137
 6118SOL     OW29815   1.835   3.986   9.845  0.0422  0.4381 -0.1549
 6118SOL    HW129816   1.832   4.078   9.818  1.3054  0.0789 -1.5003
 6118SOL    HW229817   1.919   3.962   9.806 -0.9166 -0.6429 -1.5177
 6119SOL     OW29818   3.324   3.160   6.708  0.3472  0.1717 -0.6049
 6119SOL    HW129819   3.401   3.174   6.763  1.4337  0.1244 -2.1071
 6119SOL    HW229820   3.346   3.081   6.659  2.1599  0.8333 -0.8672
 6120SOL     OW29821   2.923   1.887   3.713 -0.2699 -0.1406 -0.0430
 6120SOL    HW129822   2.851   1.949   3.727  1.8648  2.1917  0.4517
 6120SOL    HW229823   2.915   1.824   3.784 -0.9450  0.0237  0.0254
 6121SOL     OW29824   1.186   4.712   2.059  0.1804  0.3436  0.0800
 6121SOL    HW129825   1.125   4.711   1.986  0.4594  1.3454 -0.1739
 6121SOL    HW229826   1.134   0.041   2.117  2.7448  0.4159  2.3474
 6122SOL     OW29827   0.269   3.453   3.020  0.4728  0.0446 -0.0473
 6122SOL    HW129828   0.193   3.451   2.962  0.5229 -0.9506 -0.0729
 6122SOL    HW229829   0.225   3.474   3.102 -1.9923  0.4454 -1.4737
 6123SOL     OW29830   3.147   0.886   8.346  0.4030  0.0414  0.4367
 6123SOL    HW129831   3.127   0.818   8.411  1.6958 -0.0471  0.7313
 6123SOL    HW229832   3.078   0.951   8.360  0.1645 -0.0118 -0.4709
 6124SOL     OW29833   3.908   1.420   1.705  0.7136  0.0367 -0.1405
 6124SOL    HW129834   3.863   1.437   1.622  1.5010 -4.3599 -1.4873
 6124SOL    HW229835   3.837   1.383   1.757  0.4683  0.3148 -0.2814
 6125SOL     OW29836   4.021   2.752   4.906 -0.1160 -0.0574  0.8182
 6125SOL    HW129837   4.057   2.811   4.972 -0.5690 -0.6315  1.5823
 6125SOL    HW229838   4.097   2.698   4.883 -0.9863 -1.8117  2.0721
 6126SOL     OW29839   3.500   4.195   6.821  0.5063  0.3981 -0.1719
 6126SOL    HW129840   3.557   4.187   6.744 -0.1087  0.1411 -0.6098
 6126SOL    HW229841   3.430   4.251   6.788 -0.3831  0.2652  1.5279
 6127SOL     OW29842   3.951   2.781   5.237 -0.2813 -0.2160  0.2339
 6127SOL    HW129843   3.935   2.767   5.330  0.0013 -0.1691  0.2908
 6127SOL    HW229844   3.874   2.825   5.201  0.5161  0.5363 -0.5451
 6128SOL     OW29845   1.148   0.724   6.163 -0.2713 -0.7850  0.4730
 6128SOL    HW129846   1.182   0.672   6.090 -0.0786 -0.3321  0.2397
 6128SOL    HW229847   1.073   0.676   6.198 -0.7457 -1.2175 -1.1315
 6129SOL     OW29848   1.393   4.655   9.583 -0.0960 -0.0761  0.3093
 6129SOL    HW129849   1.434   4.571   9.602  0.0444 -0.6903 -2.6689
 6129SOL    HW229850   1.396   4.650   9.488  0.0285  1.7861  0.1965
 6130SOL     OW29851   4.032   4.645   9.210  0.0018 -0.2200 -0.4546
 6130SOL    HW129852   4.073   4.567   9.248  0.6680  0.5984  0.5261
 6130SOL    HW229853   4.119   4.683   9.218 -0.9781  2.3440 -2.1692
 6131SOL     OW29854   4.051   4.191   8.596  0.1065 -0.1742 -0.2514
 6131SOL    HW129855   4.004   4.121   8.642 -1.4243  0.4339 -0.8970
 6131SOL    HW229856   3.987   4.231   8.538  0.9548 -0.8008 -1.6161
 6132SOL     OW29857   3.746   0.567   3.629  0.5529 -0.2836 -0.0696
 6132SOL    HW129858   3.693   0.575   3.550  0.4244 -1.4445 -0.1018
 6132SOL    HW229859   3.822   0.520   3.595  1.0915  1.4571 -1.2679
 6133SOL     OW29860   3.479   4.267   9.513 -0.2485 -0.0248  0.2841
 6133SOL    HW129861   3.400   4.270   9.459 -1.7758  0.0981  2.5033
 6133SOL    HW229862   3.482   4.355   9.551  2.1354  0.9320 -2.1451
 6134SOL     OW29863   4.064   1.639   4.949  0.2463  0.2989  0.4128
 6134SOL    HW129864   3.971   1.643   4.926  0.6423 -1.3856 -1.5711
 6134SOL    HW229865   4.080   1.732   4.963 -0.4202  0.2997  1.1402
 6135SOL     OW29866   0.469   4.138   7.236  0.5487  0.0094  0.0611
 6135SOL    HW129867   0.457   4.137   7.141  0.5482  1.5746  0.0588
 6135SOL    HW229868   0.417   4.216   7.252 -0.6684 -0.6871 -0.4663
 6136SOL     OW29869   0.319   2.222   3.918  0.4015  0.0254 -0.0613
 6136SOL    HW129870   0.368   2.287   3.868 -1.0088 -0.5962 -2.2378
 6136SOL    HW229871   0.265   2.283   3.969  0.2864 -2.1433  2.4320
 6137SOL     OW29872   1.808   4.122   0.713 -0.1596 -0.6087 -0.4933
 6137SOL    HW129873   1.879   4.161   0.764 -1.7604  1.4623  0.1736
 6137SOL    HW229874   1.784   4.193   0.653 -0.6292  1.8221  2.5904
 6138SOL     OW29875   1.228   0.426   9.139  0.3264  0.2632  0.5239
 6138SOL    HW129876   1.223   0.344   9.189  0.1086  0.1813  0.3690
 6138SOL    HW229877   1.203   0.483   9.212 -1.6297  1.3390 -1.0024
 6139SOL     OW29878   3.710   2.866   3.282  0.2373  0.7237 -0.3808
 6139SOL    HW129879   3.734   2.958   3.275 -0.8594  0.9657 -0.9061
 6139SOL    HW229880   3.644   2.864   3.213 -0.9293 -0.6296  0.7765
 6140SOL     OW29881   3.957   3.423   7.520  0.6438 -0.6056 -0.5754
 6140SOL    HW129882   3.968   3.515   7.545 -0.4213 -0.4062 -0.8017
 6140SOL    HW229883   3.902   3.404   7.596  1.6544  0.2148  0.3561
 6141SOL     OW29884   0.453   3.344  12.710  0.0373 -0.3630 -0.9337
 6141SOL    HW129885   0.379   3.396  12.680  0.8406 -0.0054 -2.3176
 6141SOL    HW229886   0.523   3.390  12.664  1.3928 -1.1502  0.3262
 6142SOL     OW29887   0.121   1.333   3.177 -0.8338  0.0889 -0.0246
 6142SOL    HW129888   0.081   1.257   3.134  0.1257 -0.0352 -0.6975
 6142SOL    HW229889   0.091   1.399   3.115  0.2225  0.7774  0.2049
 6143SOL     OW29890   0.733   3.933   9.442  0.2473  0.0629 -1.0772
 6143SOL    HW129891   0.675   4.009   9.436 -0.2174 -0.2349 -0.4406
 6143SOL    HW229892   0.680   3.861   9.478 -0.0743  1.6093  1.5318
 6144SOL     OW29893   3.641   4.458   8.713  0.1389 -0.3756 -0.4840
 6144SOL    HW129894   3.597   4.506   8.643 -0.1704  0.5711  0.3566
 6144SOL    HW229895   3.617   4.522   8.780  1.0663 -1.1269  0.5710
 6145SOL     OW29896   1.612   2.432   7.088  0.3036  0.4946 -0.1369
 6145SOL    HW129897   1.676   2.455   7.021  0.2550  2.3923  0.4782
 6145SOL    HW229898   1.535   2.429   7.030  1.1077  0.5144 -1.2052
 6146SOL     OW29899   1.620   1.929  10.184  0.2157  0.1444  0.3265
 6146SOL    HW129900   1.682   1.961  10.250  0.6624  0.7740 -0.4037
 6146SOL    HW229901   1.577   1.863  10.239  1.9181 -2.2549 -1.2191
 6147SOL     OW29902   0.358   0.822  17.327 -0.3292 -0.5501  0.1612
 6147SOL    HW129903   0.418   0.894  17.347  0.8173 -1.2774 -0.6544
 6147SOL    HW229904   0.321   0.801  17.412  3.8471 -1.9935  1.6397
 6148SOL     OW29905   1.255   1.778   4.752  0.3665  0.0655 -0.0701
 6148SOL    HW129906   1.295   1.838   4.815 -1.7760  0.6227  0.7481
 6148SOL    HW229907   1.185   1.837   4.723  0.0195 -0.0085  0.6340
 6149SOL     OW29908   3.939   2.062   3.789 -0.0492  0.2313 -0.2867
 6149SOL    HW129909   3.875   2.089   3.724  0.4553  2.0828 -0.0199
 6149SOL    HW229910   3.903   2.109   3.864  2.6451 -0.1386  1.2520
 6150SOL     OW29911   2.482   2.751  11.361 -0.0671 -0.8130 -0.2075
 6150SOL    HW129912   2.400   2.749  11.411  0.7541  0.3150  1.1682
 6150SOL    HW229913   2.535   2.811  11.414  0.7058  0.0905 -2.0023
 6151SOL     OW29914   2.169   0.026  15.222  0.0056 -0.1166 -0.1170
 6151SOL    HW129915   2.182   0.058  15.311 -2.1735 -1.5454  0.6842
 6151SOL    HW229916   2.190   0.108  15.176 -2.2634 -0.2149 -1.3249
 6152SOL     OW29917   1.503   3.406  10.805 -0.3029 -0.6486  0.5381
 6152SOL    HW129918   1.472   3.331  10.855  1.1079 -1.3127  0.3934
 6152SOL    HW229919   1.577   3.447  10.850 -1.4552  0.8069  1.1354
 6153SOL     OW29920   4.236   0.505   4.061 -0.5962  0.3908  0.0191
 6153SOL    HW129921   4.217   0.538   3.973  0.3856 -3.3271 -1.6025
 6153SOL    HW229922   4.294   0.438   4.026 -0.4965  1.2416 -1.4327
 6154SOL     OW29923   1.982   4.500   7.945  0.4782  0.3386  0.2530
 6154SOL    HW129924   2.019   4.548   8.019  1.2689 -1.6563  1.1476
 6154SOL    HW229925   2.057   4.499   7.885 -0.5716 -0.2012 -1.0705
 6155SOL     OW29926   1.135   0.657  14.888  0.5858 -0.4012  0.3469
 6155SOL    HW129927   1.050   0.629  14.853  1.3136 -0.3846 -1.4156
 6155SOL    HW229928   1.158   0.712  14.814  1.4772 -0.3121  0.6878
 6156SOL     OW29929   1.677   4.202   2.594  0.7636  0.2799  0.1560
 6156SOL    HW129930   1.697   4.163   2.508  0.2762  2.0571 -0.7608
 6156SOL    HW229931   1.645   4.128   2.646  1.2900  0.0863  0.2037
 6157SOL     OW29932   1.914   1.694   3.174  0.7442  0.2545 -0.0415
 6157SOL    HW129933   1.849   1.733   3.115  0.1822  0.2803  0.5912
 6157SOL    HW229934   1.886   1.603   3.181  1.3490  0.0616 -0.1750
 6158SOL     OW29935   1.849   3.368   2.907  0.6854 -0.0484 -0.2533
 6158SOL    HW129936   1.802   3.295   2.946 -0.0093  1.9504  2.6737
 6158SOL    HW229937   1.793   3.377   2.830  1.0252  1.8896 -0.2923
 6159SOL     OW29938   2.258   4.334  13.037 -0.2781 -0.5153  0.3105
 6159SOL    HW129939   2.279   4.268  13.104 -1.7695  0.4603  1.7298
 6159SOL    HW229940   2.179   4.373  13.075 -0.8572 -0.2188 -1.1964
 6160SOL     OW29941   2.530   3.613   8.879 -0.2046 -0.0832  0.4130
 6160SOL    HW129942   2.492   3.536   8.836  1.5062 -0.0803 -1.1244
 6160SOL    HW229943   2.553   3.666   8.802 -3.0884  2.2074  1.1571
 6161SOL     OW29944   0.538   2.766  11.656  0.2467  0.3592  0.4796
 6161SOL    HW129945   0.625   2.792  11.686 -0.0746  1.5461  0.4108
 6161SOL    HW229946   0.553   2.774  11.562 -1.6356 -0.7647  0.0791
 6162SOL     OW29947   1.138   4.233   3.133  0.0333 -0.2133 -0.0615
 6162SOL    HW129948   1.197   4.159   3.122  0.6668  0.5339 -1.7782
 6162SOL    HW229949   1.194   4.309   3.152 -0.1152 -0.3151  0.7802
 6163SOL     OW29950   1.037   0.596  17.144 -0.1436  0.3181  0.3459
 6163SOL    HW129951   1.093   0.592  17.067 -1.8320 -1.2605 -0.7964
 6163SOL    HW229952   0.966   0.655  17.116 -0.4706  0.8744  2.3576
 6164SOL     OW29953   3.122   0.156   6.538  0.2770 -0.4362  0.0051
 6164SOL    HW129954   3.207   0.111   6.539  0.8851  0.6963 -0.4716
 6164SOL    HW229955   3.143   0.232   6.591 -1.5606  0.7079 -0.9342
 6165SOL     OW29956   1.238   2.634   4.171 -0.0900  0.1822 -0.0881
 6165SOL    HW129957   1.294   2.585   4.231 -0.1843  2.8973  2.2086
 6165SOL    HW229958   1.299   2.696   4.131  0.6722 -1.6584 -1.7381
 6166SOL     OW29959   2.389   4.685   2.867 -0.1910 -0.0885  0.0775
 6166SOL    HW129960   2.433   4.600   2.868 -1.0763 -0.5165  2.3353
 6166SOL    HW229961   2.458   0.018   2.836 -0.8345  0.3096 -0.5941
 6167SOL     OW29962   0.807   1.414   9.110  0.1168  0.0358  0.1690
 6167SOL    HW129963   0.834   1.333   9.067 -0.3802 -0.4773  0.8272
 6167SOL    HW229964   0.856   1.424   9.192  0.4705  1.5942 -0.2270
 6168SOL     OW29965   2.101   0.534   9.980 -0.0155 -0.1898  0.0642
 6168SOL    HW129966   2.056   0.453   9.957 -1.1803  0.6538 -0.6225
 6168SOL    HW229967   2.026   0.585  10.010 -0.1546 -0.9430  0.9903
 6169SOL     OW29968   0.121   3.139  15.804  0.2770  0.5273 -0.0381
 6169SOL    HW129969   0.142   3.048  15.825  1.0491  0.6976 -0.0751
 6169SOL    HW229970   0.037   3.135  15.759  0.6082  1.9254 -0.7670
 6170SOL     OW29971   1.822   1.553   2.061  0.6142 -0.1184 -0.0134
 6170SOL    HW129972   1.878   1.621   2.101  0.0758 -0.6369  1.6465
 6170SOL    HW229973   1.888   1.485   2.059  0.7271 -0.0214  0.2887
 6171SOL     OW29974   4.665   3.061  15.051  0.2743  0.2736 -0.1486
 6171SOL    HW129975   0.000   3.116  15.004 -2.1539  2.0295 -1.2714
 6171SOL    HW229976   4.603   3.040  14.981  1.4354 -0.4270 -0.9578
 6172SOL     OW29977   2.822   0.747   0.421  0.4515 -0.2873  0.5125
 6172SOL    HW129978   2.787   0.826   0.462  1.8755 -1.0336  3.1972
 6172SOL    HW229979   2.872   0.706   0.492 -1.2540 -0.6352  1.5243
 6173SOL     OW29980   1.679   1.366  15.664  0.2197  0.0595  0.1508
 6173SOL    HW129981   1.698   1.291  15.721  0.3341  0.7328  0.9932
 6173SOL    HW229982   1.620   1.420  15.717  0.3050 -1.0986  1.4115
 6174SOL     OW29983   0.923   1.001   4.108  0.3085 -0.3553 -0.3556
 6174SOL    HW129984   0.841   1.001   4.158  2.1995  2.2031  2.6992
 6174SOL    HW229985   0.901   0.943   4.035  1.3707  0.5991 -1.4257
 6175SOL     OW29986   1.198   1.365   5.091  0.2030 -0.1874 -0.5655
 6175SOL    HW129987   1.272   1.356   5.151 -0.3893 -0.4184  0.1299
 6175SOL    HW229988   1.135   1.300   5.122  2.5787 -1.9784  0.4429
 6176SOL     OW29989   3.368   4.235  17.527 -0.3841 -0.0308  0.3273
 6176SOL    HW129990   3.376   4.144  17.497  1.7230  0.3697 -0.2641
 6176SOL    HW229991   3.285   4.247  17.480  0.4865  2.3271 -0.5947
 6177SOL     OW29992   1.295   3.886  15.634  0.3674  0.1323 -0.0854
 6177SOL    HW129993   1.299   3.813  15.696 -1.5023  0.5033  0.4672
 6177SOL    HW229994   1.382   3.876  15.595  0.4846  3.3263 -0.5769
 6178SOL     OW29995   2.410   3.688   9.321 -0.0023 -0.3962  0.5417
 6178SOL    HW129996   2.482   3.715   9.378 -1.4228  1.4750  1.4595
 6178SOL    HW229997   2.449   3.610   9.282 -0.0866 -0.0562 -0.2209
 6179SOL     OW29998   2.909   0.397  15.945 -0.2237 -0.3654  0.0717
 6179SOL    HW129999   2.957   0.461  15.997  2.6497 -2.1312 -0.4138
 6179SOL    HW230000   2.898   0.330  16.011  0.6397 -0.6048 -0.0323
 6180SOL     OW30001   0.067   1.077   7.012 -0.3530  0.4343  0.3681
 6180SOL    HW130002   0.076   1.015   7.084 -2.4353 -0.0183  0.2431
 6180SOL    HW230003   0.105   1.159   7.043  0.3433 -0.0003  0.6505
 6181SOL     OW30004   4.646   4.606   7.074  0.5938  0.0508 -0.1313
 6181SOL    HW130005   4.598   4.587   6.994  0.6304  0.8748 -0.3523
 6181SOL    HW230006   4.572   4.619   7.133  0.3721 -1.3216 -0.1197
 6182SOL     OW30007   2.187   3.630   4.193  0.7824  0.0345 -0.3858
 6182SOL    HW130008   2.188   3.590   4.106 -3.4117 -2.3967  0.7055
 6182SOL    HW230009   2.278   3.643   4.220  1.5312 -1.5879 -2.1075
 6183SOL     OW30010   3.878   0.846   2.176  0.1989  0.2353  0.2668
 6183SOL    HW130011   3.796   0.801   2.198  1.2703 -2.4262 -1.1680
 6183SOL    HW230012   3.933   0.833   2.254 -0.1193 -1.0123  0.2790
 6184SOL     OW30013   3.091   0.151   8.498 -0.3471  0.5484  0.5433
 6184SOL    HW130014   3.142   0.122   8.422 -1.9866 -2.4398  0.5926
 6184SOL    HW230015   3.122   0.091   8.566 -0.3601  0.9587  0.9035
 6185SOL     OW30016   3.213   1.348   9.187  0.5777  0.0731 -0.4684
 6185SOL    HW130017   3.145   1.415   9.199  1.0284  0.1758  1.4606
 6185SOL    HW230018   3.287   1.389   9.232  1.1781  0.5091 -1.8489
 6186SOL     OW30019   0.367   4.577  11.756 -0.1929 -0.1014  0.6082
 6186SOL    HW130020   0.359   4.665  11.718 -1.0825 -0.5708 -0.2826
 6186SOL    HW230021   0.407   4.597  11.841 -0.3451  2.2167  0.1394
 6187SOL     OW30022   4.492   0.244  16.440 -0.0010 -0.4053  0.5536
 6187SOL    HW130023   4.504   0.149  16.434  1.0722 -0.1999 -0.6299
 6187SOL    HW230024   4.402   0.249  16.409 -0.2558 -0.6034  1.2622
 6188SOL     OW30025   3.734   4.393   7.304  0.4442  0.7053  0.0412
 6188SOL    HW130026   3.655   4.437   7.333 -1.2548 -1.9307 -0.5692
 6188SOL    HW230027   3.796   4.464   7.321 -0.7307  1.1743  2.2311
 6189SOL     OW30028   0.888   2.382   5.243  0.2981  0.3580  0.2729
 6189SOL    HW130029   0.936   2.352   5.166  1.0368  0.9649  0.4911
 6189SOL    HW230030   0.849   2.464   5.212 -0.4204  1.3601  3.8117
 6190SOL     OW30031   3.756   1.317   4.225 -0.4526  0.4192  0.0404
 6190SOL    HW130032   3.832   1.265   4.199 -1.7403 -1.4195 -0.0055
 6190SOL    HW230033   3.806   1.398   4.242 -0.6217  0.3066  1.0322
 6191SOL     OW30034   3.146   3.426   5.774 -0.2877  0.2534 -0.2519
 6191SOL    HW130035   3.066   3.465   5.809  0.0309  1.9389 -1.3557
 6191SOL    HW230036   3.200   3.503   5.752 -2.2243  2.2574  2.0904
 6192SOL     OW30037   3.546   2.160   3.395  0.0473 -0.0021  0.1146
 6192SOL    HW130038   3.456   2.186   3.412 -0.7398 -2.4981 -0.2784
 6192SOL    HW230039   3.560   2.072   3.430 -1.4390  0.1375  1.0495
 6193SOL     OW30040   0.164   0.663   0.493 -0.0670 -0.0582 -0.2730
 6193SOL    HW130041   0.240   0.636   0.545  0.4439  0.0041 -0.9948
 6193SOL    HW230042   0.201   0.666   0.405  0.7377 -0.7886  0.0387
 6194SOL     OW30043   4.198   0.173  16.407  0.1096  0.1167 -0.1521
 6194SOL    HW130044   4.166   0.083  16.417 -0.8381  0.3680 -0.8934
 6194SOL    HW230045   4.116   0.218  16.392 -0.4761 -0.0065  2.6550
 6195SOL     OW30046   3.258   0.179   4.590 -0.2987  0.1616 -0.2143
 6195SOL    HW130047   3.171   0.216   4.573 -0.6827 -0.7808 -0.3045
 6195SOL    HW230048   3.296   0.246   4.647 -0.9930 -1.1272  1.7729
 6196SOL     OW30049   3.288   3.729   9.433 -0.4647  0.1996 -0.3202
 6196SOL    HW130050   3.318   3.670   9.501  0.3372 -0.3678 -1.1745
 6196SOL    HW230051   3.306   3.677   9.354 -2.3124  1.0192 -1.2935
 6197SOL     OW30052   3.731   2.278   8.464 -0.4205  0.1263  1.1112
 6197SOL    HW130053   3.722   2.312   8.553 -0.0629  0.0541  1.1761
 6197SOL    HW230054   3.826   2.278   8.451 -0.4057 -0.7775  1.2173
 6198SOL     OW30055   0.023   2.539  15.420  0.8218 -0.0440  0.9310
 6198SOL    HW130056   4.681   2.581  15.471 -1.6001 -2.0360 -0.6508
 6198SOL    HW230057   0.023   2.584  15.335 -2.3164 -1.5230  0.1535
 6199SOL     OW30058   0.831   0.056   3.545  0.0279  0.3934 -0.6960
 6199SOL    HW130059   0.879   0.126   3.589  0.1207  1.0747 -1.8927
 6199SOL    HW230060   0.757   0.042   3.605 -1.5371  0.3396 -2.6420
 6200SOL     OW30061   1.292   0.997  16.152  0.1003  0.4314  0.3723
 6200SOL    HW130062   1.346   0.982  16.229 -0.3798 -1.0568  0.4187
 6200SOL    HW230063   1.263   0.910  16.124 -0.8663 -0.1573  3.2765
 6201SOL     OW30064   1.890   0.548   7.561  0.5012 -1.3232  0.2743
 6201SOL    HW130065   1.844   0.621   7.603 -1.1788 -1.3632 -1.5304
 6201SOL    HW230066   1.838   0.474   7.594  2.8548 -2.4440  1.4769
 6202SOL     OW30067   2.275   1.065   5.906  0.0618 -0.4795 -0.9286
 6202SOL    HW130068   2.359   1.108   5.919 -0.1761 -0.2629 -0.1296
 6202SOL    HW230069   2.227   1.121   5.966 -1.4784 -2.3594 -0.3925
 6203SOL     OW30070   4.656   2.388   7.260 -0.4266 -0.6334  0.0211
 6203SOL    HW130071   4.605   2.457   7.302  0.1824 -0.7771  1.0001
 6203SOL    HW230072   0.002   2.434   7.220 -1.5143 -0.0069 -1.2224
 6204SOL     OW30073   0.611   1.525   4.863 -0.0644 -0.7800  0.5517
 6204SOL    HW130074   0.580   1.477   4.939 -1.1470 -0.9005  0.0385
 6204SOL    HW230075   0.546   1.508   4.794  0.6412 -1.2850  0.0154
 6205SOL     OW30076   2.800   2.168   9.231 -0.4223 -0.2532  0.1537
 6205SOL    HW130077   2.716   2.196   9.269 -0.4286  0.3987 -0.3601
 6205SOL    HW230078   2.840   2.149   9.316  1.8702  0.5085 -0.7747
 6206SOL     OW30079   0.590   4.290   6.539 -0.0641 -0.1211  0.2506
 6206SOL    HW130080   0.637   4.373   6.532  0.3761 -0.4085 -0.2104
 6206SOL    HW230081   0.574   4.262   6.449 -1.1108  0.1825  0.3436
 6207SOL     OW30082   3.220   1.227  16.003 -0.3166  0.2809 -0.0936
 6207SOL    HW130083   3.184   1.204  15.917  1.5285  1.3044 -1.1215
 6207SOL    HW230084   3.259   1.313  15.992 -0.3560  0.2312 -0.6263
 6208SOL     OW30085   1.373   3.361   3.207  0.2729 -0.9748 -0.0873
 6208SOL    HW130086   1.365   3.292   3.141  0.9220 -1.2244  0.0954
 6208SOL    HW230087   1.434   3.309   3.259  0.3234 -0.8235  0.0041
 6209SOL     OW30088   0.762   2.179   3.607  0.0981  0.2829  0.2851
 6209SOL    HW130089   0.771   2.086   3.629 -0.0908  0.5360  1.4426
 6209SOL    HW230090   0.789   2.226   3.686 -0.4992  0.2689  0.4964
 6210SOL     OW30091   0.997   3.430   9.361 -0.0094  0.7054  0.5527
 6210SOL    HW130092   1.054   3.354   9.368 -2.5001 -1.2218 -0.1028
 6210SOL    HW230093   0.937   3.381   9.305  0.7157  2.5984 -1.8747
 6211SOL     OW30094   2.845   2.705   1.305 -0.0743 -0.1558  0.1455
 6211SOL    HW130095   2.914   2.640   1.288 -0.0570 -0.2727  0.6563
 6211SOL    HW230096   2.839   2.729   1.212 -2.7322 -1.6264 -0.0630
 6212SOL     OW30097   1.558   2.835   4.432 -0.1122 -0.6244 -0.1334
 6212SOL    HW130098   1.599   2.871   4.354 -1.4385 -0.7722 -0.8987
 6212SOL    HW230099   1.513   2.905   4.478  1.1692 -1.6753  2.7067
 6213SOL     OW30100   1.724   0.951  14.489  0.0444 -0.3303  0.0269
 6213SOL    HW130101   1.808   0.907  14.477 -0.4687 -1.0828 -0.8095
 6213SOL    HW230102   1.674   0.869  14.495 -0.0331 -0.1818  1.3899
 6214SOL     OW30103   3.663   3.532   2.830 -0.1720  0.6412  0.1960
 6214SOL    HW130104   3.707   3.581   2.899  0.2955  0.0069  0.3437
 6214SOL    HW230105   3.574   3.566   2.839 -2.0561 -3.6718 -2.1349
 6215SOL     OW30106   0.290   0.523   6.140  0.4220  0.3631 -0.2975
 6215SOL    HW130107   0.262   0.439   6.103  1.4276  0.2527 -0.7908
 6215SOL    HW230108   0.238   0.518   6.221  0.7777 -1.8715 -0.1814
 6216SOL     OW30109   4.473   4.723  16.416  0.6234  0.7975  0.0607
 6216SOL    HW130110   4.396   0.005  16.361 -1.2815 -0.0640  2.6122
 6216SOL    HW230111   4.519   4.663  16.357 -0.3087 -0.5913  0.7700
 6217SOL     OW30112   2.819   4.090   3.555 -0.0314 -0.0737  0.7352
 6217SOL    HW130113   2.908   4.099   3.588  0.7828 -0.9019 -1.2149
 6217SOL    HW230114   2.819   4.005   3.511  0.6959 -0.3581  1.2874
 6218SOL     OW30115   3.579   3.617   5.725  0.5263  0.4167  0.0707
 6218SOL    HW130116   3.600   3.651   5.638  3.5926 -0.2915  0.5468
 6218SOL    HW230117   3.611   3.528   5.709  1.0693  0.7225 -0.5562
 6219SOL     OW30118   1.710   4.024   6.102  0.0857  0.0384 -0.4404
 6219SOL    HW130119   1.636   4.064   6.058 -1.2786 -0.6877  1.1861
 6219SOL    HW230120   1.769   4.099   6.104 -1.8656  1.6265 -3.0018
 6220SOL     OW30121   2.216   2.859  13.201  0.5517 -0.0810  0.1103
 6220SOL    HW130122   2.274   2.831  13.130 -0.4282  0.4491 -0.9024
 6220SOL    HW230123   2.205   2.774  13.243 -3.8479  0.2254 -0.4201
 6221SOL     OW30124   2.050   1.323   5.351  0.3245  0.1010 -0.1289
 6221SOL    HW130125   2.135   1.323   5.396  0.1946  0.1952  0.1170
 6221SOL    HW230126   2.032   1.416   5.333  1.9385  0.5592  0.5864
 6222SOL     OW30127   3.680   0.020   0.628 -0.5729 -0.1944  0.2245
 6222SOL    HW130128   3.631   0.051   0.704  0.0314  0.0822  0.4965
 6222SOL    HW230129   3.663   4.652   0.631 -0.3785 -0.2195  0.4777
 6223SOL     OW30130   0.070   3.974   5.495 -0.6001  0.2574 -0.1293
 6223SOL    HW130131   4.708   3.941   5.512 -0.2027 -0.7299  0.0492
 6223SOL    HW230132   0.116   3.927   5.565 -0.9808 -0.4015 -0.3259
 6224SOL     OW30133   1.009   0.619   7.228 -0.6209 -0.1748  0.6230
 6224SOL    HW130134   1.002   0.677   7.303 -0.9302  0.7297 -0.0989
 6224SOL    HW230135   0.919   0.586   7.220 -0.5173 -0.3897  0.3470
 6225SOL     OW30136   0.335   2.336   8.709 -0.0803 -0.4242  0.0086
 6225SOL    HW130137   0.275   2.391   8.659 -0.6252 -1.0606 -0.0281
 6225SOL    HW230138   0.279   2.334   8.787 -0.2656 -1.6597 -0.1663
 6226SOL     OW30139   2.440   1.687  10.143  0.2024  0.4308  0.2459
 6226SOL    HW130140   2.488   1.658  10.221  0.9561 -0.5711 -0.5918
 6226SOL    HW230141   2.352   1.656  10.163  0.7815 -1.0214  0.4999
 6227SOL     OW30142   1.286   3.401  16.515 -0.7922  0.3995 -0.4056
 6227SOL    HW130143   1.278   3.404  16.611  0.9942  0.9388 -0.2835
 6227SOL    HW230144   1.359   3.461  16.508 -1.0950  0.6193 -1.6111
 6228SOL     OW30145   3.065   2.266  16.386  0.8096 -0.6007 -0.3196
 6228SOL    HW130146   3.133   2.312  16.337 -1.1562  1.9926 -0.6493
 6228SOL    HW230147   2.992   2.256  16.325 -0.3754  0.3462  0.9356
 6229SOL     OW30148   2.123   2.886  16.096  0.6241  0.3353  0.2130
 6229SOL    HW130149   2.117   2.816  16.162  0.9865  0.7306  0.6592
 6229SOL    HW230150   2.039   2.933  16.100  1.2143  1.5079 -1.6363
 6230SOL     OW30151   4.495   4.389   8.885  0.0377  0.3270  0.1906
 6230SOL    HW130152   4.478   4.307   8.838 -1.0070 -0.0720  1.2631
 6230SOL    HW230153   4.470   4.452   8.817  0.7567  2.5111  1.9599
 6231SOL     OW30154   1.762   2.852   6.298  0.0324 -0.6718  0.1526
 6231SOL    HW130155   1.715   2.860   6.381 -0.7530  0.3203 -0.3967
 6231SOL    HW230156   1.715   2.913   6.241  1.3433 -0.7713 -1.0159
 6232SOL     OW30157   1.391   3.937   5.928  0.1864 -0.0620  0.0144
 6232SOL    HW130158   1.415   4.024   5.959 -3.3080  1.1546 -0.6577
 6232SOL    HW230159   1.477   3.910   5.897 -1.2693 -2.2963 -2.0932
 6233SOL     OW30160   0.085   3.148   9.056 -0.8719 -0.2843 -0.6659
 6233SOL    HW130161   0.004   3.156   9.108 -0.2120  1.0827  0.1415
 6233SOL    HW230162   0.110   3.058   9.079 -0.2641 -0.2563 -1.2362
 6234SOL     OW30163   0.187   3.671   6.789  0.1406 -0.6581  0.0894
 6234SOL    HW130164   0.262   3.725   6.812 -0.9160  0.4316  0.9991
 6234SOL    HW230165   0.152   3.721   6.715 -0.8479  0.8963  1.6213
 6235SOL     OW30166   1.233   4.590  12.476  0.0290 -0.0236  0.3593
 6235SOL    HW130167   1.310   4.639  12.448  0.6561 -2.4168 -2.0889
 6235SOL    HW230168   1.249   4.507  12.431 -2.3524 -2.0714  3.2609
 6236SOL     OW30169   2.296   3.798   1.031 -0.1451  0.4794 -0.2491
 6236SOL    HW130170   2.266   3.830   0.947 -1.9621  0.5857  0.4352
 6236SOL    HW230171   2.218   3.796   1.086  1.3513  1.5805  1.9385
 6237SOL     OW30172   3.307   0.698   8.852 -0.2089 -0.2682  0.5498
 6237SOL    HW130173   3.295   0.760   8.924  0.1791 -1.8335  1.9767
 6237SOL    HW230174   3.220   0.661   8.837  0.1580 -0.1364 -1.8108
 6238SOL     OW30175   1.484   0.949   3.502  0.6423 -0.3633 -0.6020
 6238SOL    HW130176   1.455   0.935   3.592 -2.8031  1.3008 -1.4436
 6238SOL    HW230177   1.578   0.964   3.513  0.9481 -1.9454 -1.0403
 6239SOL     OW30178   3.035   0.154   5.044  0.2044 -0.2135 -0.2655
 6239SOL    HW130179   2.977   0.093   4.998 -2.0471 -0.1531  2.5229
 6239SOL    HW230180   3.024   0.237   4.998 -4.0930  0.4909  2.1067
 6240SOL     OW30181   3.132   3.422  14.709 -0.3623  0.2433  0.3330
 6240SOL    HW130182   3.105   3.508  14.676 -1.8014 -0.2208  0.3180
 6240SOL    HW230183   3.133   3.363  14.634  0.9031 -0.0819  0.6079
 6241SOL     OW30184   4.088   3.571   4.715  0.6776  0.3551  0.2130
 6241SOL    HW130185   4.109   3.614   4.632  3.4236 -0.0118  0.7120
 6241SOL    HW230186   4.109   3.642   4.776 -0.3109  3.3784 -3.0145
 6242SOL     OW30187   1.667   2.399  15.474  0.2129 -0.2624 -0.0151
 6242SOL    HW130188   1.614   2.324  15.501 -1.6163  0.3335 -1.9451
 6242SOL    HW230189   1.623   2.468  15.524 -0.8661  0.1448 -1.5504
 6243SOL     OW30190   4.479   2.095   3.672  0.0159 -0.3307  0.5693
 6243SOL    HW130191   4.432   2.065   3.750  1.4907  0.5194  1.7850
 6243SOL    HW230192   4.535   2.020   3.653  1.0578  1.1483 -2.2455
 6244SOL     OW30193   3.944   1.813   4.200 -0.3230  0.2450 -0.1332
 6244SOL    HW130194   4.011   1.874   4.229  1.4189 -1.9105  0.3528
 6244SOL    HW230195   3.862   1.861   4.186 -0.8410 -1.0026 -1.4935
 6245SOL     OW30196   2.869   1.830   0.497 -0.3799 -0.7150  0.0040
 6245SOL    HW130197   2.960   1.845   0.471  0.3593  0.6806  3.3991
 6245SOL    HW230198   2.884   1.780   0.577  3.3549 -1.5608 -1.2235
 6246SOL     OW30199   1.148   1.570   7.469 -0.4373 -0.1151 -0.1918
 6246SOL    HW130200   1.226   1.543   7.518 -1.8903 -0.9918  1.6476
 6246SOL    HW230201   1.149   1.517   7.390 -0.4622  0.8464 -0.8350
 6247SOL     OW30202   0.582   1.824  17.525 -0.0636 -0.4351  0.2470
 6247SOL    HW130203   0.497   1.806  17.484 -1.6693 -0.6082  3.6445
 6247SOL    HW230204   0.551   1.864  17.607  1.2061 -1.4051  1.1910
 6248SOL     OW30205   1.660   0.153   2.022  0.4761  0.4974  0.1855
 6248SOL    HW130206   1.754   0.164   2.009  0.8532  0.8383  3.2035
 6248SOL    HW230207   1.629   0.244   2.021  2.2990  1.1265  0.4429
 6249SOL     OW30208   3.298   1.943   5.188 -0.0810 -0.0920 -0.4582
 6249SOL    HW130209   3.381   1.934   5.235 -0.3222  2.1818  0.3800
 6249SOL    HW230210   3.235   1.921   5.257 -0.5776  1.7109 -0.3230
 6250SOL     OW30211   2.331   0.812   8.439 -0.4906  0.1393  0.6780
 6250SOL    HW130212   2.334   0.740   8.502 -0.1800 -0.1204  0.3676
 6250SOL    HW230213   2.358   0.757   8.365 -1.2024 -0.3661  0.7967
 6251SOL     OW30214   1.149   3.844   6.461  0.1288 -0.0898  0.7868
 6251SOL    HW130215   1.204   3.882   6.530 -0.5091  0.6216  0.8946
 6251SOL    HW230216   1.062   3.869   6.491 -0.0162 -0.7909  0.9467
 6252SOL     OW30217   4.564   1.664   4.378  0.2627  0.5264  0.1975
 6252SOL    HW130218   4.523   1.605   4.442 -0.3330  0.0255 -0.6426
 6252SOL    HW230219   4.517   1.657   4.295 -1.5171  3.4384  0.9808
 6253SOL     OW30220   4.104   1.519   7.056 -0.3957  1.0321  0.7554
 6253SOL    HW130221   4.129   1.432   7.088  1.7364  1.1194 -0.6658
 6253SOL    HW230222   4.060   1.545   7.137 -1.8043  0.1659  0.2861
 6254SOL     OW30223   0.773   3.456  12.207 -0.0754  0.2979  0.2302
 6254SOL    HW130224   0.861   3.470  12.242 -0.0068  3.8119 -1.3799
 6254SOL    HW230225   0.755   3.365  12.232 -1.7464  0.8110  0.9109
 6255SOL     OW30226   0.884   0.234   5.195 -0.2625 -0.1415  0.1547
 6255SOL    HW130227   0.799   0.191   5.185 -0.9038  0.6644  2.3069
 6255SOL    HW230228   0.943   0.159   5.180 -0.8372 -0.8362  1.4403
 6256SOL     OW30229   4.571   2.614   4.330  0.2213 -0.0763 -0.1255
 6256SOL    HW130230   4.502   2.657   4.279  1.3683 -1.2701 -2.6834
 6256SOL    HW230231   4.620   2.691   4.358 -0.9569  1.1410 -1.4279
 6257SOL     OW30232   0.474   4.331  13.788 -0.2112  0.0127  0.3229
 6257SOL    HW130233   0.438   4.382  13.716 -0.1733 -2.7506 -1.6473
 6257SOL    HW230234   0.400   4.303  13.842  0.4253 -2.0771  0.1253
 6258SOL     OW30235   3.106   1.083   9.232 -0.6566 -0.1502 -0.0247
 6258SOL    HW130236   3.049   1.115   9.302 -0.0153  0.9124  0.0048
 6258SOL    HW230237   3.140   1.167   9.200 -0.4603 -1.0619 -2.2214
 6259SOL     OW30238   0.208   4.351   1.171  0.4130 -0.0327 -0.9321
 6259SOL    HW130239   0.213   4.256   1.186 -0.8571  0.2148  1.0181
 6259SOL    HW230240   0.159   4.356   1.089 -0.3959  0.7670 -0.3886
 6260SOL     OW30241   0.304   0.599   2.990 -0.1056  0.6840  0.0386
 6260SOL    HW130242   0.290   0.512   3.027  1.6355  0.3409 -0.1258
 6260SOL    HW230243   0.398   0.612   2.982 -0.0998  0.9973  0.6001
 6261SOL     OW30244   3.281   1.899   1.107 -0.0902  0.9809 -0.2210
 6261SOL    HW130245   3.278   1.991   1.136  0.8140  1.3336 -1.2308
 6261SOL    HW230246   3.298   1.854   1.190 -1.2673  1.8655  0.5063
 6262SOL     OW30247   0.660   2.144   9.284  0.7667 -0.5829  0.4143
 6262SOL    HW130248   0.627   2.185   9.205  0.0334  0.3177  1.1904
 6262SOL    HW230249   0.575   2.120   9.323 -0.3904  0.4562 -1.4886
 6263SOL     OW30250   2.051   3.300   6.915  0.6173 -0.4787 -0.2189
 6263SOL    HW130251   2.144   3.314   6.936  0.0449  0.1196  1.9957
 6263SOL    HW230252   2.037   3.366   6.847 -2.0185  0.8385  1.5838
 6264SOL     OW30253   0.902   3.673  15.828  0.0175  0.2264 -0.1463
 6264SOL    HW130254   0.964   3.662  15.756 -0.5759  1.7871 -0.8866
 6264SOL    HW230255   0.964   3.664  15.901  0.0724  3.4193  0.1875
 6265SOL     OW30256   2.436   3.124   1.880 -0.5385  0.3201 -0.4489
 6265SOL    HW130257   2.448   3.092   1.791 -1.9570  0.3809 -0.6652
 6265SOL    HW230258   2.522   3.115   1.923 -0.8191 -2.2588 -0.4508
 6266SOL     OW30259   2.579   2.876   0.542 -0.4520  0.1125  0.2677
 6266SOL    HW130260   2.596   2.931   0.466  0.6285 -0.7189 -0.0962
 6266SOL    HW230261   2.549   2.939   0.607  0.3326  1.0702 -0.3075
 6267SOL     OW30262   2.840   0.226  17.095  0.2602 -0.4128 -0.3299
 6267SOL    HW130263   2.745   0.226  17.107  0.2713 -0.1585 -0.2498
 6267SOL    HW230264   2.869   0.238  17.185  1.4062 -0.3683 -0.7143
 6268SOL     OW30265   1.503   4.282   4.756 -0.0059  0.2812  0.4809
 6268SOL    HW130266   1.585   4.248   4.719 -0.4316 -0.9967  0.6965
 6268SOL    HW230267   1.440   4.257   4.688  0.9937  2.1070 -1.1348
 6269SOL     OW30268   0.852   3.480   8.159 -0.0823 -0.2371  0.0856
 6269SOL    HW130269   0.927   3.474   8.217  0.6977 -1.0891 -1.0114
 6269SOL    HW230270   0.796   3.533   8.215  1.5044  0.1004  1.3448
 6270SOL     OW30271   0.487   1.354   5.016  0.1279 -0.3678  0.0372
 6270SOL    HW130272   0.506   1.264   4.989  0.3640 -1.1217  2.7991
 6270SOL    HW230273   0.449   1.334   5.101  0.2572  0.6149  0.3168
 6271SOL     OW30274   1.300   2.139  13.599  0.2392  0.5949 -0.1906
 6271SOL    HW130275   1.356   2.198  13.648  1.8978  0.3317 -1.7979
 6271SOL    HW230276   1.220   2.189  13.584 -0.4653 -0.2840  0.6050
 6272SOL     OW30277   3.156   0.656   6.621 -0.2313 -0.3211 -0.4624
 6272SOL    HW130278   3.192   0.610   6.545  0.1006 -1.8752  0.6348
 6272SOL    HW230279   3.239   0.678   6.664 -1.2887  0.6253  1.0954
 6273SOL     OW30280   3.172   1.366   2.061  0.1201  0.3954  0.1194
 6273SOL    HW130281   3.112   1.292   2.055 -0.4739  0.9484 -0.8674
 6273SOL    HW230282   3.170   1.389   2.154  0.4377  2.8816 -0.4663
 6274SOL     OW30283   0.057   4.199   9.697  0.2963  0.2406 -0.5876
 6274SOL    HW130284   0.123   4.162   9.638  2.6321  0.5332  1.8117
 6274SOL    HW230285   4.710   4.232   9.645 -0.2263  2.5902  1.6194
 6275SOL     OW30286   1.774   1.578   9.469 -0.1303 -0.2220 -0.1006
 6275SOL    HW130287   1.847   1.517   9.456  1.9422  2.1820  0.3832
 6275SOL    HW230288   1.735   1.551   9.552 -0.2458 -1.5441 -0.5723
 6276SOL     OW30289   2.262   2.086  11.956 -0.1027  0.1941  0.2124
 6276SOL    HW130290   2.228   2.070  11.868  0.7214 -2.5254  0.4070
 6276SOL    HW230291   2.318   2.162  11.939  1.1782 -0.7835  0.0888
 6277SOL     OW30292   1.602   2.125  13.886 -0.2690  0.0114 -0.1927
 6277SOL    HW130293   1.532   2.176  13.927  0.5171  1.4705 -0.6659
 6277SOL    HW230294   1.576   2.034  13.896 -1.5598  0.4870  0.8004
 6278SOL     OW30295   0.535   3.185  15.284 -0.2881  0.3963 -0.0836
 6278SOL    HW130296   0.478   3.177  15.208  1.3484 -2.8663 -0.9667
 6278SOL    HW230297   0.521   3.278  15.300 -0.5882  0.3842 -0.2761
 6279SOL     OW30298   3.708   0.601   4.256  0.5148  0.4964  0.7138
 6279SOL    HW130299   3.613   0.599   4.243  0.4151  2.2843  1.0562
 6279SOL    HW230300   3.712   0.647   4.340  1.1021 -0.9323  1.4561
 6280SOL     OW30301   0.919   0.382  16.035 -0.5851  1.0480  0.0467
 6280SOL    HW130302   0.991   0.440  16.062  0.7971 -0.1332 -1.0839
 6280SOL    HW230303   0.957   0.311  15.983  0.9634  0.7526  1.5712
 6281SOL     OW30304   0.122   0.784  11.141  0.6862 -0.1359 -0.3310
 6281SOL    HW130305   0.050   0.803  11.081  1.0765 -0.7500 -0.9781
 6281SOL    HW230306   0.113   0.846  11.214  0.3322  0.6049 -0.9990
 6282SOL     OW30307   0.203   1.109  17.661 -0.5373  0.1949  0.1336
 6282SOL    HW130308   0.177   1.105   0.046  1.8345 -0.4072  0.7884
 6282SOL    HW230309   0.272   1.042  17.660  1.7199  2.5454 -3.3433
 6283SOL     OW30310   2.741   1.962   8.156 -0.7873  0.2771 -0.2283
 6283SOL    HW130311   2.655   1.933   8.124 -0.1018 -0.1006 -1.7498
 6283SOL    HW230312   2.704   2.029   8.213 -0.0101  1.1324 -0.7352
 6284SOL     OW30313   4.409   0.997  17.544  0.0155  0.1093  0.1607
 6284SOL    HW130314   4.485   0.993  17.487  1.0300  1.7462  1.3912
 6284SOL    HW230315   4.338   1.003  17.479  0.4171  1.0735 -0.1859
 6285SOL     OW30316   1.489   1.221   8.159  0.2902 -0.6319 -0.4182
 6285SOL    HW130317   1.431   1.187   8.227  1.1823 -0.5054  0.4026
 6285SOL    HW230318   1.571   1.180   8.186 -0.7868 -1.3830  1.7006
 6286SOL     OW30319   2.335   4.515  14.955 -0.9195 -0.4912 -0.1554
 6286SOL    HW130320   2.335   4.601  14.913  0.1529 -1.1144 -1.4397
 6286SOL    HW230321   2.414   4.510  15.008 -0.1502 -0.0518 -1.2706
 6287SOL     OW30322   3.533   2.415   2.651  0.1260  0.7357  0.3872
 6287SOL    HW130323   3.485   2.411   2.569  0.1120 -1.4879  0.5103
 6287SOL    HW230324   3.507   2.501   2.686  2.7733  2.0198 -0.7914
 6288SOL     OW30325   0.148   0.429   5.048  0.2846 -0.1825  0.0048
 6288SOL    HW130326   0.201   0.376   5.107 -1.7743 -0.7663  1.3343
 6288SOL    HW230327   0.063   0.385   5.047  0.5450 -0.6719 -1.6100
 6289SOL     OW30328   0.179   3.638   5.098 -0.0103 -0.6348 -0.7582
 6289SOL    HW130329   0.102   3.647   5.154  0.1345 -0.3141 -0.6064
 6289SOL    HW230330   0.244   3.688   5.149 -1.3902  0.9252 -0.5338
 6290SOL     OW30331   0.086   3.367  13.600 -0.2781 -0.0217  0.0381
 6290SOL    HW130332   4.722   3.358  13.629 -0.3912  0.9433 -0.0099
 6290SOL    HW230333   0.096   3.284  13.554 -1.9615 -0.7623  1.0157
 6291SOL     OW30334   0.268   1.606  11.256  0.5090  0.0436 -0.3813
 6291SOL    HW130335   0.322   1.681  11.280 -0.5458  1.0602 -1.1428
 6291SOL    HW230336   0.211   1.626  11.181 -0.1713  0.1606  0.1720
 6292SOL     OW30337   0.949   3.516   9.027 -0.4076 -0.0138 -0.7278
 6292SOL    HW130338   0.907   3.439   9.066 -0.4507  1.0052  1.2280
 6292SOL    HW230339   0.922   3.491   8.938 -1.3700  1.4773 -0.8711
 6293SOL     OW30340   4.220   0.053   5.891 -0.0209 -0.0739 -0.0570
 6293SOL    HW130341   4.170   0.008   5.823 -1.6105 -0.5082  1.4105
 6293SOL    HW230342   4.228   0.142   5.857  0.9978 -0.0327  0.2779
 6294SOL     OW30343   4.710   2.953   5.016  0.0229  0.1257 -0.0838
 6294SOL    HW130344   4.676   3.026   4.964  0.4203  0.3763  0.0107
 6294SOL    HW230345   4.634   2.909   5.055 -0.9085  1.6378 -0.1451
 6295SOL     OW30346   4.629   0.273  15.749  0.0289 -0.1247 -0.6855
 6295SOL    HW130347   4.701   0.296  15.808  0.7954 -1.7324 -1.0076
 6295SOL    HW230348   4.661   0.306  15.665 -2.0833 -3.3110 -2.7439
 6296SOL     OW30349   1.392   1.979   5.398  0.8022 -0.0423  0.1571
 6296SOL    HW130350   1.381   1.904   5.339  0.6322  0.3785 -0.3445
 6296SOL    HW230351   1.317   1.958   5.452 -0.5241 -1.6463 -2.2700
 6297SOL     OW30352   2.104   2.692   5.023 -0.1489 -0.2259 -0.1932
 6297SOL    HW130353   2.097   2.623   5.089  0.4034 -0.1435 -0.0482
 6297SOL    HW230354   2.046   2.652   4.958 -1.3945 -0.4640  1.0568
 6298SOL     OW30355   1.522   0.879   1.887 -0.5721  0.3196 -0.0507
 6298SOL    HW130356   1.513   0.965   1.929  0.6376 -0.2053  1.3085
 6298SOL    HW230357   1.521   0.905   1.795 -1.6817 -1.0235 -0.4185
 6299SOL     OW30358   0.619   3.518  12.590  0.2830 -0.1522  0.1151
 6299SOL    HW130359   0.593   3.535  12.500  0.3563 -1.3219 -0.1270
 6299SOL    HW230360   0.709   3.485  12.580 -0.0725 -1.1624  0.2527
 6300SOL     OW30361   4.002   2.839   5.505  0.1636  0.0767  0.5749
 6300SOL    HW130362   4.014   2.860   5.598  3.1350 -2.3788  0.7293
 6300SOL    HW230363   4.095   2.845   5.482 -0.1858  1.9468 -0.3315
 6301SOL     OW30364   1.611   1.659   5.417 -0.1033 -0.2345 -0.4783
 6301SOL    HW130365   1.643   1.584   5.368  1.8349  0.6792 -0.6247
 6301SOL    HW230366   1.541   1.691   5.359  1.1581  1.0956 -1.2836
 6302SOL     OW30367   3.530   3.914  10.920  0.0798  0.5876 -0.2952
 6302SOL    HW130368   3.574   3.864  10.851  1.5872  2.1235 -0.4204
 6302SOL    HW230369   3.590   3.988  10.923  0.5237  0.2336 -0.3384
 6303SOL     OW30370   1.097   1.278  10.080 -0.4647 -0.0685  0.5774
 6303SOL    HW130371   1.047   1.275   9.999  0.1654  2.5148  0.1035
 6303SOL    HW230372   1.036   1.326  10.137  0.4860  0.2895  1.2810
 6304SOL     OW30373   1.941   1.884  16.887  0.1983 -0.8515  0.0257
 6304SOL    HW130374   1.865   1.847  16.930  0.4869  0.2972  1.5060
 6304SOL    HW230375   1.931   1.837  16.804  0.9060 -0.6492 -0.1747
 6305SOL     OW30376   2.298   1.837  13.692 -0.0249 -0.0660  0.4233
 6305SOL    HW130377   2.295   1.856  13.598 -5.0144  0.9156  0.7545
 6305SOL    HW230378   2.216   1.878  13.720 -0.0440 -0.4390  0.9095
 6306SOL     OW30379   2.982   2.111   7.208  0.4423 -0.0815  0.6983
 6306SOL    HW130380   2.908   2.149   7.162 -0.4427 -2.2427  0.3323
 6306SOL    HW230381   3.047   2.181   7.198  0.9490 -0.5786  0.4766
 6307SOL     OW30382   3.489   0.714   6.420 -0.4325  0.2655 -0.0659
 6307SOL    HW130383   3.584   0.702   6.417 -0.3885  0.4977  0.4161
 6307SOL    HW230384   3.476   0.694   6.513 -1.7975 -0.9954 -0.5111
 6308SOL     OW30385   3.854   2.496   1.202 -0.0558  0.6241 -0.2992
 6308SOL    HW130386   3.758   2.490   1.197  0.1904 -0.9165 -3.0813
 6308SOL    HW230387   3.861   2.590   1.182  1.1643  0.3413 -1.1554
 6309SOL     OW30388   3.685   3.527  13.061 -0.3959  0.2296 -0.6116
 6309SOL    HW130389   3.627   3.550  12.988 -0.3063  0.0471 -0.7412
 6309SOL    HW230390   3.664   3.601  13.118  2.4132  2.7898 -2.9149
 6310SOL     OW30391   1.400   4.329  10.561 -0.1957  0.4859  0.3669
 6310SOL    HW130392   1.446   4.260  10.610 -0.4542  0.6336  0.8173
 6310SOL    HW230393   1.313   4.335  10.601 -0.0747  1.1390  0.5381
 6311SOL     OW30394   0.375   1.285   3.756  0.4266 -0.0206  0.5508
 6311SOL    HW130395   0.302   1.316   3.703 -0.1494  0.4408  1.6117
 6311SOL    HW230396   0.325   1.234   3.820  0.9280  0.3595  1.2535
 6312SOL     OW30397   2.890   0.426   5.778  0.0953 -0.0666 -0.2025
 6312SOL    HW130398   2.819   0.398   5.836  0.7012 -1.2679 -0.0415
 6312SOL    HW230399   2.889   0.521   5.793  0.3026 -0.2461  0.9262
 6313SOL     OW30400   0.984   0.436   5.358 -0.4577 -0.2045 -0.5658
 6313SOL    HW130401   0.950   0.383   5.286 -2.6803 -0.9689  1.0837
 6313SOL    HW230402   0.951   0.523   5.333 -1.0513 -0.9655 -2.4600
 6314SOL     OW30403   0.776   3.390   8.829  0.0646 -0.8421  0.5413
 6314SOL    HW130404   0.713   3.375   8.899  0.0333  2.1333  1.1599
 6314SOL    HW230405   0.748   3.318   8.773  0.7799 -0.7901  0.1087
 6315SOL     OW30406   4.364   0.826   7.769 -0.0151  0.5187 -0.4145
 6315SOL    HW130407   4.378   0.782   7.854 -3.8845 -2.6878 -1.4064
 6315SOL    HW230408   4.287   0.880   7.786 -1.2557 -1.3633  0.0131
 6316SOL     OW30409   2.557   2.789   3.241  0.3480  0.1148 -0.1441
 6316SOL    HW130410   2.505   2.763   3.165 -0.4283  0.9766  0.0970
 6316SOL    HW230411   2.612   2.859   3.208  0.8794 -0.0616  0.3669
 6317SOL     OW30412   3.809   0.579  10.445  0.3184  0.2228 -0.1287
 6317SOL    HW130413   3.902   0.579  10.424  0.3759 -1.4448  0.1007
 6317SOL    HW230414   3.803   0.512  10.514 -2.7734  0.9562  0.3195
 6318SOL     OW30415   2.738   0.753   2.906  0.2831  0.3652  0.7186
 6318SOL    HW130416   2.713   0.835   2.949  0.6794  0.7183  0.2905
 6318SOL    HW230417   2.819   0.753   2.957 -0.7013  2.4761  2.2710
 6319SOL     OW30418   2.257   0.123  15.478 -0.1637  0.4710  0.3507
 6319SOL    HW130419   2.325   0.190  15.480 -2.2013  2.4548  2.2243
 6319SOL    HW230420   2.182   0.174  15.508 -2.4580 -2.7769  0.1437
 6320SOL     OW30421   0.357   2.060  10.826 -0.5396 -0.3476 -0.2975
 6320SOL    HW130422   0.435   2.030  10.779 -0.6803  1.1014 -1.4613
 6320SOL    HW230423   0.343   2.147  10.788 -1.2877 -0.2287  0.2538
 6321SOL     OW30424   4.407   3.676   9.667 -0.5567 -0.0903 -0.0947
 6321SOL    HW130425   4.487   3.675   9.719 -0.2207 -0.3791 -0.6180
 6321SOL    HW230426   4.409   3.767   9.637  0.1018  0.3550  1.3014
 6322SOL     OW30427   3.632   0.707   3.821 -0.2150  0.0947 -0.3408
 6322SOL    HW130428   3.683   0.787   3.809  0.3906 -0.1420  0.6042
 6322SOL    HW230429   3.678   0.645   3.764 -0.3085 -0.0503 -0.2604
 6323SOL     OW30430   1.046   4.111  16.039  0.5699 -0.3461  0.1982
 6323SOL    HW130431   1.071   4.155  15.957  0.4634 -0.4928  0.0879
 6323SOL    HW230432   0.987   4.038  16.021 -0.5815  0.8385 -0.8542
 6324SOL     OW30433   1.318   2.459   8.534 -0.3228 -0.0165  0.7824
 6324SOL    HW130434   1.273   2.442   8.451 -0.7181 -0.5978  1.1114
 6324SOL    HW230435   1.279   2.392   8.591 -0.5267 -1.4346 -1.0203
 6325SOL     OW30436   1.853   1.495   7.094 -0.3267  0.0144 -0.1555
 6325SOL    HW130437   1.815   1.464   7.177  0.3762 -0.5822 -0.0587
 6325SOL    HW230438   1.945   1.510   7.112 -0.3063  1.2252 -1.3056
 6326SOL     OW30439   2.963   0.368   8.937  0.4470  0.0322 -0.4832
 6326SOL    HW130440   2.924   0.455   8.946 -1.8472 -0.9391 -0.8622
 6326SOL    HW230441   3.043   0.373   8.989 -0.1943 -1.2451  0.6175
 6327SOL     OW30442   4.400   1.743  13.175 -0.2513  0.3684 -0.2353
 6327SOL    HW130443   4.457   1.669  13.197  3.1645  2.2263 -2.8421
 6327SOL    HW230444   4.462   1.816  13.169  0.8545 -0.6282 -0.8876
 6328SOL     OW30445   1.624   1.542  12.085 -0.6688 -0.5976  0.4611
 6328SOL    HW130446   1.561   1.502  12.145 -1.5400 -0.6876 -0.4980
 6328SOL    HW230447   1.658   1.611  12.142 -2.2504  1.0919 -0.6258
 6329SOL     OW30448   2.313   4.167   6.521 -0.3563  0.0708 -0.2716
 6329SOL    HW130449   2.224   4.199   6.506 -0.4964 -0.6517 -0.9643
 6329SOL    HW230450   2.357   4.244   6.483  1.5451 -0.8290  0.0987
 6330SOL     OW30451   0.190   2.649   2.974  0.2251 -0.3559 -0.0312
 6330SOL    HW130452   0.232   2.566   2.996 -0.2469 -0.3353  0.9393
 6330SOL    HW230453   0.120   2.659   3.039  1.0336 -3.0106  1.2563
 6331SOL     OW30454   2.011   2.290  10.571 -0.2472  0.3632  0.2843
 6331SOL    HW130455   1.935   2.334  10.609 -0.8750 -0.5578  0.0810
 6331SOL    HW230456   1.987   2.297  10.478  0.1935  1.3989  0.2480
 6332SOL     OW30457   3.161   3.721  13.027 -0.6287  0.7422 -0.5549
 6332SOL    HW130458   3.116   3.698  13.108  0.4492 -1.7559 -0.6867
 6332SOL    HW230459   3.093   3.741  12.964 -0.9636 -1.1292 -0.7699
 6333SOL     OW30460   2.176   1.435   3.374  0.2417 -0.0939  0.1215
 6333SOL    HW130461   2.199   1.494   3.303 -1.3136 -4.2062 -3.7887
 6333SOL    HW230462   2.100   1.473   3.419  0.8188 -0.5995  1.5210
 6334SOL     OW30463   0.964   3.095  15.949  0.1857 -0.1228 -0.0776
 6334SOL    HW130464   1.030   3.084  16.018  0.7922  0.5948 -0.5417
 6334SOL    HW230465   0.921   3.177  15.974  1.0188 -0.3968  2.3427
 6335SOL     OW30466   3.783   1.043   9.386 -0.2015  0.1110 -0.5715
 6335SOL    HW130467   3.747   1.000   9.463  1.5996 -0.5464 -0.1074
 6335SOL    HW230468   3.704   1.090   9.359  1.1934  2.4094 -0.6228
 6336SOL     OW30469   2.565   3.120   5.294  0.0268 -0.1961  0.1514
 6336SOL    HW130470   2.513   3.109   5.374  0.1840  1.7972  0.5338
 6336SOL    HW230471   2.578   3.026   5.284 -0.8911 -0.1561 -1.4541
 6337SOL     OW30472   1.269   1.402  15.739 -0.2406  0.3593  0.4461
 6337SOL    HW130473   1.346   1.442  15.778 -0.3134 -0.2518  1.1973
 6337SOL    HW230474   1.277   1.314  15.773 -2.8907  0.2391  0.8139
 6338SOL     OW30475   1.171   2.029   2.688  0.1450  0.4642 -0.3226
 6338SOL    HW130476   1.173   2.032   2.592  2.9694  0.2487 -0.2661
 6338SOL    HW230477   1.212   1.948   2.716 -2.0709 -0.6389 -0.2151
 6339SOL     OW30478   3.650   0.041  17.262 -0.2954  0.2303  0.4036
 6339SOL    HW130479   3.674   0.101  17.191 -2.5490  0.8033  0.1283
 6339SOL    HW230480   3.555   0.047  17.254 -0.3251 -1.4234 -0.4290
 6340SOL     OW30481   2.965   3.273   3.045  0.5495  0.7120 -0.3476
 6340SOL    HW130482   3.029   3.344   3.040 -1.2301  2.4552  1.5107
 6340SOL    HW230483   3.014   3.212   2.990  0.7164  0.3312  0.2210
 6341SOL     OW30484   3.883   3.118  14.333 -0.0160  0.2098 -0.4100
 6341SOL    HW130485   3.969   3.133  14.372  0.6414  0.4563 -1.9654
 6341SOL    HW230486   3.838   3.080  14.409 -1.3580 -0.5344 -1.5724
 6342SOL     OW30487   3.319   3.802   7.347 -0.3951  0.6679  0.2525
 6342SOL    HW130488   3.401   3.758   7.369 -1.8815 -1.7925  0.8467
 6342SOL    HW230489   3.284   3.792   7.436  2.2119 -0.9153  1.0951
 6343SOL     OW30490   0.725   0.037   5.644  0.0332 -0.0933 -0.4269
 6343SOL    HW130491   0.764   0.105   5.699  0.2748  0.5359 -1.3738
 6343SOL    HW230492   0.798   0.024   5.583 -0.2032  2.0687 -1.1573
 6344SOL     OW30493   1.479   4.666   0.611  0.0093 -0.4947 -0.1045
 6344SOL    HW130494   1.518   4.678   0.525 -0.8388 -0.7067 -0.5210
 6344SOL    HW230495   1.507   0.021   0.652 -2.5708 -1.6465  3.9903
 6345SOL     OW30496   1.608   0.855  13.638  0.1761  0.3785  0.1556
 6345SOL    HW130497   1.540   0.890  13.582  0.8163  1.7014  0.2078
 6345SOL    HW230498   1.569   0.767  13.634 -1.1628  0.9820  0.1397
 6346SOL     OW30499   3.597   3.987  15.795 -0.1740  0.7977 -0.5620
 6346SOL    HW130500   3.666   4.054  15.789 -0.5131  1.1977 -0.0064
 6346SOL    HW230501   3.584   3.982  15.701 -1.2222  0.9421 -0.4242
 6347SOL     OW30502   3.195   2.339   6.737  0.1422  0.5931  0.5396
 6347SOL    HW130503   3.173   2.302   6.651 -1.2997  1.7068  0.4148
 6347SOL    HW230504   3.279   2.301   6.761 -0.2696 -1.3135 -1.0483
 6348SOL     OW30505   0.088   1.217   8.895  0.3470  0.3182  0.3036
 6348SOL    HW130506   0.045   1.138   8.929 -2.0678  2.2529  1.7495
 6348SOL    HW230507   0.023   1.253   8.834  0.6605  2.2677  1.1475
 6349SOL     OW30508   2.565   2.259   3.188  0.3210 -0.2512  0.5506
 6349SOL    HW130509   2.619   2.307   3.251  2.3381 -2.5474  0.5791
 6349SOL    HW230510   2.501   2.225   3.250  1.7348 -2.1674  0.9535
 6350SOL     OW30511   3.875   2.137   6.717 -0.2240  0.5256 -0.6700
 6350SOL    HW130512   3.956   2.154   6.668 -0.1280  0.1814 -0.6307
 6350SOL    HW230513   3.811   2.176   6.657 -0.5498 -0.8569 -1.2415
 6351SOL     OW30514   4.352   3.594   3.280  0.2521  0.1887 -0.0523
 6351SOL    HW130515   4.347   3.657   3.207 -1.2575  1.0413  0.7973
 6351SOL    HW230516   4.428   3.540   3.257  0.2801  1.6550 -3.4801
 6352SOL     OW30517   4.138   2.053   9.311 -0.1320  0.1856 -0.1688
 6352SOL    HW130518   4.151   1.978   9.254 -0.9029  1.4044 -1.9333
 6352SOL    HW230519   4.083   2.006   9.374  2.3065 -1.7332  0.5166
 6353SOL     OW30520   1.232   4.163   6.566  0.5666 -0.4867  0.4738
 6353SOL    HW130521   1.272   4.079   6.587 -2.6995 -1.0776  4.0983
 6353SOL    HW230522   1.296   4.226   6.600  1.1562  0.1488 -1.7700
 6354SOL     OW30523   0.887   0.055  13.552  0.2637  0.0472  0.1984
 6354SOL    HW130524   0.938   0.009  13.618  1.1971  2.0167  0.8333
 6354SOL    HW230525   0.797   0.026  13.568  0.6087 -0.7735  0.6341
 6355SOL     OW30526   3.861   0.197   2.265 -0.4331 -0.5664 -0.1115
 6355SOL    HW130527   3.858   0.198   2.169  0.3032 -1.4595 -0.1391
 6355SOL    HW230528   3.881   0.290   2.275  1.3313 -1.1749  1.9710
 6356SOL     OW30529   4.699   0.361   3.968 -0.3459  0.3386 -0.0902
 6356SOL    HW130530   4.668   0.435   3.916  0.3933  1.7226  1.4091
 6356SOL    HW230531   0.035   0.404   4.027  0.3125  0.4710 -0.8687
 6357SOL     OW30532   0.075   3.909   6.251  0.1682 -0.0611  0.0852
 6357SOL    HW130533   0.131   3.851   6.200  0.5119 -1.4783  2.0773
 6357SOL    HW230534   0.016   3.835   6.269  0.9194 -1.0443 -1.4321
 6358SOL     OW30535   0.506   3.448   8.294 -0.1676 -0.6283 -0.3328
 6358SOL    HW130536   0.586   3.484   8.333 -1.8947  1.2769  1.4690
 6358SOL    HW230537   0.440   3.506   8.332  1.8702  0.8793  0.9098
 6359SOL     OW30538   1.377   3.323   4.722  0.4945 -1.1059 -0.4262
 6359SOL    HW130539   1.464   3.306   4.758 -0.3514 -1.2028  1.5546
 6359SOL    HW230540   1.403   3.377   4.647  1.9009  0.5150  1.2244
 6360SOL     OW30541   1.912   3.794   8.424  0.3208  0.2983 -0.0341
 6360SOL    HW130542   1.965   3.857   8.472 -0.5704  0.1320  1.1766
 6360SOL    HW230543   1.979   3.728   8.407 -0.1158 -0.1796  0.0951
 6361SOL     OW30544   1.746   2.335   3.601  0.0549 -0.4879  0.8252
 6361SOL    HW130545   1.707   2.392   3.668 -0.8534  0.9424 -0.9051
 6361SOL    HW230546   1.839   2.332   3.625 -0.0800 -0.3619  1.3705
 6362SOL     OW30547   1.929   3.397  17.675 -0.7499 -0.1356 -0.1170
 6362SOL    HW130548   1.896   3.313  17.642  4.2318 -2.3334  0.4803
 6362SOL    HW230549   1.916   3.391   0.063  1.3986 -1.3776  0.1084
 6363SOL     OW30550   1.136   3.126  10.506 -0.1396 -0.2880 -0.2685
 6363SOL    HW130551   1.047   3.097  10.523 -0.0835 -0.8728 -0.9993
 6363SOL    HW230552   1.176   3.057  10.454  1.7511  1.1753 -0.7781
 6364SOL     OW30553   3.370   0.210   1.017 -0.1494  0.9633  0.2146
 6364SOL    HW130554   3.297   0.174   1.068  0.0162  0.9262  0.4250
 6364SOL    HW230555   3.424   0.216   1.096 -0.6083  0.4009  0.5770
 6365SOL     OW30556   4.364   2.625   8.309  0.4827  0.5011  0.1216
 6365SOL    HW130557   4.455   2.653   8.317  0.8452 -1.3716  2.5676
 6365SOL    HW230558   4.315   2.700   8.341 -3.1404 -1.0907 -1.5934
 6366SOL     OW30559   1.688   2.014  12.385  0.0500 -0.2139 -0.0882
 6366SOL    HW130560   1.594   2.010  12.400 -0.3575  2.5198 -2.0539
 6366SOL    HW230561   1.691   2.074  12.311  0.7714 -0.4399 -0.2464
 6367SOL     OW30562   4.562   2.016  10.640 -0.9931  0.5052  0.2966
 6367SOL    HW130563   4.485   1.966  10.614 -1.0323 -0.9781  3.2907
 6367SOL    HW230564   4.583   1.967  10.719  1.2163 -0.7286 -1.0114
 6368SOL     OW30565   4.149   1.410   1.846  0.0851 -0.5119  0.1163
 6368SOL    HW130566   4.065   1.390   1.803 -0.1077 -0.3114  0.4069
 6368SOL    HW230567   4.178   1.485   1.794  2.3504 -2.5971 -1.6262
 6369SOL     OW30568   0.948   1.149   6.189  0.0326  0.1455  0.0110
 6369SOL    HW130569   0.930   1.195   6.107 -1.1471 -1.1870 -0.4710
 6369SOL    HW230570   0.933   1.059   6.161 -3.2141  0.6795  0.0382
 6370SOL     OW30571   2.267   1.443   9.113 -0.3787 -0.3925  0.3682
 6370SOL    HW130572   2.207   1.390   9.060 -1.0963 -0.3022  1.0886
 6370SOL    HW230573   2.332   1.374   9.123  1.5017  1.0875 -1.4551
 6371SOL     OW30574   4.331   1.991   8.720  0.5397 -0.7231  0.0079
 6371SOL    HW130575   4.400   2.058   8.718 -0.9578  0.8634  1.5144
 6371SOL    HW230576   4.366   1.945   8.796  0.6435  1.0905  1.0633
 6372SOL     OW30577   2.167   0.410   7.798 -0.5512 -0.7686 -0.1086
 6372SOL    HW130578   2.077   0.441   7.808 -1.1255 -2.5389  0.1859
 6372SOL    HW230579   2.217   0.492   7.794 -0.4214 -0.8562 -0.2730
 6373SOL     OW30580   3.152   2.329   0.154  0.0368 -0.0799  0.1112
 6373SOL    HW130581   3.207   2.290   0.223  1.0766 -0.0656 -0.7177
 6373SOL    HW230582   3.182   2.419   0.142  1.1972 -0.3218  1.2767
 6374SOL     OW30583   3.185   2.081  14.128  0.2651 -0.3962 -0.1167
 6374SOL    HW130584   3.165   2.156  14.184 -2.6067 -0.4834 -1.0048
 6374SOL    HW230585   3.113   2.086  14.064 -0.9856  0.2798  1.3430
 6375SOL     OW30586   0.972   1.505   8.803  0.3204  0.0378 -0.1860
 6375SOL    HW130587   1.033   1.478   8.871 -0.0439  0.4238  0.2907
 6375SOL    HW230588   0.940   1.587   8.840 -0.8915 -0.9259  0.8709
 6376SOL     OW30589   2.673   2.176   5.057  0.1277  0.2631  0.0785
 6376SOL    HW130590   2.690   2.219   4.974 -0.8380 -0.4227 -0.4735
 6376SOL    HW230591   2.581   2.197   5.074  0.3915  0.5478  1.2132
 6377SOL     OW30592   2.291   0.207   9.063 -0.2520  0.1610 -0.4317
 6377SOL    HW130593   2.274   0.201   9.157 -0.3135 -0.4672 -0.4814
 6377SOL    HW230594   2.382   0.238   9.072 -0.7775  1.6076 -0.1171
 6378SOL     OW30595   1.241   0.054   8.485  0.1832 -0.5806 -0.3049
 6378SOL    HW130596   1.266   4.688   8.477  1.5265 -0.3230  0.9089
 6378SOL    HW230597   1.325   0.093   8.507 -1.0251  2.0284 -0.3039
 6379SOL     OW30598   1.009   4.627   1.841  0.3869  0.0898 -0.1066
 6379SOL    HW130599   0.922   4.586   1.837 -0.7415  2.4002  1.0842
 6379SOL    HW230600   0.988   4.712   1.804 -0.1933 -0.3257 -0.7429
 6380SOL     OW30601   0.469   4.647  10.324 -0.3410 -0.7273  0.1390
 6380SOL    HW130602   0.542   4.596  10.289 -1.4083 -0.2965 -2.6562
 6380SOL    HW230603   0.475   4.624  10.417 -3.8743 -2.2044 -0.0139
 6381SOL     OW30604   1.335   1.391   5.612 -0.1230 -0.3370 -0.3382
 6381SOL    HW130605   1.354   1.472   5.660 -0.1469 -1.5664  1.7568
 6381SOL    HW230606   1.366   1.329   5.678  0.0845  1.1846  1.0022
 6382SOL     OW30607   1.747   4.686   2.703  0.0016 -0.5828  0.1960
 6382SOL    HW130608   1.720   0.041   2.660  0.3505 -1.3395 -1.4449
 6382SOL    HW230609   1.713   4.629   2.635 -0.2489 -0.8793  0.5711
 6383SOL     OW30610   1.449   3.566   3.749 -0.2381 -0.1443 -0.5716
 6383SOL    HW130611   1.445   3.662   3.746  3.9007  0.0435  0.8642
 6383SOL    HW230612   1.541   3.546   3.764 -0.9709 -2.3781  0.9013
 6384SOL     OW30613   0.801   4.697   6.876 -0.0907 -0.2818 -0.1978
 6384SOL    HW130614   0.871   4.682   6.939 -0.6171  0.8553  0.6596
 6384SOL    HW230615   0.835   0.044   6.826 -2.2657  0.8099 -0.0779
 6385SOL     OW30616   0.796   1.845  13.140  0.3198  0.2583  0.0820
 6385SOL    HW130617   0.886   1.814  13.133  0.0841  0.4975 -3.8026
 6385SOL    HW230618   0.775   1.841  13.234 -0.2849 -0.0240 -0.0665
 6386SOL     OW30619   3.542   1.229   1.555 -0.2681 -0.5020  0.3121
 6386SOL    HW130620   3.551   1.147   1.603  2.3030 -2.6037 -3.7478
 6386SOL    HW230621   3.482   1.275   1.614 -1.1331 -1.0782 -0.1068
 6387SOL     OW30622   1.314   2.520   0.869 -0.2258 -0.0726 -0.1879
 6387SOL    HW130623   1.324   2.520   0.774 -0.1348  1.2193 -0.1684
 6387SOL    HW230624   1.391   2.470   0.897  0.5111  1.5062  0.6053
 6388SOL     OW30625   0.116   3.692  14.061  0.2057  0.5667 -0.0634
 6388SOL    HW130626   0.158   3.669  13.979 -2.6978 -1.3033 -1.0536
 6388SOL    HW230627   0.107   3.786  14.044  1.4930  0.6276 -0.3639
 6389SOL     OW30628   1.646   3.195   3.701 -0.1611 -0.0860 -0.1748
 6389SOL    HW130629   1.695   3.168   3.778 -0.2139 -0.7960 -0.3885
 6389SOL    HW230630   1.630   3.110   3.660  0.9987  0.3554 -1.5511
 6390SOL     OW30631   4.678   0.770   4.147  0.5951  0.1378  0.1033
 6390SOL    HW130632   0.008   0.704   4.107 -0.1125 -1.4809  1.7204
 6390SOL    HW230633   4.681   0.736   4.237  0.7081 -0.8787 -0.2860
 6391SOL     OW30634   3.745   0.328   5.990  0.3485 -0.2956  0.2006
 6391SOL    HW130635   3.809   0.388   5.953  1.0534 -0.2336  1.5178
 6391SOL    HW230636   3.725   0.355   6.080 -0.4544 -2.8323  0.8000
 6392SOL     OW30637   3.665   4.169   8.666  0.3167 -0.3715  0.0553
 6392SOL    HW130638   3.721   4.177   8.589 -0.1475  1.2078 -0.1126
 6392SOL    HW230639   3.638   4.259   8.686 -0.8639 -0.3003 -1.9560
 6393SOL     OW30640   4.492   3.793  11.090  0.0945 -0.1094  0.3952
 6393SOL    HW130641   4.413   3.801  11.144  0.8116  0.4200  1.3570
 6393SOL    HW230642   4.559   3.821  11.152  0.7374 -2.1132  0.6052
 6394SOL     OW30643   2.962   0.996   3.198 -0.5640 -0.3578  0.2710
 6394SOL    HW130644   2.956   0.919   3.142 -0.4768 -0.8476  0.9462
 6394SOL    HW230645   3.039   1.038   3.158  0.4833 -1.0144  1.6121
 6395SOL     OW30646   3.901   0.613   7.639 -0.3570 -0.2939  0.0734
 6395SOL    HW130647   3.994   0.598   7.654 -0.4649 -0.5210  0.5092
 6395SOL    HW230648   3.897   0.696   7.592  0.8728 -0.4419 -0.2949
 6396SOL     OW30649   3.567   0.343   4.064  0.0933  0.0170  0.2119
 6396SOL    HW130650   3.530   0.426   4.032  3.3929  2.0723  1.6553
 6396SOL    HW230651   3.642   0.345   4.005  0.1281  4.0587  0.3323
 6397SOL     OW30652   1.071   0.836   7.447  0.0612 -0.3523  0.1956
 6397SOL    HW130653   1.107   0.853   7.534  1.2754  1.5082 -0.6788
 6397SOL    HW230654   0.990   0.787   7.463 -0.5038  0.3677 -0.4585
 6398SOL     OW30655   0.907   4.269   4.170 -0.2532 -0.4303 -0.2064
 6398SOL    HW130656   0.852   4.333   4.215  2.9654  1.2998  1.2191
 6398SOL    HW230657   0.901   4.293   4.077  1.9010  1.3079  0.1085
 6399SOL     OW30658   0.565   4.616  16.223  0.1438  0.3904  0.3268
 6399SOL    HW130659   0.656   4.595  16.244 -0.5917 -2.5944  0.5292
 6399SOL    HW230660   0.520   4.585  16.302 -0.8561 -2.2582 -1.2681
 6400SOL     OW30661   3.610   0.730   1.086 -0.1067 -0.2678  0.5705
 6400SOL    HW130662   3.547   0.795   1.054 -0.1888 -1.6270 -1.9974
 6400SOL    HW230663   3.549   0.660   1.109 -0.8009  0.3754  0.7093
 6401SOL     OW30664   2.818   0.880   2.342  0.4414  0.0524 -0.4851
 6401SOL    HW130665   2.865   0.799   2.323  1.0887 -0.1253  1.8326
 6401SOL    HW230666   2.731   0.840   2.338  0.0477  0.7795  0.8605
 6402SOL     OW30667   1.627   2.377   5.330  0.0524  0.5558  0.2133
 6402SOL    HW130668   1.552   2.424   5.292 -1.7260 -0.7014  2.1364
 6402SOL    HW230669   1.602   2.290   5.297  0.5471 -0.0003  1.2872
 6403SOL     OW30670   3.709   3.378   5.652  0.0592  0.7427 -0.0416
 6403SOL    HW130671   3.755   3.360   5.734  0.1495 -0.2901 -0.3236
 6403SOL    HW230672   3.775   3.336   5.597  1.6433  0.9641  1.6756
 6404SOL     OW30673   2.706   2.063  11.517  0.2412 -0.2221 -0.8879
 6404SOL    HW130674   2.718   2.132  11.452 -1.0351 -0.6102 -1.5230
 6404SOL    HW230675   2.611   2.054  11.525  0.3637 -1.1385 -0.4843
 6405SOL     OW30676   1.409   2.589   0.469 -0.0614  0.3579 -0.0349
 6405SOL    HW130677   1.468   2.630   0.532 -1.8485  1.2969  1.0060
 6405SOL    HW230678   1.396   2.671   0.420 -1.5043 -0.0555 -0.3306
 6406SOL     OW30679   3.474   0.966   7.879 -0.1786  0.2321 -0.0718
 6406SOL    HW130680   3.535   0.920   7.936 -3.2877 -0.8182  2.4458
 6406SOL    HW230681   3.491   0.926   7.794 -0.0309  0.3756 -0.1088
 6407SOL     OW30682   4.620   2.786   6.744 -0.8090 -0.3121  0.3204
 6407SOL    HW130683   4.679   2.714   6.765 -0.3435  0.0904  0.3887
 6407SOL    HW230684   4.659   2.823   6.665  0.1375 -0.1284  0.8700
 6408SOL     OW30685   1.598   2.210   2.771  0.2922 -0.3376  0.0189
 6408SOL    HW130686   1.566   2.174   2.688  0.3133 -1.5549  0.5378
 6408SOL    HW230687   1.530   2.277   2.775  0.6606 -0.0692  1.5537
 6409SOL     OW30688   3.017   2.985   1.032  0.5401 -0.3270  0.1825
 6409SOL    HW130689   3.077   3.039   1.083 -1.3466  1.9271  0.0178
 6409SOL    HW230690   3.035   2.894   1.059 -1.2464 -1.3696 -2.1396
 6410SOL     OW30691   3.497   1.662  11.757 -0.7180 -0.1279  0.1425
 6410SOL    HW130692   3.472   1.635  11.669 -3.4070  0.3201  0.7572
 6410SOL    HW230693   3.522   1.751  11.734  1.7678 -0.9491 -0.3787
 6411SOL     OW30694   3.952   0.303   4.720  0.2872  0.6730 -0.2231
 6411SOL    HW130695   3.903   0.354   4.784  0.3094  1.8401 -1.1384
 6411SOL    HW230696   3.975   0.227   4.774 -1.7225 -0.1505 -0.4869
 6412SOL     OW30697   1.693   2.836  13.436 -0.2008 -0.3984 -0.2606
 6412SOL    HW130698   1.672   2.930  13.444  1.2490  0.2073 -3.7811
 6412SOL    HW230699   1.786   2.847  13.418 -0.3083 -1.3241 -1.3237
 6413SOL     OW30700   1.665   4.626   8.541 -0.2783  0.3354  0.5119
 6413SOL    HW130701   1.644   4.696   8.603 -3.1983  0.8315 -1.0171
 6413SOL    HW230702   1.657   4.666   8.454  0.6887 -1.8110 -0.5439
 6414SOL     OW30703   0.831   3.630  11.182 -0.6258  0.0083  0.4712
 6414SOL    HW130704   0.777   3.559  11.214 -2.4133 -0.7578 -4.2733
 6414SOL    HW230705   0.819   3.630  11.087  0.7227 -0.8510  0.3089
 6415SOL     OW30706   3.350   1.095   9.558 -0.4871 -0.2209  0.0023
 6415SOL    HW130707   3.341   1.159   9.629 -1.6106 -0.3119 -0.0655
 6415SOL    HW230708   3.391   1.152   9.492  1.5307 -0.9596  0.6302
 6416SOL     OW30709   3.931   4.175   4.393  0.1225  0.1830  0.3029
 6416SOL    HW130710   3.902   4.264   4.416 -2.4281 -0.0849 -1.8082
 6416SOL    HW230711   3.850   4.124   4.385 -0.4979  1.1797  0.1587
 6417SOL     OW30712   0.187   1.565  15.527 -0.4395  0.1957  0.0690
 6417SOL    HW130713   0.095   1.539  15.532 -0.6324  0.4688 -2.0398
 6417SOL    HW230714   0.221   1.533  15.611 -1.1844 -0.9849 -0.0913
 6418SOL     OW30715   3.037   0.815   8.094  0.1121 -0.0340  0.8332
 6418SOL    HW130716   3.120   0.778   8.065 -1.3784 -0.2521 -3.1369
 6418SOL    HW230717   3.062   0.830   8.186  1.0851 -0.4338  0.6334
 6419SOL     OW30718   3.393   0.690   9.432  0.4307 -0.0322  0.2045
 6419SOL    HW130719   3.379   0.771   9.383 -1.4175  0.5348  1.6681
 6419SOL    HW230720   3.488   0.690   9.425  0.4659 -0.5665  0.6561
 6420SOL     OW30721   0.239   2.785   4.434 -0.4487  0.3930 -0.4404
 6420SOL    HW130722   0.236   2.699   4.393  0.0061 -0.9776  2.4407
 6420SOL    HW230723   0.322   2.767   4.479 -1.0516  0.4672  0.7056
 6421SOL     OW30724   4.569   1.982   0.451 -0.2225 -0.2538  0.6714
 6421SOL    HW130725   4.645   1.942   0.410  0.8028 -0.1695  2.4828
 6421SOL    HW230726   4.607   2.025   0.528 -0.8080  1.8878 -0.2594
 6422SOL     OW30727   0.299   4.346   0.835  0.3809  0.1238 -0.6562
 6422SOL    HW130728   0.248   4.427   0.826  0.3780  0.4499  2.2847
 6422SOL    HW230729   0.233   4.279   0.852 -0.7538  1.0344 -1.5566
 6423SOL     OW30730   2.279   3.750   2.623  0.3520 -0.1023 -0.1881
 6423SOL    HW130731   2.308   3.793   2.543 -1.7449 -0.9273 -1.3941
 6423SOL    HW230732   2.253   3.662   2.596 -1.2843  0.4478 -0.4166
 6424SOL     OW30733   3.498   1.916  11.613  0.0993 -0.2408  0.4818
 6424SOL    HW130734   3.527   1.866  11.537  1.6890  0.1425  0.8221
 6424SOL    HW230735   3.406   1.904  11.592  0.3459 -0.6974 -0.3209
 6425SOL     OW30736   4.630   1.773   1.364  0.4250  0.1880 -0.4964
 6425SOL    HW130737   4.612   1.861   1.396 -0.8840  0.2453 -1.3929
 6425SOL    HW230738   4.716   1.787   1.325 -0.2713  4.9211 -0.2539
 6426SOL     OW30739   3.234   4.325  13.791  0.3918  0.3278 -0.2349
 6426SOL    HW130740   3.261   4.387  13.723 -1.5410  2.3146  0.8293
 6426SOL    HW230741   3.163   4.283  13.742 -0.0257  0.5235  0.2074
 6427SOL     OW30742   1.652   1.824   4.627 -0.2201  0.1742  0.0074
 6427SOL    HW130743   1.632   1.747   4.680  1.3229 -0.8715 -0.8959
 6427SOL    HW230744   1.746   1.830   4.644 -0.3404 -0.0094  0.7378
 6428SOL     OW30745   1.872   2.094  15.978 -0.0257  0.3894 -0.1761
 6428SOL    HW130746   1.924   2.167  16.013  1.5221 -0.5750 -0.4828
 6428SOL    HW230747   1.787   2.127  16.007  0.0984 -0.3950  1.0824
 6429SOL     OW30748   4.646   1.700  12.988 -0.1383  0.0298 -0.1419
 6429SOL    HW130749   4.726   1.691  13.040  1.2999  1.3068 -2.1037
 6429SOL    HW230750   4.616   1.609  12.985  0.3239 -0.2905  4.8850
 6430SOL     OW30751   0.845   4.162   7.677  0.0161  0.4947  0.4288
 6430SOL    HW130752   0.941   4.165   7.674 -0.0223  2.1697  0.9535
 6430SOL    HW230753   0.830   4.211   7.758 -1.3514 -0.0671  0.5061
 6431SOL     OW30754   0.843   4.610   9.414 -0.7448 -0.2317  0.6408
 6431SOL    HW130755   0.937   4.606   9.429 -0.3461 -1.8487 -2.2627
 6431SOL    HW230756   0.811   4.553   9.485  0.4957 -0.9075  0.6605
 6432SOL     OW30757   3.386   0.576   8.415 -0.6010 -0.0813 -0.2555
 6432SOL    HW130758   3.299   0.540   8.435 -0.1743 -0.6079  0.6370
 6432SOL    HW230759   3.418   0.503   8.362  0.5720 -0.1216  0.5019
 6433SOL     OW30760   2.569   4.718   1.448 -0.2425 -0.1736 -0.0090
 6433SOL    HW130761   2.577   0.073   1.397 -2.6510 -0.2558 -0.5236
 6433SOL    HW230762   2.631   4.666   1.398  1.6087  2.0731 -0.0651
 6434SOL     OW30763   4.535   3.122   1.995  0.5104  0.3441 -0.4463
 6434SOL    HW130764   4.486   3.122   2.077  0.5150  1.3047 -0.4456
 6434SOL    HW230765   4.526   3.215   1.976 -1.0515  0.5293  1.1275
 6435SOL     OW30766   4.490   4.133   4.486  0.5575  0.9568  0.2785
 6435SOL    HW130767   4.401   4.161   4.470  0.3914  1.1356  1.4689
 6435SOL    HW230768   4.535   4.175   4.413  1.0256 -0.5741 -0.3204
 6436SOL     OW30769   2.684   2.680   1.033  0.0759  0.6103  0.4209
 6436SOL    HW130770   2.663   2.772   1.017  3.6166  0.9134 -2.2639
 6436SOL    HW230771   2.729   2.678   0.949  2.5101 -0.1715  1.7461
 6437SOL     OW30772   0.402   1.517  16.830  0.2023  0.3442 -0.8086
 6437SOL    HW130773   0.320   1.487  16.791  1.7321 -1.6894 -2.4352
 6437SOL    HW230774   0.464   1.464  16.780 -1.4599  0.5079 -3.0231
 6438SOL     OW30775   4.062   1.165   2.176 -0.1686  0.8327 -0.2448
 6438SOL    HW130776   4.116   1.242   2.157  0.5790  0.1267 -1.0085
 6438SOL    HW230777   4.029   1.141   2.090  0.7097 -1.5945  0.1044
 6439SOL     OW30778   2.811   2.591   2.996 -0.0890 -0.5500 -0.2843
 6439SOL    HW130779   2.830   2.666   3.052  0.9275 -0.9695 -0.0676
 6439SOL    HW230780   2.716   2.590   2.982 -0.2706 -0.9027  1.0115
 6440SOL     OW30781   2.604   2.574  10.971  0.0987 -0.1921  0.8617
 6440SOL    HW130782   2.529   2.514  10.973  0.8656 -1.0770  3.0097
 6440SOL    HW230783   2.596   2.606  10.881 -0.5923 -2.1347  0.2270
 6441SOL     OW30784   3.106   2.740  16.641 -0.2259 -0.2032  0.0596
 6441SOL    HW130785   3.119   2.761  16.733  0.9567 -2.1298  0.3223
 6441SOL    HW230786   3.013   2.738  16.620 -0.2583 -2.2220  0.4431
 6442SOL     OW30787   3.855   4.490  11.862 -0.4125  0.1380 -0.3350
 6442SOL    HW130788   3.857   4.550  11.937  0.9841  0.0535 -0.2967
 6442SOL    HW230789   3.879   4.413  11.914 -0.6265 -0.6454 -1.4072
 6443SOL     OW30790   0.392   0.653   5.750 -0.4135 -0.1116 -0.4581
 6443SOL    HW130791   0.351   0.568   5.731  1.3922 -0.5195 -2.4605
 6443SOL    HW230792   0.468   0.656   5.692 -1.2573 -0.2152 -1.5897
 6444SOL     OW30793   4.015   4.321   8.181  0.1753 -0.0958  0.4155
 6444SOL    HW130794   4.098   4.369   8.179 -0.2073  0.6397  3.2562
 6444SOL    HW230795   3.968   4.368   8.112 -0.2213 -1.3230 -0.1547
 6445SOL     OW30796   4.396   4.355   1.614 -0.0302  0.1904 -0.0907
 6445SOL    HW130797   4.421   4.327   1.527 -0.8882 -1.0008  0.0496
 6445SOL    HW230798   4.473   4.323   1.660 -0.1757 -0.3047 -0.1983
 6446SOL     OW30799   3.929   3.686   8.038  0.0645 -0.2445 -0.1817
 6446SOL    HW130800   3.946   3.682   8.133  1.1642  0.6815 -0.3380
 6446SOL    HW230801   3.883   3.604   8.021 -0.5983  0.4299 -1.5615
 6447SOL     OW30802   2.513   2.494  12.233 -0.2657  0.2719 -0.5226
 6447SOL    HW130803   2.496   2.411  12.189  0.1357  0.8526 -1.7683
 6447SOL    HW230804   2.533   2.549  12.157 -1.5146 -0.3844 -1.3201
 6448SOL     OW30805   3.244   1.881   7.714 -0.3777 -0.0203  0.1820
 6448SOL    HW130806   3.149   1.885   7.719 -0.4204  0.2522 -0.8701
 6448SOL    HW230807   3.261   1.791   7.742  2.5156 -0.1392 -1.8916
 6449SOL     OW30808   0.472   1.491   4.633 -0.0706  0.1767  0.2941
 6449SOL    HW130809   0.404   1.495   4.565 -0.1723 -2.1903  0.2581
 6449SOL    HW230810   0.556   1.488   4.586 -1.6641  0.4394 -2.6195
 6450SOL     OW30811   0.826   2.821   7.432 -0.1302 -0.2207 -0.4782
 6450SOL    HW130812   0.826   2.812   7.337 -0.4558  1.5634 -0.6477
 6450SOL    HW230813   0.739   2.854   7.455 -0.2107 -0.7636  0.0005
 6451SOL     OW30814   0.366   1.195   7.575 -0.4617 -0.1374  0.0038
 6451SOL    HW130815   0.319   1.245   7.509 -0.9848 -1.6137 -0.7303
 6451SOL    HW230816   0.372   1.265   7.641 -1.3364 -0.7581  0.7421
 6452SOL     OW30817   3.740   2.787  12.918  0.0906  0.3578  0.8542
 6452SOL    HW130818   3.729   2.824  13.005 -2.3331 -1.3367  1.2774
 6452SOL    HW230819   3.678   2.714  12.923  0.7932 -0.2256  1.1804
 6453SOL     OW30820   1.274   4.532   1.762 -0.5017 -0.5302  0.2873
 6453SOL    HW130821   1.221   4.612   1.769  0.3728 -0.1080  2.1240
 6453SOL    HW230822   1.281   4.526   1.667 -0.8518  1.4482  0.1349
 6454SOL     OW30823   3.672   0.930   8.310  0.5945 -0.5526 -0.3405
 6454SOL    HW130824   3.592   0.968   8.344  0.7319 -0.7038  0.1499
 6454SOL    HW230825   3.666   0.843   8.349  1.2400  0.0640  1.1264
 6455SOL     OW30826   3.455   2.922  14.874  0.3794 -0.4237 -0.1068
 6455SOL    HW130827   3.437   2.980  14.799 -0.0592 -2.2467 -1.4052
 6455SOL    HW230828   3.411   2.841  14.851  0.7172 -0.4083 -0.8052
 6456SOL     OW30829   3.656   2.352   4.302 -0.8045  0.5380 -0.3192
 6456SOL    HW130830   3.682   2.440   4.275 -0.1242  1.0543  2.0036
 6456SOL    HW230831   3.727   2.331   4.362 -1.3682 -1.4368 -0.3671
 6457SOL     OW30832   2.359   4.301   3.079  0.1140  0.0018  0.0614
 6457SOL    HW130833   2.284   4.251   3.045  0.2449  0.5442 -1.0391
 6457SOL    HW230834   2.369   4.258   3.164  0.3100 -1.5377 -0.7344
 6458SOL     OW30835   4.334   2.876   7.801 -0.6587  0.0805 -0.1017
 6458SOL    HW130836   4.364   2.800   7.851  1.5229  0.8539 -0.2197
 6458SOL    HW230837   4.410   2.933   7.788  0.8874 -1.9486  0.0527
 6459SOL     OW30838   2.776   2.212  16.342  0.0518 -0.2796 -0.0254
 6459SOL    HW130839   2.746   2.123  16.323 -1.1981  0.2513 -0.5566
 6459SOL    HW230840   2.763   2.259  16.260  0.5497  4.4993  2.6238
 6460SOL     OW30841   3.138   3.898   6.506  0.1722 -0.0005  0.3399
 6460SOL    HW130842   3.181   3.841   6.442 -0.1252 -1.1444  1.1565
 6460SOL    HW230843   3.196   3.974   6.512  0.8139 -0.4364 -0.2414
 6461SOL     OW30844   2.199   3.709  12.824 -0.1215 -0.6467 -0.1050
 6461SOL    HW130845   2.135   3.777  12.844  1.0876  0.9053 -1.4462
 6461SOL    HW230846   2.172   3.649  12.893 -0.0224 -1.3022 -0.6376
 6462SOL     OW30847   3.932   0.633  16.473  0.3165 -0.1224 -0.3629
 6462SOL    HW130848   3.977   0.549  16.468 -0.1411 -0.3209 -1.0764
 6462SOL    HW230849   3.978   0.675  16.401  1.6081 -2.6938 -1.0359
 6463SOL     OW30850   1.798   4.088  14.134  0.3136  0.5336 -0.2869
 6463SOL    HW130851   1.856   4.164  14.137 -0.5370  0.9510  4.9235
 6463SOL    HW230852   1.857   4.015  14.117  0.8446  0.4991  1.7134
 6464SOL     OW30853   0.933   3.346   0.914  0.1361 -0.3151 -0.2551
 6464SOL    HW130854   0.964   3.316   0.828  0.9361 -1.9031  0.5830
 6464SOL    HW230855   0.993   3.299   0.971  1.4441 -1.9074 -2.9174
 6465SOL     OW30856   1.113   0.472   2.642 -0.1212  0.7631 -0.0209
 6465SOL    HW130857   1.121   0.546   2.581  0.4471  0.5332 -0.2210
 6465SOL    HW230858   1.090   0.410   2.573  0.8923 -0.1191  0.4344
 6466SOL     OW30859   2.791   3.494   8.880  0.8447 -0.4625 -0.2142
 6466SOL    HW130860   2.792   3.402   8.907  0.0347 -1.0033 -2.0427
 6466SOL    HW230861   2.699   3.510   8.899  0.9854  0.3710 -0.2378
 6467SOL     OW30862   0.729   2.636   2.217  0.0857 -0.0441  0.6592
 6467SOL    HW130863   0.638   2.607   2.212 -0.4400  1.5398  1.2834
 6467SOL    HW230864   0.723   2.731   2.221  1.9320  0.1514 -1.0437
 6468SOL     OW30865   0.138   1.161   6.162 -0.6843 -0.2051  0.4042
 6468SOL    HW130866   0.160   1.220   6.233  1.0695 -0.1431 -0.1982
 6468SOL    HW230867   0.197   1.203   6.100  0.0970 -0.7519  0.7866
 6469SOL     OW30868   0.440   4.490   9.331  0.0995 -0.2999  0.2749
 6469SOL    HW130869   0.434   4.569   9.277  0.5029 -0.4953 -0.0540
 6469SOL    HW230870   0.349   4.464   9.337  0.4306 -1.1604  1.7203
 6470SOL     OW30871   0.145   0.135   7.172 -0.6606  1.1091  0.4672
 6470SOL    HW130872   0.197   0.215   7.180  0.3060  0.4070  1.2212
 6470SOL    HW230873   0.079   0.163   7.109  2.6378  3.0286 -2.1041
 6471SOL     OW30874   4.669   2.413  12.165  0.6221 -0.3758 -0.2488
 6471SOL    HW130875   4.700   2.329  12.129 -1.2504  0.4128 -3.7537
 6471SOL    HW230876   0.027   2.450  12.191 -0.6348  0.2801  2.8220
 6472SOL     OW30877   1.981   0.302   3.322  0.1654  0.1739 -0.5349
 6472SOL    HW130878   1.963   0.390   3.289  1.2097  0.6027  0.0228
 6472SOL    HW230879   1.968   0.243   3.248 -4.6083 -1.0017  1.2501
 6473SOL     OW30880   1.310   4.308   6.219 -0.3355 -0.2878  0.1261
 6473SOL    HW130881   1.264   4.388   6.243 -2.1749 -0.2768 -3.3004
 6473SOL    HW230882   1.234   4.251   6.230  0.1347 -1.2266 -1.3861
 6474SOL     OW30883   3.170   3.317   8.425  0.0854  0.1131  0.0334
 6474SOL    HW130884   3.080   3.343   8.404  0.5408  1.2747 -0.4838
 6474SOL    HW230885   3.226   3.381   8.380  1.2471 -1.1190 -0.2879
 6475SOL     OW30886   4.315   0.686   9.584  0.3929  0.2683  0.3919
 6475SOL    HW130887   4.332   0.621   9.652  1.8857  0.6416  0.3617
 6475SOL    HW230888   4.229   0.717   9.613  0.6154  1.4874 -0.2751
 6476SOL     OW30889   0.741   3.678   3.081 -0.4127 -0.3605 -0.3062
 6476SOL    HW130890   0.647   3.661   3.082  0.0122 -2.4818  2.4957
 6476SOL    HW230891   0.758   3.673   2.987 -0.3538  0.0761 -0.3180
 6477SOL     OW30892   0.385   3.125   8.796 -0.4060  0.2367  0.5653
 6477SOL    HW130893   0.292   3.147   8.791 -0.5061 -0.2660  0.1639
 6477SOL    HW230894   0.383   3.132   8.891  0.7012 -1.3140  0.6983
 6478SOL     OW30895   0.161   3.042   1.451 -0.7216  0.2726 -0.2951
 6478SOL    HW130896   0.090   3.038   1.515 -0.2927 -1.9156  0.0253
 6478SOL    HW230897   0.184   3.135   1.453 -0.8095  0.2404  1.5306
 6479SOL     OW30898   3.549   1.674   5.012 -0.0407  0.5791  0.3812
 6479SOL    HW130899   3.471   1.699   4.963 -1.1054  0.9071  2.2275
 6479SOL    HW230900   3.525   1.643   5.100  1.3864  0.2436  0.6506
 6480SOL     OW30901   3.775   0.219   7.106  0.3782 -0.0208  0.6756
 6480SOL    HW130902   3.778   0.315   7.104 -1.2581 -0.0002 -0.6227
 6480SOL    HW230903   3.803   0.194   7.018 -2.7835 -0.9845 -0.0588
 6481SOL     OW30904   4.558   2.302  15.620 -0.2541 -0.3999  0.7526
 6481SOL    HW130905   4.641   2.347  15.636 -1.2229  1.4575  0.6410
 6481SOL    HW230906   4.585   2.222  15.575 -1.6010 -0.1231 -0.5357
 6482SOL     OW30907   2.748   4.283   4.691 -0.2701 -0.4988  0.1151
 6482SOL    HW130908   2.754   4.379   4.684  0.4202 -0.6067 -0.8223
 6482SOL    HW230909   2.761   4.272   4.785 -0.9157 -0.0105  0.2621
 6483SOL     OW30910   2.869   4.596   5.819 -0.4911 -0.0839 -0.3650
 6483SOL    HW130911   2.888   4.530   5.885  1.2243  1.3722  0.6141
 6483SOL    HW230912   2.792   4.645   5.848  0.4557  2.3792 -2.0019
 6484SOL     OW30913   1.340   4.528   5.859  0.0133  0.7062  0.2404
 6484SOL    HW130914   1.411   4.464   5.855  1.1319  1.8606  2.0917
 6484SOL    HW230915   1.350   4.564   5.770  0.6160 -0.8108 -0.3012
 6485SOL     OW30916   2.828   2.819   0.091 -0.4085 -0.1451  0.1192
 6485SOL    HW130917   2.841   2.909   0.122 -3.8558  0.3004  0.1796
 6485SOL    HW230918   2.865   2.761   0.158  1.0289 -0.2557 -0.7602
 6486SOL     OW30919   4.550   0.049   6.601  0.0924  0.2550  0.0618
 6486SOL    HW130920   4.627   0.092   6.563  1.1390  0.3311  2.2860
 6486SOL    HW230921   4.514   0.000   6.527  0.8715  1.7158 -1.2786
 6487SOL     OW30922   2.406   0.476   9.332  0.0177 -0.0219 -0.5184
 6487SOL    HW130923   2.458   0.438   9.402  0.6840  1.0619 -0.4177
 6487SOL    HW230924   2.347   0.540   9.373  0.2134  0.0299 -0.3189
 6488SOL     OW30925   3.096   1.999   3.944 -0.3666 -0.3051 -0.3317
 6488SOL    HW130926   3.150   2.053   3.886 -1.8848  0.7177 -0.7907
 6488SOL    HW230927   3.023   2.059   3.955 -0.5823 -0.3044 -1.7770
 6489SOL     OW30928   1.009   1.403   8.417  0.2748  0.2198 -0.1457
 6489SOL    HW130929   1.102   1.382   8.405  0.0797  0.1047 -1.5123
 6489SOL    HW230930   0.982   1.338   8.482  0.8339 -0.0990 -0.2276
 6490SOL     OW30931   2.006   0.551   6.846 -0.4422  0.5121 -0.4674
 6490SOL    HW130932   2.095   0.554   6.810  0.1758 -1.1970  0.9241
 6490SOL    HW230933   2.034   0.528   6.934  1.2401  0.1528 -1.0881
 6491SOL     OW30934   3.695   1.332   5.673  0.6173 -0.0205  0.1924
 6491SOL    HW130935   3.636   1.290   5.610 -0.9132  0.3283  1.4056
 6491SOL    HW230936   3.770   1.364   5.623  1.7219 -2.2903  0.4095
 6492SOL     OW30937   2.246   0.443   1.813  0.2950  0.1654  0.1408
 6492SOL    HW130938   2.280   0.445   1.723  1.8137  0.6711  0.7324
 6492SOL    HW230939   2.310   0.380   1.846  2.3029  1.7607 -0.6436
 6493SOL     OW30940   3.846   1.137   9.697  0.3558  0.0347  0.0773
 6493SOL    HW130941   3.871   1.143   9.789  1.9002  2.4391 -0.5217
 6493SOL    HW230942   3.805   1.052   9.682 -2.1141  1.4524 -1.1532
 6494SOL     OW30943   0.290   1.631   2.003 -0.4915 -0.1336 -0.4978
 6494SOL    HW130944   0.352   1.598   1.938 -1.0206  0.2434 -1.1994
 6494SOL    HW230945   0.248   1.705   1.959 -0.9022 -1.9564 -3.1602
 6495SOL     OW30946   0.379   4.234   6.705  0.4437  0.3836  0.3629
 6495SOL    HW130947   0.446   4.248   6.638  0.1354 -1.5362 -0.3561
 6495SOL    HW230948   0.306   4.292   6.684  1.2155  1.5100  0.7972
 6496SOL     OW30949   4.558   1.359   6.837 -1.1329 -0.2771  0.3882
 6496SOL    HW130950   4.549   1.276   6.884  0.3935  0.2452  1.6479
 6496SOL    HW230951   4.467   1.379   6.855 -1.1439 -0.2854  0.3412
 6497SOL     OW30952   1.551   3.193   3.383  0.0741  0.0556 -0.4269
 6497SOL    HW130953   1.645   3.194   3.363  0.3985 -2.9293  0.8354
 6497SOL    HW230954   1.541   3.249   3.460  0.9629 -0.3634  0.0064
 6498SOL     OW30955   3.356   1.278   4.573  0.0889 -0.0882  0.6495
 6498SOL    HW130956   3.312   1.221   4.509 -0.9065  0.3033  0.9842
 6498SOL    HW230957   3.304   1.256   4.650 -2.5430  1.4574 -0.6764
 6499SOL     OW30958   2.706   1.671   2.761 -0.4281  0.6939  0.1133
 6499SOL    HW130959   2.694   1.698   2.669  1.4949  1.5363  0.1001
 6499SOL    HW230960   2.622   1.691   2.803 -0.8837 -2.2016  0.5370
 6500SOL     OW30961   3.165   1.958   6.648  0.2028 -0.6128  0.3567
 6500SOL    HW130962   3.135   2.002   6.728  1.4737 -1.3984  1.2686
 6500SOL    HW230963   3.089   1.963   6.591 -0.1899  0.1888  0.9382
 6501SOL     OW30964   4.266   1.183   1.939  0.0110 -0.5146 -0.1353
 6501SOL    HW130965   4.225   1.258   1.896  2.1965  0.9777  0.4093
 6501SOL    HW230966   4.202   1.115   1.918 -0.7039  0.4921 -1.1876
 6502SOL     OW30967   3.349   2.563   5.763  0.0434 -0.3185  0.3670
 6502SOL    HW130968   3.326   2.543   5.673 -1.0038  1.0658  0.3282
 6502SOL    HW230969   3.335   2.482   5.812 -2.4386 -0.4505 -0.5632
 6503SOL     OW30970   4.127   1.996   3.461  1.0886  0.0769 -0.6588
 6503SOL    HW130971   4.123   2.018   3.554  1.3209  0.7523 -0.8075
 6503SOL    HW230972   4.056   2.050   3.425  0.6211  0.1021  0.2872
 6504SOL     OW30973   4.641   2.238   0.943  0.0108 -0.5557 -0.4530
 6504SOL    HW130974   4.546   2.242   0.944 -0.0072 -1.5588  1.7578
 6504SOL    HW230975   4.650   2.288   1.025  2.7782  0.2335 -1.2260
 6505SOL     OW30976   1.381   0.887   8.180  0.8045  0.2364  0.5477
 6505SOL    HW130977   1.327   0.949   8.229  3.6277  1.7831  1.6745
 6505SOL    HW230978   1.465   0.876   8.224  1.8797 -1.0227 -1.8473
 6506SOL     OW30979   4.609   0.132   5.582  0.6051 -0.7730  0.2829
 6506SOL    HW130980   4.580   0.078   5.656  0.8562  0.0779  1.0003
 6506SOL    HW230981   4.628   0.213   5.629  1.4297 -1.5491  1.2666
 6507SOL     OW30982   4.178   4.369   9.836 -0.8442 -0.0682 -0.4949
 6507SOL    HW130983   4.123   4.446   9.823  0.7173  1.3681  1.2760
 6507SOL    HW230984   4.261   4.415   9.853 -1.5146  0.7071  0.6892
 6508SOL     OW30985   3.379   2.247  15.904 -0.2839  0.2311  0.1272
 6508SOL    HW130986   3.320   2.277  15.835 -0.4677 -0.1648  0.1167
 6508SOL    HW230987   3.438   2.197  15.847 -2.0006 -0.8245 -0.6972
 6509SOL     OW30988   0.355   2.438   2.670 -0.2118 -0.5166  0.7443
 6509SOL    HW130989   0.312   2.502   2.613 -0.5811 -0.8490  0.6539
 6509SOL    HW230990   0.293   2.428   2.741  0.0223 -1.0622  0.8733
 6510SOL     OW30991   0.275   3.772   8.369  0.3044 -0.0604  0.3537
 6510SOL    HW130992   0.305   3.848   8.320 -1.0070 -0.6943 -1.4149
 6510SOL    HW230993   0.182   3.782   8.351 -0.0266 -2.4053  0.7263
 6511SOL     OW30994   0.080   0.288  16.055  0.1526  0.4360  0.4537
 6511SOL    HW130995   0.161   0.319  16.097  1.0724 -0.1709 -0.8727
 6511SOL    HW230996   0.065   0.198  16.082 -0.7991  0.6490  0.6409
 6512SOL     OW30997   1.844   3.885   0.857 -0.5738  0.7255 -0.5148
 6512SOL    HW130998   1.763   3.858   0.902  1.4511 -1.0825  2.0412
 6512SOL    HW230999   1.828   3.970   0.818 -0.0674  1.2022  0.3067
 6513SOL     OW31000   2.068   1.972  11.743  0.1166 -0.2809  0.6105
 6513SOL    HW131001   2.122   2.028  11.688 -2.2290  0.9917 -0.3882
 6513SOL    HW231002   1.989   2.025  11.744 -0.3629 -1.0134  1.1388
 6514SOL     OW31003   0.136   3.343   5.073 -0.3304 -0.2114 -0.5317
 6514SOL    HW131004   0.177   3.397   5.006 -3.2850 -0.2739 -2.3948
 6514SOL    HW231005   0.064   3.316   5.016 -2.5176  1.0572  1.5814
 6515SOL     OW31006   3.370   1.638   7.671  1.1307  0.5569 -0.0804
 6515SOL    HW131007   3.371   1.684   7.587 -1.0087 -0.6863 -0.7797
 6515SOL    HW231008   3.459   1.602   7.671  0.5377 -0.8826  1.2865
 6516SOL     OW31009   3.891   0.063   5.414  0.7674 -0.1656 -0.2535
 6516SOL    HW131010   3.920   0.119   5.486  2.2227  0.0862 -1.0259
 6516SOL    HW231011   3.962   0.055   5.349  0.6828 -1.5914 -0.1762
 6517SOL     OW31012   3.563   3.057   8.718 -0.1216  0.1147 -0.1140
 6517SOL    HW131013   3.576   3.107   8.638  0.1797 -0.1545 -0.2346
 6517SOL    HW231014   3.468   3.050   8.725 -0.3051  1.5506 -1.1327
 6518SOL     OW31015   1.534   4.431   0.710  0.0330 -0.0079 -0.0365
 6518SOL    HW131016   1.515   4.502   0.649  0.1967  1.9527  2.1910
 6518SOL    HW231017   1.629   4.430   0.701  0.1416  0.8522  1.0762
 6519SOL     OW31018   2.159   4.506  15.300 -0.2648  0.2704  0.0895
 6519SOL    HW131019   2.191   4.593  15.278 -0.8969  0.1464 -1.3516
 6519SOL    HW231020   2.089   4.511  15.234 -0.6671 -2.5152  0.2731
 6520SOL     OW31021   0.185   2.483  12.192 -0.2419  0.4900  0.0449
 6520SOL    HW131022   0.189   2.481  12.096  0.1998 -1.1687  0.1043
 6520SOL    HW231023   0.271   2.443  12.207  0.8232  1.6158 -2.9008
 6521SOL     OW31024   4.578   0.406   5.520  0.9527 -0.0679  0.1100
 6521SOL    HW131025   4.607   0.317   5.504  0.7132 -0.8042  3.8526
 6521SOL    HW231026   4.653   0.462   5.499  0.6448 -0.0872 -1.0626
 6522SOL     OW31027   3.024   0.018  10.203 -0.6760 -0.0480  0.2420
 6522SOL    HW131028   2.979   4.664  10.228 -0.9888 -0.4867 -1.7750
 6522SOL    HW231029   2.951   0.056  10.153  0.7741  3.7313  0.9755
 6523SOL     OW31030   1.284   3.577   8.062  0.0991 -0.2295  0.0215
 6523SOL    HW131031   1.322   3.649   8.012  2.2582 -1.4775 -0.0931
 6523SOL    HW231032   1.194   3.602   8.039 -0.2284  0.3264  1.9385
 6524SOL     OW31033   2.189   0.387   3.468 -0.2324  0.5859 -0.3137
 6524SOL    HW131034   2.210   0.464   3.415  1.2990  1.7929  2.0659
 6524SOL    HW231035   2.110   0.349   3.429 -0.1332  2.4896 -2.3995
 6525SOL     OW31036   0.533   2.170   7.630  0.1807  0.6266 -0.0752
 6525SOL    HW131037   0.578   2.255   7.630  0.9708  0.2190  1.1035
 6525SOL    HW231038   0.478   2.181   7.708  0.9819  0.9600  0.4446
 6526SOL     OW31039   1.318   0.279  10.166 -0.3372 -0.5283 -0.0386
 6526SOL    HW131040   1.280   0.197  10.135 -1.4203  0.4435 -1.2320
 6526SOL    HW231041   1.335   0.255  10.258  2.1927  0.0423 -0.3560
 6527SOL     OW31042   2.286   3.412   6.452  0.2205  0.1644 -0.0078
 6527SOL    HW131043   2.243   3.476   6.509  1.4937  0.2195  0.8945
 6527SOL    HW231044   2.222   3.393   6.384 -0.9347 -0.2645  1.2153
 6528SOL     OW31045   0.886   0.642  15.815  0.2313 -0.4569  0.3779
 6528SOL    HW131046   0.868   0.551  15.839  0.5041 -0.6786 -0.2791
 6528SOL    HW231047   0.805   0.672  15.856  1.8435  3.5846  0.5853
 6529SOL     OW31048   3.939   1.067   8.360 -0.3083  0.7035 -0.0745
 6529SOL    HW131049   3.848   1.036   8.362 -0.6914  1.8166 -0.4312
 6529SOL    HW231050   3.955   1.081   8.453  3.0897  0.8874 -0.6829
 6530SOL     OW31051   0.182   3.962   3.178  0.5811 -0.4161  0.2032
 6530SOL    HW131052   0.169   4.054   3.156  0.1634 -0.2339  1.1901
 6530SOL    HW231053   0.268   3.942   3.140  1.5359  2.8541  0.6674
 6531SOL     OW31054   1.041   1.370   3.851 -0.1451 -0.1501 -0.0310
 6531SOL    HW131055   1.015   1.309   3.782 -0.8522  0.2927 -0.1530
 6531SOL    HW231056   1.066   1.451   3.807  0.7439 -0.2870  0.2157
 6532SOL     OW31057   2.076   4.270   4.193  0.1605  0.3979  0.3945
 6532SOL    HW131058   1.989   4.253   4.230  0.3942 -0.0605  0.7375
 6532SOL    HW231059   2.058   4.236   4.105 -0.0946  0.3658  0.4573
 6533SOL     OW31060   2.523   3.044   6.248 -0.2363  0.4580  0.4275
 6533SOL    HW131061   2.445   3.028   6.195 -1.2039 -2.7155  2.8435
 6533SOL    HW231062   2.507   3.134   6.276  0.9079  1.3108 -1.5814
 6534SOL     OW31063   0.624   4.667  13.628 -0.2002  0.3107  0.2930
 6534SOL    HW131064   0.545   4.718  13.608 -0.1916  1.2825  2.6838
 6534SOL    HW231065   0.612   4.649  13.721  1.1816 -1.4981  0.1077
 6535SOL     OW31066   3.112   2.020   8.898  0.3858  0.6033 -0.0157
 6535SOL    HW131067   3.092   2.006   8.805  2.6403  0.7385 -0.5348
 6535SOL    HW231068   3.048   2.087   8.920 -1.2547 -1.9572  2.9712
 6536SOL     OW31069   3.082   0.063   0.523  0.0364 -0.0073 -0.5355
 6536SOL    HW131070   3.142   0.121   0.569 -0.0112 -1.4931  1.3988
 6536SOL    HW231071   3.103   4.702   0.555  4.0958  1.5632  1.0701
 6537SOL     OW31072   0.364   0.349   7.108  0.1640 -0.2102 -0.0801
 6537SOL    HW131073   0.422   0.282   7.071 -2.7637 -2.0827 -1.2409
 6537SOL    HW231074   0.393   0.431   7.069 -3.4897  0.5263 -1.2311
 6538SOL     OW31075   3.483   3.531   6.089 -0.1036 -0.3900 -0.2577
 6538SOL    HW131076   3.548   3.598   6.071 -1.0503 -0.1902 -2.9459
 6538SOL    HW231077   3.401   3.578   6.079  0.3398  0.8778  2.0508
 6539SOL     OW31078   4.497   3.273   8.181 -0.0921  0.0947 -0.4589
 6539SOL    HW131079   4.414   3.253   8.137  0.7950  2.4107 -3.1989
 6539SOL    HW231080   4.550   3.235   8.111 -0.0658  3.1441 -2.1045
 6540SOL     OW31081   3.324   3.761   6.060  0.1541 -0.1007 -0.3638
 6540SOL    HW131082   3.396   3.795   6.008  0.6819  0.9583  1.0364
 6540SOL    HW231083   3.255   3.821   6.032 -1.1921 -1.1704  0.6092
 6541SOL     OW31084   1.896   4.210   5.921 -0.1881 -0.0038 -0.2159
 6541SOL    HW131085   1.947   4.269   5.867  1.2013 -1.0609 -0.0592
 6541SOL    HW231086   1.941   4.234   6.002 -1.9300  0.6189  0.5893
 6542SOL     OW31087   3.474   2.188   7.162 -0.0830  0.0407  0.2044
 6542SOL    HW131088   3.453   2.134   7.239  0.3538 -2.3246 -1.3257
 6542SOL    HW231089   3.570   2.196   7.162  0.0730 -1.7945 -1.0835
 6543SOL     OW31090   2.558   0.972   6.353  0.4938  0.9109  0.7345
 6543SOL    HW131091   2.625   0.911   6.320  0.3993  1.3791 -0.3358
 6543SOL    HW231092   2.560   0.943   6.444 -2.4679 -0.4708  0.3438
 6544SOL     OW31093   2.065   0.054  10.185  0.0777 -0.5843 -0.1498
 6544SOL    HW131094   1.997   0.115  10.156 -1.5607 -3.1732 -1.7290
 6544SOL    HW231095   2.113   0.126  10.225 -0.8426 -1.9954  3.4523
 6545SOL     OW31096   0.026   3.663   2.802 -0.4637  0.3881 -0.4787
 6545SOL    HW131097   0.032   3.758   2.806 -2.4161  0.4506  0.9254
 6545SOL    HW231098   0.089   3.637   2.870 -0.4843  0.7303 -0.3299
 6546SOL     OW31099   4.617   1.326   6.575 -0.3357  0.3136  0.0375
 6546SOL    HW131100   4.633   1.236   6.603 -0.5538  0.2110 -0.1664
 6546SOL    HW231101   4.633   1.362   6.662 -3.1177 -0.6880  0.9886
 6547SOL     OW31102   0.297   3.782   7.574 -0.0268  0.0246  0.3785
 6547SOL    HW131103   0.368   3.723   7.550  0.9365  0.8871  1.1067
 6547SOL    HW231104   0.278   3.832   7.495  0.4880  2.5477  1.8819
 6548SOL     OW31105   1.590   2.250   7.305  0.4447  0.2841 -0.4216
 6548SOL    HW131106   1.580   2.166   7.261  2.8178 -0.9375  1.4145
 6548SOL    HW231107   1.595   2.311   7.232 -0.7165 -1.5556 -2.0436
 6549SOL     OW31108   1.576   3.885  13.177 -0.0937 -0.3805 -0.0250
 6549SOL    HW131109   1.508   3.895  13.244 -0.4659  0.2992 -0.5025
 6549SOL    HW231110   1.521   3.876  13.100 -1.4135  1.6056  0.6955
 6550SOL     OW31111   2.285   2.075   5.970  0.3877 -0.6859 -0.0165
 6550SOL    HW131112   2.210   2.020   5.950 -1.0848  1.7652 -1.2602
 6550SOL    HW231113   2.299   2.125   5.889  0.6552 -0.1647  0.3465
 6551SOL     OW31114   2.426   3.150   2.988 -0.2283  0.0047 -1.1214
 6551SOL    HW131115   2.499   3.134   3.047  1.2657  0.1671 -2.9282
 6551SOL    HW231116   2.396   3.059   2.978 -3.0144  0.4899  2.7470
 6552SOL     OW31117   2.316   1.834   6.852 -0.1054  0.3237 -0.1943
 6552SOL    HW131118   2.323   1.747   6.813 -1.4988 -0.0204  0.2926
 6552SOL    HW231119   2.276   1.812   6.936 -0.3629  2.5776  0.2886
 6553SOL     OW31120   3.397   2.458   6.040 -0.1969  0.0425  0.0160
 6553SOL    HW131121   3.448   2.439   6.119  0.3072 -0.5948 -0.4639
 6553SOL    HW231122   3.414   2.553   6.039 -1.2657  0.2142 -1.4023
 6554SOL     OW31123   4.405   2.810   2.483  0.6524  0.0636 -0.0901
 6554SOL    HW131124   4.477   2.816   2.420 -0.0642 -0.7295 -0.9918
 6554SOL    HW231125   4.384   2.901   2.500 -1.0633 -0.5726  1.2322
 6555SOL     OW31126   4.280   2.428  15.686  0.1307 -0.2066 -1.0800
 6555SOL    HW131127   4.216   2.479  15.737  0.4715 -1.3871  0.4905
 6555SOL    HW231128   4.324   2.381  15.756 -2.1009  2.4104  2.0686
 6556SOL     OW31129   2.103   4.555  12.833  0.4605 -0.6797  0.1740
 6556SOL    HW131130   2.086   4.582  12.923 -0.7859  0.7540 -0.4994
 6556SOL    HW231131   2.198   4.550  12.835  0.5630  0.6312 -1.5157
 6557SOL     OW31132   2.410   3.653   7.533  0.1322  0.7548 -0.0584
 6557SOL    HW131133   2.321   3.667   7.566  0.6085  2.2819  0.5679
 6557SOL    HW231134   2.396   3.690   7.446  1.1292 -1.6999 -1.2545
 6558SOL     OW31135   2.251   2.539   8.817  0.2190  0.0616  0.2967
 6558SOL    HW131136   2.295   2.624   8.809 -2.6206  1.5193 -0.2135
 6558SOL    HW231137   2.164   2.563   8.783 -0.6080 -2.8123  0.4197
 6559SOL     OW31138   1.118   2.636  16.846 -0.1165  0.3105  0.6907
 6559SOL    HW131139   1.194   2.600  16.800 -1.2015 -0.0290 -0.8458
 6559SOL    HW231140   1.071   2.679  16.774 -1.0216 -3.8963 -1.1901
 6560SOL     OW31141   0.586   2.704   2.814 -0.1258 -0.0046  0.1952
 6560SOL    HW131142   0.586   2.609   2.826  3.0809 -0.0699 -0.2277
 6560SOL    HW231143   0.641   2.737   2.885 -1.6141 -2.0226  2.2480
 6561SOL     OW31144   0.859   3.795   3.297  0.1119 -0.0399 -0.9832
 6561SOL    HW131145   0.945   3.752   3.291  0.6626  1.0862 -1.0531
 6561SOL    HW231146   0.825   3.759   3.215  3.1110 -3.1190 -0.9236
 6562SOL     OW31147   3.959   0.119  16.742 -0.7767 -0.5167  0.1740
 6562SOL    HW131148   3.881   0.086  16.787 -0.0440 -2.3144  0.1318
 6562SOL    HW231149   3.932   0.211  16.742 -0.6029 -0.4646 -0.0430
 6563SOL     OW31150   1.958   1.298   3.662  0.1046  0.5281 -0.3435
 6563SOL    HW131151   1.940   1.256   3.747  2.9697  1.6970  0.8393
 6563SOL    HW231152   1.907   1.377   3.676  0.6952  1.0834 -1.3480
 6564SOL     OW31153   1.766   4.669   4.335 -0.0069  0.1504  0.0066
 6564SOL    HW131154   1.733   4.716   4.258 -1.0932 -1.1692 -0.3251
 6564SOL    HW231155   1.782   0.009   4.402 -1.9423  0.4445  0.1589
 6565SOL     OW31156   3.948   0.210   9.890 -0.3484  0.1710  0.3028
 6565SOL    HW131157   3.968   0.192   9.982  0.5134 -1.7674 -0.2631
 6565SOL    HW231158   4.031   0.215   9.843 -1.4192  1.4350 -1.4414
 6566SOL     OW31159   1.273   1.281   2.294 -0.1201 -0.6130  0.1912
 6566SOL    HW131160   1.202   1.260   2.355 -0.1120 -0.1338  0.3628
 6566SOL    HW231161   1.326   1.201   2.301 -1.4646 -1.1961  3.8276
 6567SOL     OW31162   1.381   1.042   6.843  0.0005 -0.3381 -0.1854
 6567SOL    HW131163   1.322   1.009   6.911 -1.2381 -0.2176 -1.2096
 6567SOL    HW231164   1.465   1.005   6.869  0.1523  1.6273  2.1781
 6568SOL     OW31165   0.569   2.458   4.564 -0.1350  0.2051  0.3174
 6568SOL    HW131166   0.602   2.409   4.639 -2.1440 -1.4303  0.1638
 6568SOL    HW231167   0.477   2.454   4.591  0.3774  0.2165  2.0570
 6569SOL     OW31168   0.618   0.914   8.313 -0.2851 -0.2616  0.0935
 6569SOL    HW131169   0.586   0.829   8.344 -1.4277 -0.1052 -0.6417
 6569SOL    HW231170   0.558   0.942   8.243  2.6594  1.8658 -1.5537
 6570SOL     OW31171   3.170   2.677   8.218 -0.0563  0.2839  0.5814
 6570SOL    HW131172   3.098   2.632   8.261 -0.1280 -1.6828 -1.6530
 6570SOL    HW231173   3.139   2.704   8.132 -0.6520 -0.4116  0.5772
 6571SOL     OW31174   3.195   4.452   8.853 -0.1653  0.0518 -0.2581
 6571SOL    HW131175   3.150   4.506   8.919 -1.2825 -0.4479 -0.6070
 6571SOL    HW231176   3.195   4.519   8.785  1.8623 -0.1054 -0.4060
 6572SOL     OW31177   3.275   3.790  17.618 -0.0555  0.5650 -0.2411
 6572SOL    HW131178   3.232   3.767  17.700 -0.9790  1.7822 -0.3910
 6572SOL    HW231179   3.203   3.799  17.556 -0.0681  2.2956  0.0207
 6573SOL     OW31180   0.577   0.184  12.661  0.1171 -0.6887  0.0384
 6573SOL    HW131181   0.501   0.216  12.709  0.5832 -0.0901  0.3725
 6573SOL    HW231182   0.640   0.188  12.733 -0.9129  2.1433  0.7788
 6574SOL     OW31183   2.016   1.806   8.826 -0.0015 -0.7810  0.2444
 6574SOL    HW131184   1.932   1.843   8.854  0.0301 -1.2087  0.8797
 6574SOL    HW231185   2.026   1.740   8.894  0.6012  1.0951  1.9903
 6575SOL     OW31186   2.907   1.398   1.678 -0.5736  0.4335  0.1214
 6575SOL    HW131187   2.845   1.464   1.709  0.8839  1.5076  0.7227
 6575SOL    HW231188   2.983   1.450   1.655 -0.8721  1.2110  0.8864
 6576SOL     OW31189   2.529   0.616   5.393  0.4935  0.3593  0.1957
 6576SOL    HW131190   2.528   0.700   5.346  1.8892  1.2214  1.7054
 6576SOL    HW231191   2.435   0.610   5.412  0.4698 -0.9251 -0.3351
 6577SOL     OW31192   4.656   1.064   5.363 -0.3701  0.1111 -0.0899
 6577SOL    HW131193   4.648   1.124   5.437 -0.2587 -0.3548  0.3053
 6577SOL    HW231194   4.565   1.046   5.338 -0.0710 -1.3458 -0.1503
 6578SOL     OW31195   2.645   4.457  10.096 -0.1487  0.1096 -0.0045
 6578SOL    HW131196   2.635   4.363  10.104 -0.8468  0.1492 -0.5012
 6578SOL    HW231197   2.600   4.487  10.017 -1.0520 -1.3043 -0.0230
 6579SOL     OW31198   2.040   3.438   3.599 -0.4594  0.1691  0.5575
 6579SOL    HW131199   2.013   3.419   3.509  0.4890 -0.0374  0.3228
 6579SOL    HW231200   2.117   3.494   3.592  0.3149 -1.1263 -1.4327
 6580SOL     OW31201   3.358   4.065   3.733 -0.3601 -0.1264 -0.4183
 6580SOL    HW131202   3.451   4.060   3.713 -0.5342 -0.0230 -1.2489
 6580SOL    HW231203   3.329   3.981   3.698  1.7132 -1.5463  1.2507
 6581SOL     OW31204   3.356   1.593  12.783  0.0730  0.5072  0.0068
 6581SOL    HW131205   3.276   1.543  12.768  1.2687 -1.5476  0.4960
 6581SOL    HW231206   3.403   1.614  12.702  1.2459 -0.2413  0.4842
 6582SOL     OW31207   2.657   2.531   3.328  0.0019 -0.4211  0.1162
 6582SOL    HW131208   2.629   2.609   3.280 -2.3074 -1.7812 -0.7550
 6582SOL    HW231209   2.583   2.503   3.382 -0.6017 -1.4612 -1.2515
 6583SOL     OW31210   2.422   4.679   8.573  0.3701  0.1352  0.0452
 6583SOL    HW131211   2.372   4.599   8.586  0.0921  0.5514  1.6200
 6583SOL    HW231212   2.389   4.721   8.653 -0.8763  1.1423 -0.9927
 6584SOL     OW31213   4.717   3.951   8.376  0.3998 -0.3238  0.0963
 6584SOL    HW131214   4.683   4.010   8.309  1.4046 -0.1793 -0.2803
 6584SOL    HW231215   4.702   3.864   8.340  2.2316 -0.6723  0.1935
 6585SOL     OW31216   1.697   0.990   3.247 -0.2864  0.1401  0.1259
 6585SOL    HW131217   1.678   0.993   3.153  1.3715  1.5470 -0.1790
 6585SOL    HW231218   1.744   1.074   3.248 -2.1953  1.2039  0.9060
 6586SOL     OW31219   3.697   2.705   3.488  0.2918  0.4074 -0.1359
 6586SOL    HW131220   3.677   2.763   3.414  0.6748 -0.1102 -0.6386
 6586SOL    HW231221   3.770   2.662   3.444  0.8162  1.4052 -0.2539
 6587SOL     OW31222   0.104   1.421   9.077  0.2778 -0.3689  0.6559
 6587SOL    HW131223   0.098   1.379   8.991  0.6711  1.3095 -0.1996
 6587SOL    HW231224   0.164   1.361   9.120  0.9977  0.3575  0.6716
 6588SOL     OW31225   2.521   0.199   1.273  0.2420  0.3522  0.0070
 6588SOL    HW131226   2.443   0.255   1.274  0.5153  0.7283  1.8520
 6588SOL    HW231227   2.580   0.270   1.247 -1.1539  1.5254  0.0085
 6589SOL     OW31228   3.477   4.462   3.760  0.4058  0.5477  0.4143
 6589SOL    HW131229   3.563   4.422   3.747 -0.1303 -0.4150 -0.1733
 6589SOL    HW231230   3.437   4.400   3.821 -0.9985 -1.6154 -2.6715
 6590SOL     OW31231   0.699   1.299   7.611 -0.0753 -0.1816 -0.2136
 6590SOL    HW131232   0.606   1.284   7.624 -0.3279  0.3996 -1.3292
 6590SOL    HW231233   0.714   1.381   7.658  0.7571 -0.1811 -0.4751
 6591SOL     OW31234   0.232   4.509   5.941 -0.0701  0.0795  0.1330
 6591SOL    HW131235   0.199   4.577   5.884  0.2291  1.0881  1.1577
 6591SOL    HW231236   0.237   4.566   6.018 -3.9149  0.3913  0.1242
 6592SOL     OW31237   1.720   0.310   7.578 -0.0913 -0.1025 -0.2509
 6592SOL    HW131238   1.752   0.222   7.557  0.0831 -0.1542  0.2508
 6592SOL    HW231239   1.739   0.351   7.493 -0.7756 -2.6826 -1.6678
 6593SOL     OW31240   4.057   4.069   8.123 -0.6608 -0.8190  0.1425
 6593SOL    HW131241   4.017   4.142   8.169 -2.3867 -1.4449 -0.3575
 6593SOL    HW231242   3.992   4.060   8.053  0.3115 -3.2551 -0.4753
 6594SOL     OW31243   3.916   1.391   0.930  0.5661 -0.0022 -0.2252
 6594SOL    HW131244   3.880   1.365   0.846  3.0252  0.5788 -1.4689
 6594SOL    HW231245   3.834   1.414   0.973 -1.0881 -2.7241 -1.9023
 6595SOL     OW31246   3.714   0.677  15.277 -0.0515  0.4830 -0.0942
 6595SOL    HW131247   3.785   0.615  15.291 -1.2034 -0.4686  1.4090
 6595SOL    HW231248   3.714   0.729  15.357 -0.7648 -0.4957  0.5391
 6596SOL     OW31249   1.625   3.219   8.713 -0.4036  0.1505  0.0422
 6596SOL    HW131250   1.557   3.261   8.661 -1.4575 -1.5192  0.0730
 6596SOL    HW231251   1.587   3.142   8.756 -1.9994  0.5798 -0.5758
 6597SOL     OW31252   3.765   1.255   6.494  0.1842  0.3787 -0.0895
 6597SOL    HW131253   3.828   1.293   6.432  2.0858  0.3291  1.8314
 6597SOL    HW231254   3.778   1.305   6.574  0.5499  0.2050 -0.0394
 6598SOL     OW31255   2.881   1.707   3.170 -0.4272 -0.1087  0.2335
 6598SOL    HW131256   2.955   1.712   3.231 -0.6832  0.9483  0.4644
 6598SOL    HW231257   2.917   1.639   3.113 -0.1822 -0.8119  1.2208
 6599SOL     OW31258   1.896   3.346   6.112 -0.0137  0.2424  0.1307
 6599SOL    HW131259   1.855   3.283   6.053 -0.2411  1.0267 -0.5474
 6599SOL    HW231260   1.984   3.308   6.113  0.2732  0.8792 -1.1752
 6600SOL     OW31261   1.934   0.380   6.340  0.1303 -0.1326 -0.2419
 6600SOL    HW131262   2.007   0.433   6.310  0.2311 -0.8423 -1.2275
 6600SOL    HW231263   1.905   0.419   6.423  0.5660  2.6791 -1.4226
 6601SOL     OW31264   2.004   1.751   2.147  0.4674  0.2433 -0.7044
 6601SOL    HW131265   2.063   1.677   2.133  0.1884  0.0247 -0.7211
 6601SOL    HW231266   2.054   1.832   2.138 -0.9027  1.2028  0.3702
 6602SOL     OW31267   2.524   1.405   9.296 -0.2412 -0.5256 -0.1578
 6602SOL    HW131268   2.537   1.484   9.243 -0.4427 -0.9922 -0.9017
 6602SOL    HW231269   2.541   1.329   9.240  0.1237  0.0402 -0.8257
 6603SOL     OW31270   2.788   1.948   5.195  0.0348  0.4000  0.2285
 6603SOL    HW131271   2.732   2.011   5.149  3.1179  2.0610 -1.2358
 6603SOL    HW231272   2.765   1.865   5.154 -0.5377 -0.2410  1.8412
 6604SOL     OW31273   4.113   0.418   5.543  0.4515 -0.0083 -0.1842
 6604SOL    HW131274   4.118   0.392   5.451 -0.5232  1.4305 -0.6442
 6604SOL    HW231275   4.200   0.452   5.564  0.6766 -1.6262  1.5345
 6605SOL     OW31276   2.372   2.342   6.448  0.1705  0.5045  0.1524
 6605SOL    HW131277   2.283   2.328   6.479 -0.1594 -1.0142 -1.4557
 6605SOL    HW231278   2.410   2.349   6.536  1.4176 -1.5599 -0.2218
 6606SOL     OW31279   0.257   3.451  12.528  0.5478 -0.4417 -0.4422
 6606SOL    HW131280   0.165   3.431  12.512  0.3784  0.3648 -0.4970
 6606SOL    HW231281   0.296   3.394  12.462  0.5992 -1.1790  0.2210
 6607SOL     OW31282   3.325   1.292   5.958  0.9480 -0.2062  0.1912
 6607SOL    HW131283   3.271   1.367   5.984  0.5525 -1.2098  2.2982
 6607SOL    HW231284   3.407   1.304   6.006  1.3743 -2.9604  0.1437
 6608SOL     OW31285   2.502   2.665  17.463 -0.4057 -0.0387 -0.1902
 6608SOL    HW131286   2.562   2.714  17.520  0.5765  0.9231 -2.0665
 6608SOL    HW231287   2.412   2.693  17.480 -1.3620  0.3736 -5.8815
 6609SOL     OW31288   2.839   0.974   3.447 -0.4217  0.0686 -0.5753
 6609SOL    HW131289   2.889   0.989   3.367 -0.3799 -1.6234 -0.8750
 6609SOL    HW231290   2.781   0.911   3.405  0.0391 -0.6162 -0.2011
 6610SOL     OW31291   2.877   2.879   5.800  0.4002  1.0910 -0.4058
 6610SOL    HW131292   2.900   2.960   5.844 -0.0172 -0.3929  2.5974
 6610SOL    HW231293   2.955   2.828   5.821 -0.1912 -0.0750 -1.0522
 6611SOL     OW31294   0.970   2.766   5.826  0.4795 -0.0163 -0.2883
 6611SOL    HW131295   0.937   2.677   5.841  0.9534 -0.0402  0.5839
 6611SOL    HW231296   0.969   2.770   5.730  1.0548  0.9813 -0.2528
 6612SOL     OW31297   4.002   0.484   2.361 -0.4315 -0.5608  0.4974
 6612SOL    HW131298   4.073   0.547   2.373 -0.5689 -0.3284  0.1057
 6612SOL    HW231299   4.035   0.437   2.285  0.4000 -1.9489  1.7377
 6613SOL     OW31300   3.035   1.891   9.123  0.7664  0.1372 -0.2017
 6613SOL    HW131301   3.086   1.937   9.189 -1.2117  1.9650  0.0533
 6613SOL    HW231302   3.090   1.911   9.047  0.1976 -1.1333 -0.9534
 6614SOL     OW31303   2.600   2.680   6.983  0.4005  0.3668 -0.5056
 6614SOL    HW131304   2.513   2.704   6.951 -0.4052 -2.1766 -0.2287
 6614SOL    HW231305   2.587   2.699   7.076 -0.9860  2.9704 -1.2426
 6615SOL     OW31306   0.402   0.359   5.177  0.4409 -0.4985 -0.2972
 6615SOL    HW131307   0.471   0.375   5.241  2.2665  1.5810 -2.7724
 6615SOL    HW231308   0.440   0.353   5.089 -0.6628  2.1455 -0.9671
 6616SOL     OW31309   3.620   3.014   9.173 -0.0447 -0.0408 -0.1519
 6616SOL    HW131310   3.686   3.065   9.127 -1.7890  2.3061 -0.0376
 6616SOL    HW231311   3.583   2.957   9.105  0.4073 -0.2727 -0.2058
 6617SOL     OW31312   2.981   4.539   6.954  0.4686  0.0558 -0.2870
 6617SOL    HW131313   3.006   4.629   6.974 -2.7419  1.3277 -1.9192
 6617SOL    HW231314   2.889   4.549   6.979  0.7782 -1.7745  1.5536
 6618SOL     OW31315   0.552   2.724  17.455  0.6231 -0.0137 -0.2394
 6618SOL    HW131316   0.473   2.774  17.433 -1.0674 -1.5169  2.4580
 6618SOL    HW231317   0.614   2.765  17.395  0.0960  1.0516 -0.0469
 6619SOL     OW31318   1.978   0.830   9.381 -0.1237  0.0802  0.5831
 6619SOL    HW131319   1.979   0.858   9.289 -1.1391 -2.3185 -0.1492
 6619SOL    HW231320   2.059   0.863   9.419  0.2909 -1.1461  0.7648
 6620SOL     OW31321   0.781   1.565   1.763  0.3095  0.3538 -0.4509
 6620SOL    HW131322   0.745   1.593   1.847 -0.1587  0.8107 -0.8018
 6620SOL    HW231323   0.833   1.641   1.737 -1.2048  1.8059  0.7632
 6621SOL     OW31324   3.225   3.222  17.599  0.2283 -0.5770  0.3446
 6621SOL    HW131325   3.153   3.247  17.542 -0.1315  1.1758  1.5958
 6621SOL    HW231326   3.178   3.240  17.680 -0.2669  0.5062 -0.1904
 6622SOL     OW31327   2.771   0.405  11.453  0.0571  0.0401 -0.2311
 6622SOL    HW131328   2.801   0.369  11.536  1.5203 -2.3777 -1.8137
 6622SOL    HW231329   2.746   0.495  11.474 -0.5276 -0.2498  0.2975
 6623SOL     OW31330   3.769   2.283  10.160  0.0639 -0.0095  0.2595
 6623SOL    HW131331   3.838   2.330  10.112  1.0078  0.4451  2.0445
 6623SOL    HW231332   3.791   2.190  10.150  0.2837  0.1047 -0.3149
 6624SOL     OW31333   2.884   3.107   4.684 -0.0263 -0.3767 -0.2563
 6624SOL    HW131334   2.788   3.103   4.677 -0.1817  0.3754  1.3708
 6624SOL    HW231335   2.897   3.143   4.596  0.1676  0.7652  0.2381
 6625SOL     OW31336   0.122   3.099  12.368  0.4139 -0.2907  0.2442
 6625SOL    HW131337   0.171   3.178  12.388  1.3770 -0.3631 -1.8067
 6625SOL    HW231338   0.184   3.030  12.393  0.8601 -0.3798 -1.0952
 6626SOL     OW31339   4.483   0.882   2.518 -0.2773 -0.4111  0.0300
 6626SOL    HW131340   4.534   0.962   2.531  0.1889 -0.7095  0.0474
 6626SOL    HW231341   4.548   0.833   2.467 -0.5898 -2.2063  1.3691
 6627SOL     OW31342   2.137   1.304   2.460  0.5250  0.3833 -0.7467
 6627SOL    HW131343   2.065   1.248   2.431 -2.1581  2.0678  2.6724
 6627SOL    HW231344   2.095   1.346   2.535 -1.2657 -3.4442  0.3849
 6628SOL     OW31345   3.679   4.058  14.273 -0.1870 -0.0175 -0.0421
 6628SOL    HW131346   3.773   4.058  14.253 -0.2848 -0.7355 -0.5088
 6628SOL    HW231347   3.663   3.967  14.301  1.1405 -0.0506  0.6248
 6629SOL     OW31348   0.469   2.727   4.547 -0.5428 -0.6453  0.1805
 6629SOL    HW131349   0.519   2.789   4.495 -0.4675 -0.4778  0.4517
 6629SOL    HW231350   0.535   2.660   4.567  0.3465  0.5313  1.1989
 6630SOL     OW31351   1.639   0.106  15.187 -0.4501 -0.4673  0.3731
 6630SOL    HW131352   1.627   0.073  15.277 -1.4697 -1.8069 -0.2387
 6630SOL    HW231353   1.730   0.132  15.198 -0.2044 -0.5444 -1.5616
 6631SOL     OW31354   4.075   0.388   2.608 -0.2180  0.3532  0.4199
 6631SOL    HW131355   4.030   0.396   2.524 -0.6537  2.2718  0.8117
 6631SOL    HW231356   4.167   0.374   2.586 -0.2356 -0.8115  1.0798
 6632SOL     OW31357   2.693   2.311   6.072 -0.0196  0.1353 -0.1642
 6632SOL    HW131358   2.699   2.395   6.118  2.2411 -0.7572  1.1640
 6632SOL    HW231359   2.603   2.287   6.097  0.4017 -0.2846  0.9602
 6633SOL     OW31360   4.417   4.625   6.382  0.0415 -0.1767 -0.1931
 6633SOL    HW131361   4.404   4.532   6.400  1.8642 -0.6244 -1.2068
 6633SOL    HW231362   4.323   4.643   6.388  0.2201  0.9452 -0.7530
 6634SOL     OW31363   3.463   1.966   7.896 -0.2723  0.4374 -0.1797
 6634SOL    HW131364   3.401   1.932   7.960  0.2836  1.1301  0.7350
 6634SOL    HW231365   3.519   1.888   7.895 -1.0222 -0.0608 -2.2628
 6635SOL     OW31366   3.548   4.248   2.281  0.7465  0.6288 -0.5602
 6635SOL    HW131367   3.481   4.308   2.248 -1.5983 -0.9683  1.2558
 6635SOL    HW231368   3.506   4.163   2.269 -0.5092  1.3056 -1.0051
 6636SOL     OW31369   1.359   4.114   2.399 -0.0217  0.1918 -0.0673
 6636SOL    HW131370   1.362   4.176   2.472  0.6156 -1.3990  1.2668
 6636SOL    HW231371   1.265   4.118   2.386 -0.1957 -0.5722  0.9480
 6637SOL     OW31372   4.442   3.516   0.124 -0.2641  0.6123 -0.1182
 6637SOL    HW131373   4.534   3.539   0.112  0.0817 -2.0420 -2.4474
 6637SOL    HW231374   4.403   3.582   0.181 -1.9904 -0.9288  0.4722
 6638SOL     OW31375   3.640   3.572   9.686 -0.0657 -0.9378 -0.0175
 6638SOL    HW131376   3.701   3.520   9.633 -1.5378 -0.5358 -2.0939
 6638SOL    HW231377   3.641   3.655   9.639 -0.9643 -0.6016  0.5620
 6639SOL     OW31378   1.622   3.414   8.913 -0.0627 -0.1122 -0.5574
 6639SOL    HW131379   1.640   3.370   8.830 -0.4161 -1.7502  0.2278
 6639SOL    HW231380   1.646   3.341   8.970  0.9291  1.7869  1.4275
 6640SOL     OW31381   1.992   2.993   6.354  0.6432  0.0777  0.2864
 6640SOL    HW131382   1.936   3.064   6.386  1.1246  0.9191 -0.7297
 6640SOL    HW231383   1.923   2.928   6.339 -1.0482  1.9994 -0.2726
 6641SOL     OW31384   1.340   0.499   9.536  0.3878 -0.1935  0.2574
 6641SOL    HW131385   1.417   0.448   9.561  0.7487 -0.2682 -0.9909
 6641SOL    HW231386   1.331   0.576   9.592 -1.2638 -0.2937  0.1509
 6642SOL     OW31387   3.374   3.979  17.429  0.1536  0.1025  0.0322
 6642SOL    HW131388   3.323   3.925  17.490 -1.2480  1.8309  0.4013
 6642SOL    HW231389   3.412   3.910  17.375  1.4259  1.7971 -1.2162
 6643SOL     OW31390   0.282   1.397   0.032  1.1726  0.3543  0.2147
 6643SOL    HW131391   0.294   1.377   0.125 -1.5921  2.1199  0.9635
 6643SOL    HW231392   0.278   1.493   0.035 -1.6113  0.2485  0.1905
 6644SOL     OW31393   4.467   1.282   0.175 -0.0302 -0.0173 -0.1519
 6644SOL    HW131394   4.448   1.370   0.207 -1.5346 -0.3711 -0.1040
 6644SOL    HW231395   4.535   1.261   0.239  0.5798  1.7323 -0.2158
 6645SOL     OW31396   0.577   4.551   6.967  0.2255  0.2850  0.2406
 6645SOL    HW131397   0.610   4.542   7.056  0.5093  0.5147  0.1591
 6645SOL    HW231398   0.658   4.565   6.917  0.3865  0.3614  0.5244
 6646SOL     OW31399   2.591   2.439   8.582 -0.4083  0.2065 -0.0829
 6646SOL    HW131400   2.651   2.391   8.640 -3.5057 -1.6318  1.5692
 6646SOL    HW231401   2.504   2.445   8.621  0.5332  0.4709  1.9766
 6647SOL     OW31402   0.799   2.614   1.773 -0.1629  0.1401 -0.0169
 6647SOL    HW131403   0.841   2.697   1.798 -1.8489  1.5766 -1.9409
 6647SOL    HW231404   0.779   2.577   1.859 -0.9825  0.7662  0.0659
 6648SOL     OW31405   3.836   2.227   5.942  0.1624  0.0220  0.6307
 6648SOL    HW131406   3.786   2.146   5.952  1.0725 -0.2748  2.8304
 6648SOL    HW231407   3.778   2.276   5.884 -0.7618 -0.4552  1.1420
 6649SOL     OW31408   2.403   2.456   9.036  0.1331  0.2910 -0.0359
 6649SOL    HW131409   2.432   2.547   9.044 -0.9090  0.7456 -1.4880
 6649SOL    HW231410   2.347   2.462   8.958 -0.4989 -1.2802  0.2949
 6650SOL     OW31411   1.275   0.033   7.367  0.4346 -0.1567 -0.2817
 6650SOL    HW131412   1.343   4.702   7.331 -0.7243 -0.3136 -2.1825
 6650SOL    HW231413   1.227   0.053   7.287 -1.2146 -1.1406  0.4692
 6651SOL     OW31414   1.945   2.937   5.775 -0.2349 -0.2189 -0.3266
 6651SOL    HW131415   2.032   2.971   5.799 -1.1586 -0.6904  3.6400
 6651SOL    HW231416   1.969   2.845   5.773 -0.4735 -0.2955  0.4541
 6652SOL     OW31417   0.619   1.569  17.205  0.3331  0.4373 -0.2394
 6652SOL    HW131418   0.669   1.645  17.236  0.2637  0.5701 -0.4506
 6652SOL    HW231419   0.625   1.580  17.110  1.1590  0.1386 -0.2190
 6653SOL     OW31420   3.863   3.003  15.268  0.8100  0.3788 -0.1509
 6653SOL    HW131421   3.943   3.055  15.267  0.0304  1.5697 -0.1170
 6653SOL    HW231422   3.834   3.010  15.359  1.3608 -0.4265  0.0906
 6654SOL     OW31423   1.508   4.580   3.999  0.1346  0.1219  0.1180
 6654SOL    HW131424   1.580   4.523   3.971  0.4238  0.0139  1.0811
 6654SOL    HW231425   1.482   4.619   3.916  0.2554  0.7776  0.3892
 6655SOL     OW31426   3.166   2.347  14.231  0.0322  0.1159  0.3991
 6655SOL    HW131427   3.182   2.388  14.146  1.2067 -0.1647  0.4775
 6655SOL    HW231428   3.167   2.425  14.288  0.6968  1.1414 -1.0060
 6656SOL     OW31429   4.429   3.521  14.564 -0.3225  0.3350  0.2060
 6656SOL    HW131430   4.453   3.612  14.581  0.3831  0.3736 -1.0556
 6656SOL    HW231431   4.399   3.499  14.653 -2.5845  1.0513 -0.3631
 6657SOL     OW31432   1.599   3.502   3.345  0.3941  0.9159  0.3382
 6657SOL    HW131433   1.541   3.545   3.282 -2.2194 -3.9120 -0.5710
 6657SOL    HW231434   1.665   3.472   3.283 -2.0946 -1.1863 -1.3084
 6658SOL     OW31435   1.683   3.240  13.199 -0.1250 -0.1736  0.0093
 6658SOL    HW131436   1.606   3.229  13.255  0.0638  0.6819  0.4342
 6658SOL    HW231437   1.755   3.207  13.252 -0.3326 -0.3429  0.1904
 6659SOL     OW31438   4.692   4.723  12.548  0.3570 -0.0957 -0.3670
 6659SOL    HW131439   4.635   0.052  12.495 -0.1271 -0.0705  0.1746
 6659SOL    HW231440   0.021   4.680  12.483  0.3290 -0.2018 -0.3199
 6660SOL     OW31441   1.277   0.892   7.095 -0.4679 -0.1826 -0.1555
 6660SOL    HW131442   1.327   0.810   7.101 -2.8343 -1.5314  1.1595
 6660SOL    HW231443   1.189   0.858   7.080 -0.0184 -0.6665 -1.7409
 6661SOL     OW31444   3.971   4.170   0.904 -0.2771 -0.5444  0.5822
 6661SOL    HW131445   4.046   4.217   0.940 -1.7271 -0.5685  3.6368
 6661SOL    HW231446   4.004   4.094   0.857 -0.6157  0.4473 -1.2271
 6662SOL     OW31447   3.441   0.725   4.231  0.1552 -0.2170 -0.1322
 6662SOL    HW131448   3.444   0.758   4.320  1.3617 -0.8898  0.0726
 6662SOL    HW231449   3.376   0.781   4.188  2.1041  1.1083 -1.3417
 6663SOL     OW31450   2.939   4.334   8.530 -0.6472 -0.0818  0.1497
 6663SOL    HW131451   2.862   4.294   8.569 -1.2528 -0.2361 -1.2101
 6663SOL    HW231452   3.002   4.269   8.497 -0.1883  0.3314  0.1978
 6664SOL     OW31453   1.165   0.072   5.279  0.0368  0.2631  0.6753
 6664SOL    HW131454   1.259   0.062   5.292  0.4850 -0.0647 -2.7192
 6664SOL    HW231455   1.155   0.071   5.184 -0.0875  1.0168  0.6815
 6665SOL     OW31456   0.087   1.477   3.411  0.0557  0.3638 -0.2389
 6665SOL    HW131457   0.088   1.568   3.383  1.4151  0.4455  0.0505
 6665SOL    HW231458   0.089   1.428   3.329 -1.8376  1.9730 -1.2404
 6666SOL     OW31459   1.142   3.225  12.953 -0.1855 -0.9150 -0.0787
 6666SOL    HW131460   1.162   3.131  12.946  1.3633 -0.4295 -2.2342
 6666SOL    HW231461   1.149   3.239  13.047  2.6386  1.2438 -0.6322
 6667SOL     OW31462   0.757   3.145  14.561 -0.0366 -0.0134 -0.1044
 6667SOL    HW131463   0.668   3.165  14.589 -0.6733 -2.0350 -0.7640
 6667SOL    HW231464   0.772   3.055  14.533  1.8997 -0.3049  1.8175
 6668SOL     OW31465   3.603   2.408   6.946  0.3426  0.6806 -0.7699
 6668SOL    HW131466   3.669   2.339   6.934 -0.6359 -0.3624 -0.1814
 6668SOL    HW231467   3.660   2.479   6.975 -0.2228  0.4092  0.9595
 6669SOL     OW31468   1.888   0.164  15.241 -0.0863 -0.3927  0.0252
 6669SOL    HW131469   1.928   0.226  15.302  1.1575  1.1163 -2.3485
 6669SOL    HW231470   1.948   0.090  15.237 -1.3685 -1.4571  0.3602
 6670SOL     OW31471   0.389   4.611   2.098  0.0930 -0.4492 -0.2255
 6670SOL    HW131472   0.413   4.635   2.187 -1.7935  3.9628 -0.9132
 6670SOL    HW231473   0.294   4.618   2.101  0.2924  1.6030  1.3754
 6671SOL     OW31474   4.321   3.158   9.437  0.1029  0.1892 -0.3541
 6671SOL    HW131475   4.280   3.244   9.425 -1.3814 -0.0442  3.0986
 6671SOL    HW231476   4.379   3.175   9.510  0.6477  2.3039 -1.2954
 6672SOL     OW31477   1.548   0.683  15.434 -0.4795 -0.2048  0.2144
 6672SOL    HW131478   1.606   0.607  15.430  0.6981  0.6804  0.7396
 6672SOL    HW231479   1.529   0.689  15.528  0.4535  0.0821  0.3814
 6673SOL     OW31480   1.653   3.317   6.242 -0.1754 -0.5281  0.3237
 6673SOL    HW131481   1.627   3.377   6.311  2.7564 -0.8306  1.6592
 6673SOL    HW231482   1.737   3.354   6.216  0.1010 -0.6035  1.1250
 6674SOL     OW31483   0.414   3.412   4.370 -0.0832  0.4854 -0.5204
 6674SOL    HW131484   0.329   3.368   4.378  0.5685 -0.1971  2.7810
 6674SOL    HW231485   0.387   3.494   4.328  1.5327  2.3016  1.9992
 6675SOL     OW31486   3.015   1.857   4.551 -0.6134 -0.2773  0.5599
 6675SOL    HW131487   2.953   1.840   4.480  0.6434 -0.1124 -0.5844
 6675SOL    HW231488   2.972   1.916   4.612  3.2678  2.9797  0.1402
 6676SOL     OW31489   4.688   2.740   1.512 -0.9370  0.0421 -0.3839
 6676SOL    HW131490   4.710   2.754   1.420  0.0942  0.8434 -0.0101
 6676SOL    HW231491   4.688   2.829   1.546 -0.3270  0.5279 -1.6680
 6677SOL     OW31492   3.098   4.091  17.641 -0.1315 -0.6911  0.2672
 6677SOL    HW131493   3.116   4.066  17.551  1.1260 -0.6666  0.5073
 6677SOL    HW231494   3.098   4.007  17.688  2.6585  0.3288  2.1110
 6678SOL     OW31495   1.352   4.418  12.059  0.0794  0.2367  0.1887
 6678SOL    HW131496   1.260   4.442  12.052 -0.4733 -1.5873  1.3780
 6678SOL    HW231497   1.354   4.381  12.147 -3.5070 -0.4610 -0.0315
 6679SOL     OW31498   0.154   2.170   5.798  0.2081 -0.3841  0.3774
 6679SOL    HW131499   0.157   2.074   5.799  1.0422 -0.3699 -1.0826
 6679SOL    HW231500   0.163   2.190   5.705  2.4859  3.9842  1.5299
 6680SOL     OW31501   0.489   0.024   8.789 -0.6421 -0.2558  0.2755
 6680SOL    HW131502   0.503   0.095   8.851  2.5772  2.3282 -3.4049
 6680SOL    HW231503   0.555   4.688   8.818  0.2947 -0.5073 -2.3423
 6681SOL     OW31504   0.436   0.332   3.868  0.6575 -0.1570  0.1432
 6681SOL    HW131505   0.480   0.398   3.813  1.1481  0.5380  1.3866
 6681SOL    HW231506   0.512   0.279   3.891  0.3766 -1.1675 -1.2646
 6682SOL     OW31507   4.578   3.986   8.610  0.2579  0.5678  0.6360
 6682SOL    HW131508   4.497   3.949   8.575  0.9250 -1.6799  1.5441
 6682SOL    HW231509   4.640   3.970   8.538 -0.3367  0.3927  0.1668
 6683SOL     OW31510   3.802   4.210  12.787  0.8421  0.5790 -0.4363
 6683SOL    HW131511   3.754   4.212  12.870 -1.6187 -1.6920 -1.7672
 6683SOL    HW231512   3.860   4.281  12.812 -0.8902  2.1186 -0.7690
 6684SOL     OW31513   2.536   1.644   2.348 -0.0313  0.0864 -0.1718
 6684SOL    HW131514   2.462   1.587   2.370 -1.2648  2.3548  1.4961
 6684SOL    HW231515   2.504   1.724   2.390 -0.1037 -0.7290  1.3154
 6685SOL     OW31516   4.264   2.821   5.382 -0.6761 -0.3343  0.0625
 6685SOL    HW131517   4.351   2.845   5.415 -0.2860 -1.0463 -0.4497
 6685SOL    HW231518   4.254   2.871   5.301 -0.5808 -0.1528  0.1621
 6686SOL     OW31519   4.535   0.659   1.207  0.1512 -0.2775  0.4290
 6686SOL    HW131520   4.507   0.679   1.118 -0.7269 -0.4129  0.6762
 6686SOL    HW231521   4.629   0.676   1.202  0.1993 -0.8488 -0.5830
 6687SOL     OW31522   0.399   3.785  11.246  0.2965  0.3428 -0.7290
 6687SOL    HW131523   0.468   3.793  11.180 -1.3726 -1.1201 -2.6533
 6687SOL    HW231524   0.450   3.754  11.321 -0.9890 -0.6313 -0.2444
 6688SOL     OW31525   3.498   2.510   7.799  0.1639 -0.3781  0.0218
 6688SOL    HW131526   3.482   2.561   7.720 -3.9542 -1.0287  0.4437
 6688SOL    HW231527   3.434   2.545   7.861  1.2341  0.6029  0.5618
 6689SOL     OW31528   1.574   2.038  14.385  0.6678  0.1732  0.2959
 6689SOL    HW131529   1.502   2.003  14.331 -0.1908 -1.4815  2.5135
 6689SOL    HW231530   1.642   2.065  14.324  0.3459 -1.0972 -0.6378
 6690SOL     OW31531   1.016   2.584  11.862  0.0471  0.1080 -0.3002
 6690SOL    HW131532   1.020   2.536  11.944  2.1791  1.0027  0.0953
 6690SOL    HW231533   0.920   2.585  11.851  0.2282  0.0024 -1.9826
 6691SOL     OW31534   4.393   3.353  17.607 -0.3233 -0.7556 -0.4195
 6691SOL    HW131535   4.392   3.417  17.679  2.2950 -0.5576 -0.5536
 6691SOL    HW231536   4.476   3.366  17.561 -1.1373  0.0649 -1.6593
 6692SOL     OW31537   2.261   1.698   7.476 -0.2122 -0.2052  0.0810
 6692SOL    HW131538   2.237   1.639   7.547  1.1022 -0.3431  0.3971
 6692SOL    HW231539   2.339   1.654   7.444  1.1015 -0.0568  3.0476
 6693SOL     OW31540   0.117   4.684   9.908  1.1794  0.3040 -0.5188
 6693SOL    HW131541   0.120   0.038   9.856  0.2671  0.0927 -0.8978
 6693SOL    HW231542   0.149   4.616   9.849 -0.0260  0.2488 -1.1041
 6694SOL     OW31543   0.085   1.902  10.573 -0.7844  0.0743  0.1537
 6694SOL    HW131544   4.719   1.916  10.558 -0.9009  0.4121  1.2639
 6694SOL    HW231545   0.115   1.992  10.561 -1.4134  0.0381 -1.7792
 6695SOL     OW31546   4.486   4.716   4.372  0.5059 -0.1636  0.2725
 6695SOL    HW131547   4.429   0.046   4.424 -2.3319 -1.7954 -1.0544
 6695SOL    HW231548   4.458   0.017   4.285  1.0917  3.3355  1.1662
 6696SOL     OW31549   2.087   0.371  16.388 -0.7440  0.4360  0.7322
 6696SOL    HW131550   2.140   0.298  16.422 -2.6368 -1.7752 -1.0332
 6696SOL    HW231551   2.135   0.439  16.434 -1.8039  0.4206  1.8594
 6697SOL     OW31552   4.565   1.432  12.998 -0.4962 -0.2730 -0.2895
 6697SOL    HW131553   4.618   1.362  13.037 -0.0764  0.2405  0.0652
 6697SOL    HW231554   4.486   1.391  12.963 -1.0773  1.2897 -0.7756
 6698SOL     OW31555   3.542   1.827  14.190  0.0128  0.1490  0.6866
 6698SOL    HW131556   3.451   1.839  14.215  0.2548  3.1914  0.0822
 6698SOL    HW231557   3.572   1.794  14.275  0.0609 -1.5986 -0.0174
 6699SOL     OW31558   1.916   2.622   1.118  0.6916  0.2033  0.5442
 6699SOL    HW131559   1.857   2.583   1.054 -0.5842 -0.8101  2.3242
 6699SOL    HW231560   1.933   2.552   1.181 -2.9313 -0.8640  0.3550
 6700SOL     OW31561   1.364   4.051   4.237  0.0639  0.6336 -0.1836
 6700SOL    HW131562   1.309   4.128   4.221  0.7277  0.4432 -3.4294
 6700SOL    HW231563   1.438   4.073   4.180  0.4461  1.5729  0.6584
 6701SOL     OW31564   2.706   4.387   5.526 -0.4790  0.7629  0.0134
 6701SOL    HW131565   2.658   4.458   5.569  0.0166  0.5298  0.9776
 6701SOL    HW231566   2.637   4.330   5.494  0.1802 -1.5289  2.6319
 6702SOL     OW31567   4.362   0.778   1.579  0.3155 -0.0143 -0.6726
 6702SOL    HW131568   4.350   0.797   1.672 -1.8746 -2.1582 -0.5109
 6702SOL    HW231569   4.418   0.853   1.560 -0.2076  0.0234 -2.0901
 6703SOL     OW31570   2.029   1.607   9.042 -0.7915 -0.2038  0.3071
 6703SOL    HW131571   2.119   1.636   9.055 -1.2788  1.6326 -0.4212
 6703SOL    HW231572   1.977   1.635   9.117 -1.5073 -1.5835  0.3238
 6704SOL     OW31573   3.473   0.746   4.858  0.0544 -0.0350  0.1698
 6704SOL    HW131574   3.393   0.791   4.830  1.9497  3.7711  0.8640
 6704SOL    HW231575   3.492   0.712   4.771  0.6490 -0.8092  0.5989
 6705SOL     OW31576   0.533   0.544   0.325  0.2601  0.7181  0.3759
 6705SOL    HW131577   0.611   0.600   0.326 -0.0359  1.1185  1.7558
 6705SOL    HW231578   0.543   0.516   0.234 -2.8379 -0.1261  0.3279
 6706SOL     OW31579   0.531   2.152  10.510  0.5036  0.4689  0.3642
 6706SOL    HW131580   0.489   2.139  10.425  1.7595 -1.3094  0.0300
 6706SOL    HW231581   0.458   2.176  10.568  1.1166  4.2962 -0.4683
 6707SOL     OW31582   3.219   3.000  16.567 -0.1401  0.0856  0.6058
 6707SOL    HW131583   3.169   2.923  16.595  2.1643 -1.9470 -0.9086
 6707SOL    HW231584   3.210   3.005  16.472 -1.1831 -0.4879  0.6730
 6708SOL     OW31585   3.346   1.626  14.517  0.0405 -0.2195 -0.1927
 6708SOL    HW131586   3.412   1.690  14.489 -1.4392  1.0724 -0.7484
 6708SOL    HW231587   3.281   1.648  14.450 -0.5382 -1.5069 -0.0563
 6709SOL     OW31588   3.793   3.360   7.732  0.1243 -0.2980  0.3054
 6709SOL    HW131589   3.853   3.309   7.786  0.6235  2.2952  2.1763
 6709SOL    HW231590   3.762   3.293   7.670 -0.9337 -0.3605  0.8869
 6710SOL     OW31591   1.257   1.355   5.998  0.2322  0.0863 -0.7964
 6710SOL    HW131592   1.314   1.347   5.921  0.3255  2.1715 -0.9500
 6710SOL    HW231593   1.253   1.266   6.031  1.5625 -0.0768 -1.0790
 6711SOL     OW31594   0.631   0.929   1.687  0.1472  0.4413 -0.1743
 6711SOL    HW131595   0.560   0.975   1.642 -1.7039 -1.6693  0.6254
 6711SOL    HW231596   0.702   0.950   1.626  0.1977  0.7062 -0.0265
 6712SOL     OW31597   3.803   3.435   8.082 -0.0563 -0.5378  0.4087
 6712SOL    HW131598   3.770   3.350   8.054  0.5950 -0.8487  0.5727
 6712SOL    HW231599   3.778   3.440   8.174 -0.1794 -0.6384  0.3806
 6713SOL     OW31600   3.133   2.102  16.579 -0.0695 -0.2268 -0.1893
 6713SOL    HW131601   3.126   2.160  16.503  0.3412  0.4606  0.2925
 6713SOL    HW231602   3.218   2.124  16.617 -0.5933 -1.8918  1.9224
 6714SOL     OW31603   1.333   3.634   6.546 -0.1491 -0.0065 -0.8619
 6714SOL    HW131604   1.263   3.642   6.482 -2.4910  0.9564  1.8121
 6714SOL    HW231605   1.291   3.622   6.631 -1.2870 -1.0319 -1.5704
 6715SOL     OW31606   3.057   4.565   2.897  0.4968  0.0757  0.1071
 6715SOL    HW131607   3.027   4.512   2.823  0.7054 -0.4643  0.4028
 6715SOL    HW231608   3.127   4.612   2.853  0.5525 -0.0417  0.0697
 6716SOL     OW31609   1.445   3.874   8.291  0.7517  0.0575  0.1155
 6716SOL    HW131610   1.515   3.905   8.348  2.6389  1.3991 -2.9355
 6716SOL    HW231611   1.493   3.816   8.232  0.8967 -0.0583  0.3519
 6717SOL     OW31612   4.694   2.338   9.665  0.2511 -0.5443 -0.6106
 6717SOL    HW131613   0.051   2.384   9.666  0.0060 -0.0964 -0.7703
 6717SOL    HW231614   4.684   2.318   9.758  1.3250  1.3137 -0.0991
 6718SOL     OW31615   2.407   0.219   0.904 -0.1986 -0.1088 -0.2165
 6718SOL    HW131616   2.480   0.177   0.950  0.5297 -0.5542 -1.7916
 6718SOL    HW231617   2.437   0.308   0.889 -0.6390 -0.2374 -1.8881
 6719SOL     OW31618   1.973   0.650   2.552 -0.0489 -0.1307  0.0888
 6719SOL    HW131619   1.980   0.706   2.629  0.2316  1.5353 -1.1735
 6719SOL    HW231620   1.879   0.642   2.537 -0.4015  0.9700  1.7181
 6720SOL     OW31621   4.446   0.131  10.148  0.1039  0.7114 -0.2838
 6720SOL    HW131622   4.511   0.144  10.217 -0.2292 -1.1938  0.3952
 6720SOL    HW231623   4.401   0.215  10.150 -1.2454 -0.0174 -0.2299
 6721SOL     OW31624   3.805   0.436   7.855 -0.1873 -0.6558  0.8055
 6721SOL    HW131625   3.813   0.341   7.864 -0.4461 -0.7759 -0.2649
 6721SOL    HW231626   3.847   0.463   7.773  0.0759  0.4876  1.3159
 6722SOL     OW31627   0.022   0.891   9.456 -0.1287 -0.3667 -0.2558
 6722SOL    HW131628   0.031   0.800   9.430  0.8262 -1.0928  2.6393
 6722SOL    HW231629   4.663   0.889   9.500 -1.0902  1.6015 -2.0381
 6723SOL     OW31630   2.300   2.047   4.347  0.1137  0.1725  0.1505
 6723SOL    HW131631   2.299   1.964   4.394  1.3026  1.2009  2.0171
 6723SOL    HW231632   2.390   2.079   4.335 -0.7633  1.3883 -3.3338
 6724SOL     OW31633   0.735   3.546   4.385 -0.1281  0.0715 -0.0766
 6724SOL    HW131634   0.722   3.568   4.478  0.6112 -0.6442  0.1941
 6724SOL    HW231635   0.653   3.581   4.351 -1.1185  0.2443  2.4237
 6725SOL     OW31636   3.377   2.157   5.012  0.7166 -0.2478 -0.2786
 6725SOL    HW131637   3.352   2.113   4.931 -4.1197  0.4333  0.8332
 6725SOL    HW231638   3.347   2.087   5.070  1.8793  1.1067  1.9813
 6726SOL     OW31639   2.398   2.331   7.477  0.1936  0.9493 -0.0590
 6726SOL    HW131640   2.308   2.346   7.504  0.0566 -2.0145  1.1985
 6726SOL    HW231641   2.444   2.387   7.540 -2.7078  0.8417  2.1637
 6727SOL     OW31642   0.890   3.186   4.970  0.4446 -0.0424 -0.4210
 6727SOL    HW131643   0.851   3.271   4.991 -0.0673 -0.5222  0.5844
 6727SOL    HW231644   0.862   3.130   5.043 -0.9898 -0.4571 -1.2852
 6728SOL     OW31645   1.767   1.918   7.061 -0.4256  0.1403  0.0196
 6728SOL    HW131646   1.766   1.868   6.979 -1.6321 -1.2419  0.8739
 6728SOL    HW231647   1.752   2.003   7.019 -2.1016  0.4338  1.2374
 6729SOL     OW31648   3.554   3.123  11.256  0.3207  0.0645 -0.3769
 6729SOL    HW131649   3.477   3.174  11.231  0.3040  0.0838 -0.2862
 6729SOL    HW231650   3.524   3.065  11.326  2.0530  1.0056  1.1737
 6730SOL     OW31651   0.026   4.294   7.556 -0.1707 -0.2503 -0.0120
 6730SOL    HW131652   0.114   4.329   7.571 -0.4602  1.0865 -1.3769
 6730SOL    HW231653   0.038   4.200   7.566 -0.8117 -0.2858  0.4838
 6731SOL     OW31654   2.471   3.313   6.651 -0.2377 -0.7942 -0.1748
 6731SOL    HW131655   2.416   3.247   6.693 -0.9007 -1.3231 -1.8672
 6731SOL    HW231656   2.431   3.328   6.566 -2.9412  2.1564  1.6287
 6732SOL     OW31657   2.091   4.458   9.271 -0.3151 -0.4970  0.2035
 6732SOL    HW131658   2.186   4.451   9.259 -0.1977  1.0443  0.2369
 6732SOL    HW231659   2.089   4.513   9.349  1.8269  2.5130 -1.7972
 6733SOL     OW31660   3.354   3.234  11.607 -0.0353  0.0740  0.0351
 6733SOL    HW131661   3.278   3.253  11.661  0.3172 -0.9161  0.8775
 6733SOL    HW231662   3.330   3.162  11.549  2.4493  0.0414 -0.9867
 6734SOL     OW31663   2.742   1.946  12.987  0.2459  0.1164  0.0446
 6734SOL    HW131664   2.804   2.011  13.019 -1.2562  1.7384 -0.2920
 6734SOL    HW231665   2.663   1.954  13.040 -0.1138 -0.5471 -0.3935
 6735SOL     OW31666   2.526   0.544   7.908  0.0519  0.4712 -0.1941
 6735SOL    HW131667   2.453   0.596   7.940 -0.6182 -0.1683 -0.6657
 6735SOL    HW231668   2.536   0.567   7.816 -0.8746 -3.4168 -1.2984
 6736SOL     OW31669   3.147   4.613   0.071 -0.0362 -0.3502 -0.7569
 6736SOL    HW131670   3.097   4.695   0.076 -0.3429 -0.6705  1.1115
 6736SOL    HW231671   3.075   4.551   0.062 -0.0709 -0.5457  0.8917
 6737SOL     OW31672   2.882   4.645  13.214  0.4001 -0.1274 -0.1854
 6737SOL    HW131673   2.951   4.711  13.217  0.0516  0.2070  0.4283
 6737SOL    HW231674   2.836   4.666  13.295 -0.0055 -1.7513 -0.0067
 6738SOL     OW31675   3.361   3.968  13.143 -0.0451  0.3476 -0.1003
 6738SOL    HW131676   3.327   3.887  13.105 -0.5557  0.2354  0.6029
 6738SOL    HW231677   3.424   3.980  13.072 -0.8334  2.5312 -0.4284
 6739SOL     OW31678   4.353   0.225   4.036  0.4825 -0.1893  0.2078
 6739SOL    HW131679   4.357   0.132   4.013 -2.5359 -0.8905  2.4478
 6739SOL    HW231680   4.425   0.241   4.096  0.9558 -1.8213  0.0628
 6740SOL     OW31681   4.623   0.496   0.849  0.3921  0.4414 -0.0493
 6740SOL    HW131682   4.580   0.579   0.871  0.6832  0.6055 -0.1067
 6740SOL    HW231683   4.562   0.431   0.885  0.5219  1.1137  1.3815
 6741SOL     OW31684   1.270   0.169   2.953  0.2487 -0.4539  0.2071
 6741SOL    HW131685   1.340   0.202   2.897  0.7599 -0.4094  0.8762
 6741SOL    HW231686   1.201   0.167   2.887 -0.2255  1.6397  0.6454
 6742SOL     OW31687   0.361   3.731   0.496  0.3471  0.2125 -0.1388
 6742SOL    HW131688   0.398   3.714   0.409 -0.0987  0.5101 -0.3859
 6742SOL    HW231689   0.431   3.779   0.540 -0.4165  0.1417  1.1518
 6743SOL     OW31690   2.194   0.756   3.668 -0.2543  0.3117 -0.5082
 6743SOL    HW131691   2.276   0.803   3.654 -1.6836  2.8338 -0.5496
 6743SOL    HW231692   2.138   0.774   3.592 -0.3901 -2.8750 -1.1717
 6744SOL     OW31693   0.151   4.451  12.966  0.1330  0.0795 -0.9499
 6744SOL    HW131694   0.210   4.394  13.016  0.7208  2.3125  0.8973
 6744SOL    HW231695   0.070   4.406  12.990  0.0132 -0.2409 -1.9592
 6745SOL     OW31696   2.560   2.800   7.263 -0.0741  0.3160  0.0158
 6745SOL    HW131697   2.577   2.885   7.304  0.4651  0.4956 -0.5741
 6745SOL    HW231698   2.652   2.772   7.269  0.1682  1.5845  2.2408
 6746SOL     OW31699   2.826   1.322  17.422  0.3604  0.2860 -0.4119
 6746SOL    HW131700   2.779   1.399  17.453  0.3945 -0.1610  0.7231
 6746SOL    HW231701   2.906   1.357  17.381  0.2069 -0.9487 -1.7846
 6747SOL     OW31702   0.384   3.623  12.752 -0.0378 -0.6711  0.5771
 6747SOL    HW131703   0.464   3.593  12.708  0.4314  2.2730 -0.6252
 6747SOL    HW231704   0.317   3.574  12.704  2.0777  0.1273 -3.2356
 6748SOL     OW31705   4.142   3.784   1.192  0.3666  0.2671  0.4343
 6748SOL    HW131706   4.068   3.751   1.244 -0.3341 -0.0140 -0.7475
 6748SOL    HW231707   4.213   3.730   1.226  0.7464  0.4503 -0.0789
 6749SOL     OW31708   2.618   2.155   0.345 -0.4373 -0.0754 -0.3970
 6749SOL    HW131709   2.624   2.060   0.332  0.3984 -0.2163  1.0761
 6749SOL    HW231710   2.541   2.178   0.293  0.1838 -2.2117 -2.2710
 6750SOL     OW31711   0.884   2.097   6.708 -0.0568  0.0346 -0.2148
 6750SOL    HW131712   0.937   2.172   6.681  2.0582 -1.5770 -0.5077
 6750SOL    HW231713   0.834   2.081   6.628  0.6568  0.4321 -0.7494
 6751SOL     OW31714   2.902   3.596   9.460  0.0548  0.3342 -0.5027
 6751SOL    HW131715   2.996   3.602   9.479 -0.0065 -0.3648  0.0426
 6751SOL    HW231716   2.864   3.595   9.548  0.6867 -0.4084 -0.2428
 6752SOL     OW31717   2.764   3.414   8.626 -0.2478  0.7405 -0.1017
 6752SOL    HW131718   2.790   3.433   8.716  0.5481 -3.2793  0.5265
 6752SOL    HW231719   2.681   3.461   8.614  0.2354  1.4391 -0.6831
 6753SOL     OW31720   2.619   3.947   8.073 -0.0047  0.3046 -0.2672
 6753SOL    HW131721   2.621   3.858   8.105 -2.2413  0.6564  0.8053
 6753SOL    HW231722   2.648   4.002   8.146  0.5094 -2.5516  1.6632
 6754SOL     OW31723   2.713   3.740  12.632  0.5442 -0.0597  0.0917
 6754SOL    HW131724   2.687   3.774  12.718 -0.5464  0.8092 -0.5769
 6754SOL    HW231725   2.634   3.709  12.589  0.4335 -2.3317  1.9523
 6755SOL     OW31726   0.049   1.482   5.539 -0.4405 -0.0661  0.2429
 6755SOL    HW131727   0.141   1.507   5.547 -0.7483  0.9144  0.6277
 6755SOL    HW231728   0.005   1.553   5.586  0.0124  0.8066 -0.6529
 6756SOL     OW31729   2.554   1.225   5.632 -0.3889 -0.0125  0.3349
 6756SOL    HW131730   2.642   1.214   5.595  0.4843  1.9689  1.8438
 6756SOL    HW231731   2.567   1.295   5.696 -1.0048  1.1131 -0.7848
 6757SOL     OW31732   2.734   2.440  15.626  0.2007 -0.5639 -0.2751
 6757SOL    HW131733   2.657   2.492  15.604  0.9228  0.8152  0.4721
 6757SOL    HW231734   2.775   2.430  15.540  0.7980 -0.2447 -0.0245
 6758SOL     OW31735   0.906   4.699   6.063 -0.0975  0.1857  0.1643
 6758SOL    HW131736   0.821   4.725   6.028  0.5362  1.9807 -0.0785
 6758SOL    HW231737   0.947   4.678   5.979 -1.8725  0.8728 -0.8763
 6759SOL     OW31738   2.317   2.097   0.234 -0.2062  0.1528 -0.1843
 6759SOL    HW131739   2.342   2.007   0.214  2.0040  1.3017 -2.5359
 6759SOL    HW231740   2.268   2.117   0.154  0.1916  1.9215  0.0003
 6760SOL     OW31741   1.825   2.656   4.353  0.1672  0.5901  0.4380
 6760SOL    HW131742   1.762   2.699   4.411  0.4356  0.6079  0.7167
 6760SOL    HW231743   1.881   2.613   4.418  0.2133  0.7792  0.5225
 6761SOL     OW31744   4.563   4.539   5.232  0.5109  0.7829  0.1457
 6761SOL    HW131745   4.614   4.533   5.313  1.1164 -1.0184 -0.3859
 6761SOL    HW231746   4.611   4.606   5.183  0.1966  2.2545  1.8080
 6762SOL     OW31747   4.620   0.399  17.478  0.0106  0.3907 -0.1107
 6762SOL    HW131748   4.632   0.307  17.502 -0.0351  0.5351  0.4592
 6762SOL    HW231749   4.590   0.429  17.564  0.5890  0.4381  0.0750
 6763SOL     OW31750   1.296   0.686   7.970 -0.3124 -0.0429 -0.2361
 6763SOL    HW131751   1.273   0.635   8.048 -0.1614  1.0161  0.4900
 6763SOL    HW231752   1.353   0.747   8.016  0.6673 -0.6479 -0.6459
 6764SOL     OW31753   3.933   4.259  10.151  0.0652 -0.0297 -0.0065
 6764SOL    HW131754   3.965   4.348  10.169 -0.4217 -0.2042  1.7006
 6764SOL    HW231755   4.003   4.201  10.183 -0.4458 -0.4995  0.2521
 6765SOL     OW31756   4.421   1.876   9.167  0.1184 -0.3889 -0.4252
 6765SOL    HW131757   4.464   1.957   9.194 -0.8493  0.0115 -0.0741
 6765SOL    HW231758   4.469   1.817   9.226 -3.2603 -1.3945  1.3632
 6766SOL     OW31759   4.518   1.547   0.386 -0.3075  0.3972 -0.5343
 6766SOL    HW131760   4.611   1.524   0.390 -0.9560 -2.0103  0.8589
 6766SOL    HW231761   4.515   1.596   0.468 -1.3158  1.1471 -1.0247
 6767SOL     OW31762   3.275   4.276   8.272 -0.1710  0.1272  0.3229
 6767SOL    HW131763   3.205   4.223   8.311 -0.2725 -1.1781 -1.6146
 6767SOL    HW231764   3.351   4.226   8.302  0.3671  1.2921  0.9209
 6768SOL     OW31765   2.253   2.971   8.353 -0.2207  0.2314 -0.6441
 6768SOL    HW131766   2.323   2.915   8.387  0.0318  0.5357 -0.6593
 6768SOL    HW231767   2.271   3.055   8.397  1.7588 -1.4228  1.7512
 6769SOL     OW31768   3.550   1.154  14.088  0.0110 -0.3322  0.1121
 6769SOL    HW131769   3.631   1.105  14.080  0.2792 -0.0133  0.8753
 6769SOL    HW231770   3.578   1.240  14.117  0.0864 -0.7758  1.3574
 6770SOL     OW31771   3.979   2.078   0.912 -0.0481 -0.0264  0.0386
 6770SOL    HW131772   3.908   2.014   0.912 -0.8150  0.8145 -2.2790
 6770SOL    HW231773   4.025   2.054   0.992 -1.2486 -1.5827  0.2645
 6771SOL     OW31774   2.494   3.557  14.193 -0.2138 -0.0577  0.2382
 6771SOL    HW131775   2.423   3.494  14.202  0.1539 -0.6472 -1.0402
 6771SOL    HW231776   2.524   3.544  14.103  1.2337 -0.2229  0.7573
 6772SOL     OW31777   0.494   3.190   0.603 -0.5571  0.3393 -0.2541
 6772SOL    HW131778   0.516   3.181   0.510 -2.6798  0.6311 -0.7961
 6772SOL    HW231779   0.524   3.280   0.619  0.8840 -0.1639 -0.1811
 6773SOL     OW31780   2.648   1.784   7.523  0.0264 -0.3472  0.0440
 6773SOL    HW131781   2.670   1.829   7.442  0.0406 -0.1714  0.1449
 6773SOL    HW231782   2.582   1.725   7.487  1.2214 -0.9002 -1.2464
 6774SOL     OW31783   0.788   2.074   4.864  0.1553 -0.1123 -0.0787
 6774SOL    HW131784   0.716   2.030   4.908  1.6801 -2.7275 -0.1468
 6774SOL    HW231785   0.833   1.999   4.825  1.1093  1.4791 -2.0316
 6775SOL     OW31786   2.498   4.369   6.467 -0.2579  0.0873  0.0940
 6775SOL    HW131787   2.551   4.448   6.455 -1.1153  0.3637 -1.8489
 6775SOL    HW231788   2.560   4.307   6.507 -0.9697 -1.8320 -1.7540
 6776SOL     OW31789   4.536   3.744   5.022 -0.2159 -0.3047  0.0541
 6776SOL    HW131790   4.550   3.791   5.104  0.6735  0.7731 -0.7099
 6776SOL    HW231791   4.549   3.653   5.047  0.0758 -0.5555 -1.0274
 6777SOL     OW31792   0.152   1.370  17.492 -0.0019  0.7896  0.0538
 6777SOL    HW131793   0.075   1.337  17.538  1.3059 -2.7942 -0.3634
 6777SOL    HW231794   0.216   1.383  17.562 -0.3227  0.5971  0.3793
 6778SOL     OW31795   1.087   1.734   2.713 -0.1560 -0.1797 -0.6464
 6778SOL    HW131796   1.172   1.750   2.670  0.6285 -0.7912  0.6725
 6778SOL    HW231797   1.027   1.781   2.656 -1.8308  1.0699  2.1177
 6779SOL     OW31798   0.051   2.464   0.829 -0.1564  0.3126  0.4637
 6779SOL    HW131799   0.001   2.387   0.855  0.2900 -1.0421 -2.6613
 6779SOL    HW231800   0.110   2.416   0.771 -1.6043  1.1741 -1.7606
 6780SOL     OW31801   1.691   0.497   5.296 -0.7554  0.0839 -0.3368
 6780SOL    HW131802   1.737   0.473   5.376  1.6618  0.5875 -1.5553
 6780SOL    HW231803   1.616   0.439   5.304  0.3291 -1.2316  0.2357
 6781SOL     OW31804   4.218   3.206  10.194 -0.1433  0.0894 -0.5829
 6781SOL    HW131805   4.124   3.191  10.181 -0.4303  0.3987  1.1907
 6781SOL    HW231806   4.231   3.261  10.117 -0.7947  0.1158 -0.6775
 6782SOL     OW31807   1.842   3.196   7.110  0.1367 -0.6489  0.5898
 6782SOL    HW131808   1.911   3.204   7.045  1.9717  0.3284  2.6489
 6782SOL    HW231809   1.882   3.123   7.159 -1.0538 -1.0825  0.9048
 6783SOL     OW31810   1.257   1.610  17.546  0.5096  0.1536  0.0116
 6783SOL    HW131811   1.201   1.670  17.595  0.2360  0.1308 -0.2730
 6783SOL    HW231812   1.219   1.526  17.570  1.8772 -0.8626 -1.3470
 6784SOL     OW31813   2.368   2.840   6.137 -0.7531  0.7087  0.2062
 6784SOL    HW131814   2.273   2.853   6.142 -0.5208  1.5412  2.5393
 6784SOL    HW231815   2.383   2.766   6.196  0.9048 -0.0994 -1.2230
 6785SOL     OW31816   3.986   2.035   0.645 -0.2892 -0.0104  0.7591
 6785SOL    HW131817   3.931   2.099   0.601  1.7661  0.4409 -1.1543
 6785SOL    HW231818   4.010   2.083   0.724  0.9702 -0.2581  0.5381
 6786SOL     OW31819   3.344   2.315   6.407  0.0742  0.3700  0.0850
 6786SOL    HW131820   3.383   2.228   6.405 -1.5701 -0.3802  0.5701
 6786SOL    HW231821   3.421   2.361   6.441  0.2682 -0.1096  0.2878
 6787SOL     OW31822   0.295   3.403   6.117 -0.3452 -0.0478 -0.1432
 6787SOL    HW131823   0.244   3.392   6.197  0.7740  1.0653  0.7368
 6787SOL    HW231824   0.357   3.472   6.143  0.3083  0.3208 -2.6815
 6788SOL     OW31825   4.552   3.882   5.591  0.0530  0.0580 -0.5236
 6788SOL    HW131826   4.542   3.923   5.677 -1.8541 -0.2650 -0.5873
 6788SOL    HW231827   4.590   3.799   5.617 -1.0985 -0.6561 -1.1005
 6789SOL     OW31828   1.162   0.958   0.581  0.0116 -0.2066  0.1967
 6789SOL    HW131829   1.248   0.955   0.540  0.1776 -0.1314  0.5371
 6789SOL    HW231830   1.126   0.872   0.559  0.6338 -0.2957 -0.4683
 6790SOL     OW31831   0.571   3.865   2.582 -0.9838  0.5401  0.5388
 6790SOL    HW131832   0.548   3.775   2.607 -1.5254 -0.5246 -3.8476
 6790SOL    HW231833   0.658   3.869   2.623 -1.0429  1.1327  0.6083
 6791SOL     OW31834   4.118   1.338   8.329  0.3902 -0.4372  0.3269
 6791SOL    HW131835   4.086   1.421   8.365  1.4398 -1.1043  2.7813
 6791SOL    HW231836   4.165   1.307   8.406 -0.9985 -0.7962  1.0450
 6792SOL     OW31837   3.109   2.773  16.040 -0.0092 -0.2644 -0.7705
 6792SOL    HW131838   3.087   2.861  16.068  0.8882  0.4843 -2.4165
 6792SOL    HW231839   3.072   2.718  16.109 -0.6219 -0.7693 -1.5055
 6793SOL     OW31840   0.842   2.523   5.829  0.3699 -0.3057  0.5493
 6793SOL    HW131841   0.796   2.488   5.906  0.3271  0.8321  1.0312
 6793SOL    HW231842   0.928   2.481   5.829  1.1793  1.3792 -1.4739
 6794SOL     OW31843   2.013   0.410  14.130 -0.0874  0.0957 -0.4328
 6794SOL    HW131844   1.990   0.318  14.142  0.6944  0.3327  2.6663
 6794SOL    HW231845   1.948   0.435  14.064  0.4323  1.4425 -0.4433
 6795SOL     OW31846   2.400   1.853   4.958 -0.1059  0.2091  0.7064
 6795SOL    HW131847   2.323   1.907   4.938 -0.0867  0.5058  1.4350
 6795SOL    HW231848   2.444   1.852   4.873  0.5143 -0.8319  1.0484
 6796SOL     OW31849   2.350   1.505  13.263 -0.0622 -0.0673  0.6611
 6796SOL    HW131850   2.418   1.448  13.227  0.2294 -0.2662  1.5130
 6796SOL    HW231851   2.334   1.470  13.351 -1.5333  0.3955  0.5851
 6797SOL     OW31852   3.681   0.627   6.877 -0.4828 -0.0853 -0.0752
 6797SOL    HW131853   3.752   0.615   6.814 -0.1763  1.2545  0.0181
 6797SOL    HW231854   3.643   0.711   6.852  0.2124 -0.0406 -0.9892
 6798SOL     OW31855   3.847   1.641  14.425  0.1831 -0.3981 -0.6655
 6798SOL    HW131856   3.821   1.568  14.369  0.2860 -0.6717 -0.3566
 6798SOL    HW231857   3.849   1.602  14.512 -1.5748  2.7954  0.7734
 6799SOL     OW31858   1.539   0.959   8.905 -0.6820  0.0066  0.5703
 6799SOL    HW131859   1.625   1.001   8.910 -1.2509  1.2216  0.2700
 6799SOL    HW231860   1.517   0.930   8.994 -1.1846  0.2569  0.5284
 6800SOL     OW31861   4.710   1.729   5.635 -0.0609 -0.0967 -0.0191
 6800SOL    HW131862   4.700   1.727   5.730  1.8558  2.5812  0.2291
 6800SOL    HW231863   4.681   1.817   5.609  0.0639 -0.8147 -2.6044
 6801SOL     OW31864   4.193   2.705  14.509  0.2483  0.4554 -0.3593
 6801SOL    HW131865   4.112   2.656  14.492  1.7794 -2.5979  1.2312
 6801SOL    HW231866   4.239   2.700  14.425  1.5882 -0.4782  0.4433
 6802SOL     OW31867   0.257   0.437   9.199 -0.3740 -0.0142 -0.0504
 6802SOL    HW131868   0.199   0.513   9.186 -1.2027 -0.5614  0.5053
 6802SOL    HW231869   0.325   0.469   9.257 -0.6529 -0.3032  0.4345
 6803SOL     OW31870   1.787   3.826   5.424 -0.2635  0.5683  0.3123
 6803SOL    HW131871   1.729   3.780   5.363 -0.7063  2.9515 -1.0393
 6803SOL    HW231872   1.719   3.878   5.467 -1.4348  0.0720 -0.9460
 6804SOL     OW31873   4.206   0.481  14.438  0.4250 -0.2536 -0.0205
 6804SOL    HW131874   4.175   0.513  14.523 -0.9235  0.2288 -0.6893
 6804SOL    HW231875   4.299   0.469  14.456  0.5538 -0.3316 -0.7425
 6805SOL     OW31876   1.026   2.567  13.743 -0.5500  0.1401 -0.1356
 6805SOL    HW131877   0.982   2.484  13.763  3.0233 -2.0401 -1.3037
 6805SOL    HW231878   1.055   2.597  13.829 -2.2509 -0.1565  0.5317
 6806SOL     OW31879   0.785   2.813   7.149 -0.5113 -0.5138 -0.3069
 6806SOL    HW131880   0.821   2.839   7.064  0.2540  0.7187  0.3961
 6806SOL    HW231881   0.798   2.718   7.145 -1.6160 -0.6561 -0.4592
 6807SOL     OW31882   3.862   3.710   3.782  0.0017 -0.3597  0.4125
 6807SOL    HW131883   3.775   3.748   3.787 -0.4743 -1.5745  1.3593
 6807SOL    HW231884   3.909   3.789   3.808  1.4506 -0.6569 -1.2781
 6808SOL     OW31885   0.094   0.874   5.422  0.4527 -0.3366  0.6313
 6808SOL    HW131886   0.090   0.857   5.516 -0.1213 -0.5719  0.5681
 6808SOL    HW231887   0.045   0.956   5.409  2.8121  1.3365  2.2897
 6809SOL     OW31888   1.478   0.273   2.794 -0.3647 -0.2276  0.4112
 6809SOL    HW131889   1.513   0.276   2.705 -0.7174 -0.3348  0.2677
 6809SOL    HW231890   1.556   0.240   2.838  0.2741  2.2675  1.1478
 6810SOL     OW31891   3.022   2.983   8.497  0.0383 -0.0571  0.3254
 6810SOL    HW131892   3.045   3.030   8.417 -1.0929 -0.0281  0.0293
 6810SOL    HW231893   2.938   2.953   8.464 -0.8796  1.3811  1.3594
 6811SOL     OW31894   0.568   0.046  11.851 -0.0995 -0.2810 -0.4067
 6811SOL    HW131895   0.576   0.103  11.775  1.4516 -1.8768 -1.4300
 6811SOL    HW231896   0.567   0.113  11.920 -1.0377  0.2642 -0.9456
 6812SOL     OW31897   0.392   2.250   6.479 -0.0849 -0.4393  0.4350
 6812SOL    HW131898   0.297   2.261   6.474 -0.0234 -0.3932 -0.8427
 6812SOL    HW231899   0.409   2.188   6.407  0.0899 -2.5927  2.3300
 6813SOL     OW31900   3.798   0.328   8.166 -0.4437 -0.3691  0.3452
 6813SOL    HW131901   3.841   0.403   8.208  1.8609 -1.5130  0.0558
 6813SOL    HW231902   3.856   0.306   8.092  0.2555 -0.4855  0.9304
 6814SOL     OW31903   0.072   2.558   7.499 -0.1818  0.7035 -0.0311
 6814SOL    HW131904   0.068   2.616   7.423 -0.6600  0.0511 -0.5129
 6814SOL    HW231905   0.166   2.565   7.511 -0.3279 -0.1919  1.6258
 6815SOL     OW31906   3.629   2.283   5.078  0.6458 -0.0186  0.5300
 6815SOL    HW131907   3.664   2.302   4.991 -0.2425  0.1070  0.1986
 6815SOL    HW231908   3.546   2.244   5.047  1.2135 -0.0607 -0.9329
 6816SOL     OW31909   3.806   3.414   3.868  0.5439 -0.4765  0.7363
 6816SOL    HW131910   3.846   3.501   3.864  0.7764 -0.6125  0.1271
 6816SOL    HW231911   3.746   3.416   3.794  1.8148 -0.3233 -0.2833
 6817SOL     OW31912   2.718   2.738  14.093 -0.2809 -0.1775  0.4064
 6817SOL    HW131913   2.637   2.729  14.144  0.9502 -1.5521  2.1348
 6817SOL    HW231914   2.670   2.737  14.010 -1.4401  2.5072  1.0447
 6818SOL     OW31915   2.287   1.356   0.396 -0.5540 -0.1959 -0.1875
 6818SOL    HW131916   2.378   1.328   0.386 -0.6979 -0.9893  0.7722
 6818SOL    HW231917   2.268   1.308   0.476  0.7441 -2.0813 -1.0200
 6819SOL     OW31918   1.183   2.037   3.204 -0.3228  0.5446 -0.3955
 6819SOL    HW131919   1.171   1.967   3.140  1.0205  0.9399 -1.0722
 6819SOL    HW231920   1.264   2.073   3.168 -1.4986  1.2749 -2.2885
 6820SOL     OW31921   3.369   1.498   8.367 -0.7825 -0.4150  0.0592
 6820SOL    HW131922   3.441   1.536   8.419 -0.6462 -1.3353  0.5366
 6820SOL    HW231923   3.359   1.419   8.420 -0.2453 -0.4082  0.1673
 6821SOL     OW31924   2.456   1.944   5.213 -0.0027  0.3709 -0.4784
 6821SOL    HW131925   2.442   1.894   5.132  1.2597 -1.1307  0.2421
 6821SOL    HW231926   2.498   1.880   5.270  1.8147  0.1704 -2.0455
 6822SOL     OW31927   1.026   0.941   5.341  0.1113  0.1270 -0.1315
 6822SOL    HW131928   1.113   0.925   5.377  0.2204  0.5306 -0.2133
 6822SOL    HW231929   0.984   0.855   5.343 -0.1823  0.2364 -1.4187
 6823SOL     OW31930   1.511   2.574   7.871 -0.3186 -0.3626  0.2421
 6823SOL    HW131931   1.439   2.530   7.825  0.5172  0.3411 -1.7653
 6823SOL    HW231932   1.583   2.520   7.840 -0.3862  0.4530 -1.3703
 6824SOL     OW31933   2.186   3.246   5.120  0.2644 -0.8834 -0.3563
 6824SOL    HW131934   2.251   3.248   5.049 -0.2257 -0.4862 -0.7869
 6824SOL    HW231935   2.139   3.165   5.100  0.8397 -1.1563 -0.6032
 6825SOL     OW31936   0.785   4.523   4.238  0.1964  0.3477 -0.1937
 6825SOL    HW131937   0.763   4.600   4.289  2.3188  0.4011  0.6310
 6825SOL    HW231938   0.739   4.540   4.156  1.1692 -2.2814 -1.2911
 6826SOL     OW31939   1.276   2.231   4.948 -0.3738 -0.0599 -0.2546
 6826SOL    HW131940   1.362   2.262   4.975  0.0126 -1.2497 -0.1142
 6826SOL    HW231941   1.213   2.275   5.005  0.4607  0.3498  0.3585
 6827SOL     OW31942   4.144   2.468   7.813  0.7708  0.1172 -0.0913
 6827SOL    HW131943   4.235   2.453   7.785  1.1110 -0.0230  1.0924
 6827SOL    HW231944   4.151   2.541   7.874 -1.9608  1.7649 -1.7511
 6828SOL     OW31945   2.973   1.991   7.600  0.4600 -0.4782  0.2421
 6828SOL    HW131946   2.988   2.085   7.590 -2.5505  0.2136  2.0028
 6828SOL    HW231947   2.969   1.980   7.695 -3.1116 -0.0649  0.1418
 6829SOL     OW31948   2.174   3.252  10.469 -0.4908  0.8205  0.0804
 6829SOL    HW131949   2.106   3.320  10.472 -2.0481 -0.7831  1.4050
 6829SOL    HW231950   2.155   3.202  10.549  1.2975 -0.4449 -0.2966
 6830SOL     OW31951   4.648   3.649   5.630  0.1321 -0.2563 -0.5682
 6830SOL    HW131952   4.613   3.580   5.686 -3.4311  1.4408 -0.6696
 6830SOL    HW231953   0.011   3.618   5.622  0.1959 -0.3815  0.6565
 6831SOL     OW31954   2.890   3.661   5.279  0.1828  0.7603  0.6358
 6831SOL    HW131955   2.907   3.668   5.373  1.2660 -2.1955  0.6558
 6831SOL    HW231956   2.934   3.579   5.258  1.8939  1.6434  0.8163
 6832SOL     OW31957   2.037   3.005  11.812  0.4263 -0.3484  0.0254
 6832SOL    HW131958   2.016   2.978  11.902 -0.0274 -1.7410 -0.4966
 6832SOL    HW231959   1.997   2.937  11.758  1.1301 -2.7453  2.4878
 6833SOL     OW31960   1.635   0.785   7.077  0.3801  0.2197 -0.1413
 6833SOL    HW131961   1.730   0.780   7.082  0.5826  0.7914 -2.8875
 6833SOL    HW231962   1.622   0.880   7.065 -0.9673  0.0588  0.0095
 6834SOL     OW31963   1.399   1.154  15.765 -0.3954 -0.2570  0.2932
 6834SOL    HW131964   1.453   1.093  15.716  1.0958  0.3551  1.1787
 6834SOL    HW231965   1.441   1.150  15.851 -0.2495  1.3439  0.3100
 6835SOL     OW31966   0.582   4.161   3.862  0.0390  0.4145  0.2752
 6835SOL    HW131967   0.521   4.098   3.900 -2.4277  1.2679 -2.2535
 6835SOL    HW231968   0.638   4.105   3.809 -1.7855 -0.8506 -0.3077
 6836SOL     OW31969   2.777   0.675   5.873 -0.2509  0.2042  0.5088
 6836SOL    HW131970   2.748   0.758   5.911  0.7614  1.9201 -2.4592
 6836SOL    HW231971   2.738   0.684   5.786  2.2912 -0.3853 -0.7121
 6837SOL     OW31972   1.791   1.094   8.870 -0.0019 -0.4396  0.3084
 6837SOL    HW131973   1.824   1.177   8.838  0.3942 -0.1031  1.6024
 6837SOL    HW231974   1.868   1.066   8.919  0.6166 -1.3350 -1.1758
 6838SOL     OW31975   1.628   0.749  13.064  0.6965 -0.0364  0.3350
 6838SOL    HW131976   1.715   0.710  13.068  1.4232  1.4639 -0.9676
 6838SOL    HW231977   1.634   0.826  13.119  0.8177 -1.3384  2.1230
 6839SOL     OW31978   2.228   2.183  12.215 -0.1752 -0.0160  0.5840
 6839SOL    HW131979   2.212   2.142  12.130  2.5804 -1.9932  1.0269
 6839SOL    HW231980   2.317   2.215  12.200 -0.9448  1.9254  0.1401
 6840SOL     OW31981   4.222   4.217  12.619 -0.0367 -0.0429 -0.8343
 6840SOL    HW131982   4.287   4.179  12.679 -0.2358  0.7418 -0.1314
 6840SOL    HW231983   4.173   4.271  12.680  1.9365  0.2687  0.4551
 6841SOL     OW31984   1.204   2.674   3.282 -0.5155  0.7970 -0.1971
 6841SOL    HW131985   1.143   2.645   3.351  1.7921  0.7933  1.8644
 6841SOL    HW231986   1.280   2.632   3.322 -0.0860  1.6845 -0.0988
 6842SOL     OW31987   2.413   0.366   6.982 -0.0228  0.6209 -0.0790
 6842SOL    HW131988   2.344   0.416   6.937 -1.5176  0.1033  1.6429
 6842SOL    HW231989   2.377   0.279   6.964 -0.0090  0.5304  0.3437
 6843SOL     OW31990   4.437   2.562   2.592  0.1039 -0.0505 -0.4498
 6843SOL    HW131991   4.506   2.519   2.541  1.0590 -0.3407  1.1080
 6843SOL    HW231992   4.427   2.633   2.528  1.6554  0.5706 -0.0072
 6844SOL     OW31993   2.567   0.571   1.764 -0.2148  0.0751 -0.3405
 6844SOL    HW131994   2.568   0.667   1.756  1.6916  0.0934  0.0973
 6844SOL    HW231995   2.622   0.546   1.690  0.3257  2.4235 -0.7493
 6845SOL     OW31996   1.082   2.665   8.506 -0.0551 -0.3289  0.3519
 6845SOL    HW131997   1.080   2.627   8.594  0.0853 -0.8675  0.1262
 6845SOL    HW231998   1.171   2.699   8.509  0.9823 -3.0600  0.9123
 6846SOL     OW31999   0.264   1.726  10.712 -0.2899 -0.0288 -0.3765
 6846SOL    HW132000   0.225   1.794  10.655 -0.8224  0.7171  0.8778
 6846SOL    HW232001   0.325   1.774  10.768  0.2553 -2.0561  0.7511
 6847SOL     OW32002   1.940   1.088   7.550 -0.2628  0.0754 -0.0557
 6847SOL    HW132003   1.906   1.072   7.638  0.9922 -1.1500  0.1994
 6847SOL    HW232004   1.961   1.181   7.550 -0.1319  0.0008  4.9015
 6848SOL     OW32005   0.910   4.572  17.000 -0.1134 -0.2859 -0.5322
 6848SOL    HW132006   0.918   4.509  16.928  0.4079 -2.7212  1.6528
 6848SOL    HW232007   0.987   4.547  17.051  1.2483 -0.1888 -2.5161
 6849SOL     OW32008   0.560   4.445  14.380  0.0717 -0.1570 -0.2558
 6849SOL    HW132009   0.625   4.383  14.347  1.0501 -0.2575  1.8580
 6849SOL    HW232010   0.500   4.422  14.310  0.1063  0.2843 -0.4295
 6850SOL     OW32011   4.215   2.146  15.614  0.0714  0.2272  0.1008
 6850SOL    HW132012   4.224   2.112  15.703 -0.9705 -0.7420 -0.1519
 6850SOL    HW232013   4.178   2.233  15.625  0.9506  0.1121  4.0644
 6851SOL     OW32014   2.611   2.233   2.277  0.8277  0.0533 -0.5553
 6851SOL    HW132015   2.616   2.176   2.354 -1.3593 -0.3655 -0.7118
 6851SOL    HW232016   2.532   2.281   2.302  1.4242 -0.6256  2.6407
 6852SOL     OW32017   2.463   3.495   5.765 -0.5809  0.3386 -0.0600
 6852SOL    HW132018   2.468   3.422   5.702 -1.3832 -0.6536  1.0250
 6852SOL    HW232019   2.385   3.474   5.816 -0.4074 -1.8018 -0.6509
 6853SOL     OW32020   1.818   1.034   7.273 -0.1053  0.1968 -0.2966
 6853SOL    HW132021   1.874   1.060   7.345  1.8189  2.0033 -2.4536
 6853SOL    HW232022   1.866   0.960   7.235 -0.6748  0.6947 -2.0219
 6854SOL     OW32023   1.722   1.424   8.267 -0.0681  0.4808  0.1655
 6854SOL    HW132024   1.817   1.435   8.260 -0.2091  0.0290 -2.3054
 6854SOL    HW232025   1.702   1.409   8.175 -0.8793  1.6485  0.1390
 6855SOL     OW32026   1.418   4.384   3.689 -0.1106 -0.4824  0.3637
 6855SOL    HW132027   1.504   4.385   3.732  0.2407 -0.1295 -0.3581
 6855SOL    HW232028   1.388   4.474   3.702  0.7385  0.4250 -4.0978
 6856SOL     OW32029   0.011   2.503   0.276 -0.1248  0.2685 -0.4485
 6856SOL    HW132030   4.700   2.441   0.339 -1.5826 -0.4091 -1.9711
 6856SOL    HW232031   0.104   2.486   0.286 -0.0264 -0.1343 -2.0274
 6857SOL     OW32032   0.293   1.149   7.249  0.2500  0.2400  0.5243
 6857SOL    HW132033   0.227   1.202   7.205  0.8511 -0.2123 -0.9340
 6857SOL    HW232034   0.346   1.217   7.291 -0.3443 -0.2463  2.0591
 6858SOL     OW32035   3.737   1.280   6.023 -0.0288  0.0009  0.0909
 6858SOL    HW132036   3.668   1.256   5.962  0.9324 -2.1152 -0.1881
 6858SOL    HW232037   3.780   1.194   6.022  0.5242  0.2801 -0.2132
 6859SOL     OW32038   0.110   1.520   7.916 -0.5045  0.6076 -0.1371
 6859SOL    HW132039   0.081   1.489   7.830  2.2410 -2.0092 -0.1169
 6859SOL    HW232040   0.098   1.445   7.974 -1.4384  1.3536  0.6384
 6860SOL     OW32041   0.072   0.925   7.247 -0.6105  0.1726 -0.3047
 6860SOL    HW132042   0.100   0.963   7.331  1.0122 -1.6332 -0.0201
 6860SOL    HW232043   0.129   0.848   7.245 -0.0507  0.5807 -0.0605
 6861SOL     OW32044   3.972   3.778   6.375  0.1275 -0.7661  0.0821
 6861SOL    HW132045   3.952   3.693   6.334 -1.4120  0.3056 -1.3707
 6861SOL    HW232046   4.025   3.760   6.452  0.9839 -0.1892 -0.3726
 6862SOL     OW32047   0.386   0.131   1.638  0.2598  0.3895 -0.6390
 6862SOL    HW132048   0.333   0.174   1.705  2.9381  1.2919  0.9252
 6862SOL    HW232049   0.314   0.087   1.594  0.6495  1.2946 -2.1805
 6863SOL     OW32050   2.947   3.491  12.790 -0.0797  0.4509 -0.1293
 6863SOL    HW132051   2.884   3.461  12.855 -0.7421 -2.1869 -2.0192
 6863SOL    HW232052   2.945   3.584  12.815 -1.1854  0.8878 -1.8373
 6864SOL     OW32053   2.120   1.181   7.909  0.3491 -0.5212 -0.3335
 6864SOL    HW132054   2.185   1.250   7.920 -1.2064  0.9821 -0.6420
 6864SOL    HW232055   2.047   1.212   7.963  0.4100 -2.8003  1.0404
 6865SOL     OW32056   4.393   1.717  17.658  0.7083 -0.1418  0.0992
 6865SOL    HW132057   4.322   1.653  17.649  0.2439  0.3615  0.1700
 6865SOL    HW232058   4.383   1.752  17.569  0.9052 -1.5930 -0.4969
 6866SOL     OW32059   2.470   4.266  16.795  0.0276  0.0486  0.0413
 6866SOL    HW132060   2.376   4.287  16.794  0.4628  1.8331 -1.3674
 6866SOL    HW232061   2.505   4.327  16.731  2.2926  0.6038  1.8236
 6867SOL     OW32062   3.660   1.553   0.087 -0.6151  0.5849 -0.1916
 6867SOL    HW132063   3.579   1.600   0.071 -1.6237 -1.1050 -0.0688
 6867SOL    HW232064   3.683   1.567   0.179 -0.3988  0.6036 -0.2488
 6868SOL     OW32065   4.548   2.894   5.892  0.4840  0.2372  0.2356
 6868SOL    HW132066   4.613   2.928   5.953 -1.6880 -0.2232  2.7694
 6868SOL    HW232067   4.485   2.965   5.899  0.2196 -0.0571  0.7826
 6869SOL     OW32068   4.605   4.101  14.212  0.1719 -0.2998 -0.3491
 6869SOL    HW132069   4.566   4.170  14.267 -1.4519 -0.9845 -0.6445
 6869SOL    HW232070   4.605   4.029  14.276  2.0684  1.9676  2.1889
 6870SOL     OW32071   3.018   4.212   9.677 -0.0067  0.3417  0.6951
 6870SOL    HW132072   3.046   4.252   9.759 -3.5251 -0.6417  2.3666
 6870SOL    HW232073   3.017   4.117   9.689  0.2466  0.2919  0.3420
 6871SOL     OW32074   4.701   1.767   4.036  0.1423  0.5238 -0.0550
 6871SOL    HW132075   0.020   1.704   4.091 -0.4573 -2.6677 -3.2477
 6871SOL    HW232076   4.618   1.760   4.083 -1.0552  2.1009 -1.9127
 6872SOL     OW32077   0.162   3.960  14.009  0.4201  0.3742  0.0109
 6872SOL    HW132078   0.254   3.982  14.020  0.6807 -1.4879  1.3932
 6872SOL    HW232079   0.135   4.051  13.999  1.6848  0.8962  1.4738
 6873SOL     OW32080   1.609   4.686  10.858 -0.2781  0.3744  0.5165
 6873SOL    HW132081   1.616   4.595  10.829 -0.5277  0.4959  0.0758
 6873SOL    HW232082   1.513   4.695  10.859 -0.0884  2.5009  0.4005
 6874SOL     OW32083   0.623   3.157   2.160 -0.2286 -0.0684 -0.0173
 6874SOL    HW132084   0.697   3.217   2.158 -1.6072  1.6277  0.4720
 6874SOL    HW232085   0.586   3.166   2.072  0.3487 -0.9109 -0.3599
 6875SOL     OW32086   4.322   4.081  12.385  0.1732  0.3907  0.2507
 6875SOL    HW132087   4.405   4.036  12.373 -0.0601 -0.0733  0.3739
 6875SOL    HW232088   4.330   4.119  12.473  2.3555  0.6185 -0.0669
 6876SOL     OW32089   4.145   1.244  12.967 -0.2347  0.1680 -0.0272
 6876SOL    HW132090   4.087   1.264  13.040  2.1827  0.5939  1.7860
 6876SOL    HW232091   4.110   1.160  12.938 -0.1090  1.0107 -2.6202
 6877SOL     OW32092   3.142   0.942   6.527 -0.6791 -0.1694  0.5822
 6877SOL    HW132093   3.070   0.952   6.465  0.1358 -1.2609 -0.5264
 6877SOL    HW232094   3.224   0.957   6.479 -0.4017  0.5067  1.2562
 6878SOL     OW32095   0.398   2.982   5.162 -0.7591  0.1103  0.3412
 6878SOL    HW132096   0.307   3.000   5.183 -0.5769  3.0104 -1.3367
 6878SOL    HW232097   0.396   2.887   5.150  1.0607  0.1685 -0.5115
 6879SOL     OW32098   0.009   3.045   6.783  0.5177  0.1543 -0.1531
 6879SOL    HW132099   4.719   2.974   6.845 -0.6580  0.4905 -0.0795
 6879SOL    HW232100   0.103   3.029   6.779  0.0942 -2.2120 -0.7790
 6880SOL     OW32101   1.293   0.711   6.531 -0.4477  0.0992  0.0934
 6880SOL    HW132102   1.298   0.703   6.627 -1.5014  0.5301  0.1831
 6880SOL    HW232103   1.380   0.742   6.506 -0.6256  0.0284 -0.5894
 6881SOL     OW32104   2.247   2.421   3.999 -0.3838 -0.1327 -0.1264
 6881SOL    HW132105   2.286   2.337   4.027  0.1789 -0.1765 -1.0392
 6881SOL    HW232106   2.297   2.475   4.061 -0.3321  1.5176 -1.6203
 6882SOL     OW32107   1.286   0.017   6.396 -0.5758  0.2341  0.4340
 6882SOL    HW132108   1.374   4.712   6.418 -0.7418 -0.3400  0.2885
 6882SOL    HW232109   1.247   4.659   6.374 -0.6562  0.0992  1.1012
 6883SOL     OW32110   1.051   4.195   3.809 -0.2784 -0.6681 -0.0136
 6883SOL    HW132111   0.969   4.237   3.838  0.6641  1.4941 -0.4788
 6883SOL    HW232112   1.035   4.179   3.717 -1.2837 -0.0231  0.0448
 6884SOL     OW32113   3.017   2.117   3.350  0.1495 -0.1386 -0.2217
 6884SOL    HW132114   2.974   2.161   3.424  2.6816 -0.3485  1.3827
 6884SOL    HW232115   3.045   2.194   3.301 -0.1568  0.1626  0.0786
 6885SOL     OW32116   1.536   3.948   9.438 -0.1163 -0.5616  0.4875
 6885SOL    HW132117   1.565   3.951   9.530 -0.2398 -0.9461  0.5408
 6885SOL    HW232118   1.448   3.916   9.458 -0.2381 -1.1600 -1.0811
 6886SOL     OW32119   1.408   3.234  15.327 -0.4098  0.5738  0.1215
 6886SOL    HW132120   1.472   3.306  15.327 -0.5417  0.7007  2.0755
 6886SOL    HW232121   1.352   3.277  15.263  1.3587  0.7204 -1.3219
 6887SOL     OW32122   2.118   2.024   7.670  0.8172 -0.0487 -0.8813
 6887SOL    HW132123   2.107   1.966   7.594  0.3962  1.2007 -1.7790
 6887SOL    HW232124   2.175   1.973   7.727  0.4576  2.0023  1.2958
 6888SOL     OW32125   3.011   4.201   3.311 -0.1269 -0.6095 -0.3661
 6888SOL    HW132126   3.061   4.122   3.333 -0.5165 -1.1669 -1.4885
 6888SOL    HW232127   2.958   4.165   3.241 -0.0716  1.8852 -1.7018
 6889SOL     OW32128   4.124   3.322   7.815 -0.1234 -0.0325 -0.3841
 6889SOL    HW132129   4.129   3.417   7.828 -0.6983 -0.0032 -0.3586
 6889SOL    HW232130   4.163   3.302   7.730  1.0007 -0.2917  0.1914
 6890SOL     OW32131   2.053   4.014   5.707  0.1248  0.3720  0.2959
 6890SOL    HW132132   2.129   4.070   5.693  0.0174 -0.2720 -2.9019
 6890SOL    HW232133   2.062   3.941   5.646  3.6812  0.3848  0.8266
 6891SOL     OW32134   1.978   3.248   4.839  0.3684 -0.2019 -0.1609
 6891SOL    HW132135   1.953   3.266   4.929  0.9850  0.1799 -0.0724
 6891SOL    HW232136   2.071   3.269   4.847 -0.1298  1.9558 -0.0546
 6892SOL     OW32137   2.860   2.749  10.203  0.4534 -0.2230  0.3950
 6892SOL    HW132138   2.928   2.720  10.263  0.0595  0.3775  1.1207
 6892SOL    HW232139   2.866   2.844  10.211 -0.4946 -0.3300  2.2009
 6893SOL     OW32140   2.766   2.959   1.146  0.1721 -0.3184  0.6556
 6893SOL    HW132141   2.854   2.983   1.117 -0.2673 -0.4206 -0.7314
 6893SOL    HW232142   2.769   3.006   1.230 -1.4292 -1.4025  1.3220
 6894SOL     OW32143   4.133   3.758   9.538  1.0023  0.5701 -0.3711
 6894SOL    HW132144   4.041   3.734   9.538  1.4308 -1.1090 -0.5512
 6894SOL    HW232145   4.147   3.780   9.446 -1.7164  0.3810 -0.8074
 6895SOL     OW32146   1.189   1.592   4.495 -0.2337 -0.2815 -0.3465
 6895SOL    HW132147   1.206   1.678   4.533  2.0458 -0.8905  0.0107
 6895SOL    HW232148   1.182   1.619   4.403  0.1396 -1.0090 -0.5854
 6896SOL     OW32149   1.657   3.340  12.956  0.7769  0.1604 -0.2700
 6896SOL    HW132150   1.678   3.343  13.049  1.8656 -1.4270 -0.4528
 6896SOL    HW232151   1.644   3.432  12.936  2.8636  0.2439 -1.3160
 6897SOL     OW32152   4.488   3.032  10.881  0.1007  0.0369  0.2593
 6897SOL    HW132153   4.551   3.012  10.812 -1.5548 -3.6865 -0.2133
 6897SOL    HW232154   4.447   2.946  10.890  1.1544 -0.5495 -0.7153
 6898SOL     OW32155   1.065   4.454   9.140 -0.4069 -0.6687 -0.1857
 6898SOL    HW132156   1.014   4.395   9.085 -0.5049 -1.1098  0.3824
 6898SOL    HW232157   1.104   4.391   9.200 -2.8817 -1.7185  0.2921
 6899SOL     OW32158   1.141   1.896   5.527  0.4030  0.5164  0.2744
 6899SOL    HW132159   1.075   1.866   5.589 -0.3932 -0.9545 -1.3036
 6899SOL    HW232160   1.108   1.862   5.444  0.2605  1.1609  0.0704
 6900SOL     OW32161   4.362   0.168   3.216  0.3657  0.2426 -0.5033
 6900SOL    HW132162   4.268   0.178   3.231  0.4563  0.2170  0.0692
 6900SOL    HW232163   4.406   0.203   3.293  0.7391 -1.4316  0.0432
 6901SOL     OW32164   2.632   2.868   4.217 -0.3529 -0.1447 -0.0554
 6901SOL    HW132165   2.653   2.959   4.196 -1.1949 -0.2609 -1.3880
 6901SOL    HW232166   2.632   2.871   4.313  0.7652  1.8640 -0.1119
 6902SOL     OW32167   1.920   2.934   5.347  0.2734  0.1731 -0.7106
 6902SOL    HW132168   1.921   2.842   5.373 -5.8844  0.4865  0.5497
 6902SOL    HW232169   1.921   2.971   5.435 -0.6645  0.8434 -0.9807
 6903SOL     OW32170   1.970   2.246   8.224 -0.1614 -0.5716  1.1668
 6903SOL    HW132171   1.965   2.211   8.135 -0.1063 -2.8059  2.0281
 6903SOL    HW232172   2.020   2.177   8.268  0.9431 -2.4854 -3.0824
 6904SOL     OW32173   1.709   1.973  14.601 -0.1352 -0.1628 -0.1112
 6904SOL    HW132174   1.671   1.992  14.515 -2.6843  1.3218  1.3482
 6904SOL    HW232175   1.799   1.995  14.579  0.0191 -0.4867  0.1999
 6905SOL     OW32176   1.873   2.893  16.449  0.2458  0.1672 -0.3489
 6905SOL    HW132177   1.832   2.836  16.385 -0.5178  0.2229  0.0867
 6905SOL    HW232178   1.926   2.955  16.398  0.3428 -1.9772 -2.8646
 6906SOL     OW32179   4.293   3.293  11.119  0.1739 -0.7575 -0.2736
 6906SOL    HW132180   4.308   3.359  11.051  0.2924  1.0065  1.4682
 6906SOL    HW232181   4.293   3.351  11.195  2.0588  0.5383 -1.2614
 6907SOL     OW32182   2.187   1.143   9.275 -0.0402  0.4727 -0.2263
 6907SOL    HW132183   2.254   1.180   9.218  1.1301  1.8047  2.0192
 6907SOL    HW232184   2.204   1.050   9.265  1.2152  0.4308  2.1807
 6908SOL     OW32185   4.214   1.406   2.115  0.3418 -0.0930  0.3197
 6908SOL    HW132186   4.187   1.388   2.024  1.3525 -2.3945  0.4800
 6908SOL    HW232187   4.193   1.498   2.131  2.1134  0.0879  1.6208
 6909SOL     OW32188   2.974   1.935   2.986 -0.1157  0.5316  0.3803
 6909SOL    HW132189   3.050   1.889   2.951  0.5755  2.4484 -0.6475
 6909SOL    HW232190   2.927   1.861   3.024  0.6108 -0.1687 -0.0843
 6910SOL     OW32191   2.809   3.674   7.238  0.5296 -0.0790 -0.1118
 6910SOL    HW132192   2.866   3.703   7.166 -0.1898  1.0761 -0.2162
 6910SOL    HW232193   2.883   3.638   7.287  0.3458  1.8120  1.5696
 6911SOL     OW32194   4.063   1.197   1.111 -0.2037 -0.6426 -0.3556
 6911SOL    HW132195   4.057   1.270   1.050  1.0286 -0.3435 -0.1373
 6911SOL    HW232196   3.971   1.180   1.130  0.0976  1.2419  2.8887
 6912SOL     OW32197   2.070   2.191  15.462 -0.6643  0.2638 -0.1551
 6912SOL    HW132198   2.107   2.123  15.520  0.1392  0.2654 -0.6659
 6912SOL    HW232199   2.011   2.239  15.519 -0.1419  0.4459  0.2347
 6913SOL     OW32200   3.091   4.673  10.951 -0.5109  0.2760  0.1072
 6913SOL    HW132201   3.002   4.650  10.923  0.1751 -1.0800 -0.9386
 6913SOL    HW232202   3.074   0.012  11.019  1.2060  0.0295  0.7874
 6914SOL     OW32203   1.387   2.484   3.299 -0.0831  0.4963 -0.0619
 6914SOL    HW132204   1.426   2.494   3.213  0.2880  1.0884  0.1757
 6914SOL    HW232205   1.446   2.417   3.334 -0.6460 -0.5904 -1.2009
 6915SOL     OW32206   3.327   0.780   8.070 -0.5366 -0.3424  0.4040
 6915SOL    HW132207   3.335   0.786   8.165 -0.4588 -1.5800  0.4702
 6915SOL    HW232208   3.415   0.811   8.051 -0.2558  0.4039  2.9133
 6916SOL     OW32209   4.260   3.852   2.680 -0.4697  0.3115 -0.1949
 6916SOL    HW132210   4.330   3.789   2.664 -0.1979  0.7258 -0.6574
 6916SOL    HW232211   4.258   3.832   2.774 -1.0355  0.4555 -0.1769
 6917SOL     OW32212   1.519   4.252   5.639  0.0923  0.0525  0.0419
 6917SOL    HW132213   1.567   4.291   5.712  1.6192 -0.5328 -0.6410
 6917SOL    HW232214   1.569   4.302   5.574  0.2880  0.5556  0.5763
 6918SOL     OW32215   0.040   3.167   8.740  0.7898 -0.7231 -0.0751
 6918SOL    HW132216   0.025   3.211   8.824 -0.3522  0.8706 -1.1188
 6918SOL    HW232217   4.701   3.202   8.680  2.2202  3.6117  0.9063
 6919SOL     OW32218   2.697   0.537   7.349 -0.3497  0.5949  0.1847
 6919SOL    HW132219   2.617   0.523   7.300  0.2895 -1.0505 -0.4184
 6919SOL    HW232220   2.760   0.555   7.280  0.3077 -2.1212  0.0440
 6920SOL     OW32221   1.263   1.926  10.953 -0.1389  0.2552  0.7650
 6920SOL    HW132222   1.323   1.998  10.933 -1.4655  1.5360  1.4223
 6920SOL    HW232223   1.191   1.980  10.986 -0.3194 -0.3377  1.3345
 6921SOL     OW32224   3.410   2.275  11.277  0.5369  0.2740 -0.4465
 6921SOL    HW132225   3.451   2.306  11.196  1.8597  2.0596  0.9038
 6921SOL    HW232226   3.481   2.280  11.341 -1.0322 -0.1719  1.3477
 6922SOL     OW32227   2.792   4.198   2.734  0.0093 -0.8590 -0.0988
 6922SOL    HW132228   2.776   4.135   2.663 -0.6894 -1.7946  0.8810
 6922SOL    HW232229   2.725   4.165   2.793  2.5894 -1.3259  2.5709
 6923SOL     OW32230   4.493   0.792   2.825  0.1096 -0.6416 -0.5312
 6923SOL    HW132231   4.464   0.777   2.915 -0.2526  0.3205 -0.4888
 6923SOL    HW232232   4.412   0.806   2.777  0.4508  1.0674 -0.6180
 6924SOL     OW32233   3.987   2.161   7.018 -0.4094  0.2445  0.9272
 6924SOL    HW132234   4.005   2.255   7.020  1.9365 -0.2418  2.4836
 6924SOL    HW232235   3.958   2.146   6.928  1.4368  1.0605  0.1791
 6925SOL     OW32236   0.650   1.045   4.148  0.0933  0.3168 -0.2481
 6925SOL    HW132237   0.596   1.106   4.097  0.9794  0.6394 -0.7813
 6925SOL    HW232238   0.590   0.972   4.162  0.7868 -0.1186  0.4513
 6926SOL     OW32239   3.874   3.460  12.330  0.2672 -0.2378  0.0452
 6926SOL    HW132240   3.947   3.399  12.317 -1.1921 -2.0854  0.5473
 6926SOL    HW232241   3.891   3.530  12.267 -3.3904  0.6858  0.1309
 6927SOL     OW32242   2.059   3.138  11.101  0.3780  0.3225  0.6166
 6927SOL    HW132243   2.131   3.180  11.149 -1.7861  3.4359  1.0875
 6927SOL    HW232244   1.988   3.128  11.165 -0.7728  1.2606 -0.5216
 6928SOL     OW32245   3.204   4.685  13.821 -0.4871 -1.0935 -0.4626
 6928SOL    HW132246   3.277   0.020  13.813  0.1908 -2.1489 -2.5992
 6928SOL    HW232247   3.234   4.638  13.899 -1.6292  0.5619  0.9688
 6929SOL     OW32248   2.821   2.739   5.057  0.0885  0.3833  0.0974
 6929SOL    HW132249   2.899   2.755   5.005  1.4971 -0.8346  1.8177
 6929SOL    HW232250   2.753   2.724   4.991 -1.4251  0.5760  1.5773
 6930SOL     OW32251   4.241   2.774   8.520  0.5327 -0.0072 -0.4706
 6930SOL    HW132252   4.216   2.712   8.589 -0.1660  0.9966  0.1802
 6930SOL    HW232253   4.335   2.785   8.533  0.3458 -0.7574  1.5355
 6931SOL     OW32254   2.586   2.944  12.298 -0.2747  0.3812  0.2358
 6931SOL    HW132255   2.631   2.860  12.290  0.8051  1.0328 -0.5425
 6931SOL    HW232256   2.637   3.005  12.245  1.6093  0.3281  1.9717
 6932SOL     OW32257   3.453   0.204  12.435 -0.0996  0.5602  0.0439
 6932SOL    HW132258   3.417   0.151  12.506  0.0922  2.0117  1.2433
 6932SOL    HW232259   3.529   0.160  12.397 -0.3983  1.7087 -1.8668
 6933SOL     OW32260   1.301   2.430  11.626 -0.1367 -0.0474  0.6535
 6933SOL    HW132261   1.298   2.352  11.571  1.5567  0.5264 -0.2880
 6933SOL    HW232262   1.282   2.391  11.711 -2.2399 -1.5130 -0.4719
 6934SOL     OW32263   0.010   3.715   9.146 -0.0204 -0.1148  0.2694
 6934SOL    HW132264   0.057   3.764   9.079  0.4107  0.1180  0.7449
 6934SOL    HW232265   0.077   3.676   9.203 -0.4697 -0.6132  0.4618
 6935SOL     OW32266   2.395   0.126   0.602 -0.0975 -0.7958  0.4109
 6935SOL    HW132267   2.396   0.033   0.624  1.3291 -1.2437 -1.5094
 6935SOL    HW232268   2.406   0.162   0.691 -3.4305  0.3241  0.3770
 6936SOL     OW32269   1.457   3.468  15.047 -0.7727 -0.2112  0.3949
 6936SOL    HW132270   1.527   3.522  15.010 -0.5901  0.0788  1.1741
 6936SOL    HW232271   1.403   3.533  15.092 -2.7869 -0.9295 -0.9788
 6937SOL     OW32272   4.651   1.417   4.558  0.0958 -0.0394  0.3102
 6937SOL    HW132273   4.697   1.333   4.565  1.0147  0.2858 -1.9080
 6937SOL    HW232274   4.726   1.472   4.582  0.4411  0.3444 -1.5901
 6938SOL     OW32275   0.544   0.786  15.434  0.3292 -0.0982  0.5010
 6938SOL    HW132276   0.490   0.850  15.386  1.8916 -1.4433 -3.0569
 6938SOL    HW232277   0.611   0.761  15.370 -1.9279  1.6484 -2.5629
 6939SOL     OW32278   3.232   2.167   3.783  0.2391  0.0319 -0.7211
 6939SOL    HW132279   3.302   2.232   3.780 -0.1528  0.5263  0.8821
 6939SOL    HW232280   3.159   2.222   3.754 -1.0685 -0.5797  1.4279
 6940SOL     OW32281   0.452   1.277   6.942 -0.1365  0.1733 -0.4497
 6940SOL    HW132282   0.453   1.349   7.004 -3.4321  0.7174 -1.0031
 6940SOL    HW232283   0.531   1.225   6.958  0.9339  1.6708 -0.9392
 6941SOL     OW32284   3.319   1.937  14.300  0.0799  0.3940  0.5207
 6941SOL    HW132285   3.285   1.982  14.223  0.9224 -0.9581 -0.6256
 6941SOL    HW232286   3.244   1.927  14.359 -0.1586 -2.2590 -0.2547
 6942SOL     OW32287   0.112   2.485   8.692 -0.2510  0.2011 -0.1598
 6942SOL    HW132288   0.165   2.564   8.676  4.0240 -2.4693  0.9328
 6942SOL    HW232289   0.042   2.529   8.740  0.4242  2.2541 -1.0215
 6943SOL     OW32290   3.714   3.597   4.451 -0.2354 -0.3871  0.9044
 6943SOL    HW132291   3.785   3.617   4.391  0.1697 -3.6004  0.3445
 6943SOL    HW232292   3.756   3.575   4.534 -0.5614 -1.4159  0.7920
 6944SOL     OW32293   0.180   0.545   8.698  0.0223  0.1263 -0.5315
 6944SOL    HW132294   0.140   0.475   8.749  2.0877 -0.5494  0.1836
 6944SOL    HW232295   0.109   0.607   8.713  0.6056  1.1220 -1.9054
 6945SOL     OW32296   0.381   3.420   3.489  0.2586 -0.2100  0.3688
 6945SOL    HW132297   0.468   3.419   3.529  0.1558  2.3783  0.7022
 6945SOL    HW232298   0.326   3.464   3.554  1.6856  1.8323  0.2215
 6946SOL     OW32299   0.093   0.248  12.882  0.6698 -0.7218 -0.0036
 6946SOL    HW132300   0.016   0.193  12.867 -1.3297  2.1368 -0.3100
 6946SOL    HW232301   0.153   0.186  12.841  1.1877 -1.5341  1.9802
 6947SOL     OW32302   2.600   3.246   0.001 -0.5337 -0.0007 -0.1209
 6947SOL    HW132303   2.568   3.222  17.621 -1.3185 -0.2336  0.2349
 6947SOL    HW232304   2.531   3.215   0.059 -2.2995 -2.0279 -3.3060
 6948SOL     OW32305   1.154   1.132   4.136  0.3043  0.1007  0.2902
 6948SOL    HW132306   1.071   1.093   4.109  0.6509  0.1810 -0.8710
 6948SOL    HW232307   1.199   1.117   4.053  0.9291  0.8741  0.4869
 6949SOL     OW32308   2.838   4.271   5.248 -0.5628  0.6909 -0.0131
 6949SOL    HW132309   2.800   4.206   5.189 -0.8875 -0.8911  1.9549
 6949SOL    HW232310   2.925   4.230   5.250 -0.9282 -0.0287  1.4174
 6950SOL     OW32311   4.226   3.131  17.694 -0.4451  0.6478 -0.1590
 6950SOL    HW132312   4.167   3.207  17.691 -1.7040 -0.3404 -0.6671
 6950SOL    HW232313   4.285   3.171   0.051  0.2524  0.5981 -0.7758
 6951SOL     OW32314   2.387   1.298   5.996  0.3386 -0.1477 -0.1013
 6951SOL    HW132315   2.347   1.364   6.053  0.3618 -1.1021  1.0051
 6951SOL    HW232316   2.417   1.235   6.061 -1.0897  0.2534  0.9373
 6952SOL     OW32317   4.304   1.401   0.531 -1.2387  0.5345 -0.1291
 6952SOL    HW132318   4.374   1.454   0.491 -0.6338  0.2509  0.5619
 6952SOL    HW232319   4.235   1.467   0.538 -2.4825 -0.7850  0.0118
 6953SOL     OW32320   3.660   4.048   1.751  0.3433  0.2409  0.2810
 6953SOL    HW132321   3.619   3.987   1.812  0.9794 -0.9149 -0.4477
 6953SOL    HW232322   3.577   4.090   1.729 -1.2446 -0.9499  4.0291
 6954SOL     OW32323   0.595   1.431  10.399  0.1107 -0.2340 -0.2920
 6954SOL    HW132324   0.566   1.490  10.330  1.0632  1.8682  1.0964
 6954SOL    HW232325   0.595   1.343  10.361 -2.0914 -1.4034  2.3816
 6955SOL     OW32326   1.316   1.701  15.175  0.7512  0.1562  0.1513
 6955SOL    HW132327   1.408   1.725  15.176  0.7657  0.0689  0.7192
 6955SOL    HW232328   1.306   1.648  15.254  1.9814  0.1826  0.3263
 6956SOL     OW32329   2.527   3.313   7.268 -0.2013 -0.6184 -0.2651
 6956SOL    HW132330   2.618   3.325   7.241 -0.5458  1.3959 -0.5097
 6956SOL    HW232331   2.479   3.390   7.237  0.2706  0.4521  1.7295
 6957SOL     OW32332   3.886   2.106  14.427 -0.3035 -1.0080 -0.2326
 6957SOL    HW132333   3.817   2.100  14.493  1.6035 -2.7540  1.5874
 6957SOL    HW232334   3.837   2.058  14.360 -0.0972 -1.1819 -0.2580
 6958SOL     OW32335   3.304   3.543   7.935  0.3442 -0.6722  0.4772
 6958SOL    HW132336   3.249   3.566   8.010  0.8878  0.1715  0.6258
 6958SOL    HW232337   3.376   3.605   7.945  0.0745 -0.3864  0.6664
 6959SOL     OW32338   3.342   2.420   2.403 -0.0087 -0.4938 -0.2621
 6959SOL    HW132339   3.422   2.424   2.350  0.2421 -1.0380  0.0794
 6959SOL    HW232340   3.304   2.340   2.368  1.0283 -0.7567 -0.7890
 6960SOL     OW32341   1.686   1.414   6.652 -0.0166  0.1733  0.0996
 6960SOL    HW132342   1.689   1.420   6.748  0.5777  1.2490  0.0069
 6960SOL    HW232343   1.598   1.448   6.636  0.4947  0.2064 -2.6189
 6961SOL     OW32344   3.515   1.332   7.860 -0.4034 -0.1683  0.5584
 6961SOL    HW132345   3.587   1.278   7.892 -1.2408 -0.7523  1.4577
 6961SOL    HW232346   3.464   1.346   7.940 -0.4339 -0.1163  0.5296
 6962SOL     OW32347   1.332   2.988   1.950 -0.1179 -0.3846 -0.2790
 6962SOL    HW132348   1.239   2.966   1.951 -0.0436 -0.6942 -0.2581
 6962SOL    HW232349   1.365   2.946   2.030  1.0572 -2.3104 -1.7859
 6963SOL     OW32350   1.720   4.198   4.592  0.1478  0.1441  0.2983
 6963SOL    HW132351   1.672   4.147   4.527 -2.6909  0.6551  1.9649
 6963SOL    HW232352   1.812   4.182   4.574  0.4907  1.7072  0.6129
 6964SOL     OW32353   1.493   2.904   6.800 -0.5596  1.0491  0.0045
 6964SOL    HW132354   1.573   2.931   6.847  0.2962 -0.1338 -0.7903
 6964SOL    HW232355   1.439   2.978   6.829 -1.0976 -0.1631  2.0800
 6965SOL     OW32356   4.603   3.673   6.308 -0.6277  0.2623 -0.2563
 6965SOL    HW132357   4.693   3.647   6.329 -0.5795  0.7397  0.1472
 6965SOL    HW232358   4.543   3.642   6.375  1.5082 -1.1506  1.0076
 6966SOL     OW32359   4.623   3.440   5.795 -0.3834 -0.2513  0.2202
 6966SOL    HW132360   4.683   3.470   5.864 -1.7994  2.7449  0.1583
 6966SOL    HW232361   4.668   3.361   5.766  1.6244  2.0806 -3.1713
 6967SOL     OW32362   1.261   2.674  17.242 -0.6857 -0.1717  0.2473
 6967SOL    HW132363   1.166   2.670  17.235 -0.6075 -0.2098 -0.7180
 6967SOL    HW232364   1.297   2.682  17.154  0.4089 -0.2354  0.6908
 6968SOL     OW32365   1.275   4.299   5.429 -0.0847 -0.0316  0.2887
 6968SOL    HW132366   1.267   4.289   5.334 -2.0067  0.6372  0.3783
 6968SOL    HW232367   1.346   4.239   5.451 -1.3474 -1.5950  0.0587
 6969SOL     OW32368   0.777   2.819   2.997 -0.1414 -0.3395  0.3206
 6969SOL    HW132369   0.852   2.760   2.990 -1.6555 -2.2422 -0.1080
 6969SOL    HW232370   0.795   2.897   3.049 -0.9134 -0.7313  1.1684
 6970SOL     OW32371   2.210   4.622  11.025  0.0811  0.2342  0.2664
 6970SOL    HW132372   2.141   4.617  11.091  0.8407  0.6288  1.0909
 6970SOL    HW232373   2.265   4.684  11.073  1.5808  0.2156 -1.4321
 6971SOL     OW32374   1.975   0.033   8.476 -0.7834  0.6252 -0.2043
 6971SOL    HW132375   2.002   0.116   8.515  1.2998 -1.2658  2.4049
 6971SOL    HW232376   1.989   4.694   8.545 -0.1466  0.9001 -0.0738
 6972SOL     OW32377   3.973   3.256  11.548  0.2279 -0.5003 -0.6338
 6972SOL    HW132378   4.045   3.251  11.486  0.0516 -1.5273 -0.7645
 6972SOL    HW232379   3.925   3.191  11.496  2.4232 -2.2404 -0.4736
 6973SOL     OW32380   0.414   0.816   6.926  0.2079 -0.1831  0.3973
 6973SOL    HW132381   0.441   0.786   6.840  0.6163  2.7326 -0.4981
 6973SOL    HW232382   0.382   0.902   6.899  1.7582  1.2754  3.2015
 6974SOL     OW32383   1.502   3.650   7.424 -0.1695 -0.6481  0.6337
 6974SOL    HW132384   1.538   3.707   7.491 -1.1924  0.9298 -0.1402
 6974SOL    HW232385   1.555   3.571   7.428  0.0186 -0.6059 -0.9686
 6975SOL     OW32386   1.057   4.432   2.951  0.6105 -0.0477  0.2427
 6975SOL    HW132387   1.115   4.358   2.968 -0.2355 -0.6631  0.4536
 6975SOL    HW232388   1.017   4.428   2.864 -3.0363 -0.6197  1.8939
 6976SOL     OW32389   2.597   2.850   1.385 -0.0340 -0.1403  0.0300
 6976SOL    HW132390   2.654   2.778   1.356  0.3749  1.3047 -2.7492
 6976SOL    HW232391   2.513   2.825   1.345 -1.1331  1.9669  1.0619
 6977SOL     OW32392   2.655   0.132   6.501 -0.2074 -0.5413 -0.2137
 6977SOL    HW132393   2.709   0.180   6.438  2.0059 -1.9548  0.6068
 6977SOL    HW232394   2.616   0.066   6.445 -0.7205  0.8025 -1.4419
 6978SOL     OW32395   3.723   4.388  12.156  0.6239  0.1870 -0.4435
 6978SOL    HW132396   3.639   4.425  12.184  0.7108  0.3840 -0.4500
 6978SOL    HW232397   3.717   4.300  12.195 -1.4676 -0.5601 -2.4449
 6979SOL     OW32398   2.481   0.574  17.526  0.2219  0.2352 -0.1824
 6979SOL    HW132399   2.496   0.534  17.612  1.7545 -0.9304 -0.9951
 6979SOL    HW232400   2.397   0.614  17.548  0.7139  0.9304  0.4720
 6980SOL     OW32401   3.600   0.037   4.579  0.1819 -0.3069  0.2215
 6980SOL    HW132402   3.649   4.724   4.507  0.4713 -2.4640  1.6011
 6980SOL    HW232403   3.515   0.037   4.536  0.7375 -0.0947 -0.8905
 6981SOL     OW32404   2.689   3.698  14.300  0.3372  0.3969  0.0896
 6981SOL    HW132405   2.650   3.784  14.286  1.6730  0.7939 -1.2725
 6981SOL    HW232406   2.615   3.645  14.274  0.4015  0.3828 -0.0657
 6982SOL     OW32407   1.878   2.804   7.024  0.3882 -0.3436 -0.1041
 6982SOL    HW132408   1.920   2.874   7.073 -2.6117  2.2400 -1.2470
 6982SOL    HW232409   1.797   2.798   7.075  0.4227  1.2267  0.1314
 6983SOL     OW32410   3.167   1.205   1.499  0.2029  0.2275 -0.1600
 6983SOL    HW132411   3.162   1.209   1.595 -3.2371  0.0933 -0.3259
 6983SOL    HW232412   3.077   1.225   1.472 -0.1146  0.9558  1.4025
 6984SOL     OW32413   2.738   0.164   7.183 -0.9865 -0.4665 -0.1169
 6984SOL    HW132414   2.658   0.176   7.234 -1.0667 -0.1362 -0.3210
 6984SOL    HW232415   2.782   0.093   7.230  1.4289  2.0198  1.3721
 6985SOL     OW32416   2.696   2.052   5.667 -0.9510  0.1494  0.1302
 6985SOL    HW132417   2.713   2.089   5.581 -0.7634 -0.1186  0.0521
 6985SOL    HW232418   2.688   2.130   5.722  0.6982  0.3364  0.1194
 6986SOL     OW32419   3.424   1.927   3.920 -0.4331  0.0085  0.0347
 6986SOL    HW132420   3.349   1.898   3.866 -0.4354 -1.8825  1.0647
 6986SOL    HW232421   3.494   1.929   3.855  1.7098 -1.8221  2.3418
 6987SOL     OW32422   2.893   1.118   9.741 -0.2324  1.0131  0.5243
 6987SOL    HW132423   2.884   1.183   9.811 -1.1456  1.0715  0.3531
 6987SOL    HW232424   2.955   1.162   9.684 -0.0029  1.2880  0.9850
 6988SOL     OW32425   2.793   1.980   4.153  0.2869 -0.4073 -1.2294
 6988SOL    HW132426   2.700   2.004   4.160  0.7679  1.3604 -0.9354
 6988SOL    HW232427   2.831   2.066   4.168 -1.2448  0.2857 -1.2410
 6989SOL     OW32428   4.338   0.895   5.252  0.0023  0.0280  0.4788
 6989SOL    HW132429   4.293   0.968   5.207  0.6382  1.3706  2.0312
 6989SOL    HW232430   4.331   0.928   5.341  1.2307 -0.7947  0.8691
 6990SOL     OW32431   4.305   1.707   0.631  0.1198 -0.2088  0.2221
 6990SOL    HW132432   4.296   1.768   0.704 -3.7669 -1.0814  0.4748
 6990SOL    HW232433   4.243   1.642   0.663  0.1367 -0.5120 -0.3478
 6991SOL     OW32434   4.267   1.992   5.069 -0.3825  0.7693  0.0281
 6991SOL    HW132435   4.287   2.080   5.100 -0.9785 -0.2399  3.2074
 6991SOL    HW232436   4.224   1.947   5.142 -0.5910  0.5604 -0.2221
 6992SOL     OW32437   0.886   3.874   3.841  0.0198 -0.2747 -0.4729
 6992SOL    HW132438   0.965   3.851   3.793  0.5866 -0.6785  0.6394
 6992SOL    HW232439   0.880   3.799   3.900 -2.4378 -1.5829 -2.3992
 6993SOL     OW32440   4.305   1.316   9.052 -0.1915 -0.4915 -0.1490
 6993SOL    HW132441   4.254   1.368   9.114 -3.2780 -2.1983 -1.2718
 6993SOL    HW232442   4.391   1.331   9.090 -0.8063  2.7817 -0.0164
 6994SOL     OW32443   1.442   3.175   1.654 -0.8084 -0.0215 -0.4763
 6994SOL    HW132444   1.515   3.179   1.592 -0.0884 -2.0115  0.2495
 6994SOL    HW232445   1.369   3.228   1.620 -2.3222 -1.8896 -0.1536
 6995SOL     OW32446   1.957   1.447   2.614  0.8479 -0.0317 -0.0696
 6995SOL    HW132447   1.876   1.482   2.576  0.5056  0.5085  1.1464
 6995SOL    HW232448   1.981   1.524   2.665 -0.5498 -0.2352  0.9191
 6996SOL     OW32449   2.141   3.548   8.813 -0.3475  0.8760 -0.3457
 6996SOL    HW132450   2.166   3.619   8.754  1.9717  0.2729 -0.0845
 6996SOL    HW232451   2.142   3.591   8.899 -0.5643  1.0138 -0.4118
 6997SOL     OW32452   4.058   1.107   6.470 -0.0873 -0.2403 -0.5818
 6997SOL    HW132453   4.148   1.125   6.496 -0.2606  1.9357 -1.5064
 6997SOL    HW232454   4.033   1.195   6.441  2.6740  0.4799 -0.8042
 6998SOL     OW32455   2.339   0.414   4.486  0.6548 -0.4595  0.4419
 6998SOL    HW132456   2.386   0.384   4.564  0.3714  2.7661  1.8292
 6998SOL    HW232457   2.288   0.481   4.531 -0.8132 -1.3862  0.1595
 6999SOL     OW32458   3.704   2.383  16.447 -0.3847  0.1285 -0.1530
 6999SOL    HW132459   3.723   2.441  16.520  0.9206 -0.2490 -0.2010
 6999SOL    HW232460   3.624   2.426  16.417  2.1309  4.5276 -0.5828
 7000SOL     OW32461   3.109   4.504   6.363  0.0009 -0.1273  0.0169
 7000SOL    HW132462   3.142   4.585   6.325 -1.5999  0.0792 -0.9196
 7000SOL    HW232463   3.164   4.499   6.441  1.8213 -0.2833 -1.2873
 7001SOL     OW32464   2.427   2.017   9.697 -0.4449 -1.0916 -0.3007
 7001SOL    HW132465   2.482   1.943   9.674  0.1143 -1.0851  1.0119
 7001SOL    HW232466   2.351   1.973   9.735 -0.8978 -0.2908 -0.2631
 7002SOL     OW32467   2.815   3.570  12.443 -0.3842  0.6777  0.0034
 7002SOL    HW132468   2.736   3.519  12.461  1.1469 -0.5695  3.3039
 7002SOL    HW232469   2.807   3.647  12.499 -1.5670 -0.8234  1.9169
 7003SOL     OW32470   0.436   4.382   0.271  0.2704 -0.3309 -0.1616
 7003SOL    HW132471   0.477   4.308   0.315  1.2474  1.1062  1.3635
 7003SOL    HW232472   0.397   4.330   0.201  0.8156 -0.4614 -0.3733
 7004SOL     OW32473   3.919   0.901   9.914 -0.5536  0.1274  0.6095
 7004SOL    HW132474   3.900   0.862   9.999 -3.2007 -1.0360 -0.5077
 7004SOL    HW232475   3.832   0.900   9.874 -0.4500 -0.3798  0.3928
 7005SOL     OW32476   3.781   0.052   3.201  0.5381 -0.4422  0.1001
 7005SOL    HW132477   3.696   0.011   3.218 -0.0433 -0.8269 -3.7806
 7005SOL    HW232478   3.778   0.137   3.244  1.6114 -0.7387  0.7519
 7006SOL     OW32479   4.493   0.525   2.755  0.1348 -0.1243 -0.1977
 7006SOL    HW132480   4.475   0.619   2.750  1.2489  0.0673 -0.5465
 7006SOL    HW232481   4.438   0.496   2.828  1.3537 -0.6708  0.4983
 7007SOL     OW32482   1.673   4.393   3.872 -0.1513  0.6956 -0.3473
 7007SOL    HW132483   1.748   4.391   3.931 -0.1825 -1.7368 -0.3647
 7007SOL    HW232484   1.724   4.390   3.791  0.6545  1.7258  0.1242
 7008SOL     OW32485   0.071   0.390   8.891 -0.7085  0.5364 -0.5788
 7008SOL    HW132486   4.719   0.336   8.901 -1.3194  1.2438 -1.5245
 7008SOL    HW232487   0.055   0.438   8.972 -2.6965  0.3108 -0.8218
 7009SOL     OW32488   3.473   0.416   7.979  0.1523  0.0583  0.2310
 7009SOL    HW132489   3.397   0.458   7.938 -1.1453 -1.1969  1.3346
 7009SOL    HW232490   3.541   0.452   7.922 -0.8248  2.4031  0.5381
 7010SOL     OW32491   3.261   2.775  16.403  0.7910 -0.0473  0.1441
 7010SOL    HW132492   3.207   2.776  16.325  0.5481  1.6978  0.3458
 7010SOL    HW232493   3.202   2.763  16.477  3.0745 -0.7755  1.8650
 7011SOL     OW32494   1.099   1.624  15.673  0.3828 -0.4115 -0.1821
 7011SOL    HW132495   1.127   1.533  15.689 -0.6660 -0.4618  1.4446
 7011SOL    HW232496   1.051   1.644  15.754  0.5887 -2.6269  0.5085
 7012SOL     OW32497   4.322   2.096  13.458 -0.1250 -0.7230  0.0178
 7012SOL    HW132498   4.366   2.159  13.515 -0.0324 -0.0217 -0.8271
 7012SOL    HW232499   4.386   2.026  13.469  1.3126  0.7529  1.0731
 7013SOL     OW32500   2.057   2.928  10.098 -0.2593  0.1163  0.5142
 7013SOL    HW132501   2.059   2.838  10.065  0.6758 -0.5398  2.3826
 7013SOL    HW232502   1.971   2.960  10.069  0.1477  0.2023 -0.5999
 7014SOL     OW32503   2.177   2.757  17.518 -0.1547 -0.3054  0.1116
 7014SOL    HW132504   2.122   2.813  17.464 -1.8063  0.9316  3.0443
 7014SOL    HW232505   2.156   2.784  17.608 -1.4227 -0.5696 -0.0963
 7015SOL     OW32506   3.127   3.283   0.120  0.4439 -0.1033 -0.1486
 7015SOL    HW132507   3.120   3.376   0.141  0.1027 -0.1789  0.0661
 7015SOL    HW232508   3.090   3.246   0.200  0.7207 -1.4123 -0.6272
 7016SOL     OW32509   0.381   2.174   5.334  0.4336  0.4114 -0.4527
 7016SOL    HW132510   0.462   2.199   5.378 -0.4248 -0.4729  1.6115
 7016SOL    HW232511   0.336   2.128   5.404 -2.2993  1.5512 -1.4612
 7017SOL     OW32512   2.263   0.192   2.644 -0.7784 -0.2402 -0.5002
 7017SOL    HW132513   2.352   0.198   2.678 -1.9064 -2.4887  2.9523
 7017SOL    HW232514   2.246   0.097   2.647 -2.3902  0.0623 -0.2738
 7018SOL     OW32515   1.122   0.208   5.789 -0.2395  0.8491 -0.0322
 7018SOL    HW132516   1.131   0.146   5.717 -1.6333  0.3812  0.1824
 7018SOL    HW232517   1.165   0.164   5.862  0.6250  2.8754  0.6684
 7019SOL     OW32518   2.267   0.602   6.834 -0.4439  0.5258  0.1180
 7019SOL    HW132519   2.317   0.624   6.755  0.0932  0.1379  0.3512
 7019SOL    HW232520   2.293   0.675   6.889  1.1520  0.4418 -0.5359
 7020SOL     OW32521   2.362   3.414   3.662  0.1898 -0.5032 -0.5407
 7020SOL    HW132522   2.391   3.483   3.603 -0.5476  0.6702  0.4609
 7020SOL    HW232523   2.415   3.433   3.740 -1.6934  2.9803 -0.1462
 7021SOL     OW32524   4.420   0.432   5.153  0.2588  0.1126 -0.2203
 7021SOL    HW132525   4.431   0.517   5.195 -1.7497  0.4558 -0.3877
 7021SOL    HW232526   4.397   0.376   5.227  2.0462 -0.6664 -0.2620
 7022SOL     OW32527   0.059   1.464   0.409  0.1251 -0.1890  0.5198
 7022SOL    HW132528   0.139   1.454   0.359 -1.4109  0.7181 -2.1494
 7022SOL    HW232529   0.085   1.445   0.499 -0.4921  0.3561  0.8191
 7023SOL     OW32530   1.554   2.165   6.423 -0.2026  0.0613 -0.3468
 7023SOL    HW132531   1.532   2.104   6.353 -0.6730  1.0289 -1.0558
 7023SOL    HW232532   1.611   2.225   6.375  0.6690  0.7705  1.5797
 7024SOL     OW32533   2.307   4.346   2.738 -0.0024 -0.4978 -0.0028
 7024SOL    HW132534   2.247   4.324   2.809  1.4105 -3.1850  0.3553
 7024SOL    HW232535   2.270   4.428   2.706  1.2737  0.2101  0.3026
 7025SOL     OW32536   2.290   4.044   7.400 -0.0948 -0.1507 -0.8708
 7025SOL    HW132537   2.270   4.137   7.386 -2.7428 -0.4675  0.9524
 7025SOL    HW232538   2.383   4.047   7.423 -0.2294 -3.2819 -0.0128
 7026SOL     OW32539   3.526   2.884   8.948  0.0109  0.1283  0.6413
 7026SOL    HW132540   3.542   2.938   8.870 -0.1227  0.2804  0.7207
 7026SOL    HW232541   3.440   2.847   8.929 -0.0497  1.0133 -0.8268
 7027SOL     OW32542   3.634   0.334   7.587 -0.3969  0.3336  0.5880
 7027SOL    HW132543   3.668   0.405   7.533  0.7520 -0.2686  0.5143
 7027SOL    HW232544   3.555   0.377   7.620 -2.5205 -1.9077 -1.4826
 7028SOL     OW32545   3.769   3.462   7.045 -0.4661 -0.3988  0.2785
 7028SOL    HW132546   3.793   3.371   7.064 -1.5747 -0.0342  3.5081
 7028SOL    HW232547   3.711   3.479   7.119 -1.1123 -0.5502 -0.1901
 7029SOL     OW32548   4.096   4.628  15.673  0.0411 -0.6387 -0.1699
 7029SOL    HW132549   4.044   4.700  15.707 -0.8164 -0.5030 -1.7711
 7029SOL    HW232550   4.044   4.602  15.597  0.3506  1.2772 -1.0235
 7030SOL     OW32551   3.438   0.290   9.137  0.2807 -0.2402 -0.4552
 7030SOL    HW132552   3.475   0.302   9.225 -0.6899  1.6298 -0.3041
 7030SOL    HW232553   3.523   0.267   9.100  0.2451 -1.0490 -0.0363
 7031SOL     OW32554   2.034   2.130  13.929  0.3376 -0.2605  0.3753
 7031SOL    HW132555   1.972   2.156  13.997  1.9320  1.5246  1.1091
 7031SOL    HW232556   2.092   2.206  13.929  0.2395 -0.1871  0.8443
 7032SOL     OW32557   3.563   2.486   5.344 -0.2892 -0.0207 -0.0883
 7032SOL    HW132558   3.566   2.551   5.274  0.5798 -0.3185 -0.3355
 7032SOL    HW232559   3.654   2.465   5.365 -0.8653  0.5205  2.9924
 7033SOL     OW32560   2.769   1.845   2.190  0.1478 -0.6311  0.5487
 7033SOL    HW132561   2.686   1.861   2.235 -0.4973  0.6827 -1.1205
 7033SOL    HW232562   2.814   1.928   2.208  0.9921 -0.7409 -1.0679
 7034SOL     OW32563   1.733   1.203   2.418 -0.1848 -0.1940 -0.0093
 7034SOL    HW132564   1.686   1.119   2.421 -1.1034  0.3309  0.2444
 7034SOL    HW232565   1.825   1.177   2.420 -0.6831 -1.9799 -0.3749
 7035SOL     OW32566   0.229   4.521   7.806 -0.2101 -0.2844 -0.2558
 7035SOL    HW132567   0.171   4.465   7.858 -0.8410 -0.7437 -1.4632
 7035SOL    HW232568   0.259   4.468   7.732 -1.7594  0.3750 -1.3259
 7036SOL     OW32569   3.066   2.703   4.926  0.2337 -0.0525  0.1628
 7036SOL    HW132570   3.121   2.662   4.860  0.5843 -0.5615  0.7748
 7036SOL    HW232571   3.030   2.773   4.871 -0.6117 -0.6669 -0.0484
 7037SOL     OW32572   4.596   2.165  10.377  0.1275  0.1598 -0.1989
 7037SOL    HW132573   4.513   2.159  10.329 -0.1498  2.4570 -0.0084
 7037SOL    HW232574   4.638   2.089  10.337 -0.9288  0.0797 -1.1450
 7038SOL     OW32575   0.131   1.884   0.672 -0.6673 -0.2523  0.3312
 7038SOL    HW132576   0.058   1.946   0.666  2.8255  3.5398 -2.6339
 7038SOL    HW232577   0.110   1.851   0.759  0.9725 -0.4906  0.6354
 7039SOL     OW32578   0.932   2.912   3.540  0.1148  0.1410  0.0209
 7039SOL    HW132579   0.990   2.844   3.572  0.5856  0.7626  0.4733
 7039SOL    HW232580   0.855   2.862   3.513  0.7893 -1.9350  1.9644
 7040SOL     OW32581   2.442   3.033   0.752  0.1178 -0.1137  0.0485
 7040SOL    HW132582   2.493   3.081   0.817  0.8758  0.1826 -0.7574
 7040SOL    HW232583   2.406   2.965   0.809 -1.0113  0.0316 -0.4882
 7041SOL     OW32584   0.505   2.892   4.223 -1.2049 -0.1877  0.3724
 7041SOL    HW132585   0.542   2.920   4.307 -0.4359 -1.2163  0.3750
 7041SOL    HW232586   0.455   2.970   4.199 -0.1755 -0.4351 -2.5599
 7042SOL     OW32587   1.406   1.328   5.316  0.0759  0.0086 -0.1429
 7042SOL    HW132588   1.379   1.374   5.396 -2.1178 -0.4425 -0.6298
 7042SOL    HW232589   1.409   1.236   5.344 -1.7158 -0.1600 -0.4667
 7043SOL     OW32590   2.623   1.133   9.603  0.4942  0.4928  0.3623
 7043SOL    HW132591   2.680   1.096   9.670  0.8035  0.5549  0.1345
 7043SOL    HW232592   2.666   1.110   9.521  1.3745  1.7461  0.4779
 7044SOL     OW32593   2.671   1.593   7.096 -0.0350  0.4784 -0.1759
 7044SOL    HW132594   2.733   1.649   7.049 -0.2445 -0.1734 -1.2256
 7044SOL    HW232595   2.687   1.609   7.189 -0.0032 -1.4203  0.1440
 7045SOL     OW32596   1.129   1.584   4.215  0.6350 -0.1571  0.4622
 7045SOL    HW132597   1.188   1.508   4.207  0.5508 -0.0868 -0.7937
 7045SOL    HW232598   1.135   1.630   4.131  0.1219  0.1615  0.6015
 7046SOL     OW32599   0.382   1.523   2.983  0.2298  0.8010  0.0540
 7046SOL    HW132600   0.336   1.590   3.033  0.7399  2.4307 -1.6658
 7046SOL    HW232601   0.312   1.469   2.947 -0.0517  1.7663 -0.8295
 7047SOL     OW32602   1.039   3.482   5.436 -0.1976 -0.2301 -0.4415
 7047SOL    HW132603   1.125   3.477   5.396 -0.4258 -1.7248 -0.7228
 7047SOL    HW232604   1.062   3.448   5.522 -1.6221  1.4134  0.6105
 7048SOL     OW32605   0.662   0.431  16.113  0.9107 -0.6177 -0.1788
 7048SOL    HW132606   0.668   0.335  16.110 -2.6931 -1.0114  4.1043
 7048SOL    HW232607   0.749   0.441  16.076  0.6621  1.5789 -0.1423
 7049SOL     OW32608   4.092   2.462   2.944 -0.0798 -0.1304  0.5404
 7049SOL    HW132609   4.059   2.376   2.968  2.1869 -1.2423 -0.3329
 7049SOL    HW232610   4.087   2.455   2.849  0.7683  0.7410  0.4321
 7050SOL     OW32611   0.741   3.817   7.366  0.3168 -0.5396  0.1579
 7050SOL    HW132612   0.682   3.864   7.426 -2.4341 -1.4839 -1.7967
 7050SOL    HW232613   0.683   3.825   7.291  1.0070  0.2382 -0.2845
 7051SOL     OW32614   2.348   3.507  15.331 -0.2362  0.2376  0.0940
 7051SOL    HW132615   2.362   3.415  15.354  0.0442  0.7061  1.7685
 7051SOL    HW232616   2.415   3.512  15.263 -2.2269  1.6017 -1.7744
 7052SOL     OW32617   3.086   1.072   2.072 -0.1064  0.0282 -0.1206
 7052SOL    HW132618   3.038   0.994   2.049  1.5664 -1.0175 -0.0774
 7052SOL    HW232619   3.009   1.129   2.078 -1.4043 -1.5949 -1.6974
 7053SOL     OW32620   0.733   4.377   3.608 -0.0707 -0.5821 -0.5262
 7053SOL    HW132621   0.795   4.310   3.639 -0.5559 -0.1857  1.2893
 7053SOL    HW232622   0.729   4.441   3.679 -0.7749 -1.3053  0.0762
 7054SOL     OW32623   0.576   1.732  10.584  0.1305  0.0923  0.0253
 7054SOL    HW132624   0.612   1.651  10.547 -0.0539  0.9740 -2.0816
 7054SOL    HW232625   0.493   1.700  10.619 -0.6721  1.9612 -0.1581
 7055SOL     OW32626   1.670   1.755   6.415 -0.0123  0.2229  0.4063
 7055SOL    HW132627   1.663   1.713   6.329  1.5432 -0.9596  0.8602
 7055SOL    HW232628   1.597   1.706   6.451 -0.8550  0.0078 -1.5799
 7056SOL     OW32629   3.999   2.647   6.335 -0.5585 -0.0009  0.0292
 7056SOL    HW132630   3.911   2.684   6.325 -1.0343 -0.0470  4.0187
 7056SOL    HW232631   4.049   2.727   6.349 -0.9040  0.1200  0.5795
 7057SOL     OW32632   0.552   1.444   6.732  0.5918 -0.2354  0.2864
 7057SOL    HW132633   0.573   1.386   6.806 -1.6980 -1.0641  0.2988
 7057SOL    HW232634   0.459   1.464   6.744  0.6184  0.9034 -1.4162
 7058SOL     OW32635   0.426   4.402   1.377 -0.4499  0.1420  0.1156
 7058SOL    HW132636   0.351   4.373   1.325 -1.0204  2.6060 -0.4125
 7058SOL    HW232637   0.376   4.429   1.454  2.3310  0.3433  1.8157
 7059SOL     OW32638   0.706   2.571   3.319  0.5750 -0.0275 -0.9114
 7059SOL    HW132639   0.761   2.502   3.356  1.1790 -0.9295 -3.4394
 7059SOL    HW232640   0.705   2.545   3.227 -2.2680  0.4014 -1.0021
 7060SOL     OW32641   4.406   0.538   1.439  0.4971  0.1883 -0.3461
 7060SOL    HW132642   4.450   0.560   1.357 -0.0837 -2.8726 -1.4536
 7060SOL    HW232643   4.397   0.625   1.479  0.8338 -0.5699  1.3846
 7061SOL     OW32644   2.485   2.075   7.737 -0.2281  0.2022 -0.2892
 7061SOL    HW132645   2.484   1.999   7.796 -1.3100 -0.5128 -1.2186
 7061SOL    HW232646   2.396   2.075   7.703  0.2775  0.3949 -1.6416
 7062SOL     OW32647   2.512   4.119  17.274  0.4780  0.2160 -0.0968
 7062SOL    HW132648   2.453   4.044  17.282  0.1102  0.5400  0.2399
 7062SOL    HW232649   2.566   4.097  17.350 -0.7299  1.5188  1.1422
 7063SOL     OW32650   2.688   0.792   3.317  0.0017 -0.4504  0.1881
 7063SOL    HW132651   2.682   0.760   3.408 -1.5163 -2.5101 -0.6269
 7063SOL    HW232652   2.733   0.718   3.277 -1.1435 -0.9199 -0.2132
 7064SOL     OW32653   1.338   2.191  15.825 -0.6558  0.0999  0.3442
 7064SOL    HW132654   1.407   2.252  15.852  0.8056 -0.6780 -1.6845
 7064SOL    HW232655   1.277   2.258  15.793 -0.7236  1.0070  2.3117
 7065SOL     OW32656   2.820   0.022  16.689  0.3904 -0.1875 -0.4132
 7065SOL    HW132657   2.864   0.050  16.608 -1.0427 -1.0068 -1.4755
 7065SOL    HW232658   2.841   0.091  16.752  0.2094 -1.1817  0.7411
 7066SOL     OW32659   3.002   3.670   8.938 -0.3336 -0.1504  0.3982
 7066SOL    HW132660   2.935   3.611   8.904 -0.6314  0.4442 -0.0494
 7066SOL    HW232661   2.951   3.746   8.967 -0.5427  0.0695 -0.5479
 7067SOL     OW32662   2.776   0.412  11.720  0.3992  0.3937 -0.0578
 7067SOL    HW132663   2.785   0.483  11.784  1.0580  1.8102 -1.7114
 7067SOL    HW232664   2.850   0.359  11.750  1.7224  1.0757 -2.0826
 7068SOL     OW32665   3.115   4.248   6.328  0.5776 -0.0706  0.2276
 7068SOL    HW132666   3.038   4.209   6.370  2.1495 -1.5348  1.7696
 7068SOL    HW232667   3.097   4.342   6.324  0.1390 -0.0917  1.6662
 7069SOL     OW32668   4.300   1.476   6.890 -0.4458 -0.5094  0.3380
 7069SOL    HW132669   4.307   1.571   6.878  2.5001 -0.7242  0.2708
 7069SOL    HW232670   4.245   1.484   6.968  0.3840  2.8497  0.6068
 7070SOL     OW32671   2.510   3.820   8.577  0.0331  0.3256  0.4335
 7070SOL    HW132672   2.510   3.765   8.498  2.1231 -2.2703  2.2478
 7070SOL    HW232673   2.597   3.858   8.573 -0.0327  0.3631 -0.6225
 7071SOL     OW32674   4.099   3.882   2.255  0.3157  0.9490 -0.3062
 7071SOL    HW132675   4.051   3.936   2.192  1.4085 -2.1362 -3.7540
 7071SOL    HW232676   4.188   3.890   2.220 -0.2312 -0.2418 -1.9271
 7072SOL     OW32677   4.141   3.217   3.686  0.5155 -0.2107  0.2779
 7072SOL    HW132678   4.058   3.173   3.671  0.8564 -0.5089 -0.6729
 7072SOL    HW232679   4.189   3.221   3.604 -0.7712 -0.2098 -0.4613
 7073SOL     OW32680   1.790   1.895   9.655 -0.4160  0.1120  0.0664
 7073SOL    HW132681   1.749   1.948   9.587 -1.7834 -1.4421 -0.3228
 7073SOL    HW232682   1.862   1.853   9.609  0.6779  1.5842  0.4402
 7074SOL     OW32683   3.243   1.993  15.680 -0.2033  0.0735  0.0407
 7074SOL    HW132684   3.198   1.987  15.764  0.6977 -2.4912  0.3384
 7074SOL    HW232685   3.172   2.015  15.620 -0.8835 -1.1543  0.3771
 7075SOL     OW32686   4.120   0.537   8.531  0.3449  0.0963  0.2923
 7075SOL    HW132687   4.083   0.454   8.499 -0.1864  0.6550 -0.5413
 7075SOL    HW232688   4.206   0.526   8.491  0.1281  1.6181 -0.6044
 7076SOL     OW32689   2.418   0.047  12.243 -0.0130  0.7015 -0.1319
 7076SOL    HW132690   2.512   0.027  12.245 -0.7585 -3.0306 -1.8977
 7076SOL    HW232691   2.397   0.048  12.149 -0.9619  3.2055  0.1226
 7077SOL     OW32692   1.607   4.394   2.954 -0.2557  0.2774  0.3277
 7077SOL    HW132693   1.690   4.437   2.976 -1.5067  2.5952  0.4929
 7077SOL    HW232694   1.573   4.451   2.885 -1.2759  0.1540  0.7272
 7078SOL     OW32695   1.343   2.632   7.026  0.4644  0.1615  0.6754
 7078SOL    HW132696   1.286   2.675   6.962  0.2145  0.7351  1.2848
 7078SOL    HW232697   1.348   2.545   6.986 -1.0407  0.0380  0.7718
 7079SOL     OW32698   0.497   3.066   2.780 -0.2178 -0.3626  0.0687
 7079SOL    HW132699   0.536   3.104   2.858 -0.0258 -2.3629  0.9459
 7079SOL    HW232700   0.470   2.983   2.820  0.2147 -0.3710  0.3377
 7080SOL     OW32701   1.323   0.489   4.296  0.1037  0.8420 -0.3226
 7080SOL    HW132702   1.292   0.571   4.257 -0.5369 -0.2315 -2.0874
 7080SOL    HW232703   1.323   0.424   4.226  1.1460  1.3035 -0.7499
 7081SOL     OW32704   2.329   3.220   4.880  0.0703 -0.4757  0.6999
 7081SOL    HW132705   2.382   3.274   4.821  0.2846 -1.2737  0.1646
 7081SOL    HW232706   2.384   3.142   4.884  0.7241 -0.1567 -2.1712
 7082SOL     OW32707   0.461   2.586  15.709  0.2588 -0.3019 -0.2326
 7082SOL    HW132708   0.440   2.597  15.802  1.8899  0.6322  0.0181
 7082SOL    HW232709   0.460   2.491  15.695 -1.3535 -0.2075 -0.8298
 7083SOL     OW32710   2.931   3.626   5.818 -0.3706 -0.1214 -0.2919
 7083SOL    HW132711   2.933   3.701   5.877 -0.8619 -1.3686  1.2936
 7083SOL    HW232712   2.856   3.654   5.766 -1.5469 -1.5405  0.6400
 7084SOL     OW32713   1.535   2.584  11.586 -0.3180  0.2314 -0.1746
 7084SOL    HW132714   1.448   2.549  11.567 -0.1599 -0.4529  0.3890
 7084SOL    HW232715   1.520   2.610  11.677 -0.0794  0.0689 -0.0893
 7085SOL     OW32716   4.405   1.321   4.118 -0.1071  0.2099  0.5433
 7085SOL    HW132717   4.331   1.261   4.115 -1.5310  1.9138  1.5525
 7085SOL    HW232718   4.377   1.381   4.188  0.0576  0.1161  0.6897
 7086SOL     OW32719   3.735   2.613   4.193  0.0922 -0.0735 -0.5544
 7086SOL    HW132720   3.725   2.707   4.183  0.1807 -0.1393 -1.2791
 7086SOL    HW232721   3.713   2.579   4.106  0.5745 -0.8311 -0.3824
 7087SOL     OW32722   0.934   3.325  16.096  0.0779  0.1102 -0.8748
 7087SOL    HW132723   0.871   3.284  16.155 -1.0218  1.1858 -1.2953
 7087SOL    HW232724   1.017   3.327  16.143 -1.8300 -0.4379  2.4750
 7088SOL     OW32725   2.412   1.671   3.413  0.5939  0.6236  0.2442
 7088SOL    HW132726   2.451   1.702   3.332 -0.7296 -0.5455 -0.8362
 7088SOL    HW232727   2.323   1.700   3.391 -0.1495 -0.9411  1.1849
 7089SOL     OW32728   4.095   1.056   1.731  0.0068  0.1222 -0.4525
 7089SOL    HW132729   4.126   1.078   1.643 -0.2016  0.7026 -0.3768
 7089SOL    HW232730   4.118   0.963   1.732  0.8138  0.3189 -0.6625
 7090SOL     OW32731   0.756   1.958  17.101  0.0107 -0.5905  0.3266
 7090SOL    HW132732   0.847   1.939  17.077 -0.1644 -0.0315 -0.7909
 7090SOL    HW232733   0.737   1.889  17.165 -2.3675  0.9013  1.2211
 7091SOL     OW32734   0.572   1.652   8.953 -0.2150 -0.1544  0.0597
 7091SOL    HW132735   0.478   1.655   8.932  0.0165 -1.1552 -1.1750
 7091SOL    HW232736   0.575   1.575   9.010 -0.8817 -0.8844 -0.8723
 7092SOL     OW32737   0.460   2.904   9.205 -0.7514  0.1803 -0.2984
 7092SOL    HW132738   0.427   2.840   9.268  0.2696 -0.6741 -0.6249
 7092SOL    HW232739   0.553   2.913   9.223 -0.9762 -0.1269  1.0191
 7093SOL     OW32740   2.176   3.155   7.208  0.3389 -0.1023 -0.1924
 7093SOL    HW132741   2.175   3.248   7.231 -1.1230 -0.4843  1.2875
 7093SOL    HW232742   2.243   3.157   7.140 -0.5473  2.5724 -0.9910
 7094SOL     OW32743   0.521   3.848  12.474  0.2970 -0.1114  0.1844
 7094SOL    HW132744   0.492   3.763  12.441  0.8545 -0.1954 -0.1017
 7094SOL    HW232745   0.595   3.824  12.531 -0.9081  0.1957  1.8868
 7095SOL     OW32746   2.097   0.566  16.079 -0.8043 -0.1604  0.2721
 7095SOL    HW132747   2.067   0.560  16.170  0.3084  1.1513  0.7179
 7095SOL    HW232748   2.136   0.653  16.072  0.4870 -0.9111 -1.6460
 7096SOL     OW32749   0.241   0.754   8.001 -0.3190 -0.2358  0.3562
 7096SOL    HW132750   0.222   0.746   8.095  1.6103  1.8342  0.9159
 7096SOL    HW232751   0.207   0.680   7.952 -1.9972 -0.7031  2.2536
 7097SOL     OW32752   3.563   2.172   3.827  0.0450  0.4407  0.2032
 7097SOL    HW132753   3.536   2.197   3.915 -0.2832 -1.9813  0.7768
 7097SOL    HW232754   3.601   2.085   3.840 -0.2582  0.3098  0.2180
 7098SOL     OW32755   0.944   3.604   2.758  0.7185 -0.4076 -0.4257
 7098SOL    HW132756   0.918   3.622   2.667 -0.5492  2.1077  0.4167
 7098SOL    HW232757   0.879   3.535   2.772  0.3153 -0.1503 -1.0103
 7099SOL     OW32758   0.092   2.187  14.671 -0.1087 -0.1931  0.3939
 7099SOL    HW132759   0.095   2.091  14.671 -1.5577 -0.2403  0.1354
 7099SOL    HW232760   0.022   2.210  14.610  0.2033 -2.2720 -0.7347
 7100SOL     OW32761   3.166   0.564   9.476 -0.3825 -0.3546  0.1187
 7100SOL    HW132762   3.236   0.626   9.461 -0.6952  0.7900  3.4398
 7100SOL    HW232763   3.129   0.595   9.558 -0.4452  0.7910 -0.3458
 7101SOL     OW32764   3.796   1.690   5.381 -0.1865  0.3623 -0.2062
 7101SOL    HW132765   3.881   1.669   5.419 -1.2132  0.1518  2.0153
 7101SOL    HW232766   3.775   1.597   5.372  0.4203  0.3832 -1.7359
 7102SOL     OW32767   4.662   1.707   7.397  0.3339 -0.1925 -0.4681
 7102SOL    HW132768   4.650   1.790   7.444  0.8803 -0.9035  0.9349
 7102SOL    HW232769   4.593   1.711   7.331 -1.5664  0.2760  1.5383
 7103SOL     OW32770   2.247   1.864   3.919  0.0144  0.1210 -0.1695
 7103SOL    HW132771   2.316   1.801   3.901  0.7924  0.5697  1.1828
 7103SOL    HW232772   2.212   1.867   3.830 -3.5373  0.0820  1.2450
 7104SOL     OW32773   3.070   3.504   6.364 -0.0796  0.7216  0.0715
 7104SOL    HW132774   2.980   3.500   6.398  0.0129  2.3551  0.4858
 7104SOL    HW232775   3.102   3.414   6.371 -0.3864  0.4056 -2.6475
 7105SOL     OW32776   1.201   4.263   4.136 -0.5029 -0.6401 -0.0316
 7105SOL    HW132777   1.238   4.348   4.160  1.2463 -1.0394 -1.3576
 7105SOL    HW232778   1.108   4.272   4.158 -0.6248 -1.4786 -0.2043
 7106SOL     OW32779   3.992   0.772   7.271  0.3193 -0.3848 -0.2240
 7106SOL    HW132780   4.042   0.693   7.252  1.8353  0.6507 -0.5353
 7106SOL    HW232781   3.907   0.738   7.242  0.0172  2.4550 -2.6331
 7107SOL     OW32782   3.775   1.965   2.062  0.0326  0.8778 -0.1767
 7107SOL    HW132783   3.790   2.034   1.998 -2.2224  0.8249 -0.7517
 7107SOL    HW232784   3.746   1.892   2.008 -0.4832 -0.9514  2.5413
 7108SOL     OW32785   0.293   2.535  16.676 -0.7786 -0.0062  0.1567
 7108SOL    HW132786   0.383   2.551  16.704 -0.3106 -1.9644 -0.2422
 7108SOL    HW232787   0.277   2.473  16.747  4.1538 -1.1870  0.2284
 7109SOL     OW32788   4.028   1.940   8.349  0.1535  0.8455  0.2689
 7109SOL    HW132789   4.116   1.972   8.365  0.9419 -1.1409 -0.0922
 7109SOL    HW232790   3.979   1.987   8.416 -0.9451 -0.4469  0.3801
 7110SOL     OW32791   3.106   3.388  15.243  0.6178 -0.1227  0.2847
 7110SOL    HW132792   3.127   3.397  15.150  1.2778 -2.5416  0.1857
 7110SOL    HW232793   3.041   3.458  15.243  0.6048 -0.1368  1.5476
 7111SOL     OW32794   1.689   3.454   3.703 -0.2848 -0.1258 -0.2719
 7111SOL    HW132795   1.697   3.458   3.608  0.4670  1.3982 -0.1382
 7111SOL    HW232796   1.675   3.359   3.711 -1.1759  0.0356  0.1072
 7112SOL     OW32797   1.356   3.565  14.323  0.0247 -0.4445  0.1678
 7112SOL    HW132798   1.340   3.643  14.376  0.6991 -0.9632  1.1475
 7112SOL    HW232799   1.415   3.513  14.378 -0.8436 -1.1334  0.4408
 7113SOL     OW32800   1.592   4.684   8.002 -0.4227 -0.6306 -0.7545
 7113SOL    HW132801   1.553   0.009   8.072 -0.7869 -0.2398 -1.2470
 7113SOL    HW232802   1.575   4.593   8.029  1.3665 -0.3603  1.2547
 7114SOL     OW32803   0.936   1.347  16.663 -0.5219  0.1265  0.5255
 7114SOL    HW132804   0.853   1.343  16.615 -0.6157 -1.4953  0.8175
 7114SOL    HW232805   1.001   1.368  16.595 -1.1568  0.7594  0.1098
 7115SOL     OW32806   2.519   4.451   2.840 -0.4211  0.3247  0.3470
 7115SOL    HW132807   2.449   4.422   2.781  0.6920  1.3253 -1.4838
 7115SOL    HW232808   2.508   4.384   2.907 -1.8031 -0.3131 -0.5200
 7116SOL     OW32809   2.028   2.336  16.023  0.8193  1.0178  0.0229
 7116SOL    HW132810   2.106   2.328  15.968 -1.3754  1.0645 -3.1336
 7116SOL    HW232811   2.002   2.425  16.000  1.3669  0.4520 -2.8113
 7117SOL     OW32812   4.484   1.949   6.962 -0.4772  0.0226 -0.5850
 7117SOL    HW132813   4.553   2.013   6.951  0.4169 -0.5468  1.7199
 7117SOL    HW232814   4.410   2.007   6.943  0.9421  1.5936 -1.2793
 7118SOL     OW32815   3.003   1.500   9.257  0.4387 -0.3000 -0.3189
 7118SOL    HW132816   2.965   1.505   9.170  0.4780  0.7330 -0.2852
 7118SOL    HW232817   2.930   1.470   9.311  0.5606  1.1155  0.6457
 7119SOL     OW32818   1.922   4.463   6.051 -0.1787  0.1764  0.2003
 7119SOL    HW132819   1.898   4.528   6.117  0.6815  1.8139 -1.0940
 7119SOL    HW232820   1.985   4.406   6.095 -2.0676  0.0645  2.7636
 7120SOL     OW32821   3.306   3.851  10.720 -0.0554  0.8762  0.6277
 7120SOL    HW132822   3.327   3.892  10.636 -0.6310  3.3567  1.7015
 7120SOL    HW232823   3.363   3.895  10.783 -0.4424  1.7411  0.3706
 7121SOL     OW32824   1.696   4.041   3.330 -0.0904  0.2125  0.0031
 7121SOL    HW132825   1.757   4.028   3.403 -0.5266  1.9017  0.6627
 7121SOL    HW232826   1.762   4.016   3.265 -0.6138  0.9058 -0.7826
 7122SOL     OW32827   1.376   4.500   4.878 -0.2060 -0.3608  0.3271
 7122SOL    HW132828   1.418   4.487   4.963  0.4322  2.3805  0.4530
 7122SOL    HW232829   1.441   4.445   4.835 -0.8584 -0.3833 -0.6374
 7123SOL     OW32830   2.651   3.337  13.182 -0.2432 -0.8665 -0.0777
 7123SOL    HW132831   2.596   3.403  13.225  2.7533  1.5595  0.0095
 7123SOL    HW232832   2.674   3.264  13.239  2.0896 -1.5778 -1.9554
 7124SOL     OW32833   1.599   4.221   9.504  0.2079 -0.5944 -0.5608
 7124SOL    HW132834   1.594   4.239   9.411  3.9913 -0.4405 -0.7531
 7124SOL    HW232835   1.559   4.134   9.509 -3.1548  0.9837  0.3623
 7125SOL     OW32836   4.086   3.886   1.871  0.3041 -0.0451 -0.3254
 7125SOL    HW132837   4.082   3.881   1.776  0.5488 -1.4104 -0.2738
 7125SOL    HW232838   4.161   3.831   1.894  1.8920  1.4019 -2.1217
 7126SOL     OW32839   0.351   1.982   4.285  0.0314  0.2929 -0.1219
 7126SOL    HW132840   0.358   2.045   4.356  0.1670 -0.0160  0.1398
 7126SOL    HW232841   0.256   1.967   4.280 -0.0972  0.9709  0.3702
 7127SOL     OW32842   2.032   2.690   5.736  0.8369 -0.3518 -0.2820
 7127SOL    HW132843   2.093   2.649   5.674 -0.9949 -1.4499 -1.3441
 7127SOL    HW232844   2.058   2.637   5.811 -0.0568 -0.7346 -0.2544
 7128SOL     OW32845   0.943   3.713  11.454  0.0280 -0.3945 -0.0806
 7128SOL    HW132846   0.908   3.639  11.503  0.6873  0.3371  1.4973
 7128SOL    HW232847   1.028   3.705  11.497  0.5734 -0.2800 -1.1323
 7129SOL     OW32848   0.730   3.512  11.946 -0.2530 -0.2826 -0.2524
 7129SOL    HW132849   0.749   3.492  12.038  1.3982  0.8183 -0.3722
 7129SOL    HW232850   0.679   3.594  11.946  0.6971  0.3033  0.7545
 7130SOL     OW32851   0.823   0.954   2.626 -0.1323 -0.0775 -0.2975
 7130SOL    HW132852   0.834   1.008   2.705  0.7756  0.8523 -1.0683
 7130SOL    HW232853   0.911   0.973   2.594  0.1894 -0.4338  0.3851
 7131SOL     OW32854   3.501   3.612   5.262  0.1055  0.1513 -0.0952
 7131SOL    HW132855   3.517   3.528   5.219 -1.2361  0.0509 -0.4226
 7131SOL    HW232856   3.515   3.576   5.349 -1.4779  0.9449  0.4915
 7132SOL     OW32857   0.570   3.631   1.450  0.0748  0.5683 -0.2563
 7132SOL    HW132858   0.592   3.675   1.368  1.1355  0.8000  0.1568
 7132SOL    HW232859   0.594   3.539   1.440  1.7727  1.0794 -0.7628
 7133SOL     OW32860   2.220   0.818  16.042 -0.3566 -0.4294  0.1780
 7133SOL    HW132861   2.299   0.872  16.032  0.5984 -1.6287  1.3901
 7133SOL    HW232862   2.159   0.875  15.995  0.3822  1.2032  1.2007
 7134SOL     OW32863   2.269   4.669  11.384 -0.2935 -0.1731 -0.3042
 7134SOL    HW132864   2.222   4.622  11.315 -0.1266 -1.4461  0.4557
 7134SOL    HW232865   2.193   4.723  11.402 -1.4253 -1.5547 -0.9876
 7135SOL     OW32866   0.876   1.650   6.041 -0.0859  0.3367 -0.2041
 7135SOL    HW132867   0.927   1.643   6.121  0.8677  1.0981 -0.7471
 7135SOL    HW232868   0.941   1.623   5.976 -0.6603 -1.6894  0.0670
 7136SOL     OW32869   0.724   0.379   2.984 -0.0370  0.7643  0.0102
 7136SOL    HW132870   0.804   0.405   2.938  0.4710 -0.3791  0.2429
 7136SOL    HW232871   0.662   0.449   2.965 -1.6341 -1.0115 -1.3237
 7137SOL     OW32872   1.234   2.619   6.418  0.2771 -0.8753  0.3190
 7137SOL    HW132873   1.266   2.708   6.427 -2.2409  0.2187 -1.5674
 7137SOL    HW232874   1.277   2.565   6.485 -0.8929  0.4750  2.1282
 7138SOL     OW32875   1.901   4.108   6.770 -0.2812 -0.2732  0.1278
 7138SOL    HW132876   1.889   4.036   6.708  1.2849  0.7127 -1.3274
 7138SOL    HW232877   1.900   4.067   6.856  1.6619 -1.6367 -0.5047
 7139SOL     OW32878   3.741   1.360   8.915  0.7023  0.4275  0.3247
 7139SOL    HW132879   3.655   1.322   8.894  1.1071 -0.0537 -0.4864
 7139SOL    HW232880   3.785   1.282   8.948 -0.7835 -1.1758 -1.4387
 7140SOL     OW32881   3.984   1.725   8.600  0.0591  0.0136 -0.0026
 7140SOL    HW132882   3.986   1.630   8.587  1.0796 -0.0821  0.8883
 7140SOL    HW232883   3.913   1.741   8.538  1.8142  0.1811 -2.0130
 7141SOL     OW32884   4.497   2.681   2.833 -0.3213 -0.2165  0.2680
 7141SOL    HW132885   4.522   2.618   2.901  0.4311 -0.5571 -0.3252
 7141SOL    HW232886   4.474   2.632   2.754 -0.5181 -0.2210  0.3268
 7142SOL     OW32887   0.956   4.456   5.275  0.0369 -0.4898 -0.2316
 7142SOL    HW132888   0.942   4.420   5.187 -1.8061 -1.8105  0.6160
 7142SOL    HW232889   0.890   4.409   5.326  2.4730 -2.3018  1.2418
 7143SOL     OW32890   1.988   0.293   9.924  0.9652 -0.0224  0.3994
 7143SOL    HW132891   1.972   0.251   9.839  0.6706  0.8883  0.0128
 7143SOL    HW232892   1.924   0.257   9.986  1.8120 -0.8421  0.8199
 7144SOL     OW32893   2.749   1.283   3.511  0.5093  0.0924 -0.7278
 7144SOL    HW132894   2.783   1.197   3.487 -1.7009 -0.3372 -2.3463
 7144SOL    HW232895   2.680   1.285   3.445 -1.4955 -0.8699  1.3275
 7145SOL     OW32896   2.798   1.885  13.594  0.3555  0.1156 -0.3203
 7145SOL    HW132897   2.841   1.953  13.541  0.0550  0.6182  0.0815
 7145SOL    HW232898   2.818   1.921  13.681 -1.5077 -0.4507  0.3266
 7146SOL     OW32899   0.702   4.109   9.709 -1.0091 -0.2125 -0.1460
 7146SOL    HW132900   0.680   4.054   9.633 -0.0158  1.1313 -1.4015
 7146SOL    HW232901   0.775   4.159   9.674  0.5213 -1.2305  1.5455
 7147SOL     OW32902   3.078   1.303   7.801 -0.0573  0.1472 -0.4881
 7147SOL    HW132903   3.114   1.387   7.771 -0.6793  0.3805 -0.5784
 7147SOL    HW232904   3.149   1.259   7.848  0.2412  0.8268 -0.2970
 7148SOL     OW32905   3.031   2.093   5.976  0.8389 -0.1059 -1.0489
 7148SOL    HW132906   2.986   2.016   6.010 -2.6028  1.5013 -1.9764
 7148SOL    HW232907   3.095   2.051   5.918  0.2148  0.7709 -2.3771
 7149SOL     OW32908   2.144   0.744  13.238 -0.2299 -0.2145  0.1577
 7149SOL    HW132909   2.193   0.783  13.165 -1.3928 -1.2556 -1.2050
 7149SOL    HW232910   2.199   0.671  13.267  1.4493  0.7278 -0.6553
 7150SOL     OW32911   4.716   1.136   3.036  0.2660 -0.2056 -0.1516
 7150SOL    HW132912   4.657   1.146   2.961 -1.9345  0.7995  1.6799
 7150SOL    HW232913   0.020   1.046   3.043  0.1005 -0.4950 -3.1167
 7151SOL     OW32914   4.137   2.257   8.349  0.4716  0.5466 -0.4710
 7151SOL    HW132915   4.084   2.234   8.426 -2.3803 -1.4517 -3.0497
 7151SOL    HW232916   4.225   2.263   8.387  0.0348 -0.0970  0.6609
 7152SOL     OW32917   4.524   0.325   3.520  0.5657  0.0234 -0.0908
 7152SOL    HW132918   4.430   0.312   3.535  1.0435 -3.4731 -0.1488
 7152SOL    HW232919   4.565   0.297   3.602  1.4183  0.8727 -0.2206
 7153SOL     OW32920   4.343   3.872   5.872 -0.0325  0.1751 -0.3616
 7153SOL    HW132921   4.257   3.835   5.852 -0.0973  1.1792 -1.9614
 7153SOL    HW232922   4.378   3.821   5.944 -1.3747  0.9289  0.8150
 7154SOL     OW32923   2.906   2.253   4.190 -0.1130  0.1080 -0.0452
 7154SOL    HW132924   2.875   2.343   4.201 -0.9908 -0.2130  0.1483
 7154SOL    HW232925   2.892   2.214   4.276 -0.0390 -2.0231 -1.0040
 7155SOL     OW32926   0.862   0.879   5.670 -0.2920  0.4172  0.3942
 7155SOL    HW132927   0.808   0.872   5.592 -2.7333 -0.4655  2.1268
 7155SOL    HW232928   0.800   0.864   5.742 -1.0408 -0.9894 -0.5481
 7156SOL     OW32929   1.097   1.773   4.988  0.1641  0.4426 -0.1567
 7156SOL    HW132930   1.169   1.836   4.985  0.5652 -0.0372 -0.8280
 7156SOL    HW232931   1.069   1.774   4.897  3.1161 -0.2343 -1.1008
 7157SOL     OW32932   3.660   4.489   3.137  0.4937  0.0241  0.0025
 7157SOL    HW132933   3.754   4.474   3.126  0.4965  0.6192 -0.7618
 7157SOL    HW232934   3.627   4.525   3.055 -0.8504 -2.7320 -0.6697
 7158SOL     OW32935   1.741   0.111   8.361 -0.5875 -0.3898 -0.0839
 7158SOL    HW132936   1.823   0.073   8.394 -0.5308 -1.6223 -1.6579
 7158SOL    HW232937   1.752   0.205   8.375 -0.8028 -0.4511  0.4792
 7159SOL     OW32938   4.670   2.968   3.005  0.5959  0.5149 -0.0886
 7159SOL    HW132939   4.635   2.899   3.061 -0.5792  0.8588 -0.3999
 7159SOL    HW232940   0.033   2.975   3.040  0.2392  1.5225  0.6094
 7160SOL     OW32941   0.855   3.415   7.811  0.2785  0.3810 -0.4299
 7160SOL    HW132942   0.784   3.356   7.783  0.4743  0.1903 -0.5279
 7160SOL    HW232943   0.913   3.357   7.860 -2.2148 -2.1340 -0.3978
 7161SOL     OW32944   3.327   4.026  10.485 -0.3067  0.6080  0.3918
 7161SOL    HW132945   3.269   4.092  10.446  1.4037 -0.0556 -3.2344
 7161SOL    HW232946   3.409   4.059  10.449  0.0183  1.0907  1.5513
 7162SOL     OW32947   3.678   4.067   4.658 -0.2180 -0.3046 -0.1132
 7162SOL    HW132948   3.641   3.979   4.669 -1.8950  0.3542 -0.4956
 7162SOL    HW232949   3.685   4.065   4.562  0.2254 -0.0651 -0.0900
 7163SOL     OW32950   2.856   1.136   5.213  0.2537 -0.2610  0.0366
 7163SOL    HW132951   2.859   1.040   5.211  0.1269 -0.2643  0.0094
 7163SOL    HW232952   2.944   1.159   5.184  1.0965 -0.4197  2.4604
 7164SOL     OW32953   4.585   1.317  11.261  0.0299 -0.0604  0.1007
 7164SOL    HW132954   4.522   1.360  11.319  0.8884 -0.0374  1.0177
 7164SOL    HW232955   4.647   1.385  11.236  0.9079 -1.4084 -1.3714
 7165SOL     OW32956   3.857   3.445   4.163 -0.2895  0.5165  0.4520
 7165SOL    HW132957   3.833   3.411   4.077 -2.2201 -0.9404  1.5601
 7165SOL    HW232958   3.770   3.485   4.169 -0.6351 -0.3958  1.4352
 7166SOL     OW32959   3.995   4.503   5.252  0.4883 -0.2171  0.0404
 7166SOL    HW132960   3.973   4.524   5.342  0.9555  1.4588 -0.2364
 7166SOL    HW232961   3.941   4.424   5.243 -0.2557  0.0651  2.0229
 7167SOL     OW32962   1.300   4.262  10.866 -0.2615 -0.3665  0.3928
 7167SOL    HW132963   1.241   4.254  10.940 -1.2509  1.9322 -0.1277
 7167SOL    HW232964   1.367   4.197  10.890  1.5365  1.2204 -0.3230
 7168SOL     OW32965   2.202   3.849   3.576  0.4995  0.0623 -0.0357
 7168SOL    HW132966   2.135   3.797   3.620  0.2736  0.6796  0.3454
 7168SOL    HW232967   2.170   3.936   3.599 -2.7215 -1.0001 -0.4392
 7169SOL     OW32968   2.098   3.641   1.853 -0.4588 -0.5537  0.5270
 7169SOL    HW132969   2.027   3.682   1.805  0.5947 -0.5310 -1.0242
 7169SOL    HW232970   2.114   3.569   1.791  1.2755  0.2488  0.0219
 7170SOL     OW32971   2.256   2.518   8.492  0.5481 -0.1338 -0.4928
 7170SOL    HW132972   2.221   2.596   8.534  0.0725  0.1593 -1.4238
 7170SOL    HW232973   2.203   2.447   8.528 -0.3631 -0.1436 -1.8509
 7171SOL     OW32974   4.645   1.327   8.631  0.6898  0.1403  0.1193
 7171SOL    HW132975   4.596   1.346   8.711 -1.0261  2.7121 -1.5502
 7171SOL    HW232976   4.596   1.377   8.565  0.1366  0.0118  0.4344
 7172SOL     OW32977   0.319   1.960  12.046 -0.1213  0.4481  0.8521
 7172SOL    HW132978   0.385   1.979  11.980 -0.2065 -2.6700 -0.0949
 7172SOL    HW232979   0.257   1.913  11.991 -0.1122  0.0719  1.1587
 7173SOL     OW32980   0.489   2.923   1.956  0.3832 -0.3292  0.3427
 7173SOL    HW132981   0.402   2.928   1.916  0.0541  1.5765  1.2971
 7173SOL    HW232982   0.536   2.865   1.897  0.3265 -0.3672  0.3353
 7174SOL     OW32983   2.605   1.530  11.935 -0.1570  0.6131 -0.1012
 7174SOL    HW132984   2.690   1.555  11.897  0.0842 -0.5778 -0.3591
 7174SOL    HW232985   2.559   1.612  11.953 -4.1073 -1.7240  0.4233
 7175SOL     OW32986   3.978   3.823   5.037 -0.4240  0.0725  0.3992
 7175SOL    HW132987   4.064   3.837   5.076 -1.1426  0.1076  1.9956
 7175SOL    HW232988   3.984   3.845   4.944  0.4991 -2.8275 -0.2181
 7176SOL     OW32989   4.068   2.618   3.163 -0.1784 -0.7823  0.1832
 7176SOL    HW132990   4.082   2.554   3.094  0.5386 -1.2096  0.7201
 7176SOL    HW232991   4.153   2.652   3.136  0.5692 -1.6384  1.4700
 7177SOL     OW32992   1.283   4.271   3.503  0.3137 -0.4741  0.3370
 7177SOL    HW132993   1.340   4.239   3.433  1.4327  0.3820  0.8572
 7177SOL    HW232994   1.346   4.314   3.560  0.2707  0.2752 -0.1924
 7178SOL     OW32995   3.672   4.662  12.027 -0.0120 -0.0606 -0.2160
 7178SOL    HW132996   3.691   4.571  12.001 -0.2178  0.1663 -1.1520
 7178SOL    HW232997   3.718   4.672  12.110 -2.0020 -0.9711  1.0004
 7179SOL     OW32998   0.251   4.168  16.180  0.1668  0.0873 -0.4389
 7179SOL    HW132999   0.286   4.079  16.178 -1.0864 -0.4080 -0.2861
 7179SOL    HW233000   0.249   4.192  16.088 -1.7985 -0.7016 -0.5895
 7180SOL     OW33001   2.750   3.170   2.931 -0.4500 -0.4843  0.1963
 7180SOL    HW133002   2.837   3.199   2.958  0.2957 -0.3878 -2.3440
 7180SOL    HW233003   2.714   3.154   3.018  1.1713 -0.3983  0.8773
 7181SOL     OW33004   1.363   0.462   5.444 -0.0788 -0.1604  0.4313
 7181SOL    HW133005   1.299   0.398   5.474  1.7449 -1.6085  1.1883
 7181SOL    HW233006   1.423   0.414   5.387  0.8952  1.9988 -0.3987
 7182SOL     OW33007   2.313   1.274   5.469  0.3720  0.0270 -0.6092
 7182SOL    HW133008   2.392   1.250   5.518  0.1560 -0.7155 -0.6389
 7182SOL    HW233009   2.330   1.358   5.425 -0.2082  1.5504  2.0581
 7183SOL     OW33010   3.883   4.592  15.471 -0.1858  0.3971  0.8542
 7183SOL    HW133011   3.830   4.603  15.392  1.5021 -0.5665 -0.4155
 7183SOL    HW233012   3.808   4.557  15.519  0.1754 -3.1050 -1.0982
 7184SOL     OW33013   0.998   0.622   7.782 -0.0271  0.2734  0.3348
 7184SOL    HW133014   0.924   0.598   7.726 -0.0195  0.5084  0.2225
 7184SOL    HW233015   0.963   0.660   7.863  0.4255  3.0232 -0.7426
 7185SOL     OW33016   1.477   0.002   9.306  0.1221 -0.1806  0.3331
 7185SOL    HW133017   1.410   0.010   9.238  0.7214 -0.9882 -0.3486
 7185SOL    HW233018   1.496   0.096   9.313  0.6131 -0.3053  0.6687
 7186SOL     OW33019   1.841   3.301  12.743 -0.2509 -0.5279 -0.2819
 7186SOL    HW133020   1.776   3.273  12.807  0.0166 -2.1137 -0.7227
 7186SOL    HW233021   1.841   3.396  12.757  0.7058 -0.2685 -2.0831
 7187SOL     OW33022   4.345   3.619   1.270 -0.0330 -0.2667  0.1086
 7187SOL    HW133023   4.303   3.558   1.330  1.2979 -1.6983 -0.4006
 7187SOL    HW233024   4.369   3.568   1.193  0.3657 -1.0658  0.7581
 7188SOL     OW33025   0.108   1.043   7.512 -0.2561  1.0453  0.3733
 7188SOL    HW133026   0.132   0.986   7.585 -1.2869 -0.4124 -0.4071
 7188SOL    HW233027   0.111   1.127   7.557 -1.6788  1.4629 -0.3060
 7189SOL     OW33028   4.706   4.210   3.598  0.4206 -0.3647  0.4427
 7189SOL    HW133029   4.680   4.160   3.676  0.1307 -0.6123  0.1849
 7189SOL    HW233030   0.070   4.226   3.624  0.1933 -0.4426  1.2868
 7190SOL     OW33031   0.747   1.174   2.832  0.0092 -0.0721  0.4956
 7190SOL    HW133032   0.660   1.213   2.824  0.8027  1.1363 -1.9885
 7190SOL    HW233033   0.797   1.255   2.842  0.4591 -0.3251  0.2696
 7191SOL     OW33034   3.669   4.443  10.257 -0.2647  0.1655  0.0100
 7191SOL    HW133035   3.735   4.496  10.301 -0.5992  1.0790 -0.5867
 7191SOL    HW233036   3.672   4.361  10.305 -0.8083 -0.3550 -0.8358
 7192SOL     OW33037   2.233   3.305   7.886 -0.1640 -0.5296 -0.1470
 7192SOL    HW133038   2.153   3.336   7.844 -0.1883  0.1797  0.4147
 7192SOL    HW233039   2.285   3.279   7.810  0.0863 -1.2354  0.2757
 7193SOL     OW33040   0.678   0.766   6.204  0.4521  0.2687 -0.2423
 7193SOL    HW133041   0.645   0.679   6.181 -2.4482  0.4745  3.1064
 7193SOL    HW233042   0.597   0.815   6.187  1.3419  1.9114  0.3069
 7194SOL     OW33043   2.308   3.846   2.364 -0.3849  0.7541  0.0463
 7194SOL    HW133044   2.365   3.920   2.385 -1.5569  1.2776  1.3622
 7194SOL    HW233045   2.236   3.897   2.329 -0.7150  0.3229  0.0942
 7195SOL     OW33046   2.307   0.763   2.335  0.5160  0.0333  0.6923
 7195SOL    HW133047   2.230   0.818   2.352  2.2067  2.4599  0.3654
 7195SOL    HW233048   2.265   0.687   2.295  0.0964  0.8816 -0.4932
 7196SOL     OW33049   4.022   1.055   7.522 -0.3785  0.5893 -0.1197
 7196SOL    HW133050   4.096   1.041   7.581 -0.7917  0.8384  0.4450
 7196SOL    HW233051   3.958   1.109   7.566 -0.6958  0.8658 -0.9146
 7197SOL     OW33052   4.310   3.713  12.000 -0.0953 -0.5104  0.0743
 7197SOL    HW133053   4.242   3.688  11.937  1.2940  0.1218 -1.6808
 7197SOL    HW233054   4.375   3.734  11.933 -0.9811 -1.5469 -1.1094
 7198SOL     OW33055   0.376   1.309   5.656  0.2025  0.1338  0.1817
 7198SOL    HW133056   0.313   1.259   5.709 -0.5157 -1.8896 -2.6138
 7198SOL    HW233057   0.442   1.240   5.653 -0.1043 -0.2264  1.5865
 7199SOL     OW33058   4.336   0.180  11.216 -0.1093 -0.0043  0.1583
 7199SOL    HW133059   4.422   0.139  11.218 -0.7741 -1.3444  1.1607
 7199SOL    HW233060   4.364   0.272  11.213  3.5026 -1.1057  0.6857
 7200SOL     OW33061   4.322   1.071  16.751 -0.0272 -0.0266 -0.1109
 7200SOL    HW133062   4.272   1.003  16.797 -3.0212  0.8187 -2.1234
 7200SOL    HW233063   4.248   1.118  16.711  1.0805  0.4662 -1.5585
 7201SOL     OW33064   1.074   2.847  14.428  0.1377  0.2702  0.0938
 7201SOL    HW133065   1.042   2.937  14.430 -0.7754 -0.0742  1.4800
 7201SOL    HW233066   0.994   2.798  14.449  0.4879 -0.4360 -0.2094
 7202SOL     OW33067   3.450   2.697   3.766  0.4773 -0.4011 -0.4322
 7202SOL    HW133068   3.542   2.677   3.783  1.1234  1.2624 -2.0102
 7202SOL    HW233069   3.423   2.754   3.839  0.7316  1.6631 -1.9634
 7203SOL     OW33070   4.377   2.536   3.364  0.1745  0.1777  0.0962
 7203SOL    HW133071   4.335   2.485   3.295  1.4291 -0.0046 -0.5363
 7203SOL    HW233072   4.416   2.470   3.420  0.9011 -0.0560 -0.6851
 7204SOL     OW33073   1.674   2.860   7.371  0.3673 -0.1683  0.7898
 7204SOL    HW133074   1.755   2.895   7.334 -0.9982  1.9747 -0.2100
 7204SOL    HW233075   1.654   2.802   7.298  1.6746  0.6741 -0.2451
 7205SOL     OW33076   4.177   1.950  10.773 -0.1211  0.2429  0.2584
 7205SOL    HW133077   4.167   1.859  10.744 -1.3391  0.9692 -1.6138
 7205SOL    HW233078   4.235   1.986  10.706  1.1765  0.2422  1.3981
 7206SOL     OW33079   3.852   0.390   8.886  0.1426  0.4459 -0.9223
 7206SOL    HW133080   3.865   0.477   8.925  2.2128 -0.5000  0.4694
 7206SOL    HW233081   3.928   0.394   8.829  1.6292  1.4983  1.1268
 7207SOL     OW33082   1.550   3.825   3.820 -0.0928 -0.0257 -0.0367
 7207SOL    HW133083   1.597   3.889   3.873  1.7676 -1.8386  0.5126
 7207SOL    HW233084   1.606   3.811   3.743 -0.3184  0.6434 -0.3251
 7208SOL     OW33085   3.222   3.239   8.681  0.4363  0.1962 -0.5716
 7208SOL    HW133086   3.206   3.259   8.589  0.2267  1.8969 -0.1599
 7208SOL    HW233087   3.306   3.285   8.688 -0.2676  1.5252 -0.7747
 7209SOL     OW33088   2.776   2.564   4.141  0.3875  0.0550  0.3976
 7209SOL    HW133089   2.760   2.651   4.105 -0.0349 -0.3070 -0.2906
 7209SOL    HW233090   2.722   2.507   4.086 -0.1846  0.4940  0.4985
 7210SOL     OW33091   1.509   0.447   6.343  0.0879  0.4632  0.6838
 7210SOL    HW133092   1.560   0.506   6.399  1.1145 -1.3453  1.6606
 7210SOL    HW233093   1.488   0.373   6.400 -0.8215  0.8784  0.8905
 7211SOL     OW33094   3.633   1.727   3.005 -0.8063  0.2277 -0.0047
 7211SOL    HW133095   3.591   1.646   3.031  2.9420 -1.2107  1.5274
 7211SOL    HW233096   3.707   1.697   2.953  0.3247  2.6136  0.2369
 7212SOL     OW33097   0.465   0.756  16.084  0.3210 -0.0622  0.1263
 7212SOL    HW133098   0.443   0.695  16.154 -1.3292  0.5304  0.1290
 7212SOL    HW233099   0.387   0.812  16.080 -0.4796 -1.1503  0.5144
 7213SOL     OW33100   3.737   0.580  10.144 -0.1058 -0.1150 -0.6080
 7213SOL    HW133101   3.785   0.663  10.153  0.3201 -0.2420 -1.7764
 7213SOL    HW233102   3.811   0.526  10.115 -0.7653 -0.4283 -1.6912
 7214SOL     OW33103   4.057   3.416   6.185  0.1463  0.1625 -0.0824
 7214SOL    HW133104   4.137   3.454   6.148 -0.9716  0.9323 -1.6837
 7214SOL    HW233105   4.051   3.338   6.128  1.8187  2.3993 -3.3528
 7215SOL     OW33106   3.215   3.383   6.604 -0.7318 -1.0230 -0.2959
 7215SOL    HW133107   3.272   3.309   6.624  0.7047  0.0115 -0.5090
 7215SOL    HW233108   3.131   3.352   6.571 -0.0106 -1.5680 -1.6301
 7216SOL     OW33109   4.289   2.609   9.403  0.4637 -0.3060 -0.2240
 7216SOL    HW133110   4.374   2.575   9.431 -1.2587 -2.1828  2.7185
 7216SOL    HW233111   4.288   2.700   9.434  1.4490 -0.6028  0.7018
 7217SOL     OW33112   0.964   3.836  15.531 -0.1539 -0.0754  0.0419
 7217SOL    HW133113   1.034   3.771  15.544  1.7997  1.9914 -0.0888
 7217SOL    HW233114   1.030   3.904  15.519  0.8986 -1.0151  0.3832
 7218SOL     OW33115   4.049   2.262   5.624 -0.2299  0.2444  0.2563
 7218SOL    HW133116   3.957   2.265   5.599 -0.7797 -1.7243  2.0402
 7218SOL    HW233117   4.073   2.345   5.665 -0.8449 -0.2995  1.7223
 7219SOL     OW33118   3.680   2.072   8.119 -0.3293  0.0338  0.8561
 7219SOL    HW133119   3.617   2.003   8.098  0.0675 -0.0210 -0.2100
 7219SOL    HW233120   3.699   2.041   8.207 -0.4525 -1.9120  0.1999
 7220SOL     OW33121   0.734   3.259   6.808 -0.4940 -0.2185 -0.2783
 7220SOL    HW133122   0.798   3.210   6.859 -1.0429  0.0155  0.6432
 7220SOL    HW233123   0.703   3.184   6.757 -3.7768  1.0892 -0.2427
 7221SOL     OW33124   2.093   0.769  14.230 -0.0371  0.0697  0.1416
 7221SOL    HW133125   2.129   0.854  14.256 -2.1638  1.1495 -0.4127
 7221SOL    HW233126   2.023   0.761  14.295 -1.6532  0.2214 -1.5555
 7222SOL     OW33127   1.759   0.484  17.002 -0.2677 -0.7580 -0.1841
 7222SOL    HW133128   1.736   0.530  16.921  1.6463 -0.4249 -0.5398
 7222SOL    HW233129   1.820   0.420  16.967  0.3247  0.2590 -0.9975
 7223SOL     OW33130   1.778   1.369   1.040 -0.7041  0.4359  0.2611
 7223SOL    HW133131   1.874   1.373   1.034 -0.7592  0.1529 -0.9047
 7223SOL    HW233132   1.761   1.281   1.007 -0.3442  0.0907  1.0036
 7224SOL     OW33133   3.729   4.433   1.216  0.4658  0.4222  0.2131
 7224SOL    HW133134   3.751   4.341   1.224 -1.9836 -0.3239 -1.8190
 7224SOL    HW233135   3.736   4.474   1.303 -1.4515  0.1305  0.4873
 7225SOL     OW33136   4.586   0.624   3.093  0.2174  0.5778 -0.3148
 7225SOL    HW133137   4.584   0.635   3.188  0.8370  0.3065 -0.2720
 7225SOL    HW233138   4.575   0.531   3.078  0.1350  0.7952 -1.6295
 7226SOL     OW33139   2.590   3.791  13.481 -0.3151 -0.3275  0.1179
 7226SOL    HW133140   2.613   3.880  13.507  0.7951  0.3004 -2.9528
 7226SOL    HW233141   2.509   3.798  13.431 -0.1293  0.3332 -0.0890
 7227SOL     OW33142   4.667   2.914   9.158  0.2921 -0.0908  0.6563
 7227SOL    HW133143   4.610   2.865   9.099  0.6048  0.0425  0.2436
 7227SOL    HW233144   4.619   2.997   9.165  2.6807  1.5908 -2.6312
 7228SOL     OW33145   3.046   2.320  15.184  0.2086 -0.0317  0.1632
 7228SOL    HW133146   2.975   2.359  15.234 -1.9857 -1.4698 -1.8281
 7228SOL    HW233147   3.020   2.228  15.192 -2.4999  0.7332  0.0306
 7229SOL     OW33148   3.910   1.747  11.796  0.1617  0.2409 -0.4628
 7229SOL    HW133149   3.846   1.816  11.780  0.7334  0.9762  0.4174
 7229SOL    HW233150   3.936   1.777  11.884  0.7652 -1.2102 -0.1419
 7230SOL     OW33151   1.247   4.439   0.853 -1.0390 -0.0790 -0.0943
 7230SOL    HW133152   1.250   4.422   0.948 -0.6602 -0.3919 -0.1641
 7230SOL    HW233153   1.335   4.412   0.826 -0.8632 -0.9398  1.3244
 7231SOL     OW33154   4.660   2.254   5.984  0.0551 -0.0391 -0.0579
 7231SOL    HW133155   4.581   2.218   5.943 -0.8039  1.6518  0.1264
 7231SOL    HW233156   4.721   2.252   5.910 -0.6416  1.3544 -0.6591
 7232SOL     OW33157   4.382   1.570   6.585  0.1861 -0.3747  0.1018
 7232SOL    HW133158   4.399   1.649   6.533 -1.7479 -0.1379 -0.1878
 7232SOL    HW233159   4.371   1.609   6.672  0.8429 -1.6663  0.7503
 7233SOL     OW33160   3.624   2.144   2.479  0.4896  0.0087 -0.3933
 7233SOL    HW133161   3.552   2.112   2.534  0.4995 -0.1896 -0.4961
 7233SOL    HW233162   3.664   2.214   2.531  0.1917  0.4579 -0.7688
 7234SOL     OW33163   2.668   3.542   7.469  0.0605  0.7746 -0.6534
 7234SOL    HW133164   2.705   3.604   7.407  0.5597 -0.9758 -2.1044
 7234SOL    HW233165   2.577   3.571   7.474  0.5108  1.5437  3.0610
 7235SOL     OW33166   2.395   0.400  15.432 -0.1636 -0.3675 -0.1425
 7235SOL    HW133167   2.332   0.464  15.399 -1.3523 -2.2376 -1.5329
 7235SOL    HW233168   2.449   0.447  15.495  2.3520 -2.2930 -0.8610
 7236SOL     OW33169   3.506   2.188  17.575  0.1176 -0.4139  0.2727
 7236SOL    HW133170   3.503   2.162  17.483  1.3322  0.4105 -0.0056
 7236SOL    HW233171   3.483   2.280  17.559 -0.4725 -0.6739 -0.4167
 7237SOL     OW33172   3.036   2.908   1.385  0.3440  0.1628  0.3309
 7237SOL    HW133173   2.963   2.949   1.430 -0.3572 -1.3088  0.5336
 7237SOL    HW233174   2.986   2.837   1.345 -1.1685  1.8558 -0.7734
 7238SOL     OW33175   3.351   3.294   7.811 -0.3162 -0.5181  0.2219
 7238SOL    HW133176   3.304   3.361   7.861  0.3608  0.9539 -1.1349
 7238SOL    HW233177   3.434   3.341   7.813 -0.9863  0.6978 -0.2961
 7239SOL     OW33178   1.237   2.794  15.601 -0.7541 -0.2719  0.4303
 7239SOL    HW133179   1.291   2.854  15.550 -1.0683  0.4487  0.9465
 7239SOL    HW233180   1.212   2.849  15.675  1.3127  0.1241  0.8189
 7240SOL     OW33181   0.919   2.597   3.743  0.0591  0.4050  0.4166
 7240SOL    HW133182   0.953   2.599   3.654  0.4391 -0.8679  0.5338
 7240SOL    HW233183   0.863   2.519   3.747 -1.3210  1.4329  1.3318
 7241SOL     OW33184   2.410   2.843   4.898 -0.1263  0.3299 -0.3278
 7241SOL    HW133185   2.389   2.873   4.986 -0.9048 -0.3869 -0.2607
 7241SOL    HW233186   2.340   2.886   4.847  0.6032 -0.0803 -1.6877
 7242SOL     OW33187   1.043   3.347   6.468 -0.0783  0.4879  0.7410
 7242SOL    HW133188   1.069   3.419   6.410 -1.9697  0.9180  0.4293
 7242SOL    HW233189   0.978   3.387   6.525  0.1676  1.7700  0.1197
 7243SOL     OW33190   4.409   2.403   3.714 -0.1436  0.2212 -0.0289
 7243SOL    HW133191   4.336   2.352   3.679 -1.2962 -0.7516  3.8714
 7243SOL    HW233192   4.361   2.459   3.775  0.5245  3.1072 -2.1261
 7244SOL     OW33193   2.127   1.633   6.610 -0.5879 -0.3831  0.3355
 7244SOL    HW133194   2.183   1.589   6.674  0.1735 -1.0496 -0.7907
 7244SOL    HW233195   2.070   1.691   6.660  1.3169 -0.3803  2.5577
 7245SOL     OW33196   0.652   2.370  10.828 -0.4902 -0.6383  0.1779
 7245SOL    HW133197   0.572   2.358  10.879 -0.6738 -0.4265 -0.0637
 7245SOL    HW233198   0.651   2.465  10.822 -2.0133 -0.8046 -2.6047
 7246SOL     OW33199   2.210   0.488   3.724  0.4215 -0.0460  0.0910
 7246SOL    HW133200   2.237   0.572   3.687  0.4148 -0.6735 -1.3460
 7246SOL    HW233201   2.206   0.438   3.642 -0.4746  0.8931 -0.4401
 7247SOL     OW33202   3.870   0.953   7.852  0.0618 -0.2465  0.5374
 7247SOL    HW133203   3.952   0.903   7.859 -0.8706 -1.7496  0.7187
 7247SOL    HW233204   3.810   0.884   7.825  0.2081 -0.3015  0.3521
 7248SOL     OW33205   0.278   2.693  15.200 -0.0578  0.0515 -0.8257
 7248SOL    HW133206   0.263   2.608  15.157  0.7796  0.0774 -1.1772
 7248SOL    HW233207   0.255   2.753  15.129 -2.2072 -2.4487 -2.2420
 7249SOL     OW33208   0.742   2.932   9.317 -0.1342 -0.2737 -0.8232
 7249SOL    HW133209   0.767   2.964   9.230  0.4080  1.2812 -0.0938
 7249SOL    HW233210   0.693   3.009   9.344 -0.4283 -0.8083  0.1529
 7250SOL     OW33211   0.530   2.423   4.949  0.1868 -0.1936 -0.2023
 7250SOL    HW133212   0.477   2.484   4.898  0.9788 -2.2908 -3.5135
 7250SOL    HW233213   0.537   2.348   4.890  0.0398  1.6104 -2.4952
 7251SOL     OW33214   4.081   2.408   3.496  0.5571 -0.1877 -0.2018
 7251SOL    HW133215   4.010   2.455   3.452  1.2681  0.1375 -0.9969
 7251SOL    HW233216   4.160   2.458   3.475  1.5206 -1.2233  0.9232
 7252SOL     OW33217   4.018   3.289   1.340  0.0690  0.3457 -0.2023
 7252SOL    HW133218   3.962   3.241   1.401  0.6257  1.1555  0.9410
 7252SOL    HW233219   4.039   3.215   1.283  1.2955  0.2307  0.3997
 7253SOL     OW33220   2.389   4.585  12.863 -0.1120  0.1868 -0.0148
 7253SOL    HW133221   2.337   4.664  12.877 -2.8844 -1.7647  0.6495
 7253SOL    HW233222   2.400   4.558  12.955  1.9539  1.5774  0.1540
 7254SOL     OW33223   1.410   2.835   6.085 -0.2152  0.1374 -0.2253
 7254SOL    HW133224   1.488   2.887   6.105  1.8452 -2.4938 -1.2450
 7254SOL    HW233225   1.359   2.887   6.024 -0.0434  0.0904 -0.4094
 7255SOL     OW33226   2.814   1.243   5.937  0.0476 -0.1170 -0.2037
 7255SOL    HW133227   2.734   1.270   5.893 -1.4177 -1.7343  1.4706
 7255SOL    HW233228   2.862   1.325   5.931 -1.9920  1.0932  0.1182
 7256SOL     OW33229   0.001   1.004   3.614  0.0536  0.5810 -0.4280
 7256SOL    HW133230   0.022   1.074   3.552 -0.6496  1.9957  0.9380
 7256SOL    HW233231   0.083   0.989   3.661  0.6391  2.1064 -0.9766
 7257SOL     OW33232   0.508   0.443   9.338 -0.0145 -0.6006 -0.5397
 7257SOL    HW133233   0.602   0.425   9.344  0.3442  1.5181  0.0241
 7257SOL    HW233234   0.473   0.397   9.415 -1.5734  2.4702  0.5800
 7258SOL     OW33235   2.438   3.431   2.429  0.5420  0.0337  0.0427
 7258SOL    HW133236   2.427   3.339   2.456  1.2408 -0.0894 -0.1072
 7258SOL    HW233237   2.350   3.442   2.391  0.7417  0.9482 -0.1549
 7259SOL     OW33238   3.684   1.669  11.476  0.6309 -0.5619  0.4228
 7259SOL    HW133239   3.672   1.574  11.468 -1.4696 -0.2723  0.1305
 7259SOL    HW233240   3.595   1.700  11.456 -0.2106 -2.8771  0.5320
 7260SOL     OW33241   4.217   2.303  12.874  1.0681 -0.1879  0.2135
 7260SOL    HW133242   4.233   2.398  12.879  0.5353 -0.0530 -0.5387
 7260SOL    HW233243   4.307   2.272  12.870  0.4672 -1.9684  0.7873
 7261SOL     OW33244   0.614   1.280   1.679 -0.0404 -0.1506 -0.0382
 7261SOL    HW133245   0.617   1.274   1.583  1.2179  1.3944 -0.1066
 7261SOL    HW233246   0.521   1.261   1.691 -0.2981  0.5490 -0.9204
 7262SOL     OW33247   1.814   0.438   3.686 -0.5655  0.1181  0.1170
 7262SOL    HW133248   1.764   0.413   3.608 -1.7003  3.5208 -0.2260
 7262SOL    HW233249   1.887   0.376   3.694 -0.2346  0.3507 -1.0334
 7263SOL     OW33250   0.706   4.116   4.590 -0.7158 -0.1084  0.1589
 7263SOL    HW133251   0.728   4.205   4.562  0.4802 -0.0539  1.2352
 7263SOL    HW233252   0.612   4.116   4.605 -1.0399  0.1275 -1.8091
 7264SOL     OW33253   4.340   0.320   7.645 -0.0306 -0.5792 -0.4258
 7264SOL    HW133254   4.377   0.383   7.707 -0.8792 -0.8094  0.3181
 7264SOL    HW233255   4.413   0.259   7.647 -1.4979 -2.3034  0.2792
 7265SOL     OW33256   2.556   3.010   5.957  0.2279 -0.7949 -0.5051
 7265SOL    HW133257   2.631   3.024   6.016 -2.2009  1.2757  2.1166
 7265SOL    HW233258   2.511   2.949   6.015  0.7669 -0.0603  0.7009
 7266SOL     OW33259   3.320   2.354   8.479  0.4905  0.7077 -0.5076
 7266SOL    HW133260   3.249   2.413   8.454  1.6244  1.8954 -0.9501
 7266SOL    HW233261   3.338   2.396   8.563 -2.0971 -0.2622  0.5321
 7267SOL     OW33262   3.001   0.715  12.026 -0.1688  0.4476  0.0550
 7267SOL    HW133263   3.034   0.655  12.093 -2.5812 -0.7984  0.1315
 7267SOL    HW233264   3.072   0.773  12.000 -0.4138 -0.1989 -2.0912
 7268SOL     OW33265   2.109   1.846   4.867 -0.0473 -0.2000 -0.8913
 7268SOL    HW133266   2.110   1.793   4.947  0.7156  0.3611 -0.5203
 7268SOL    HW233267   2.021   1.833   4.832 -1.5108  2.0506  1.8519
 7269SOL     OW33268   2.805   0.568  11.933 -0.1235  0.3650  0.1337
 7269SOL    HW133269   2.886   0.615  11.954  0.7825 -0.4748 -1.4110
 7269SOL    HW233270   2.771   0.546  12.019  2.7557  0.0720  1.1851
 7270SOL     OW33271   2.930   3.440   8.193  0.0969  0.2360  0.0872
 7270SOL    HW133272   2.939   3.345   8.187 -0.0648  0.1619  1.0153
 7270SOL    HW233273   2.845   3.450   8.234 -0.9431 -2.7926 -1.3269
 7271SOL     OW33274   1.597   2.481   6.361 -0.9297  0.0460 -0.4586
 7271SOL    HW133275   1.565   2.546   6.422  2.0325  1.8345 -0.8041
 7271SOL    HW233276   1.514   2.455   6.321 -1.4008  0.9704 -0.0834
 7272SOL     OW33277   2.081   3.956   8.840 -0.1831  0.7131  0.2691
 7272SOL    HW133278   1.993   3.922   8.831  0.8672 -2.4621  2.0275
 7272SOL    HW233279   2.070   4.045   8.807  2.8715  0.2608 -1.9620
 7273SOL     OW33280   0.773   3.940  11.272  0.0266 -0.4458 -0.3779
 7273SOL    HW133281   0.725   4.004  11.326  0.8043 -1.8538  1.9832
 7273SOL    HW233282   0.742   3.959  11.183 -0.7177  2.2238  0.4302
 7274SOL     OW33283   2.007   0.523  13.349 -0.1802  0.0511 -0.1501
 7274SOL    HW133284   1.997   0.586  13.277  0.1652  1.6598  1.2133
 7274SOL    HW233285   2.033   0.581  13.421 -1.6115 -1.4627  1.5858
 7275SOL     OW33286   1.277   3.114   2.283  0.2650 -0.1682 -0.1372
 7275SOL    HW133287   1.268   3.072   2.369 -1.4805  0.1819 -0.1646
 7275SOL    HW233288   1.301   3.037   2.232 -0.4778  1.9586 -3.6733
 7276SOL     OW33289   3.923   3.403  16.776  0.0743 -0.0005 -0.2587
 7276SOL    HW133290   3.945   3.476  16.834 -0.1574 -0.0608 -0.0931
 7276SOL    HW233291   3.828   3.401  16.787  0.0033  0.3185 -0.8341
 7277SOL     OW33292   2.476   3.887   1.365 -0.2937  0.2566  0.0224
 7277SOL    HW133293   2.555   3.838   1.389 -1.1826 -0.9297  0.5094
 7277SOL    HW233294   2.514   3.975   1.354 -0.6695  0.1994 -1.7254
 7278SOL     OW33295   0.060   1.722  10.055  0.6230  0.2537 -0.1959
 7278SOL    HW133296   0.140   1.668  10.050  0.1640 -0.4897  0.4857
 7278SOL    HW233297   0.026   1.703  10.142  0.5867 -2.8138 -0.8698
 7279SOL     OW33298   0.426   0.701   3.439  0.3656 -0.2444  0.4989
 7279SOL    HW133299   0.479   0.723   3.362 -0.3873 -0.0922  0.0317
 7279SOL    HW233300   0.403   0.614   3.405 -0.0059  0.1068 -0.1368
 7280SOL     OW33301   1.626   2.501   3.810  0.5794  0.0219  0.0124
 7280SOL    HW133302   1.598   2.474   3.897 -0.2595 -0.5832 -0.4456
 7280SOL    HW233303   1.555   2.466   3.756  0.5293 -1.5406  1.1002
 7281SOL     OW33304   2.062   1.513  10.342  0.1616  0.1433 -0.2039
 7281SOL    HW133305   1.983   1.546  10.299  1.8742  2.7459 -1.3764
 7281SOL    HW233306   2.079   1.577  10.411 -2.4502 -0.3448  0.9233
 7282SOL     OW33307   1.551   3.461   7.838  0.1732 -0.1974  0.1942
 7282SOL    HW133308   1.590   3.405   7.772 -0.3599  1.5388 -1.5831
 7282SOL    HW233309   1.572   3.552   7.821 -0.7025  0.4270  2.3857
 7283SOL     OW33310   3.737   4.484  13.369  0.2318  0.5065  0.1734
 7283SOL    HW133311   3.823   4.442  13.376  0.4878  0.7834 -1.1784
 7283SOL    HW233312   3.763   4.571  13.400 -1.4871  0.6590  1.2097
 7284SOL     OW33313   3.012   0.055   6.319  0.3559 -0.1189  0.7031
 7284SOL    HW133314   3.102   0.043   6.291 -0.6934  0.2843 -2.8411
 7284SOL    HW233315   3.027   0.105   6.399 -0.7709  0.1553  0.7442
 7285SOL     OW33316   0.700   0.944   1.949  0.3581  0.4020 -1.3712
 7285SOL    HW133317   0.660   0.937   1.863 -2.5530  0.1611 -0.0201
 7285SOL    HW233318   0.681   1.037   1.963  0.2050  0.1416  0.1730
 7286SOL     OW33319   2.908   1.151   4.022  0.3004  0.0822 -0.5907
 7286SOL    HW133320   2.928   1.091   4.094  1.0424  0.9650 -0.0757
 7286SOL    HW233321   2.986   1.137   3.969  0.9169  0.7777  0.1441
 7287SOL     OW33322   4.666   4.601   6.253  0.4286  0.0847 -0.3682
 7287SOL    HW133323   4.711   4.560   6.327  1.2913 -2.9775 -2.5830
 7287SOL    HW233324   4.580   4.632   6.283  0.3887  1.1842 -1.5996
 7288SOL     OW33325   0.603   3.282   7.588  0.6790 -0.4436 -0.4682
 7288SOL    HW133326   0.540   3.308   7.656  0.2415 -0.8071 -0.7310
 7288SOL    HW233327   0.659   3.228   7.644 -2.6697 -1.6478  1.7286
 7289SOL     OW33328   3.271   1.912   6.258 -0.2084  0.0042 -0.8935
 7289SOL    HW133329   3.304   1.994   6.294 -1.7407  0.8400 -1.3929
 7289SOL    HW233330   3.339   1.879   6.198 -1.3620  0.0794 -2.2532
 7290SOL     OW33331   3.637   2.423  13.808 -0.7566  0.3898  0.1603
 7290SOL    HW133332   3.606   2.337  13.778  0.6539 -0.4544  1.1247
 7290SOL    HW233333   3.669   2.399  13.895 -0.7468  0.0465  0.0644
 7291SOL     OW33334   4.669   2.318   3.754  0.1889 -0.1776  0.2138
 7291SOL    HW133335   4.605   2.356   3.814 -1.4026 -1.6653 -0.5464
 7291SOL    HW233336   4.633   2.233   3.727 -1.0823  0.6687 -0.7172
 7292SOL     OW33337   1.664   0.184   7.153 -0.0122 -0.3997  0.3867
 7292SOL    HW133338   1.684   0.244   7.226  1.0476  0.5325 -0.6787
 7292SOL    HW233339   1.732   0.116   7.157  1.1824  0.8747  2.1147
 7293SOL     OW33340   1.804   4.424   9.003  0.4766 -0.8188  0.1681
 7293SOL    HW133341   1.722   4.405   8.958 -0.1937  1.0089  0.6581
 7293SOL    HW233342   1.852   4.466   8.931 -0.5658 -0.1353 -0.1149
 7294SOL     OW33343   4.387   4.027   5.435  0.1384  0.4230  0.5636
 7294SOL    HW133344   4.318   4.062   5.492 -0.4637  0.5529 -0.2411
 7294SOL    HW233345   4.448   3.995   5.501 -0.4955 -0.0689  0.9085
 7295SOL     OW33346   2.409   1.146  15.500  0.4379  0.1104  0.3053
 7295SOL    HW133347   2.471   1.218  15.489  2.2461 -1.3822  0.6209
 7295SOL    HW233348   2.351   1.153  15.425  0.4275  1.7386  0.4698
 7296SOL     OW33349   1.571   3.535  12.090  0.0872  0.2744  0.0914
 7296SOL    HW133350   1.598   3.557  12.000 -0.6107 -1.9557 -0.6631
 7296SOL    HW233351   1.642   3.477  12.116 -0.8007 -0.7648  0.1866
 7297SOL     OW33352   2.718   2.267  11.339  0.6528 -0.3838 -0.2154
 7297SOL    HW133353   2.800   2.241  11.296  2.0111  1.2617  1.3546
 7297SOL    HW233354   2.718   2.360  11.318 -1.0764 -0.0343  1.3491
 7298SOL     OW33355   0.025   4.343   7.926 -0.5846 -0.2498  0.5378
 7298SOL    HW133356   4.680   4.312   7.870  1.0017 -3.2086  0.1612
 7298SOL    HW233357   4.705   4.392   7.994  0.3958  2.3743 -0.6777
 7299SOL     OW33358   3.116   2.062   9.306  0.4464 -0.0359 -0.6629
 7299SOL    HW133359   3.158   2.107   9.379  0.2321 -0.6000 -0.1887
 7299SOL    HW233360   3.153   2.112   9.234 -2.7751  0.4082 -2.0161
 7300SOL     OW33361   0.793   2.812   5.177  0.5377  0.0558 -0.0271
 7300SOL    HW133362   0.724   2.808   5.242 -0.9997 -0.8619 -1.7257
 7300SOL    HW233363   0.794   2.905   5.156  0.4610  0.8310  3.4157
 7301SOL     OW33364   0.118   0.520   1.129 -0.0434  0.2446 -0.4293
 7301SOL    HW133365   0.129   0.487   1.040  2.0543 -2.5517  0.8474
 7301SOL    HW233366   0.136   0.608   1.098 -3.0198  0.1315 -2.3975
 7302SOL     OW33367   3.978   2.415   4.991  0.5928 -0.4086  0.2115
 7302SOL    HW133368   3.963   2.487   5.053 -1.6638 -0.4117 -0.3146
 7302SOL    HW233369   3.974   2.335   5.042  0.7376  0.0018  0.8658
 7303SOL     OW33370   0.241   2.723   8.369  0.7875  0.6440  0.1146
 7303SOL    HW133371   0.219   2.815   8.354 -1.1464  0.3340  1.0967
 7303SOL    HW233372   0.273   2.731   8.458 -1.0771  1.4389  0.7224
 7304SOL     OW33373   2.439   3.737   6.175 -0.4492  0.1267  0.5226
 7304SOL    HW133374   2.497   3.701   6.242 -0.8371 -1.2246  0.1239
 7304SOL    HW233375   2.491   3.812   6.145 -0.9638  1.2293  2.3580
 7305SOL     OW33376   1.747   1.773   5.892 -0.0846  0.0204 -0.5758
 7305SOL    HW133377   1.738   1.825   5.972  1.4292 -1.2539  0.4269
 7305SOL    HW233378   1.826   1.723   5.915  0.8521  2.0675  0.6783
 7306SOL     OW33379   2.163   1.833  17.344 -0.4294 -0.8928  0.0694
 7306SOL    HW133380   2.084   1.887  17.342 -0.1934 -0.4975  1.6790
 7306SOL    HW233381   2.132   1.748  17.313 -0.3697 -0.8403 -0.1393
 7307SOL     OW33382   1.800   3.829   9.436  0.3700 -0.2720  0.5160
 7307SOL    HW133383   1.740   3.903   9.449 -2.7961 -2.6746 -0.5486
 7307SOL    HW233384   1.798   3.778   9.517 -0.1832 -4.3306 -2.0515
 7308SOL     OW33385   1.051   3.792   4.589 -0.5408  0.0202 -0.2968
 7308SOL    HW133386   0.970   3.829   4.553 -0.0525 -0.2935 -1.7147
 7308SOL    HW233387   1.098   3.786   4.506  0.9473  1.1412  0.4787
 7309SOL     OW33388   0.980   2.687   4.126  0.4319 -0.2854 -0.0691
 7309SOL    HW133389   0.947   2.635   4.198 -4.1724  0.7739 -1.4109
 7309SOL    HW233390   1.073   2.674   4.143  0.3302 -0.4710  0.3192
 7310SOL     OW33391   4.506   1.754   8.561  0.2845  0.7320  0.0424
 7310SOL    HW133392   4.559   1.815   8.510  0.1720 -0.0545 -1.0109
 7310SOL    HW233393   4.514   1.786   8.651  1.8365  1.2981 -0.3107
 7311SOL     OW33394   3.273   2.128  17.066 -0.5302  0.1030  0.4182
 7311SOL    HW133395   3.316   2.207  17.098 -1.0675  1.1776 -1.5072
 7311SOL    HW233396   3.354   2.078  17.076 -0.0339  1.0837  1.2908
 7312SOL     OW33397   2.279   4.341  15.569 -0.6626  0.7013 -0.6705
 7312SOL    HW133398   2.365   4.339  15.529 -0.6432 -0.2569 -0.5823
 7312SOL    HW233399   2.263   4.436  15.570 -0.5225  0.7250 -0.6079
 7313SOL     OW33400   3.709   0.045   9.827 -0.0660 -0.1974  0.2683
 7313SOL    HW133401   3.674   0.011   9.909 -0.5490  1.0695  0.5778
 7313SOL    HW233402   3.800   0.065   9.850  0.4582  0.8431 -2.7914
 7314SOL     OW33403   0.793   3.548  11.671 -0.2185 -0.4455  0.3985
 7314SOL    HW133404   0.778   3.504  11.755  1.5897 -0.9677  0.4291
 7314SOL    HW233405   0.723   3.516  11.614  0.7930  0.4604 -1.3648
 7315SOL     OW33406   3.722   0.961   8.654 -0.0348 -0.4516 -0.3965
 7315SOL    HW133407   3.708   0.937   8.746 -0.6118 -0.0481 -0.3752
 7315SOL    HW233408   3.676   0.891   8.607  1.0772 -0.1622 -1.9334
 7316SOL     OW33409   2.333   4.012  12.642 -0.1116 -0.2546  0.0624
 7316SOL    HW133410   2.315   3.963  12.561  0.9998 -1.6876  0.6916
 7316SOL    HW233411   2.425   3.992  12.657 -0.9910 -2.7261  2.1179
 7317SOL     OW33412   2.521   2.559   2.554 -0.1373 -0.0149  0.2373
 7317SOL    HW133413   2.583   2.491   2.580  0.4321 -0.2036 -1.6017
 7317SOL    HW233414   2.591   2.623   2.545 -0.3637 -0.1812 -2.7081
 7318SOL     OW33415   0.455   2.506   6.577 -0.0760 -0.3354 -0.0479
 7318SOL    HW133416   0.460   2.525   6.483  0.5269 -0.7072 -0.0912
 7318SOL    HW233417   0.464   2.412   6.563  1.8077 -0.1673  0.0341
 7319SOL     OW33418   1.655   1.022   8.256 -0.2120 -0.2301 -0.0517
 7319SOL    HW133419   1.661   0.945   8.313 -0.8608  0.5189  1.0357
 7319SOL    HW233420   1.748   1.046   8.259 -1.0785  2.9326  1.4766
 7320SOL     OW33421   1.569   0.943  15.990 -0.1742  0.2532 -0.4624
 7320SOL    HW133422   1.542   0.864  15.942 -2.0147  2.2226 -2.6447
 7320SOL    HW233423   1.570   0.915  16.082 -0.7482 -1.1199 -0.8583
 7321SOL     OW33424   2.713   1.177  12.411 -0.3245  0.0032 -0.1781
 7321SOL    HW133425   2.785   1.139  12.361  0.0232 -0.1554  0.4476
 7321SOL    HW233426   2.732   1.162  12.503  1.7230 -0.3590 -0.6656
 7322SOL     OW33427   1.096   2.256   7.295  0.2850 -0.1327  0.5802
 7322SOL    HW133428   1.010   2.231   7.261  0.4545  0.2915 -0.1656
 7322SOL    HW233429   1.143   2.248   7.212 -2.2631  0.4928 -0.9137
 7323SOL     OW33430   4.053   0.138   8.656  0.1199 -0.0903 -0.0440
 7323SOL    HW133431   4.135   0.112   8.697 -0.0286 -0.3418  0.0943
 7323SOL    HW233432   3.981   0.110   8.714 -1.2338 -0.3584 -1.8466
 7324SOL     OW33433   3.151   3.955   3.309  1.0454  0.4836 -0.0421
 7324SOL    HW133434   3.235   3.924   3.275  1.0194  2.5742 -2.0266
 7324SOL    HW233435   3.102   3.945   3.227 -0.7077 -0.7344  1.1561
 7325SOL     OW33436   3.237   0.525  11.732  0.3822  0.2452  0.7800
 7325SOL    HW133437   3.152   0.568  11.747 -0.2970 -0.9315  0.3044
 7325SOL    HW233438   3.274   0.592  11.675  0.7481 -0.0468  0.6765
 7326SOL     OW33439   0.214   2.063   5.553  0.3066  0.5778  0.1536
 7326SOL    HW133440   0.242   1.978   5.586  2.6871  0.5415 -1.9049
 7326SOL    HW233441   0.132   2.037   5.511  1.5854  1.6148 -2.9805
 7327SOL     OW33442   1.593   4.093   7.842  0.2764  0.0269  0.1225
 7327SOL    HW133443   1.647   4.051   7.774 -0.4629 -0.2459 -0.2918
 7327SOL    HW233444   1.661   4.113   7.906 -0.6199  1.6768  0.5423
 7328SOL     OW33445   2.729   3.960   2.603 -0.2699  0.7747  0.4058
 7328SOL    HW133446   2.634   3.963   2.588 -0.2865 -1.0961  0.1632
 7328SOL    HW233447   2.744   3.870   2.575 -1.0343  1.4730 -2.2819
 7329SOL     OW33448   2.125   2.525   6.239  0.6468 -0.7309  0.1274
 7329SOL    HW133449   2.078   2.570   6.309  1.6717 -0.3815  0.5804
 7329SOL    HW233450   2.088   2.436   6.242 -1.0980 -0.0140 -0.2485
 7330SOL     OW33451   3.928   3.542   6.782  0.0115 -0.1538 -0.1073
 7330SOL    HW133452   3.850   3.536   6.836 -0.2657 -1.9465 -0.7120
 7330SOL    HW233453   4.000   3.529   6.844  0.8856  1.0270 -0.8603
 7331SOL     OW33454   4.037   4.641   1.374  0.0277 -0.3238 -0.1005
 7331SOL    HW133455   4.039   4.556   1.418 -0.0787 -1.4727 -2.3582
 7331SOL    HW233456   4.032   4.627   1.280  0.5549  1.6197 -0.4248
 7332SOL     OW33457   4.109   2.034   0.330 -0.1283  0.4560 -0.1703
 7332SOL    HW133458   4.048   2.002   0.397 -0.1034 -0.0930 -0.4037
 7332SOL    HW233459   4.187   1.979   0.340 -1.3978 -1.1045  1.2003
 7333SOL     OW33460   0.627   4.378   5.588 -1.1295 -0.0579 -0.1020
 7333SOL    HW133461   0.665   4.314   5.528  0.1873  0.0143  0.6577
 7333SOL    HW233462   0.696   4.396   5.652  1.5985  0.4536 -3.1774
 7334SOL     OW33463   0.362   4.640  10.808 -0.1887 -0.4916  0.8033
 7334SOL    HW133464   0.356   4.710  10.873  2.5701 -0.5424  1.1279
 7334SOL    HW233465   0.270   4.624  10.786 -0.1067 -0.1458  0.2166
 7335SOL     OW33466   3.057   3.590   4.154  0.8273 -0.3357  0.2055
 7335SOL    HW133467   3.119   3.541   4.209 -0.0751 -0.2904  1.2734
 7335SOL    HW233468   2.976   3.583   4.204  0.0868 -1.1880 -1.1114
 7336SOL     OW33469   4.697   2.846   4.379 -0.2564  0.0874  0.1372
 7336SOL    HW133470   4.703   2.885   4.466 -1.3659  0.2791  0.1323
 7336SOL    HW233471   0.058   2.807   4.377 -1.2561 -2.1860 -0.2016
 7337SOL     OW33472   4.175   3.414   6.919 -0.2369  0.2280 -0.0546
 7337SOL    HW133473   4.269   3.396   6.912 -0.3504 -0.7712  0.8807
 7337SOL    HW233474   4.165   3.386   7.011 -3.7851  1.1459 -0.1864
 7338SOL     OW33475   3.613   1.133  13.793 -0.1663 -0.6079 -0.3403
 7338SOL    HW133476   3.583   1.050  13.832  1.2590 -1.6574 -1.4925
 7338SOL    HW233477   3.703   1.118  13.766 -0.8133 -3.5051 -0.9046
 7339SOL     OW33478   0.847   3.157   6.323 -0.0259  0.2002  0.0412
 7339SOL    HW133479   0.846   3.252   6.321 -0.1251  0.1678 -1.0660
 7339SOL    HW233480   0.756   3.136   6.346 -0.1663  1.5722  0.7477
 7340SOL     OW33481   1.475   4.185   3.348 -0.3667 -0.6229 -0.4383
 7340SOL    HW133482   1.557   4.137   3.357  0.6879  1.6362  2.2978
 7340SOL    HW233483   1.504   4.274   3.370  2.0606 -1.6415  0.4856
 7341SOL     OW33484   0.299   2.676   1.900  0.6597  0.2398  0.2772
 7341SOL    HW133485   0.307   2.654   1.807 -0.6550 -0.3273  0.2997
 7341SOL    HW233486   0.287   2.771   1.892 -0.5211  0.1668  1.2392
 7342SOL     OW33487   1.970   3.560   4.782  0.1634 -0.4876  0.0135
 7342SOL    HW133488   1.987   3.546   4.876 -0.6612 -1.3710  0.0387
 7342SOL    HW233489   1.875   3.572   4.783  0.2796  0.4041  0.3352
 7343SOL     OW33490   0.100   1.651   6.374 -0.0381 -0.7979  0.0496
 7343SOL    HW133491   0.006   1.658   6.357 -0.0759 -2.5553 -0.5377
 7343SOL    HW233492   0.082   1.652   6.468  0.2421 -0.5840  0.1006
 7344SOL     OW33493   3.117   0.189   7.918  0.0466  0.6431  0.0651
 7344SOL    HW133494   3.051   0.224   7.858  0.3913 -0.1887 -0.8034
 7344SOL    HW233495   3.173   0.267   7.918 -0.0016  0.6774  0.1302
 7345SOL     OW33496   3.643   4.055   9.470 -0.9324 -0.2616  0.9235
 7345SOL    HW133497   3.588   4.129   9.445 -1.2624 -0.0850  2.1874
 7345SOL    HW233498   3.718   4.080   9.417 -0.0475 -0.1133  2.2487
 7346SOL     OW33499   0.095   3.445   3.629  0.1097  0.2740  0.0193
 7346SOL    HW133500   0.145   3.432   3.709  0.5918 -2.2986 -0.6892
 7346SOL    HW233501   0.014   3.409   3.666  0.2665 -1.1826 -1.0344
 7347SOL     OW33502   0.248   3.026   0.683  0.0554 -0.1949  0.5613
 7347SOL    HW133503   0.173   3.055   0.632 -0.1135 -2.2102 -0.3438
 7347SOL    HW233504   0.320   3.081   0.652 -0.6283  0.9908  1.0754
 7348SOL     OW33505   0.139   0.268   7.585 -0.1163  0.1801 -0.3649
 7348SOL    HW133506   0.205   0.228   7.642  1.0358  1.8863 -0.4823
 7348SOL    HW233507   0.105   0.198   7.530 -0.8406  0.3324 -0.1101
 7349SOL     OW33508   4.255   1.510   7.921  0.0376 -0.1523  0.5939
 7349SOL    HW133509   4.268   1.525   7.828 -0.3531 -0.7611  0.4414
 7349SOL    HW233510   4.272   1.599   7.952 -2.1106 -0.0470  1.4449
 7350SOL     OW33511   0.695   0.663  16.268  0.1849 -0.0830 -0.2398
 7350SOL    HW133512   0.619   0.685  16.322 -0.1687 -0.3788 -0.6168
 7350SOL    HW233513   0.670   0.581  16.225 -1.6880  1.1548 -1.4866
 7351SOL     OW33514   0.488   2.381  12.766 -0.3042  0.5078 -0.1453
 7351SOL    HW133515   0.507   2.291  12.739  1.6663  0.6817  0.7099
 7351SOL    HW233516   0.573   2.420  12.785 -0.6292  0.4364  1.4227
 7352SOL     OW33517   3.534   3.002   5.557 -0.3020  0.2374 -0.3752
 7352SOL    HW133518   3.467   2.993   5.489  0.8713  1.0793 -1.6334
 7352SOL    HW233519   3.573   2.916   5.572 -1.3720 -0.2201 -0.1646
 7353SOL     OW33520   0.657   3.486  16.282 -0.3713 -0.3930 -0.2030
 7353SOL    HW133521   0.667   3.391  16.283  0.0138 -0.3439  0.3738
 7353SOL    HW233522   0.636   3.503  16.190  1.6958  0.8672 -0.4223
 7354SOL     OW33523   0.437   1.853   7.640 -0.0340  0.0487 -0.1385
 7354SOL    HW133524   0.472   1.775   7.599  1.0818 -0.9755  2.7596
 7354SOL    HW233525   0.514   1.886   7.687 -0.3852  1.5767 -0.6296
 7355SOL     OW33526   1.049   3.049   2.893 -0.0353  0.4239  0.1485
 7355SOL    HW133527   1.088   3.127   2.933 -0.7553  1.1125 -0.5116
 7355SOL    HW233528   1.123   2.989   2.906 -1.4774 -1.4086 -0.1075
 7356SOL     OW33529   3.709   0.657  11.156 -0.9162 -0.0567 -0.7170
 7356SOL    HW133530   3.714   0.668  11.251  1.6105 -1.0643 -0.7205
 7356SOL    HW233531   3.801   0.660  11.129 -0.6904  0.1493  0.0745
 7357SOL     OW33532   1.435   1.521   8.249  0.3473 -0.1679  0.3236
 7357SOL    HW133533   1.528   1.535   8.267  0.1863  0.8323  0.3914
 7357SOL    HW233534   1.433   1.428   8.225 -0.3690 -0.2314  0.6366
 7358SOL     OW33535   1.791   3.814   8.018  0.1879 -0.3073 -0.3696
 7358SOL    HW133536   1.740   3.885   8.057 -0.6389 -0.1700 -1.6944
 7358SOL    HW233537   1.785   3.827   7.923 -1.0939  2.3311  0.0869
 7359SOL     OW33538   4.589   4.017  12.411  0.3640 -0.1054 -0.0222
 7359SOL    HW133539   4.673   3.992  12.372  0.9247 -1.2462  1.9137
 7359SOL    HW233540   4.599   3.968  12.493 -0.1581 -0.8013 -0.3658
 7360SOL     OW33541   2.922   1.048   6.977  0.5873 -0.1475 -0.2273
 7360SOL    HW133542   2.931   1.141   6.960  2.4531 -0.1473  0.7258
 7360SOL    HW233543   2.938   1.018   6.888 -0.2538 -0.8273 -0.1562
 7361SOL     OW33544   3.195   0.465   5.645 -0.2425 -0.5962  0.3933
 7361SOL    HW133545   3.205   0.557   5.668 -1.5373 -0.1849 -0.6968
 7361SOL    HW233546   3.101   0.447   5.646 -0.1978 -0.9339 -1.8311
 7362SOL     OW33547   1.233   4.203  11.798 -0.3208  0.0327 -0.6136
 7362SOL    HW133548   1.248   4.270  11.866 -1.0998  0.0516 -0.4654
 7362SOL    HW233549   1.284   4.130  11.834 -0.0713 -0.0293 -1.1009
 7363SOL     OW33550   1.871   2.068   2.449 -0.1664  0.1553  0.5603
 7363SOL    HW133551   1.953   2.025   2.472 -0.0745  0.3133  0.5291
 7363SOL    HW233552   1.859   2.119   2.529  0.2324 -0.8650  1.2604
 7364SOL     OW33553   2.354   4.301   7.977 -0.2956 -0.1148 -0.7508
 7364SOL    HW133554   2.279   4.241   7.981  0.4867 -1.0211  0.4765
 7364SOL    HW233555   2.318   4.368   7.919  3.7042  1.9585 -0.7869
 7365SOL     OW33556   3.522   2.402  10.264 -0.3454  0.0669  0.7765
 7365SOL    HW133557   3.535   2.486  10.310  0.3604  0.1560  0.4013
 7365SOL    HW233558   3.609   2.387  10.229  0.6372 -0.8501  3.6017
 7366SOL     OW33559   0.234   3.400   7.529  0.3065  0.0648 -0.3139
 7366SOL    HW133560   0.164   3.407   7.465 -0.1198  2.4605  0.4314
 7366SOL    HW233561   0.312   3.422   7.478 -0.9012  0.2414 -2.0952
 7367SOL     OW33562   2.365   4.554   8.992 -0.0258  0.0202 -0.0339
 7367SOL    HW133563   2.361   4.585   9.082  2.1952  0.1520  0.0196
 7367SOL    HW233564   2.282   4.507   8.993  0.1193 -0.2997 -1.8798
 7368SOL     OW33565   1.149   0.278   1.199  0.1464  0.1309 -0.0766
 7368SOL    HW133566   1.059   0.245   1.208  1.1249 -2.0733  1.5958
 7368SOL    HW233567   1.183   0.221   1.129 -2.0518 -0.8117 -0.3757
 7369SOL     OW33568   1.513   3.388   4.474  0.4370  0.3066 -0.0140
 7369SOL    HW133569   1.599   3.375   4.433 -0.7975 -1.2652 -2.1121
 7369SOL    HW233570   1.469   3.439   4.405 -0.6771  0.5356  0.8737
 7370SOL     OW33571   2.401   1.836   1.737 -0.1128 -0.0208 -0.0575
 7370SOL    HW133572   2.387   1.768   1.803 -0.1311  0.3396  0.3059
 7370SOL    HW233573   2.328   1.819   1.677 -0.3661  0.7307  0.0492
 7371SOL     OW33574   3.453   4.150  10.296  0.3061 -0.0402 -0.3232
 7371SOL    HW133575   3.542   4.133  10.267  1.1346  3.3029  0.2236
 7371SOL    HW233576   3.407   4.188  10.221 -0.7712  1.5033  1.1160
 7372SOL     OW33577   0.745   1.569   7.733  0.0145  0.0019  0.0372
 7372SOL    HW133578   0.833   1.605   7.720  0.7058 -2.3533 -1.8724
 7372SOL    HW233579   0.720   1.600   7.820 -1.0811 -0.5399 -0.0848
 7373SOL     OW33580   0.986   2.858   2.080 -0.6598 -0.1401 -0.2405
 7373SOL    HW133581   0.949   2.902   2.156 -0.2187  0.0955 -0.1637
 7373SOL    HW233582   1.007   2.774   2.120 -1.0079  1.1317  2.5703
 7374SOL     OW33583   1.748   4.104   9.084 -0.3140 -0.0323 -0.2581
 7374SOL    HW133584   1.843   4.109   9.094 -0.1328  0.0523 -2.0074
 7374SOL    HW233585   1.730   4.132   8.994  0.3924 -1.3399 -0.7933
 7375SOL     OW33586   1.703   3.992   5.779  0.8364  0.5428 -0.4949
 7375SOL    HW133587   1.764   4.061   5.755 -0.6397  2.3573  0.9808
 7375SOL    HW233588   1.765   3.939   5.829  0.2862 -0.9446 -1.3550
 7376SOL     OW33589   2.918   1.939   6.506 -0.2166  0.5911  0.3680
 7376SOL    HW133590   2.869   2.012   6.470  0.4845  1.4965  1.2642
 7376SOL    HW233591   2.899   1.862   6.452 -0.8204  1.7964 -1.1271
 7377SOL     OW33592   3.569   3.575  11.187 -0.1976  0.5238  0.1217
 7377SOL    HW133593   3.594   3.542  11.273 -0.4332  0.9122  0.3401
 7377SOL    HW233594   3.608   3.510  11.128  0.5884  0.3308  0.8389
 7378SOL     OW33595   2.003   0.126   1.928  0.8571 -0.6375  0.2489
 7378SOL    HW133596   1.965   0.066   1.863  0.2600 -2.0403  1.8867
 7378SOL    HW233597   2.048   0.066   1.987  0.0042 -0.7021  0.8254
 7379SOL     OW33598   1.323   3.132   0.892 -0.2464  0.1653  0.1629
 7379SOL    HW133599   1.249   3.150   0.951 -0.6465 -1.6896  0.2313
 7379SOL    HW233600   1.303   3.172   0.807 -1.2657 -0.8373 -0.0878
 7380SOL     OW33601   3.948   3.243   2.606 -0.0290  0.1027 -0.2711
 7380SOL    HW133602   3.911   3.251   2.518  2.7708  0.5827 -1.3988
 7380SOL    HW233603   3.947   3.337   2.624  2.1668  0.0734 -0.0512
 7381SOL     OW33604   2.255   0.606   5.469  1.4183 -0.4022 -0.4602
 7381SOL    HW133605   2.245   0.624   5.375 -0.7092  0.6079 -0.0377
 7381SOL    HW233606   2.167   0.611   5.505  0.5741 -0.4571 -2.5090
 7382SOL     OW33607   1.975   1.658   5.770 -0.3447  0.6498  0.0368
 7382SOL    HW133608   2.031   1.584   5.744  0.5494  1.5832 -0.6815
 7382SOL    HW233609   1.884   1.627   5.770 -0.4678  1.0169 -0.5999
 7383SOL     OW33610   1.270   0.264   8.124 -0.0751  0.4808  0.2005
 7383SOL    HW133611   1.260   0.215   8.042 -2.6459  0.0461  0.7717
 7383SOL    HW233612   1.357   0.238   8.155 -0.5980 -2.8398 -1.1054
 7384SOL     OW33613   0.206   1.001   6.807  0.4090  0.1190  0.0286
 7384SOL    HW133614   0.154   0.954   6.742  1.5726 -2.5451  1.0208
 7384SOL    HW233615   0.138   1.005   6.874  3.1796 -0.6575  2.8914
 7385SOL     OW33616   1.522   2.011   8.304 -0.0124 -0.1705  0.2095
 7385SOL    HW133617   1.559   2.081   8.359 -1.7236  3.5854 -3.3771
 7385SOL    HW233618   1.449   1.970   8.350 -0.3298  1.1686  0.9166
 7386SOL     OW33619   0.256   4.449   3.799  0.3465  0.1922  0.0719
 7386SOL    HW133620   0.272   4.484   3.886 -0.2155 -0.0230  0.2609
 7386SOL    HW233621   0.180   4.504   3.781  1.0009  0.7230 -1.0894
 7387SOL     OW33622   1.680   1.551   0.265 -0.1838 -0.4707  0.1605
 7387SOL    HW133623   1.657   1.516   0.179  0.0953 -0.3548  0.0382
 7387SOL    HW233624   1.725   1.632   0.243 -1.6052  0.6213  1.2936
 7388SOL     OW33625   1.775   4.374   4.314  0.0613 -0.0983  0.4194
 7388SOL    HW133626   1.722   4.452   4.331 -1.0277 -1.1637  1.8368
 7388SOL    HW233627   1.779   4.325   4.396  0.6354  1.5335  1.3702
 7389SOL     OW33628   1.398   0.427   6.090  1.0100 -0.0116 -0.3067
 7389SOL    HW133629   1.363   0.358   6.146  0.7659  1.1219  0.9222
 7389SOL    HW233630   1.465   0.451   6.154  0.2512  0.3413  0.3485
 7390SOL     OW33631   1.039   2.190  12.119 -0.0152  0.0007  0.0542
 7390SOL    HW133632   1.014   2.099  12.135 -0.3710  0.1274  0.2049
 7390SOL    HW233633   1.135   2.193  12.113 -0.1993  2.3794 -1.9457
 7391SOL     OW33634   4.650   0.162   6.972  0.0278  0.9206 -0.6205
 7391SOL    HW133635   4.574   0.185   7.026 -1.1387 -1.3689 -1.2934
 7391SOL    HW233636   4.659   0.069   6.993  0.9757  0.7502 -1.7873
 7392SOL     OW33637   0.431   3.890   1.389  0.1974 -0.0196  0.4158
 7392SOL    HW133638   0.481   3.885   1.307  5.1946  1.3270  3.3611
 7392SOL    HW233639   0.439   3.982   1.413 -2.7141  0.4451 -0.3787
 7393SOL     OW33640   0.786   2.905  14.163  0.2480 -0.1075 -0.4139
 7393SOL    HW133641   0.723   2.972  14.138 -0.3504 -0.3062  0.5548
 7393SOL    HW233642   0.782   2.908  14.259 -0.8201  1.9137 -0.5162
 7394SOL     OW33643   4.492   2.781   9.011  0.2808 -0.4684 -0.2595
 7394SOL    HW133644   4.412   2.730   9.025 -0.7676  1.5196  0.9881
 7394SOL    HW233645   4.456   2.846   8.950 -2.3604  0.4532  2.2606
 7395SOL     OW33646   3.404   1.729  16.642  0.2381  0.3799 -0.4293
 7395SOL    HW133647   3.372   1.646  16.678  0.7593  0.5352  0.4046
 7395SOL    HW233648   3.381   1.790  16.712  2.9602  1.4772 -0.4819
 7396SOL     OW33649   1.358   4.712  14.878 -0.0248  0.0222  0.2684
 7396SOL    HW133650   1.404   4.633  14.907 -1.0259  0.0608  1.9423
 7396SOL    HW233651   1.385   0.047  14.947 -2.4678 -0.1040  1.2970
 7397SOL     OW33652   2.652   3.723   6.873  0.0752 -0.2189  0.2876
 7397SOL    HW133653   2.608   3.761   6.950 -1.6870  0.6963 -1.1777
 7397SOL    HW233654   2.691   3.802   6.837  3.4784 -1.4577  1.2276
 7398SOL     OW33655   3.107   3.550   9.632  0.0552 -0.2964  0.0240
 7398SOL    HW133656   3.194   3.511   9.630 -0.1750 -0.8251  0.5387
 7398SOL    HW233657   3.092   3.537   9.725  0.8122 -2.4981 -0.1692
 7399SOL     OW33658   0.631   1.252   6.253 -0.3280  0.2469 -0.2710
 7399SOL    HW133659   0.643   1.318   6.322 -0.6845 -0.4254  0.4338
 7399SOL    HW233660   0.540   1.231   6.273  0.0591 -2.5557 -1.5073
 7400SOL     OW33661   1.804   0.150   4.514  0.1761  0.4003 -0.0152
 7400SOL    HW133662   1.888   0.149   4.561 -0.9490 -2.3858  1.9931
 7400SOL    HW233663   1.771   0.232   4.550 -2.0533 -0.4369 -0.1270
 7401SOL     OW33664   3.977   2.894   6.008 -0.4637  0.4752 -0.0465
 7401SOL    HW133665   4.005   2.902   5.916  2.6957 -2.4354  0.6597
 7401SOL    HW233666   4.044   2.947   6.051  0.9799 -1.4688  0.0815
 7402SOL     OW33667   2.441   3.987   5.028 -0.6647 -0.2537  0.3051
 7402SOL    HW133668   2.408   3.925   4.963  1.1915  1.9365 -2.7139
 7402SOL    HW233669   2.473   4.057   4.971  0.2058 -1.5030 -0.7465
 7403SOL     OW33670   3.124   0.077  10.477 -0.1520  0.0739 -0.5478
 7403SOL    HW133671   3.090   0.067  10.388  0.4063  3.3383 -1.1090
 7403SOL    HW233672   3.046   0.078  10.533 -0.1726  2.2823 -0.6421
 7404SOL     OW33673   2.554   1.792   9.592 -0.3390 -0.1138 -0.3777
 7404SOL    HW133674   2.528   1.734   9.663 -0.3413  0.8426  0.4038
 7404SOL    HW233675   2.591   1.728   9.532  1.8229 -0.7645  1.6167
 7405SOL     OW33676   0.737   1.100   2.255  0.1699 -0.1290  0.0940
 7405SOL    HW133677   0.762   1.064   2.340  2.4896 -1.9404 -1.3405
 7405SOL    HW233678   0.823   1.134   2.229  0.0717  0.9370  1.1655
 7406SOL     OW33679   4.200   4.154   5.608 -0.2874 -0.2129  0.0336
 7406SOL    HW133680   4.139   4.221   5.575 -1.1004 -1.0864 -0.2311
 7406SOL    HW233681   4.147   4.077   5.629  0.3798 -0.2129  1.7602
 7407SOL     OW33682   0.974   4.417  17.266  0.2118 -0.2906  0.4316
 7407SOL    HW133683   1.029   4.472  17.209 -0.0166 -0.7653 -0.2487
 7407SOL    HW233684   0.924   4.486  17.309  1.1577  1.0146 -0.5447
 7408SOL     OW33685   3.771   0.705  13.707  0.5540 -0.1894  0.8000
 7408SOL    HW133686   3.676   0.704  13.718  0.4141 -2.5980 -0.4388
 7408SOL    HW233687   3.778   0.774  13.641 -0.3178 -0.6351  0.2468
 7409SOL     OW33688   4.572   1.213   7.993  0.5877 -0.1082  0.1042
 7409SOL    HW133689   4.668   1.217   7.997  0.5673  1.0246 -0.5947
 7409SOL    HW233690   4.559   1.178   8.081 -0.7817  1.0308  0.3655
 7410SOL     OW33691   4.354   2.660   4.543 -0.7472  0.4589 -0.0137
 7410SOL    HW133692   4.395   2.744   4.526 -1.0001  0.0117 -2.8373
 7410SOL    HW233693   4.294   2.650   4.469  0.6240  1.4369 -1.2405
 7411SOL     OW33694   4.559   0.623   7.408  0.0279 -0.4633 -0.4574
 7411SOL    HW133695   4.635   0.619   7.350  0.1719 -2.6092 -0.1225
 7411SOL    HW233696   4.601   0.674   7.477  2.1806 -2.2607 -0.4518
 7412SOL     OW33697   0.813   2.014   3.339 -0.2223 -0.3379  0.1705
 7412SOL    HW133698   0.772   2.079   3.282  0.5296 -0.0399 -0.0291
 7412SOL    HW233699   0.747   1.996   3.406  0.3883  1.8179  1.3600
 7413SOL     OW33700   4.496   2.320  10.637  0.6549 -0.5255 -0.3349
 7413SOL    HW133701   4.452   2.396  10.600 -0.3940 -0.5884  0.7636
 7413SOL    HW233702   4.442   2.301  10.713  0.8343  1.9209  0.3899
 7414SOL     OW33703   0.195   4.663   4.416  0.3544 -0.0715  0.5666
 7414SOL    HW133704   0.150   0.021   4.414  0.7909  0.2181  2.4994
 7414SOL    HW233705   0.126   4.596   4.414 -0.4313  0.8021 -0.7814
 7415SOL     OW33706   4.151   3.882   7.079 -0.0295  0.3561  0.3516
 7415SOL    HW133707   4.220   3.855   7.019 -1.6473 -0.5079 -1.1015
 7415SOL    HW233708   4.075   3.827   7.059  0.5116 -0.0231 -0.5969
 7416SOL     OW33709   4.570   1.526  17.508  0.2280  1.2494 -0.1291
 7416SOL    HW133710   4.572   1.431  17.519  0.5845  1.5924  2.7478
 7416SOL    HW233711   4.549   1.558  17.596  2.3643  0.1886  0.7911
 7417SOL     OW33712   2.555   0.465   0.941 -0.1080 -0.0211 -0.1732
 7417SOL    HW133713   2.547   0.559   0.925 -1.6229 -0.5629 -2.5857
 7417SOL    HW233714   2.564   0.475   1.036  0.7432  0.2920 -0.2844
 7418SOL     OW33715   0.315   0.624   5.183  0.8515 -0.0470 -0.0978
 7418SOL    HW133716   0.350   0.535   5.172  0.9919  0.0045 -0.0707
 7418SOL    HW233717   0.239   0.606   5.128 -1.4912  1.4282  2.6661
 7419SOL     OW33718   3.771   1.412   7.195 -0.3588  0.2585 -0.4718
 7419SOL    HW133719   3.684   1.415   7.235 -0.3910  1.6353 -0.6487
 7419SOL    HW233720   3.792   1.321   7.219 -0.0218  1.2506  3.0145
 7420SOL     OW33721   3.486   2.781   4.441 -0.1251  0.0645 -0.3671
 7420SOL    HW133722   3.534   2.714   4.489 -0.2601  1.2690  1.4444
 7420SOL    HW233723   3.446   2.733   4.369 -0.1898 -0.1054 -0.2183
 7421SOL     OW33724   3.849   1.384  13.417  0.4917 -0.2646 -0.1603
 7421SOL    HW133725   3.871   1.411  13.507  1.0175  0.4925 -0.5146
 7421SOL    HW233726   3.918   1.436  13.376  0.3689 -1.4909 -1.8985
 7422SOL     OW33727   3.232   3.547   3.517 -0.0929  0.2308 -0.4673
 7422SOL    HW133728   3.288   3.617   3.551  0.1334 -0.3461  0.3448
 7422SOL    HW233729   3.232   3.555   3.422  2.0804 -0.1653 -0.4865
 7423SOL     OW33730   2.379   2.456  11.644  0.0081  0.4188 -0.3274
 7423SOL    HW133731   2.402   2.452  11.551  1.4808  2.9254 -0.0719
 7423SOL    HW233732   2.365   2.550  11.640 -1.1250  0.1886 -1.5053
 7424SOL     OW33733   0.705   3.124  15.487  0.8523 -0.7475 -0.5921
 7424SOL    HW133734   0.757   3.203  15.498  0.4204 -0.6216  0.6303
 7424SOL    HW233735   0.632   3.159  15.436  0.2497  0.1674  0.8836
 7425SOL     OW33736   2.758   1.320   4.247  0.6141  0.0913 -0.6746
 7425SOL    HW133737   2.703   1.363   4.182 -0.0977  0.4829  0.1925
 7425SOL    HW233738   2.814   1.268   4.187  0.3084 -0.7645 -0.2186
 7426SOL     OW33739   1.452   1.730  16.944 -0.1935 -1.3006 -0.0062
 7426SOL    HW133740   1.461   1.637  16.920  0.7171 -1.0466 -0.6587
 7426SOL    HW233741   1.359   1.746  16.928 -0.1528  0.0847  1.1746
 7427SOL     OW33742   0.307   3.730  12.256  0.1495  0.0910 -0.7652
 7427SOL    HW133743   0.305   3.638  12.282  1.2227 -0.8513 -4.0608
 7427SOL    HW233744   0.384   3.725  12.199  1.2321 -0.3910  0.7575
 7428SOL     OW33745   2.772   2.971  13.131  0.0526  0.4571  0.7716
 7428SOL    HW133746   2.768   3.010  13.043 -1.6988  1.3836  1.2633
 7428SOL    HW233747   2.863   2.997  13.147  0.3460 -0.3808  0.4907
 7429SOL     OW33748   4.466   2.527   7.025  0.4209 -0.4548  0.3124
 7429SOL    HW133749   4.475   2.528   7.121  0.3009  0.1500  0.3139
 7429SOL    HW233750   4.464   2.618   6.998 -0.5910 -1.2587 -2.2676
 7430SOL     OW33751   3.490   4.314   0.429  0.6512  0.1232  0.2327
 7430SOL    HW133752   3.478   4.224   0.398 -0.0712 -0.0531  1.0341
 7430SOL    HW233753   3.402   4.349   0.444 -0.1566 -0.7412 -2.4654
 7431SOL     OW33754   3.519   4.272   4.149 -0.2209 -0.2772  0.0104
 7431SOL    HW133755   3.450   4.278   4.083 -0.9377 -2.4731  0.5480
 7431SOL    HW233756   3.565   4.197   4.110  0.3282  0.6774 -1.1675
 7432SOL     OW33757   1.639   3.567   2.797 -0.0346 -0.2932 -0.2005
 7432SOL    HW133758   1.567   3.533   2.851 -0.4270  3.1133  1.3906
 7432SOL    HW233759   1.669   3.493   2.744 -1.2378  0.1398 -1.4782
 7433SOL     OW33760   2.549   0.023  16.695  0.3760 -0.3993  0.5041
 7433SOL    HW133761   2.539   0.040  16.601 -3.3930  0.0449  0.9594
 7433SOL    HW233762   2.642   0.000  16.699  0.1447 -1.5445 -0.7052
 7434SOL     OW33763   2.688   3.343  17.122  0.2383  0.2256  0.2606
 7434SOL    HW133764   2.613   3.378  17.075 -0.2415 -0.8744  0.1977
 7434SOL    HW233765   2.641   3.327  17.203 -0.8551  1.4189 -0.1319
 7435SOL     OW33766   4.180   0.844  14.654 -0.0042  0.3345  0.5210
 7435SOL    HW133767   4.183   0.935  14.624  1.4141 -0.8108 -2.8678
 7435SOL    HW233768   4.120   0.806  14.590  0.2208  2.1289 -0.7452
 7436SOL     OW33769   4.408   1.088  11.211 -0.0347 -0.0970  0.2096
 7436SOL    HW133770   4.466   1.164  11.209 -0.6475  0.2025 -5.2085
 7436SOL    HW233771   4.328   1.117  11.168 -0.4722 -1.4035  0.1262
 7437SOL     OW33772   1.435   2.449   2.476  0.3305 -0.2862  0.4695
 7437SOL    HW133773   1.467   2.369   2.518  1.9146 -0.4053 -0.9719
 7437SOL    HW233774   1.482   2.431   2.395  0.4029 -1.8523  0.8538
 7438SOL     OW33775   2.231   1.647   0.293 -0.0583 -0.5089 -0.4134
 7438SOL    HW133776   2.140   1.648   0.324  0.7913  0.7269  1.9738
 7438SOL    HW233777   2.265   1.576   0.348  1.2318 -1.1228 -1.9772
 7439SOL     OW33778   3.209   1.088   8.730  0.5723 -0.1041 -0.4759
 7439SOL    HW133779   3.278   1.046   8.678  0.9216  0.2085 -0.2665
 7439SOL    HW233780   3.247   1.096   8.817  0.6290 -0.0416 -0.5057
 7440SOL     OW33781   0.325   0.494  15.027 -0.1787 -0.2989  0.4892
 7440SOL    HW133782   0.239   0.530  15.003 -0.3047 -2.0868 -1.6474
 7440SOL    HW233783   0.368   0.532  14.950  0.3987 -0.2973  0.8123
 7441SOL     OW33784   4.575   1.492   2.599  0.1613 -0.3886  0.3161
 7441SOL    HW133785   4.568   1.466   2.507 -0.6722  0.5302  0.1167
 7441SOL    HW233786   4.569   1.585   2.580 -2.2957 -0.3654  1.2675
 7442SOL     OW33787   1.399   2.610  12.719  0.1060 -0.0271  0.2360
 7442SOL    HW133788   1.378   2.686  12.773  1.3604  0.3996  0.1361
 7442SOL    HW233789   1.463   2.651  12.660  0.4119  1.7103  1.7875
 7443SOL     OW33790   4.673   4.147   6.296 -0.1747 -0.0308 -0.3469
 7443SOL    HW133791   0.022   4.092   6.277  0.5416  1.5692 -2.1021
 7443SOL    HW233792   4.601   4.094   6.262 -0.4646 -0.6581  1.2088
 7444SOL     OW33793   2.184   2.913   4.072  0.2826  0.4242 -0.1489
 7444SOL    HW133794   2.208   2.909   3.980  1.2249 -0.0658  0.1124
 7444SOL    HW233795   2.225   2.995   4.101  1.2040 -0.5826  1.4515
 7445SOL     OW33796   1.235   2.586  10.408  0.1229 -0.4817 -0.6567
 7445SOL    HW133797   1.149   2.621  10.431 -1.9132 -4.1042 -2.5734
 7445SOL    HW233798   1.202   2.513  10.354 -1.3427 -0.0833 -0.3013
 7446SOL     OW33799   2.033   0.534   0.508  0.3126 -0.2336 -0.1546
 7446SOL    HW133800   2.093   0.496   0.572 -0.6832  2.2914  2.2926
 7446SOL    HW233801   1.949   0.510   0.548 -1.1294  4.7249 -0.1539
 7447SOL     OW33802   0.174   4.026   9.492  0.1648  0.3091  0.6176
 7447SOL    HW133803   0.263   4.018   9.525  0.6175  0.1850 -0.6715
 7447SOL    HW233804   0.142   3.946   9.533  1.4049 -1.3281 -1.6505
 7448SOL     OW33805   2.829   2.746   3.616  0.1257 -0.0518 -0.3173
 7448SOL    HW133806   2.763   2.790   3.669  0.4086  0.0243 -0.0213
 7448SOL    HW233807   2.838   2.815   3.551 -0.8232 -0.6949 -1.1331
 7449SOL     OW33808   3.865   2.362   0.843 -0.5904  0.0025 -0.0933
 7449SOL    HW133809   3.780   2.353   0.885 -1.1868 -0.7120 -1.4553
 7449SOL    HW233810   3.911   2.284   0.876 -0.3395 -0.5528 -1.7576
 7450SOL     OW33811   0.946   3.500  16.442 -0.1726  0.5722  0.1997
 7450SOL    HW133812   1.008   3.467  16.377  0.2158 -0.7915  1.2680
 7450SOL    HW233813   0.880   3.514  16.374 -0.7985 -2.4274  0.2151
 7451SOL     OW33814   2.786   1.571   8.374  0.2897 -0.3200 -0.1483
 7451SOL    HW133815   2.822   1.632   8.310  0.4004  0.8056  0.9997
 7451SOL    HW233816   2.852   1.502   8.361  1.1099  0.1608  1.5491
 7452SOL     OW33817   3.430   1.708   8.181  0.0796  0.1852 -0.1418
 7452SOL    HW133818   3.372   1.646   8.224 -0.7685  1.5831  0.7078
 7452SOL    HW233819   3.502   1.646   8.163 -0.1041  0.1010 -0.5918
 7453SOL     OW33820   3.448   2.867  17.243 -0.1947  0.7979  0.4060
 7453SOL    HW133821   3.479   2.871  17.334 -0.1495 -1.4100  0.4928
 7453SOL    HW233822   3.469   2.956  17.214 -1.5917  1.3500  1.0673
 7454SOL     OW33823   3.988   1.918   6.190 -0.1371  0.3915  0.1868
 7454SOL    HW133824   4.009   2.009   6.208  0.5672  0.1498  0.5961
 7454SOL    HW233825   4.056   1.897   6.126  1.3764 -1.2685  2.3191
 7455SOL     OW33826   4.635   4.366  13.030  0.9135  0.3799 -0.6398
 7455SOL    HW133827   4.564   4.396  13.086  1.0398  0.7421 -0.6758
 7455SOL    HW233828   4.593   4.328  12.952 -2.1439 -0.7076  1.5366
 7456SOL     OW33829   2.021   2.804   9.312 -0.4343  0.4770  0.1465
 7456SOL    HW133830   2.036   2.735   9.376  1.0078 -0.4401 -1.1716
 7456SOL    HW233831   2.080   2.871   9.348  0.3137 -0.7046  1.1430
 7457SOL     OW33832   1.972   4.151   4.885 -0.1817  0.5892 -0.0170
 7457SOL    HW133833   1.887   4.119   4.914 -0.3594  1.1673  0.1036
 7457SOL    HW233834   1.946   4.149   4.793  0.5582  1.9809 -0.2457
 7458SOL     OW33835   2.887   1.076  13.420 -0.7058  0.0162 -0.6562
 7458SOL    HW133836   2.926   1.162  13.439 -1.8033  0.1129  1.1075
 7458SOL    HW233837   2.830   1.062  13.495 -2.5597 -0.7082 -2.2051
 7459SOL     OW33838   2.545   0.277   3.418 -0.0018 -0.3885  0.3855
 7459SOL    HW133839   2.517   0.366   3.397 -0.3868 -0.7705 -0.7034
 7459SOL    HW233840   2.500   0.220   3.356  1.1037  0.3829 -1.1227
 7460SOL     OW33841   2.223   1.087   7.390  0.2987 -0.4338 -0.4555
 7460SOL    HW133842   2.290   1.032   7.431  2.9278  1.1362 -2.6669
 7460SOL    HW233843   2.152   1.027   7.411  1.6217 -0.8302  2.9225
 7461SOL     OW33844   2.882   2.404   8.225 -0.3424 -0.0480  0.5237
 7461SOL    HW133845   2.920   2.385   8.139 -1.1967 -4.2111  1.0851
 7461SOL    HW233846   2.796   2.439   8.199 -0.3975 -0.8528 -0.3948
 7462SOL     OW33847   2.880   0.595   5.344 -0.4404  0.4859  0.0985
 7462SOL    HW133848   2.909   0.637   5.425  1.2546  0.2492 -0.3743
 7462SOL    HW233849   2.789   0.624   5.348 -1.1939 -1.5105 -2.6514
 7463SOL     OW33850   2.970   0.759   3.049 -0.2915  0.5337 -0.0943
 7463SOL    HW133851   3.052   0.725   3.014 -1.3628  0.0937 -2.1663
 7463SOL    HW233852   2.961   0.713   3.132 -0.2128 -1.4982 -1.2109
 7464SOL     OW33853   1.913   0.567   4.831  0.4040 -0.5225 -0.3444
 7464SOL    HW133854   1.883   0.629   4.897 -0.4226  0.4612 -1.6410
 7464SOL    HW233855   1.869   0.608   4.756 -1.1939 -0.3147  0.7117
 7465SOL     OW33856   0.946   4.456   6.221  0.3852  0.5173 -0.3300
 7465SOL    HW133857   0.929   4.373   6.177  0.6707  0.8195 -1.0154
 7465SOL    HW233858   0.911   4.529   6.171 -0.2925 -0.3441 -1.1143
 7466SOL     OW33859   2.253   4.147  17.511  0.4517  0.1126  0.6625
 7466SOL    HW133860   2.299   4.119  17.432  0.2720 -1.7200  1.2196
 7466SOL    HW233861   2.163   4.116  17.501  0.3384  1.2771 -2.2067
 7467SOL     OW33862   0.869   0.675  14.788  0.2848  0.2869 -0.2763
 7467SOL    HW133863   0.852   0.742  14.722  1.9231 -0.4168 -1.4129
 7467SOL    HW233864   0.819   0.701  14.865 -1.8399  0.6462 -1.7890
 7468SOL     OW33865   3.971   1.355   5.551 -0.0863  0.4627 -0.3310
 7468SOL    HW133866   4.024   1.329   5.626 -2.7454 -2.8501  0.3853
 7468SOL    HW233867   3.954   1.273   5.505 -0.3312 -1.2640  2.8749
 7469SOL     OW33868   4.474   2.133   4.908 -0.3598 -0.0429  0.4842
 7469SOL    HW133869   4.404   2.068   4.901 -0.9852  0.8778 -1.9187
 7469SOL    HW233870   4.554   2.083   4.925  0.8073  1.5734 -0.2711
 7470SOL     OW33871   3.671   4.281   8.281 -0.0103 -0.6754  0.3226
 7470SOL    HW133872   3.659   4.194   8.242  1.6620  0.0422 -1.7578
 7470SOL    HW233873   3.609   4.336   8.233  1.6101  0.1570 -0.7829
 7471SOL     OW33874   4.207   4.261   4.450  0.5554  0.7479 -0.7859
 7471SOL    HW133875   4.131   4.225   4.403  0.3979  0.5472 -0.3779
 7471SOL    HW233876   4.229   4.333   4.391 -0.1204  2.1266  0.6468
 7472SOL     OW33877   4.543   1.537   1.276 -0.0118 -0.3144  0.1069
 7472SOL    HW133878   4.578   1.622   1.301  0.0919 -0.4622  0.4700
 7472SOL    HW233879   4.488   1.527   1.354 -0.8037  0.3708 -0.3693
 7473SOL     OW33880   1.702   3.092   2.355 -0.0025 -0.3393  0.1423
 7473SOL    HW133881   1.658   3.010   2.332 -3.1928  1.5768 -0.6688
 7473SOL    HW233882   1.794   3.069   2.363 -0.6086 -2.2927  1.6514
 7474SOL     OW33883   2.678   0.379   5.493 -0.3102 -0.3193  0.0932
 7474SOL    HW133884   2.607   0.437   5.521 -1.2597 -1.1523 -0.5419
 7474SOL    HW233885   2.747   0.414   5.548 -0.1321 -1.0230  0.3075
 7475SOL     OW33886   0.498   0.799   3.860 -0.0188  0.4684 -0.3228
 7475SOL    HW133887   0.470   0.779   3.950  0.3917 -0.0608 -0.3160
 7475SOL    HW233888   0.427   0.765   3.806 -0.9780 -1.4173  2.0984
 7476SOL     OW33889   1.974   0.275   2.821 -0.0696 -0.1214 -0.0266
 7476SOL    HW133890   2.003   0.338   2.887  1.9060  0.8695 -1.8082
 7476SOL    HW233891   2.029   0.199   2.842  0.7945  0.9927  1.7532
 7477SOL     OW33892   2.986   1.416   3.537 -0.5386  0.0195  0.4019
 7477SOL    HW133893   2.890   1.410   3.538 -0.6285  1.2529 -0.9014
 7477SOL    HW233894   2.998   1.505   3.505  0.4158 -0.6223 -0.9834
 7478SOL     OW33895   3.918   0.317   2.811  0.0056 -0.1541 -0.1096
 7478SOL    HW133896   3.828   0.340   2.790 -0.6677 -1.4742  1.3392
 7478SOL    HW233897   3.966   0.348   2.734 -0.4588  0.4771 -0.1486
 7479SOL     OW33898   2.636   0.280   1.548 -0.0122  0.3322 -0.8335
 7479SOL    HW133899   2.670   0.246   1.465  2.3481  1.7919 -0.4330
 7479SOL    HW233900   2.715   0.315   1.589  0.4351 -0.1939 -1.2385
 7480SOL     OW33901   2.701   0.908   5.991  0.3321  0.3119  0.3494
 7480SOL    HW133902   2.653   0.977   6.037 -1.1942 -0.3089 -0.3087
 7480SOL    HW233903   2.791   0.925   6.019  0.2272  1.1041  0.1794
 7481SOL     OW33904   1.308   1.876   5.800 -0.0991  0.3362 -0.0309
 7481SOL    HW133905   1.331   1.969   5.811  0.3986  0.1826  0.2170
 7481SOL    HW233906   1.256   1.876   5.720 -1.0065  0.4449  0.5517
 7482SOL     OW33907   3.878   0.051  11.440 -0.6515  0.7779  0.0624
 7482SOL    HW133908   3.957   0.105  11.440  0.6324 -1.0859  0.3199
 7482SOL    HW233909   3.847   0.057  11.350  0.8336 -1.3182 -0.5974
 7483SOL     OW33910   0.780   3.893   6.823 -0.8273 -0.1439 -0.0822
 7483SOL    HW133911   0.712   3.946   6.864 -0.0045  1.5717 -0.9178
 7483SOL    HW233912   0.723   3.819   6.801  0.0039 -0.8601  0.1748
 7484SOL     OW33913   0.310   0.197   6.845  0.0981  0.6392  0.5622
 7484SOL    HW133914   0.399   0.231   6.857  0.9036 -0.9641 -0.9306
 7484SOL    HW233915   0.327   0.107   6.874 -1.2061 -0.2236 -1.3375
 7485SOL     OW33916   3.077   2.873  13.041 -0.3943 -0.2680 -0.1922
 7485SOL    HW133917   3.055   2.909  13.127  1.4906 -1.0302  0.6151
 7485SOL    HW233918   3.172   2.887  13.038 -0.3748 -0.4249 -0.3736
 7486SOL     OW33919   2.253   1.466   9.424 -0.1018 -0.4897  0.0790
 7486SOL    HW133920   2.186   1.489   9.360  0.5198 -0.9250 -0.7324
 7486SOL    HW233921   2.335   1.470   9.375 -0.3403  0.5544 -0.2244
 7487SOL     OW33922   1.806   3.051   3.008 -0.1626  0.1123 -0.2657
 7487SOL    HW133923   1.721   3.009   3.015 -0.0881  0.0949  0.5026
 7487SOL    HW233924   1.814   3.096   3.092  0.3415 -0.1411 -0.1768
 7488SOL     OW33925   1.618   3.756   7.754  0.2162 -0.3798  0.3865
 7488SOL    HW133926   1.701   3.737   7.709 -0.9379  1.1244 -2.3968
 7488SOL    HW233927   1.564   3.813   7.699 -1.2416  0.0438  2.2574
 7489SOL     OW33928   3.172   0.202   3.938  0.2928 -0.2310  0.1109
 7489SOL    HW133929   3.174   0.195   3.843  3.2059 -1.1400  0.2411
 7489SOL    HW233930   3.124   0.122   3.959 -2.9004  1.6143 -0.1639
 7490SOL     OW33931   0.238   4.185   3.909 -0.6041 -0.6689  0.0601
 7490SOL    HW133932   0.267   4.256   3.851  0.7448 -0.5590  0.8722
 7490SOL    HW233933   0.269   4.109   3.859  0.0482 -1.2859  1.4156
 7491SOL     OW33934   1.306   3.398   5.507 -0.0457  0.0799  0.0238
 7491SOL    HW133935   1.377   3.394   5.572  1.3075 -0.5863 -1.4854
 7491SOL    HW233936   1.302   3.306   5.483 -1.1422 -0.3141  1.7675
 7492SOL     OW33937   1.990   1.896   8.522 -0.0620  0.3490  0.1963
 7492SOL    HW133938   1.909   1.863   8.484  0.1585  0.5619 -0.4574
 7492SOL    HW233939   1.986   1.852   8.607 -0.8976  0.3713  0.1675
 7493SOL     OW33940   0.714   2.556   5.091  0.0298  0.3790 -0.4914
 7493SOL    HW133941   0.698   2.649   5.072 -2.2697  0.6413  2.7787
 7493SOL    HW233942   0.652   2.518   5.029 -0.9164  0.3223  0.4983
 7494SOL     OW33943   2.113   2.094   4.733  0.3915  0.0674 -0.0750
 7494SOL    HW133944   2.128   2.016   4.787 -2.0353 -0.0798  0.3580
 7494SOL    HW233945   2.120   2.169   4.793 -0.7461 -1.1623  1.5868
 7495SOL     OW33946   2.487   4.489   3.215 -0.0840 -0.1075  0.3940
 7495SOL    HW133947   2.442   4.459   3.136  0.7515 -1.0934  0.2948
 7495SOL    HW233948   2.562   4.534   3.178 -2.7538  3.7070 -0.3517
 7496SOL     OW33949   4.619   2.536   3.565  0.3244  0.3476 -0.6762
 7496SOL    HW133950   4.589   2.451   3.598  0.8342  0.8391  1.0523
 7496SOL    HW233951   4.695   2.547   3.622  1.2279 -2.0127 -1.3840
 7497SOL     OW33952   3.681   2.182   9.173 -0.2363 -0.1481 -0.1903
 7497SOL    HW133953   3.767   2.150   9.146  0.2552  0.0459  1.1775
 7497SOL    HW233954   3.680   2.154   9.264  0.8526  0.7571  0.1013
 7498SOL     OW33955   3.597   0.273   4.727  0.1480  0.3820 -0.0859
 7498SOL    HW133956   3.597   0.196   4.670 -0.0083  1.0315 -0.9847
 7498SOL    HW233957   3.622   0.345   4.669  0.9350  0.2353  0.0746
 7499SOL     OW33958   0.459   4.595  14.585  0.0383  0.2609 -0.2997
 7499SOL    HW133959   0.480   4.527  14.648 -0.9743  3.1077  3.0898
 7499SOL    HW233960   0.503   4.554  14.511 -0.0678 -0.2241 -0.0935
 7500SOL     OW33961   4.022   1.190   8.105  0.2990  0.3859  0.3380
 7500SOL    HW133962   3.949   1.136   8.133  0.0472  1.0596  0.9753
 7500SOL    HW233963   4.066   1.212   8.187 -0.9092  0.1200  1.0435
 7501SOL     OW33964   3.485   2.449  14.097  0.3406  0.1036 -0.6856
 7501SOL    HW133965   3.441   2.379  14.049  2.3746 -1.0530 -0.8580
 7501SOL    HW233966   3.456   2.523  14.044 -1.5554 -2.8472 -3.8168
 7502SOL     OW33967   3.559   1.863   7.597 -0.1868 -0.0991 -0.0659
 7502SOL    HW133968   3.551   1.813   7.516 -0.4983 -1.8975  1.0807
 7502SOL    HW233969   3.629   1.924   7.571 -0.8633  0.1650 -1.2664
 7503SOL     OW33970   3.541   3.467   0.592  0.3917  0.3146 -0.0184
 7503SOL    HW133971   3.550   3.372   0.595  1.5273  0.4178 -0.2982
 7503SOL    HW233972   3.628   3.503   0.610 -0.0085  0.5902  1.4034
 7504SOL     OW33973   0.888   0.161   9.468 -0.3772 -0.6272  0.0119
 7504SOL    HW133974   0.863   0.078   9.428 -1.0491 -0.6642  0.4991
 7504SOL    HW233975   0.979   0.164   9.497 -0.3529  0.4134 -0.1614
 7505SOL     OW33976   2.410   4.076  17.013 -0.1335  0.0993 -0.2020
 7505SOL    HW133977   2.434   4.137  16.944 -0.1241 -0.2665 -0.5178
 7505SOL    HW233978   2.463   4.110  17.086  0.1365  1.5766 -1.1040
 7506SOL     OW33979   2.042   3.683   7.995  0.0511  0.1690  0.2045
 7506SOL    HW133980   1.961   3.731   8.017  0.4463  1.4507 -1.1076
 7506SOL    HW233981   2.013   3.593   8.005  0.2581  0.1121  0.2810
 7507SOL     OW33982   0.513   0.299   4.931 -0.1653  0.6647  0.8863
 7507SOL    HW133983   0.458   0.326   4.857  1.3263 -0.3340 -0.5930
 7507SOL    HW233984   0.582   0.365   4.922 -2.1748  2.4132 -1.7705
 7508SOL     OW33985   0.444   2.383  12.440  0.5184  0.0176  0.5504
 7508SOL    HW133986   0.360   2.392  12.484 -1.8957 -0.3121 -4.0974
 7508SOL    HW233987   0.489   2.461  12.473  0.9793  0.3523 -0.8962
 7509SOL     OW33988   2.761   1.535   6.214 -0.1914 -0.5493 -0.1721
 7509SOL    HW133989   2.669   1.554   6.197  0.1370 -1.7934 -3.3010
 7509SOL    HW233990   2.781   1.593   6.288 -0.6854  0.6382 -0.9880
 7510SOL     OW33991   0.186   1.835  11.850  0.1533 -0.2977 -0.3792
 7510SOL    HW133992   0.202   1.742  11.837 -0.7888 -0.5610  0.3234
 7510SOL    HW233993   0.107   1.832  11.795  0.7732  0.9438 -1.3211
 7511SOL     OW33994   3.762   2.100  12.161 -0.4108 -0.9476 -0.0751
 7511SOL    HW133995   3.668   2.086  12.148 -0.2957  1.1724 -3.2107
 7511SOL    HW233996   3.754   2.182  12.209  1.8225  0.0419 -1.3976
 7512SOL     OW33997   4.314   2.645   8.000  0.3791  0.0407  0.7650
 7512SOL    HW133998   4.325   2.661   8.094 -0.3290  0.5028  0.7746
 7512SOL    HW233999   4.322   2.550   8.003 -2.1181 -0.2156 -0.5197
 7513SOL     OW34000   1.157   4.691   8.073 -0.2332  0.3422  0.3905
 7513SOL    HW134001   1.240   4.668   8.115  0.8552  2.4392 -0.6365
 7513SOL    HW234002   1.164   4.651   7.986 -1.2866  0.3537  0.2967
 7514SOL     OW34003   4.485   3.840   9.261 -0.0004 -0.9666  0.4266
 7514SOL    HW134004   4.487   3.779   9.188  2.2034 -0.3466 -0.0203
 7514SOL    HW234005   4.563   3.819   9.312  1.1011  1.7440 -0.1007
 7515SOL     OW34006   3.085   2.387   3.315 -0.0313  0.7799  0.0992
 7515SOL    HW134007   3.009   2.441   3.334 -0.7949 -0.2270 -0.0592
 7515SOL    HW234008   3.103   2.422   3.228 -2.0973  0.4370 -0.4747
 7516SOL     OW34009   0.666   1.144  14.182 -0.2219  0.0031  1.4921
 7516SOL    HW134010   0.675   1.235  14.210  0.5421 -0.3138  2.2710
 7516SOL    HW234011   0.723   1.141  14.105 -1.1390 -2.9155  0.9227
 7517SOL     OW34012   3.935   4.568   7.366  0.6255  0.3778  0.0740
 7517SOL    HW134013   3.904   4.658   7.354 -1.2553 -0.1835  0.6643
 7517SOL    HW234014   3.980   4.585   7.449  1.0649  0.4174 -0.1761
 7518SOL     OW34015   0.948   2.698   6.935  0.1015  0.5974  0.1754
 7518SOL    HW134016   0.932   2.604   6.943 -0.6549  0.8450  1.7336
 7518SOL    HW234017   1.024   2.700   6.878  0.1938  1.2064  0.3246
 7519SOL     OW34018   2.074   2.386   2.620 -0.7414 -0.4447  0.1766
 7519SOL    HW134019   2.136   2.415   2.553  0.3182  1.7265  2.0826
 7519SOL    HW234020   1.999   2.369   2.563 -0.9313  1.7148 -0.1859
 7520SOL     OW34021   4.707   4.300   7.261 -0.1759  0.5557 -0.3197
 7520SOL    HW134022   0.049   4.363   7.286  0.8790 -0.4549 -0.6840
 7520SOL    HW234023   4.628   4.352   7.275 -0.2630  0.2520  0.3111
 7521SOL     OW34024   4.384   2.210  16.798 -0.4669 -0.4459 -0.2440
 7521SOL    HW134025   4.342   2.265  16.732  0.1970 -0.7828 -0.9304
 7521SOL    HW234026   4.431   2.150  16.741 -0.0077  1.4594 -1.8572
 7522SOL     OW34027   2.425   3.561   6.777  0.2019  0.0442  0.3733
 7522SOL    HW134028   2.508   3.598   6.806  1.1760 -0.4985 -1.7210
 7522SOL    HW234029   2.455   3.494   6.715 -2.2725 -1.1376  0.4439
 7523SOL     OW34030   3.335   3.233   5.565  0.1911  0.2123  0.3137
 7523SOL    HW134031   3.384   3.151   5.573  0.9439  0.7604  1.3498
 7523SOL    HW234032   3.324   3.251   5.659  1.0190 -2.1876  0.8621
 7524SOL     OW34033   0.481   4.255   1.040 -0.1162 -0.8998 -0.3476
 7524SOL    HW134034   0.411   4.294   0.986  0.3616 -1.2263 -1.2070
 7524SOL    HW234035   0.475   4.317   1.112  0.6073  0.9854 -1.9185
 7525SOL     OW34036   0.145   0.602   3.365  0.1934 -0.6972  0.2696
 7525SOL    HW134037   0.175   0.511   3.361  0.6352 -0.5446  0.1344
 7525SOL    HW234038   0.051   0.587   3.371  0.2033 -0.3340  1.5544
 7526SOL     OW34039   0.698   3.997   6.191  0.1602 -0.0990  0.1123
 7526SOL    HW134040   0.789   4.006   6.217 -0.2644  1.3546  1.1042
 7526SOL    HW234041   0.664   3.918   6.233 -0.6676 -0.2857 -0.8943
 7527SOL     OW34042   2.594   3.666   5.360  0.5417 -1.0763 -0.7188
 7527SOL    HW134043   2.681   3.631   5.379  0.5282  0.1311  1.5249
 7527SOL    HW234044   2.615   3.752   5.323  1.1585 -0.8733  0.1209
 7528SOL     OW34045   0.378   3.735   6.425 -0.3283  0.5495  0.6037
 7528SOL    HW134046   0.380   3.826   6.455 -1.7961  0.5413  0.7044
 7528SOL    HW234047   0.457   3.730   6.370 -0.2252 -0.5157  0.8654
 7529SOL     OW34048   2.323   1.168   4.761  1.0124  0.2400  0.1806
 7529SOL    HW134049   2.406   1.139   4.800 -0.3052 -1.3583  1.8392
 7529SOL    HW234050   2.335   1.145   4.669 -2.2342  0.3314 -0.2681
 7530SOL     OW34051   2.580   1.884   4.700 -0.7540  0.0010 -0.8151
 7530SOL    HW134052   2.495   1.876   4.656 -0.3808  1.5088 -1.7870
 7530SOL    HW234053   2.622   1.805   4.664 -0.7554  0.3129 -1.4918
 7531SOL     OW34054   1.775   2.131   4.788 -0.9196 -0.1329 -0.1218
 7531SOL    HW134055   1.820   2.119   4.871  0.2157  2.4875 -0.3747
 7531SOL    HW234056   1.840   2.083   4.737  0.3313 -0.2320  1.5853
 7532SOL     OW34057   2.435   1.867   0.550 -0.1370  0.2025  0.0115
 7532SOL    HW134058   2.511   1.882   0.494  1.5125  2.1423  2.7544
 7532SOL    HW234059   2.426   1.952   0.593 -0.5009  0.7228 -1.1046
 7533SOL     OW34060   0.417   2.264  15.227  0.3753  0.6293  0.3974
 7533SOL    HW134061   0.390   2.303  15.144  0.2464  1.7844  0.9848
 7533SOL    HW234062   0.332   2.236  15.259 -0.8464  0.3845 -3.0529
 7534SOL     OW34063   2.131   1.554   4.998 -0.4333 -0.4441  0.3891
 7534SOL    HW134064   2.141   1.461   4.982 -2.1917 -0.7333  1.0389
 7534SOL    HW234065   2.220   1.586   5.014 -0.5438  0.4675 -0.7431
 7535SOL     OW34066   3.206   3.131   8.938  0.5734 -0.1806  0.5519
 7535SOL    HW134067   3.297   3.119   8.962  0.5310 -2.4881 -0.4317
 7535SOL    HW234068   3.216   3.155   8.846 -0.7039  0.0445  0.4617
 7536SOL     OW34069   2.724   0.246   9.556 -0.3390 -0.3856  0.0998
 7536SOL    HW134070   2.653   0.302   9.525 -0.5120 -1.6796 -1.8683
 7536SOL    HW234071   2.711   0.166   9.504  0.2026 -1.6329  1.8856
 7537SOL     OW34072   1.418   4.453  10.312 -0.2299  0.2160  0.1780
 7537SOL    HW134073   1.361   4.530  10.307 -1.4746 -0.5376  2.8970
 7537SOL    HW234074   1.403   4.421  10.401 -0.3717  0.1466  0.1279
 7538SOL     OW34075   0.577   1.700   2.190 -0.2953  0.4519 -0.1477
 7538SOL    HW134076   0.660   1.738   2.160 -1.3782  2.6225 -0.4356
 7538SOL    HW234077   0.553   1.650   2.112 -1.8906 -1.1512  1.3838
 7539SOL     OW34078   4.703   4.696   7.892 -0.2973 -0.5531  0.1538
 7539SOL    HW134079   0.032   4.640   7.837 -1.5781  1.2664 -3.0137
 7539SOL    HW234080   4.671   4.627   7.951  0.0915 -1.9802 -1.2887
 7540SOL     OW34081   1.803   3.571  12.787 -0.0427 -0.4834 -0.5738
 7540SOL    HW134082   1.753   3.652  12.776 -0.2596 -0.7676 -1.6921
 7540SOL    HW234083   1.833   3.589  12.876 -1.3636 -1.6739  0.1033
 7541SOL     OW34084   0.941   0.606   8.871 -0.2119  0.0289  0.2670
 7541SOL    HW134085   0.929   0.654   8.788 -3.6881  1.2723  1.5003
 7541SOL    HW234086   0.932   0.677   8.935 -1.2498 -1.1807  1.4439
 7542SOL     OW34087   0.163   4.036  11.369  0.0409 -0.2432  0.4595
 7542SOL    HW134088   0.167   4.022  11.464  0.7451  2.8167  0.9162
 7542SOL    HW234089   0.128   4.125  11.369  0.6357 -0.0077 -1.8310
 7543SOL     OW34090   0.631   1.266   5.427 -0.1436  0.5015  0.0586
 7543SOL    HW134091   0.636   1.311   5.512 -1.2213  0.9746 -0.1339
 7543SOL    HW234092   0.722   1.282   5.402 -1.2513  1.8801 -3.0945
 7544SOL     OW34093   1.037   3.663   8.005 -0.1944 -0.1830 -0.8208
 7544SOL    HW134094   0.972   3.619   8.061 -0.4904  0.1670 -0.8876
 7544SOL    HW234095   0.987   3.661   7.923 -1.1708 -1.3179 -0.1976
 7545SOL     OW34096   4.417   3.485  14.857 -0.0153  0.0881 -0.0387
 7545SOL    HW134097   4.358   3.459  14.928 -0.8847  2.0100 -0.0500
 7545SOL    HW234098   4.490   3.517  14.909 -0.0101 -0.2043  0.1305
 7546SOL     OW34099   2.550   2.926  13.275  0.4192 -0.2478  0.4444
 7546SOL    HW134100   2.616   2.971  13.223 -1.1246  0.0327 -1.2649
 7546SOL    HW234101   2.508   2.870  13.210 -1.2452  2.3627 -0.7164
 7547SOL     OW34102   0.791   1.236   5.080  0.1712  1.0264 -0.2237
 7547SOL    HW134103   0.776   1.149   5.045  0.6540  0.7485  0.2603
 7547SOL    HW234104   0.805   1.210   5.171 -2.4954  0.4952  0.0258
 7548SOL     OW34105   2.154   4.392   8.974  0.0520 -0.2795 -0.2347
 7548SOL    HW134106   2.128   4.388   9.067  2.1520  2.2708  0.4497
 7548SOL    HW234107   2.101   4.324   8.932 -1.4565  0.5034  0.4056
 7549SOL     OW34108   3.599   3.415   2.317  0.0154  0.2346 -0.2578
 7549SOL    HW134109   3.690   3.442   2.302 -0.3076  0.7379 -1.3390
 7549SOL    HW234110   3.594   3.433   2.411  1.8235 -0.9313  0.0586
 7550SOL     OW34111   3.521   1.331   5.091 -0.2285 -0.3598  0.5869
 7550SOL    HW134112   3.492   1.245   5.121 -0.3333 -0.2527  0.7839
 7550SOL    HW234113   3.560   1.318   5.004  0.9835 -1.1850  1.2557
 7551SOL     OW34114   3.002   4.602   8.345  0.0884  0.0535 -0.4313
 7551SOL    HW134115   2.945   4.592   8.421  0.9727  0.7111  0.3239
 7551SOL    HW234116   2.937   4.585   8.277  0.9130 -3.7030 -0.2724
 7552SOL     OW34117   0.679   2.967   0.015 -0.1870 -0.5281 -0.1640
 7552SOL    HW134118   0.710   3.007   0.096 -0.5793 -1.2234  0.3311
 7552SOL    HW234119   0.719   2.880   0.019  0.1017 -0.4974 -2.2150
 7553SOL     OW34120   0.955   1.554   3.121  0.3451  0.0615  0.2702
 7553SOL    HW134121   0.893   1.627   3.117  2.4107  1.9593  2.5188
 7553SOL    HW234122   1.034   1.608   3.125  0.4977 -0.1993  0.7011
 7554SOL     OW34123   0.001   0.732   8.763 -0.4493  0.1204  0.1375
 7554SOL    HW134124   4.638   0.729   8.729 -0.4480 -2.5257  0.3767
 7554SOL    HW234125   0.001   0.813   8.814  0.5687 -0.0959  0.4753
 7555SOL     OW34126   2.984   0.623  11.692 -0.5190  0.0167  0.0178
 7555SOL    HW134127   2.962   0.687  11.623 -0.4718 -0.6760 -0.6420
 7555SOL    HW234128   2.909   0.604  11.748 -0.3103  1.1567  0.6819
 7556SOL     OW34129   0.644   4.476   6.014  0.2751  1.1609 -0.1585
 7556SOL    HW134130   0.725   4.500   5.968 -0.0621  1.9343 -0.3559
 7556SOL    HW234131   0.580   4.451   5.948  0.3547  0.1514  0.1479
 7557SOL     OW34132   0.316   2.786   0.811  0.3764 -0.7722  0.1263
 7557SOL    HW134133   0.261   2.813   0.885 -1.0703 -0.9745 -0.8898
 7557SOL    HW234134   0.326   2.869   0.763 -0.3153 -1.0581 -0.5105
 7558SOL     OW34135   0.815   4.089  13.894 -0.0157  0.1920  0.2314
 7558SOL    HW134136   0.842   3.999  13.913 -0.7817  0.3172  1.9647
 7558SOL    HW234137   0.872   4.121  13.964  1.9139  1.4467 -1.9136
 7559SOL     OW34138   2.238   0.150   7.891 -0.5893  0.2732  0.8605
 7559SOL    HW134139   2.232   0.235   7.848 -0.4663 -0.2053 -0.1201
 7559SOL    HW234140   2.147   0.129   7.909 -0.5816 -1.3065 -0.8283
 7560SOL     OW34141   0.734   2.290   0.117 -0.1187  0.3261 -0.4144
 7560SOL    HW134142   0.736   2.256   0.207  0.4911 -1.0218 -0.9484
 7560SOL    HW234143   0.822   2.326   0.108  1.0167 -2.2073  0.7831
 7561SOL     OW34144   2.560   3.921   1.718 -0.1627  0.2981 -0.4194
 7561SOL    HW134145   2.627   3.973   1.675  1.0207 -0.7327  0.1625
 7561SOL    HW234146   2.527   3.968   1.795 -1.8840 -0.7611 -0.5140
 7562SOL     OW34147   0.954   1.657   8.341 -0.2266 -0.8621 -0.0684
 7562SOL    HW134148   1.003   1.697   8.413 -3.2024  0.2888  1.3090
 7562SOL    HW234149   0.954   1.566   8.370  2.8319 -1.1946 -1.1638
 7563SOL     OW34150   3.154   2.177  10.567  0.4064  0.5836  0.1274
 7563SOL    HW134151   3.167   2.090  10.528  0.3514  0.2688  0.8192
 7563SOL    HW234152   3.146   2.239  10.494  1.6248  1.6908  0.9377
 7564SOL     OW34153   0.388   3.091   3.932 -0.3918 -0.3439  0.1637
 7564SOL    HW134154   0.362   3.098   4.024  2.5674 -0.9281  1.0479
 7564SOL    HW234155   0.318   3.047   3.882 -1.0386  0.1710  0.6216
 7565SOL     OW34156   3.985   3.284   3.094  0.1959  0.1605  0.8566
 7565SOL    HW134157   3.985   3.330   3.178  0.2195  1.3088  0.2240
 7565SOL    HW234158   3.895   3.303   3.067 -0.4969 -1.6618  1.8941
 7566SOL     OW34159   4.615   2.055   1.359  0.7421  0.7691 -0.1692
 7566SOL    HW134160   4.706   2.081   1.372  0.8624 -0.6269  1.8142
 7566SOL    HW234161   4.587   2.041   1.450  0.7407  0.6616 -0.1865
 7567SOL     OW34162   2.160   2.976  12.716  0.0046  0.3541 -0.2149
 7567SOL    HW134163   2.102   2.999  12.644 -1.4003 -0.8528  0.5336
 7567SOL    HW234164   2.233   3.039  12.713  0.4824 -0.2734 -1.7822
 7568SOL     OW34165   0.988   2.955  16.990 -0.5420 -0.2051 -0.6597
 7568SOL    HW134166   0.974   3.041  17.030 -0.1301  1.0348 -3.1659
 7568SOL    HW234167   1.016   2.906  17.067 -1.2661  1.1067  0.4439
 7569SOL     OW34168   3.104   1.578   4.283  0.0943 -0.2583 -0.0434
 7569SOL    HW134169   3.108   1.650   4.220  0.2900 -2.1409 -2.1390
 7569SOL    HW234170   3.186   1.598   4.328  0.7683 -2.6256 -0.2458
 7570SOL     OW34171   0.823   4.210   2.818 -0.0398 -0.0388  0.0341
 7570SOL    HW134172   0.818   4.245   2.729  0.6928 -1.6854 -0.6616
 7570SOL    HW234173   0.915   4.184   2.827 -0.2962 -0.6160  0.9236
 7571SOL     OW34174   2.826   3.589   7.681  0.0788  0.1947 -0.3227
 7571SOL    HW134175   2.800   3.681   7.692 -1.1576 -0.4087  1.6955
 7571SOL    HW234176   2.779   3.582   7.598 -2.1455 -1.8944  1.1050
 7572SOL     OW34177   1.297   0.002   8.915  0.0247 -0.1453 -0.6106
 7572SOL    HW134178   1.284   4.724   9.010  0.8666 -1.0401 -0.5362
 7572SOL    HW234179   1.295   0.097   8.904  0.4169 -0.2000 -1.1222
 7573SOL     OW34180   3.869   2.220   4.014  0.6497  0.1623 -0.8277
 7573SOL    HW134181   3.880   2.304   3.970  1.4062  0.3943 -0.1805
 7573SOL    HW234182   3.891   2.255   4.100  1.8242  0.9092 -1.4408
 7574SOL     OW34183   1.132   3.027   0.582 -0.4875 -0.5360 -0.0188
 7574SOL    HW134184   1.048   3.017   0.537 -0.7473 -0.7370  0.5020
 7574SOL    HW234185   1.149   2.937   0.611 -0.7345 -1.0556 -1.4702
 7575SOL     OW34186   1.225   0.746  11.987 -0.1726 -0.1641 -0.0112
 7575SOL    HW134187   1.132   0.755  12.007  0.5175  0.7916  2.7372
 7575SOL    HW234188   1.260   0.832  12.007 -1.6342  0.7301 -1.3355
 7576SOL     OW34189   3.741   3.997   5.721  0.4036  0.3556  0.3351
 7576SOL    HW134190   3.754   3.916   5.671  1.5680  1.9242 -1.9262
 7576SOL    HW234191   3.775   4.059   5.656 -0.8726  1.5912  0.8466
 7577SOL     OW34192   0.476   0.799   8.897 -0.0697  0.4188 -0.1486
 7577SOL    HW134193   0.471   0.754   8.982 -0.0736  2.0401  0.7088
 7577SOL    HW234194   0.391   0.843   8.892 -0.4464 -0.6271 -2.8854
 7578SOL     OW34195   4.638   1.973   5.015  0.7277  0.0605  0.1969
 7578SOL    HW134196   4.627   2.037   5.085  2.5940  0.8710 -0.2219
 7578SOL    HW234197   4.697   1.916   5.064 -0.0285  0.5331  1.6344
 7579SOL     OW34198   1.798   3.533   8.694 -0.2915 -0.4195 -0.5235
 7579SOL    HW134199   1.836   3.610   8.735  1.3239 -0.3895 -2.1192
 7579SOL    HW234200   1.751   3.490   8.766  0.8499 -0.6808  0.0568
 7580SOL     OW34201   1.052   2.365  13.396 -0.3071 -0.2108 -0.5458
 7580SOL    HW134202   1.116   2.385  13.465  0.7876  1.1088 -1.9210
 7580SOL    HW234203   0.981   2.407  13.444  0.9209  0.2224  0.8921
 7581SOL     OW34204   0.249   2.845   9.034  0.3407 -0.1310 -0.0817
 7581SOL    HW134205   0.226   2.768   9.086  0.7084  0.3717  0.8226
 7581SOL    HW234206   0.316   2.878   9.094  0.2190  1.2513 -0.6991
 7582SOL     OW34207   2.740   1.926  16.305 -0.5510 -0.0451  0.3275
 7582SOL    HW134208   2.785   1.876  16.237 -2.8147 -2.1965  0.4295
 7582SOL    HW234209   2.808   1.932  16.372  0.2694 -0.4611 -0.4623
 7583SOL     OW34210   4.504   3.436  11.728 -0.2429 -0.7824  0.0207
 7583SOL    HW134211   4.422   3.442  11.776  0.3852 -1.6205  1.1993
 7583SOL    HW234212   4.502   3.352  11.681  3.2964 -1.4352  1.0429
 7584SOL     OW34213   4.036   0.778   3.495 -0.5129  0.1139  0.2516
 7584SOL    HW134214   4.010   0.767   3.404  0.6290  0.0547 -0.0651
 7584SOL    HW234215   4.103   0.709   3.499 -2.1720 -1.3697  2.6212
 7585SOL     OW34216   4.546   0.744  13.843  0.4571  0.4666 -0.1996
 7585SOL    HW134217   4.463   0.696  13.846  0.8320 -0.1402  0.5809
 7585SOL    HW234218   4.585   0.721  13.759  1.2498  0.1133  0.2553
 7586SOL     OW34219   4.182   1.932   6.612 -0.2423  0.4141  0.6901
 7586SOL    HW134220   4.147   2.016   6.584 -1.5274 -0.6988 -0.9929
 7586SOL    HW234221   4.155   1.943   6.704  2.0454 -1.7353  1.6171
 7587SOL     OW34222   1.439   0.319   3.741  0.2145  0.6338  0.8812
 7587SOL    HW134223   1.509   0.255   3.755  0.3238  0.9515  1.7580
 7587SOL    HW234224   1.468   0.341   3.653 -0.1329 -0.8682  0.3851
 7588SOL     OW34225   1.123   2.961  17.252  0.0232  0.1243 -0.1275
 7588SOL    HW134226   1.124   2.870  17.281 -1.3663  0.5431  1.2528
 7588SOL    HW234227   1.200   2.998  17.296  0.6422 -0.1766 -0.9602
 7589SOL     OW34228   3.247   1.111   7.873 -0.0841 -0.1069  0.4203
 7589SOL    HW134229   3.311   1.041   7.881 -0.1432 -0.0465  1.3565
 7589SOL    HW234230   3.186   1.067   7.813  1.1069 -0.8754 -0.2159
 7590SOL     OW34231   0.602   2.262   4.761 -0.0963  0.4537  0.0261
 7590SOL    HW134232   0.578   2.224   4.677  1.0414 -0.4229  0.0825
 7590SOL    HW234233   0.653   2.188   4.797  1.8568  2.2452  0.9602
 7591SOL     OW34234   1.150   2.767  12.836  0.2328  0.1784  0.5367
 7591SOL    HW134235   1.086   2.837  12.823  0.7653  0.5445 -0.1056
 7591SOL    HW234236   1.089   2.699  12.864 -3.1155  2.7140 -0.6238
 7592SOL     OW34237   4.084   1.753   6.409  0.1859  0.2304 -0.0402
 7592SOL    HW134238   4.104   1.818   6.477 -0.8954  1.5313 -0.9847
 7592SOL    HW234239   4.048   1.801   6.335  3.0733  1.6081 -0.5487
 7593SOL     OW34240   0.844   2.935  15.750 -0.6969  0.5400 -0.1566
 7593SOL    HW134241   0.773   2.905  15.806 -0.2900  2.0773  1.1955
 7593SOL    HW234242   0.891   2.988  15.814  0.2517 -0.0405 -0.3698
 7594SOL     OW34243   0.380   2.645   3.798  0.6208 -0.2759  0.0197
 7594SOL    HW134244   0.387   2.716   3.733 -0.7029 -0.3190 -0.1734
 7594SOL    HW234245   0.428   2.683   3.872  2.2892  0.4852 -1.4410
 7595SOL     OW34246   3.650   1.246   4.823  0.3530 -0.2228  0.2610
 7595SOL    HW134247   3.688   1.186   4.887  1.2850  1.5166  1.3582
 7595SOL    HW234248   3.658   1.197   4.741  4.6083  1.1195 -0.1529
 7596SOL     OW34249   1.017   2.493  14.459  0.3432 -0.7126 -0.6106
 7596SOL    HW134250   1.010   2.470  14.366 -0.0609 -2.1300 -0.2372
 7596SOL    HW234251   0.963   2.572  14.455  0.0292 -0.9592 -1.2710
 7597SOL     OW34252   3.267   1.784   5.645  1.0133  0.3526 -0.3711
 7597SOL    HW134253   3.311   1.712   5.691 -1.7717 -1.7074 -0.9271
 7597SOL    HW234254   3.192   1.737   5.609 -0.4989  1.0422  1.8777
 7598SOL     OW34255   2.501   0.025  11.954  0.2984 -0.3116 -0.3839
 7598SOL    HW134256   2.498   0.099  11.894 -1.6297 -0.7510 -0.8321
 7598SOL    HW234257   2.584   0.057  11.989  1.0566 -1.7526 -0.8689
 7599SOL     OW34258   1.593   2.973   8.894 -0.3392 -0.8572  0.1571
 7599SOL    HW134259   1.665   2.911   8.903  0.3595 -0.2115 -1.0630
 7599SOL    HW234260   1.595   3.015   8.980  0.7758  1.4551 -0.9914
 7600SOL     OW34261   1.428   3.547   8.316  0.4836  0.5118  0.6175
 7600SOL    HW134262   1.487   3.612   8.278 -1.0441  1.4649 -0.0948
 7600SOL    HW234263   1.361   3.561   8.249  1.0902 -2.9127 -0.7150
 7601SOL     OW34264   0.735   3.389   2.282  0.3374  0.3231 -0.0812
 7601SOL    HW134265   0.648   3.363   2.313  0.1236  0.2398 -0.7417
 7601SOL    HW234266   0.791   3.364   2.355  1.5202  0.2780 -1.0064
 7602SOL     OW34267   4.034   1.211  14.388 -0.1370 -0.3195 -0.5690
 7602SOL    HW134268   3.965   1.149  14.368  0.3340 -0.9774 -0.1572
 7602SOL    HW234269   4.112   1.159  14.407  0.1101 -0.7443 -2.7995
 7603SOL     OW34270   0.675   2.865   8.259 -0.4375 -0.3491  0.3191
 7603SOL    HW134271   0.643   2.829   8.341 -0.7150 -0.1772  0.2840
 7603SOL    HW234272   0.654   2.957   8.271  2.0321 -0.0339  2.3737
 7604SOL     OW34273   3.038   4.536   5.208  0.5463  0.4594  0.2119
 7604SOL    HW134274   3.127   4.510   5.184 -0.2747  0.4579 -2.8863
 7604SOL    HW234275   3.003   4.557   5.121 -0.7729 -2.0206  0.1400
 7605SOL     OW34276   1.252   2.276   1.898  0.2207  0.0913 -0.0055
 7605SOL    HW134277   1.315   2.227   1.952 -0.5588  0.4069  1.1891
 7605SOL    HW234278   1.303   2.322   1.831  1.9231 -1.8173 -0.0195
 7606SOL     OW34279   1.127   1.979   7.811 -0.0922 -0.1568  0.7975
 7606SOL    HW134280   1.159   2.060   7.851  0.4198  0.4986 -0.9062
 7606SOL    HW234281   1.142   1.922   7.886  0.8962 -0.2711  0.5175
 7607SOL     OW34282   4.190   1.901   5.339 -0.0607  0.1374 -0.4306
 7607SOL    HW134283   4.144   1.857   5.410  0.3431  0.5995  0.1201
 7607SOL    HW234284   4.167   1.992   5.353 -0.5462  0.1038 -1.0310
 7608SOL     OW34285   0.405   3.354   7.815 -0.4242 -0.4925 -0.4061
 7608SOL    HW134286   0.394   3.448   7.809 -1.0218 -0.5077  0.5209
 7608SOL    HW234287   0.388   3.348   7.909  3.7011 -1.9790  0.2445
 7609SOL     OW34288   2.809   4.177   1.782  0.3683 -0.0265 -0.3869
 7609SOL    HW134289   2.859   4.101   1.813 -0.2660  0.6948  2.3666
 7609SOL    HW234290   2.863   4.255   1.791  1.1222 -0.4838 -0.8876
 7610SOL     OW34291   3.253   0.553   7.916 -0.1249 -0.1796  0.4418
 7610SOL    HW134292   3.232   0.538   8.009 -1.4538  0.0833  0.1786
 7610SOL    HW234293   3.268   0.647   7.912  2.1790 -0.6036 -0.6906
 7611SOL     OW34294   1.172   3.987  13.562 -0.0978  0.2218  0.0103
 7611SOL    HW134295   1.245   4.022  13.511  1.4474 -2.6003  0.2774
 7611SOL    HW234296   1.097   4.043  13.542  0.5302  0.5290 -1.4674
 7612SOL     OW34297   3.712   0.394   3.822 -0.0228 -0.2589 -0.0316
 7612SOL    HW134298   3.725   0.438   3.737  1.9760  0.2899  0.5553
 7612SOL    HW234299   3.742   0.306   3.801 -2.0928 -0.6221 -1.5018
 7613SOL     OW34300   2.480   1.661   2.912  0.0795  0.5800 -0.0198
 7613SOL    HW134301   2.430   1.741   2.897 -0.5048  0.4680  1.4224
 7613SOL    HW234302   2.522   1.671   2.997 -2.5909 -0.8109  1.4621
 7614SOL     OW34303   2.699   0.977   3.682 -0.2875 -0.4219 -0.0229
 7614SOL    HW134304   2.720   0.900   3.735 -0.9392 -1.2100 -0.8976
 7614SOL    HW234305   2.755   0.970   3.605 -0.4521  2.9166 -0.4312
 7615SOL     OW34306   2.497   0.446   3.673 -0.8620  0.0149  0.2716
 7615SOL    HW134307   2.563   0.428   3.605  0.1827 -0.1083  1.3224
 7615SOL    HW234308   2.440   0.369   3.666 -0.3870 -0.5120  2.3186
 7616SOL     OW34309   0.486   2.044   4.029  0.2180  0.4196 -0.3442
 7616SOL    HW134310   0.438   2.070   4.107 -1.6108  0.4329 -1.4624
 7616SOL    HW234311   0.449   2.105   3.965  0.6983  0.4830 -0.5600
 7617SOL     OW34312   3.365   3.423   3.738 -0.9840 -0.7973  0.1195
 7617SOL    HW134313   3.455   3.395   3.719 -0.4762  0.1326  1.1494
 7617SOL    HW234314   3.348   3.486   3.668 -0.5966 -0.4939  0.2954
 7618SOL     OW34315   2.970   0.944   2.745  0.6555  0.2144  0.1077
 7618SOL    HW134316   2.893   1.001   2.753 -0.9254 -1.3756 -3.9420
 7618SOL    HW234317   2.936   0.896   2.669  2.9078 -0.2357 -0.5921
 7619SOL     OW34318   2.608   3.230   0.866 -0.3038 -0.3765  0.8322
 7619SOL    HW134319   2.557   3.233   0.947 -0.1157  0.5754  0.9193
 7619SOL    HW234320   2.550   3.283   0.812  0.6449 -0.1293  0.0587
 7620SOL     OW34321   1.772   1.159  15.871  0.1062 -0.1112 -0.1332
 7620SOL    HW134322   1.701   1.095  15.873  2.1033 -2.3666 -1.8060
 7620SOL    HW234323   1.843   1.096  15.882 -0.8848 -1.5034 -1.7174
 7621SOL     OW34324   3.528   2.941  15.579 -0.0480 -0.2923 -0.2403
 7621SOL    HW134325   3.605   2.998  15.568 -1.1307  1.3335  0.5671
 7621SOL    HW234326   3.525   2.927  15.673 -0.3585 -3.0871 -0.6888
 7622SOL     OW34327   3.508   2.336   8.196 -0.0866 -0.2112 -0.7580
 7622SOL    HW134328   3.508   2.253   8.148 -1.1211 -0.4787 -0.3018
 7622SOL    HW234329   3.437   2.381   8.149 -1.6087 -2.0015 -0.2022
 7623SOL     OW34330   0.339   1.860   8.140  0.2051  0.1802 -0.1322
 7623SOL    HW134331   0.260   1.817   8.171  0.3510 -0.2484 -0.3557
 7623SOL    HW234332   0.306   1.950   8.136 -0.5076 -0.1325 -1.3276
 7624SOL     OW34333   2.617   0.140  16.185  0.3556  0.1138  0.5997
 7624SOL    HW134334   2.571   0.214  16.146  3.0720  1.5096  0.0570
 7624SOL    HW234335   2.598   0.142  16.279 -1.8476  3.5894  0.0868
 7625SOL     OW34336   3.817   3.960   4.172  0.0701 -0.0150  0.4920
 7625SOL    HW134337   3.880   3.960   4.100 -1.1728 -0.0525 -0.6075
 7625SOL    HW234338   3.754   4.009   4.119  0.4410 -0.6439 -0.5412
 7626SOL     OW34339   1.295   2.865   2.889 -0.4721  0.2202  0.4238
 7626SOL    HW134340   1.278   2.780   2.930 -1.1297 -0.4948 -1.3218
 7626SOL    HW234341   1.342   2.842   2.809  1.5391  0.3877  1.5588
 7627SOL     OW34342   2.420   1.273  10.763 -0.3519  0.7466  0.1215
 7627SOL    HW134343   2.386   1.195  10.807 -0.8390  0.2358 -1.1369
 7627SOL    HW234344   2.431   1.325  10.843  1.3497 -0.4805  0.6810
 7628SOL     OW34345   2.906   4.407   6.013  0.0787 -0.6514 -0.1983
 7628SOL    HW134346   2.962   4.376   5.942  1.0679  3.4715 -1.1881
 7628SOL    HW234347   2.918   4.344   6.084 -1.2372  0.5255  1.0687
 7629SOL     OW34348   0.054   2.855  13.697  0.0678 -0.4161 -0.3149
 7629SOL    HW134349   0.037   2.780  13.639  0.7218 -1.2308  0.5558
 7629SOL    HW234350   0.107   2.817  13.767  0.6729 -2.0047 -1.6252
 7630SOL     OW34351   4.192   3.023   4.598 -0.2681 -0.2701 -0.3196
 7630SOL    HW134352   4.112   2.974   4.579  0.4334 -1.4043 -0.3366
 7630SOL    HW234353   4.265   2.985   4.550  0.0235 -1.1282  0.7975
 7631SOL     OW34354   1.574   2.891   7.963  0.2580  1.1153  0.1345
 7631SOL    HW134355   1.608   2.973   7.998  0.6525  1.5936 -1.3362
 7631SOL    HW234356   1.649   2.865   7.910 -0.3420 -1.4571  0.5828
 7632SOL     OW34357   1.201   2.741   6.746 -0.3779  0.3170  0.1178
 7632SOL    HW134358   1.120   2.738   6.695 -0.9685 -2.2271  1.1856
 7632SOL    HW234359   1.220   2.834   6.739 -0.4333  0.4027  1.1168
 7633SOL     OW34360   1.498   0.876  13.305  0.3135  0.3053 -0.1226
 7633SOL    HW134361   1.409   0.846  13.323  0.6774 -0.8578 -0.3002
 7633SOL    HW234362   1.483   0.971  13.306  0.6541  0.3790 -2.4972
 7634SOL     OW34363   1.456   1.972   3.384 -0.3240  0.5462  0.3836
 7634SOL    HW134364   1.517   2.006   3.448 -1.0538 -2.4000  2.6374
 7634SOL    HW234365   1.428   1.898   3.437  1.4013  0.5910  1.3460
 7635SOL     OW34366   4.493   3.387   2.045 -0.2709 -0.2917  0.5818
 7635SOL    HW134367   4.486   3.411   2.137  0.7820 -1.8764  1.0639
 7635SOL    HW234368   4.422   3.437   2.004  1.3116 -0.8041 -2.8460
 7636SOL     OW34369   1.534   1.262   5.073  0.3799  0.1086  0.0474
 7636SOL    HW134370   1.502   1.301   5.154  1.2358 -0.0564  0.4635
 7636SOL    HW234371   1.477   1.186   5.072 -0.9064  1.0842 -0.7024
 7637SOL     OW34372   2.623   3.164  14.227  0.0630 -0.1741 -0.5926
 7637SOL    HW134373   2.636   3.205  14.142  1.1290 -0.2954 -0.4861
 7637SOL    HW234374   2.559   3.224  14.266  0.0724 -0.0967 -0.6960
 7638SOL     OW34375   0.720   0.655   6.500 -0.1723  0.4786 -0.0344
 7638SOL    HW134376   0.690   0.684   6.414 -0.0582 -1.0309 -0.5926
 7638SOL    HW234377   0.812   0.678   6.508 -0.2268  1.1773 -1.5525
 7639SOL     OW34378   2.164   2.941   4.815 -0.0332 -0.2547 -0.0865
 7639SOL    HW134379   2.109   3.013   4.847  2.2961  0.5520  2.1295
 7639SOL    HW234380   2.098   2.872   4.823 -0.5736  0.3225  0.4446
 7640SOL     OW34381   3.964   1.165   9.022  0.1633  0.1904  0.8136
 7640SOL    HW134382   3.999   1.086   8.981 -0.3612 -0.1235  0.9797
 7640SOL    HW234383   4.005   1.147   9.107 -2.0853 -0.7539  1.6946
 7641SOL     OW34384   1.749   3.216   4.666 -0.2933  0.3388  0.2253
 7641SOL    HW134385   1.809   3.245   4.597  0.8947 -2.0633  0.2603
 7641SOL    HW234386   1.808   3.224   4.740 -0.1067  0.5620  0.0529
 7642SOL     OW34387   2.970   3.630  15.122 -0.5467 -0.1430 -0.5001
 7642SOL    HW134388   2.908   3.703  15.120  1.0556  1.2415  0.2370
 7642SOL    HW234389   3.053   3.677  15.132  0.1935 -1.1599 -1.8255
 7643SOL     OW34390   2.594   2.845   6.440 -0.0966  0.5887  0.0294
 7643SOL    HW134391   2.549   2.771   6.399  0.5633 -0.6486  1.5493
 7643SOL    HW234392   2.563   2.917   6.385  1.5543  0.4859 -1.0547
 7644SOL     OW34393   1.746   1.848   8.940  0.5486  0.2304  0.0995
 7644SOL    HW134394   1.715   1.861   9.030  0.6642 -1.0602  0.3331
 7644SOL    HW234395   1.729   1.934   8.901  1.2185  0.1817 -0.2996
 7645SOL     OW34396   3.551   0.808   9.126  0.1243  0.0423 -0.6292
 7645SOL    HW134397   3.638   0.846   9.116  0.9979 -1.2238  1.9565
 7645SOL    HW234398   3.565   0.723   9.083  2.2287  0.3846 -0.6536
 7646SOL     OW34399   1.206   4.708   9.185  0.0312 -0.6740  0.1668
 7646SOL    HW134400   1.163   0.063   9.213 -0.0893 -1.0788  1.1629
 7646SOL    HW234401   1.133   4.649   9.168  0.3754 -0.6286 -1.4098
 7647SOL     OW34402   0.633   4.585  17.582  0.1874 -0.3144 -0.1616
 7647SOL    HW134403   0.674   4.578  17.668 -0.2915 -0.8198  0.0247
 7647SOL    HW234404   0.553   4.533  17.584 -0.5256  0.7349 -1.6609
 7648SOL     OW34405   0.150   0.713  14.900  0.0605 -0.1559 -0.5122
 7648SOL    HW134406   0.072   0.659  14.891  0.1770 -0.4833  0.4223
 7648SOL    HW234407   0.158   0.741  14.809  2.5425  3.0153  0.6922
 7649SOL     OW34408   1.806   4.693   6.151  0.0404 -0.5450 -0.4249
 7649SOL    HW134409   1.777   0.036   6.211  1.7511  0.9894 -1.3626
 7649SOL    HW234410   1.875   0.015   6.106 -1.5243  2.4363  0.3949
 7650SOL     OW34411   1.805   1.977  10.382 -0.0549 -0.0836  0.2195
 7650SOL    HW134412   1.871   2.003  10.318 -1.8312  4.7166  0.3783
 7650SOL    HW234413   1.848   1.902  10.423  0.8791  0.5143  0.3452
 7651SOL     OW34414   4.673   1.935   7.521  0.0434 -0.1261  0.1086
 7651SOL    HW134415   0.026   1.949   7.572  0.5827 -1.1923 -0.4345
 7651SOL    HW234416   4.643   2.025   7.506 -2.0676 -0.8120  0.1458
 7652SOL     OW34417   3.634   4.067   4.027 -0.0299  0.1245  0.4292
 7652SOL    HW134418   3.567   3.999   4.025  1.2891 -1.2003  1.3061
 7652SOL    HW234419   3.640   4.093   3.935  0.1544 -0.0497  0.3938
 7653SOL     OW34420   1.154   2.487   4.478 -0.4861  0.4082 -0.1083
 7653SOL    HW134421   1.151   2.420   4.546 -1.5688  0.3616 -0.2153
 7653SOL    HW234422   1.231   2.460   4.427  1.3383  0.5647  2.5508
 7654SOL     OW34423   2.265   0.519   5.963  0.1970  0.2104  0.3754
 7654SOL    HW134424   2.312   0.587   5.914 -1.2119  1.1369  0.2979
 7654SOL    HW234425   2.201   0.573   6.009 -0.9690  1.4773 -2.7308
 7655SOL     OW34426   4.292   4.239  10.284  0.3302 -0.1272  0.1398
 7655SOL    HW134427   4.224   4.171  10.281 -0.3578  0.5803 -0.3558
 7655SOL    HW234428   4.254   4.290  10.356 -0.0408  2.1465 -1.6953
 7656SOL     OW34429   0.401   1.957   2.881  0.0031  0.6653 -0.0573
 7656SOL    HW134430   0.326   1.899   2.869 -0.7579  1.6794 -0.2281
 7656SOL    HW234431   0.389   2.016   2.807  2.6712  1.2262 -0.0545
 7657SOL     OW34432   2.815   2.748  12.844 -0.7624  0.8092 -0.0636
 7657SOL    HW134433   2.884   2.814  12.847 -0.6799  0.6990  0.3776
 7657SOL    HW234434   2.812   2.725  12.937 -1.9089  0.4232 -0.1931
 7658SOL     OW34435   3.536   2.332   5.806 -0.0878 -0.1469 -0.3519
 7658SOL    HW134436   3.502   2.391   5.873  0.3772 -2.3038  1.7670
 7658SOL    HW234437   3.452   2.304   5.769  0.6282 -0.0205 -2.0954
 7659SOL     OW34438   3.926   4.040  14.207  0.2457  0.4149  1.0489
 7659SOL    HW134439   3.963   4.116  14.161  2.5145 -0.6700  1.0993
 7659SOL    HW234440   3.997   4.039  14.271  1.1020 -1.6831  0.0606
 7660SOL     OW34441   0.500   1.259  15.414  0.3488  0.4443 -0.5216
 7660SOL    HW134442   0.421   1.301  15.380  1.0489  1.9083 -0.3731
 7660SOL    HW234443   0.498   1.298  15.501 -2.7198  1.0735 -0.8611
 7661SOL     OW34444   4.724   3.302   6.754 -0.3009 -0.5185  0.0003
 7661SOL    HW134445   4.706   3.322   6.846  0.0891 -0.6050  0.0968
 7661SOL    HW234446   0.001   3.207   6.761  0.5725 -0.4158  0.9831
 7662SOL     OW34447   3.482   2.535   3.472 -0.4870  0.5868 -0.3595
 7662SOL    HW134448   3.438   2.559   3.553  0.3456 -1.7188  0.7921
 7662SOL    HW234449   3.552   2.600   3.467  0.3224 -0.3041 -0.8180
 7663SOL     OW34450   1.951   2.326   6.750 -0.1628 -0.1536 -0.7900
 7663SOL    HW134451   1.903   2.342   6.669 -2.0666  0.3266  0.4504
 7663SOL    HW234452   2.034   2.296   6.712  0.1184 -3.3276  2.3119
 7664SOL     OW34453   0.673   4.580   8.118 -0.4218 -0.2242 -0.4876
 7664SOL    HW134454   0.751   4.624   8.084 -0.1055 -1.9310 -2.0097
 7664SOL    HW234455   0.622   4.572   8.037  2.4150 -0.1668 -2.2642
 7665SOL     OW34456   0.026   0.885   2.201 -0.0249  0.0159 -0.1110
 7665SOL    HW134457   0.007   0.950   2.133 -3.3651  1.9810  2.6615
 7665SOL    HW234458   0.074   0.815   2.157  0.3994 -0.3465  0.9368
 7666SOL     OW34459   0.880   1.859  16.109 -0.6356 -0.2190 -0.7244
 7666SOL    HW134460   0.920   1.772  16.119 -0.0742  0.1980  0.7560
 7666SOL    HW234461   0.808   1.831  16.053 -0.0755 -1.4004 -0.8539
 7667SOL     OW34462   0.549   2.067   0.574  0.5474 -0.2371  0.1331
 7667SOL    HW134463   0.571   1.986   0.619  3.0797  0.5190  0.2916
 7667SOL    HW234464   0.576   2.129   0.641  0.8572  1.1684 -1.2782
 7668SOL     OW34465   0.655   3.126   8.760 -0.4523  0.1901 -0.2854
 7668SOL    HW134466   0.559   3.133   8.752 -0.5754 -1.2738  0.0591
 7668SOL    HW234467   0.670   3.064   8.831  1.8245 -0.1311 -1.0701
 7669SOL     OW34468   0.853   1.309   8.637 -0.2045  0.0540 -0.0884
 7669SOL    HW134469   0.912   1.362   8.689 -0.3724 -1.3765  1.5610
 7669SOL    HW234470   0.824   1.234   8.690  1.5603 -1.2364 -0.9569
 7670SOL     OW34471   4.028   2.429   8.174  0.0914 -0.1974 -0.0926
 7670SOL    HW134472   3.933   2.425   8.172  0.0487  1.7166 -1.5619
 7670SOL    HW234473   4.050   2.375   8.250 -0.1008  0.8551  0.7081
 7671SOL     OW34474   1.131   3.084   3.444  0.1443 -0.5758  0.0794
 7671SOL    HW134475   1.123   3.041   3.359 -2.2778  1.2694 -0.6142
 7671SOL    HW234476   1.082   3.025   3.501  1.9051 -1.4053  0.7300
 7672SOL     OW34477   0.304   0.891   9.577 -0.0773  0.6215  0.5581
 7672SOL    HW134478   0.290   0.967   9.520 -0.6716 -0.1366 -0.2960
 7672SOL    HW234479   0.234   0.905   9.641 -0.5836 -0.1202  0.1703
 7673SOL     OW34480   0.253   0.001   3.422  0.8296  0.1696  0.1831
 7673SOL    HW134481   0.270   4.679   3.341 -2.4457 -0.2313 -0.2967
 7673SOL    HW234482   0.196   4.663   3.464 -0.1649  1.4183  0.7752
 7674SOL     OW34483   2.834   4.185   3.113 -0.2676  0.1827  0.1802
 7674SOL    HW134484   2.834   4.280   3.096  1.1804 -0.0974 -1.3958
 7674SOL    HW234485   2.754   4.160   3.066 -1.1344  0.5089  1.4972
 7675SOL     OW34486   2.470   0.435   0.047 -0.1216  0.0930  0.0317
 7675SOL    HW134487   2.375   0.438   0.063  0.2401  3.1091  1.6906
 7675SOL    HW234488   2.515   0.407   0.126  0.5698 -1.9808 -1.1083
 7676SOL     OW34489   4.530   2.597  15.583 -0.3602 -0.1123  0.1727
 7676SOL    HW134490   4.584   2.675  15.595  3.2913 -2.7267  0.5743
 7676SOL    HW234491   4.491   2.588  15.670 -1.3657  1.7504 -0.0818
 7677SOL     OW34492   1.487   2.144  10.908  1.1244  0.1700 -0.2413
 7677SOL    HW134493   1.454   2.234  10.906 -0.7696 -0.4575  2.4887
 7677SOL    HW234494   1.579   2.161  10.926  0.9556  0.6297  0.1934
 7678SOL     OW34495   3.793   2.701   9.297 -0.1548  0.4688 -1.0083
 7678SOL    HW134496   3.771   2.744   9.215  0.8704 -0.5753 -1.8300
 7678SOL    HW234497   3.886   2.676   9.296 -0.5717 -1.2451  1.1791
 7679SOL     OW34498   2.496   4.603   5.362  0.0796 -0.1743  1.0501
 7679SOL    HW134499   2.511   4.685   5.409 -0.4754 -0.7075  2.1551
 7679SOL    HW234500   2.585   4.575   5.342  0.0203  0.9200 -0.7056
 7680SOL     OW34501   2.762   1.632   5.938 -0.1322  0.2713 -0.3128
 7680SOL    HW134502   2.842   1.587   5.962 -2.6481 -4.0735 -0.1358
 7680SOL    HW234503   2.701   1.590   5.998  0.5927  1.8443  1.5134
 7681SOL     OW34504   0.732   3.352   5.100 -0.2686 -0.4717 -0.2231
 7681SOL    HW134505   0.642   3.384   5.090 -1.3654 -4.1684 -2.0999
 7681SOL    HW234506   0.755   3.394   5.182 -0.4296  1.3207 -1.0924
 7682SOL     OW34507   0.411   0.936   7.643  0.0355 -0.3263  0.1497
 7682SOL    HW134508   0.401   1.027   7.616  5.1660  0.0941 -0.3708
 7682SOL    HW234509   0.318   0.916   7.655  0.0666  0.5664  1.7918
 7683SOL     OW34510   3.598   1.753   5.547  0.2439 -0.1548 -0.0024
 7683SOL    HW134511   3.669   1.726   5.489  0.9852 -2.5771  2.0075
 7683SOL    HW234512   3.601   1.848   5.548 -2.8950 -0.0162 -2.4096
 7684SOL     OW34513   2.366   1.938   7.223  0.1423 -0.3404 -0.3168
 7684SOL    HW134514   2.404   1.971   7.304  0.4886 -4.4069  1.1800
 7684SOL    HW234515   2.377   2.010   7.161  1.9919 -1.7483 -1.6128
 7685SOL     OW34516   4.182   0.022   5.328  0.1087 -0.5684  0.5399
 7685SOL    HW134517   4.194   4.700   5.409 -3.6335 -1.9545  0.2695
 7685SOL    HW234518   4.198   4.671   5.275 -0.0413 -1.3582  1.6560
 7686SOL     OW34519   2.416   2.894  13.740  0.2018 -0.0665 -0.1116
 7686SOL    HW134520   2.487   2.895  13.677  2.4518  2.4811  2.4635
 7686SOL    HW234521   2.446   2.959  13.804  2.6315 -1.0556 -0.2377
 7687SOL     OW34522   2.866   0.539  17.067 -0.2288 -0.3915 -0.1577
 7687SOL    HW134523   2.839   0.455  17.031  0.4871  0.7911 -3.3827
 7687SOL    HW234524   2.799   0.602  17.040 -1.5699 -0.8478  2.0446
 7688SOL     OW34525   1.479   2.003  17.035 -0.0008  0.4091  0.2681
 7688SOL    HW134526   1.545   2.007  17.104 -0.0225 -0.1775  0.3149
 7688SOL    HW234527   1.459   1.910  17.036  0.4277  0.3222  0.9782
 7689SOL     OW34528   2.214   4.599  15.618  0.8610  0.1837  0.6609
 7689SOL    HW134529   2.244   4.665  15.556  0.0750  1.0548  1.2153
 7689SOL    HW234530   2.168   4.651  15.683  1.3210  0.7639  0.5283
 7690SOL     OW34531   2.456   2.282   4.839 -0.0107 -0.2603  0.1427
 7690SOL    HW134532   2.443   2.370   4.876  2.5609 -1.2304  3.3883
 7690SOL    HW234533   2.433   2.230   4.916 -2.4231 -0.1325 -0.5069
 7691SOL     OW34534   4.560   4.587  17.047 -0.1151 -0.0106  0.0588
 7691SOL    HW134535   4.526   4.504  17.077 -0.5396  0.2701  0.3477
 7691SOL    HW234536   4.495   4.648  17.082 -0.9207  0.0064 -1.4515
 7692SOL     OW34537   4.248   4.395   4.006 -0.6297  0.1427 -0.3991
 7692SOL    HW134538   4.166   4.346   4.007  0.1763 -1.1857  0.2012
 7692SOL    HW234539   4.282   4.395   4.096  0.1536 -1.0982 -0.6965
 7693SOL     OW34540   2.297   3.797  10.572 -0.2578  0.0537  0.4998
 7693SOL    HW134541   2.324   3.882  10.607 -0.9699  0.2437  0.5900
 7693SOL    HW234542   2.259   3.830  10.490  0.4073  0.6176  0.4124
 7694SOL     OW34543   1.375   1.422  10.925 -0.1332 -0.4112 -0.0267
 7694SOL    HW134544   1.367   1.516  10.906  1.5187 -0.3610 -0.4798
 7694SOL    HW234545   1.316   1.415  11.000 -0.4408 -0.7525 -0.3011
 7695SOL     OW34546   2.855   0.390  16.720  0.6828  0.0647  0.0198
 7695SOL    HW134547   2.855   0.318  16.783  1.8562 -0.7750 -0.9407
 7695SOL    HW234548   2.950   0.397  16.708  0.2452  2.1315 -2.1554
 7696SOL     OW34549   3.490   1.458   7.308 -0.2574  0.3916  0.5345
 7696SOL    HW134550   3.493   1.417   7.395  2.0625 -1.4495 -0.4228
 7696SOL    HW234551   3.420   1.414   7.261 -1.1462  2.8161 -0.4079
 7697SOL     OW34552   2.610   2.542  13.463 -0.5585 -0.5303 -0.2130
 7697SOL    HW134553   2.550   2.523  13.391 -0.5351 -1.1460 -0.0701
 7697SOL    HW234554   2.687   2.516  13.413 -1.1319  1.0111 -1.8989
 7698SOL     OW34555   1.058   1.507  15.392  0.0315 -0.3660  0.5375
 7698SOL    HW134556   1.126   1.571  15.413  1.5571 -1.4400 -1.0992
 7698SOL    HW234557   1.075   1.435  15.453 -0.3389 -0.6427  0.3185
 7699SOL     OW34558   0.038   0.076   6.113 -0.1072 -0.4604  0.2628
 7699SOL    HW134559   4.718   0.003   6.153 -0.8578  0.2691  0.7096
 7699SOL    HW234560   0.129   0.046   6.115  0.3500  0.9585  0.8483
 7700SOL     OW34561   0.473   0.378   7.349  0.3225 -0.1076 -0.1252
 7700SOL    HW134562   0.430   0.344   7.271 -1.1915 -3.0622  1.9814
 7700SOL    HW234563   0.402   0.416   7.401  0.6825 -2.2456  1.9077
 7701SOL     OW34564   3.190   3.631   9.159  0.1096 -0.2884  0.0177
 7701SOL    HW134565   3.127   3.626   9.087 -0.9533  0.6392  0.8775
 7701SOL    HW234566   3.229   3.546   9.142 -0.7321 -0.6684  0.0002
 7702SOL     OW34567   0.300   2.195  12.189 -0.0492 -0.8643  0.2659
 7702SOL    HW134568   0.299   2.219  12.097  1.6546 -1.1569  0.1747
 7702SOL    HW234569   0.283   2.101  12.182 -0.1233 -0.8156 -0.1673
 7703SOL     OW34570   4.678   0.659  13.612  0.3305 -0.4100 -0.3041
 7703SOL    HW134571   0.004   0.735  13.590  0.7464  0.2398  2.8285
 7703SOL    HW234572   0.004   0.583  13.590  2.2066  0.2756  1.7690
 7704SOL     OW34573   0.166   2.258   7.503 -0.3921 -0.1381 -0.0467
 7704SOL    HW134574   0.217   2.233   7.581  1.0537 -0.7848 -1.2088
 7704SOL    HW234575   0.073   2.243   7.521 -0.3812  0.3686  0.4563
 7705SOL     OW34576   3.088   4.577  12.890  0.6862  0.1067 -0.2379
 7705SOL    HW134577   3.121   4.667  12.901 -0.7429  0.4410  1.2591
 7705SOL    HW234578   3.016   4.571  12.952 -1.1976 -1.8038 -2.6251
 7706SOL     OW34579   1.794   2.649   2.655 -0.1447 -0.1918 -0.7845
 7706SOL    HW134580   1.820   2.626   2.566  0.0065  0.1103 -0.8176
 7706SOL    HW234581   1.850   2.724   2.674 -2.0905  0.4903  2.2939
 7707SOL     OW34582   2.440   4.017   3.095 -0.8371  0.0574 -0.6743
 7707SOL    HW134583   2.438   4.062   3.179  1.0570 -0.1949 -0.4994
 7707SOL    HW234584   2.368   3.955   3.106 -2.0629  1.4978 -0.6076
 7708SOL     OW34585   0.078   0.001   8.755  0.4706  0.0968 -0.4023
 7708SOL    HW134586   0.117   0.028   8.838  0.4201 -0.5587 -0.1728
 7708SOL    HW234587   0.037   4.645   8.779  0.1120  0.1648 -0.7697
 7709SOL     OW34588   0.526   0.743   7.490 -0.3013 -0.1117 -0.1014
 7709SOL    HW134589   0.454   0.683   7.470  0.0502 -0.2661 -0.8950
 7709SOL    HW234590   0.479   0.808   7.541  2.4390  0.9863  1.0359
 7710SOL     OW34591   2.481   3.265   0.604  0.3655 -0.0145  0.4149
 7710SOL    HW134592   2.471   3.170   0.598 -0.1591  0.0629  0.0125
 7710SOL    HW234593   2.388   3.283   0.623  0.1273  0.7597 -1.4708
 7711SOL     OW34594   0.918   0.084   1.072  0.4298  0.0069  0.2035
 7711SOL    HW134595   1.006   0.096   1.038  0.9385 -1.6924  0.9077
 7711SOL    HW234596   0.868   0.125   1.002  2.5878 -1.6868 -2.3206
 7712SOL     OW34597   3.599   3.713   7.956 -0.4345  0.1680  0.2651
 7712SOL    HW134598   3.691   3.735   7.948 -1.0368  2.2159 -1.1112
 7712SOL    HW234599   3.560   3.799   7.975 -1.1021 -0.3466  1.2351
 7713SOL     OW34600   3.009   3.191   7.323  0.2393  0.3393  0.3259
 7713SOL    HW134601   3.076   3.255   7.347  0.1018 -0.6803  3.4978
 7713SOL    HW234602   3.044   3.135   7.253 -1.9521 -0.2100 -0.3299
 7714SOL     OW34603   2.867   2.705   8.224 -0.3743 -0.0128 -0.7444
 7714SOL    HW134604   2.827   2.767   8.285 -0.9450  0.2194 -1.3540
 7714SOL    HW234605   2.821   2.626   8.253 -0.1174  0.4527  0.9254
 7715SOL     OW34606   2.061   1.889   7.430 -0.4350 -0.2219 -0.0707
 7715SOL    HW134607   2.069   1.924   7.341  0.9283  0.2994  0.2509
 7715SOL    HW234608   2.126   1.819   7.426 -1.0307 -0.7893  0.3472
 7716SOL     OW34609   3.252   0.867   4.061 -0.7077  0.7492  0.5462
 7716SOL    HW134610   3.187   0.886   3.994 -3.4206 -0.9432  2.7019
 7716SOL    HW234611   3.198   0.802   4.107 -0.2702  0.5220  0.7510
 7717SOL     OW34612   3.003   2.032  12.028  0.0784 -0.3059  0.3434
 7717SOL    HW134613   2.975   2.093  12.096  0.7699  0.4321 -0.0239
 7717SOL    HW234614   2.929   1.972  12.026 -0.1729 -0.0110  0.7456
 7718SOL     OW34615   4.206   0.533   3.602  0.2071  0.4242 -0.2917
 7718SOL    HW134616   4.283   0.577   3.567  1.7781 -0.5895  1.8895
 7718SOL    HW234617   4.211   0.555   3.695 -0.1738 -0.2077 -0.1142
 7719SOL     OW34618   4.037   1.037   5.786 -0.7114  0.5025  0.1573
 7719SOL    HW134619   3.974   0.972   5.752 -1.2912  2.2237 -2.0899
 7719SOL    HW234620   4.058   1.080   5.703  1.1213 -3.3354 -1.3697
 7720SOL     OW34621   2.379   0.665  10.975 -0.6259  0.8779 -0.2320
 7720SOL    HW134622   2.295   0.657  10.930 -0.5521 -0.5827 -0.1068
 7720SOL    HW234623   2.390   0.759  10.990 -1.1709  0.6204  1.7149
 7721SOL     OW34624   3.263   3.609   3.253 -0.3124  0.5133  0.6579
 7721SOL    HW134625   3.248   3.563   3.171 -2.6129  2.7229 -0.1346
 7721SOL    HW234626   3.253   3.699   3.222  2.4522  0.3003 -0.8062
 7722SOL     OW34627   1.022   4.572   3.619 -0.5013  0.6637 -0.9781
 7722SOL    HW134628   0.950   4.623   3.582 -2.4255 -1.4000 -0.0812
 7722SOL    HW234629   1.050   4.526   3.539 -1.1112 -1.5683  0.1111
 7723SOL     OW34630   0.201   2.000   2.481  0.5325 -0.0574 -0.3280
 7723SOL    HW134631   0.239   1.971   2.399  0.4141 -0.2488 -0.3139
 7723SOL    HW234632   0.196   1.915   2.524 -0.1018  0.9705  1.6449
 7724SOL     OW34633   1.668   2.407  17.210  0.0681  0.0797  0.2729
 7724SOL    HW134634   1.633   2.439  17.293 -1.2895  0.3132 -0.3938
 7724SOL    HW234635   1.694   2.492  17.173  2.3026  0.1557  1.9622
 7725SOL     OW34636   1.242   0.445   0.541 -0.7356 -0.2900 -0.6580
 7725SOL    HW134637   1.194   0.363   0.544  0.8686 -1.1587  1.1683
 7725SOL    HW234638   1.329   0.405   0.534  0.7408  2.7441  0.0741
 7726SOL     OW34639   4.039   0.283  11.654 -0.6375  0.8760  0.6216
 7726SOL    HW134640   4.091   0.225  11.599 -1.6080  2.2827 -1.8425
 7726SOL    HW234641   4.020   0.222  11.725 -0.5697  0.4325  0.2600
 7727SOL     OW34642   1.355   4.143   3.820 -0.1639  0.0862  0.3714
 7727SOL    HW134643   1.267   4.145   3.860  0.2934  0.3180  1.3661
 7727SOL    HW234644   1.360   4.212   3.754  2.0354  1.0246  1.5095
 7728SOL     OW34645   0.250   4.681   4.696  0.1244 -0.3753 -0.6201
 7728SOL    HW134646   0.229   4.676   4.603  3.4549 -2.3172 -1.2602
 7728SOL    HW234647   0.342   4.655   4.693  0.4583  0.4435  2.3398
 7729SOL     OW34648   0.776   0.200   7.134 -0.1822 -0.1777 -0.7584
 7729SOL    HW134649   0.758   0.269   7.197 -1.0503 -1.5105  0.4409
 7729SOL    HW234650   0.823   0.250   7.066  1.3140  1.1411  1.2557
 7730SOL     OW34651   1.767   2.667   8.405  0.1325 -0.1619  0.0101
 7730SOL    HW134652   1.806   2.582   8.428  1.6478 -0.5721 -4.0631
 7730SOL    HW234653   1.692   2.671   8.464 -1.4090 -1.4719 -1.9043
 7731SOL     OW34654   4.387   3.955   4.172 -0.2685  0.4140 -0.6940
 7731SOL    HW134655   4.462   3.896   4.172 -1.0842 -0.6423  0.7278
 7731SOL    HW234656   4.433   4.028   4.213  2.7937 -1.2528 -1.2048
 7732SOL     OW34657   0.475   1.120   2.657  0.0014 -0.0144 -0.8255
 7732SOL    HW134658   0.520   1.037   2.639  1.0338  0.3884 -0.0972
 7732SOL    HW234659   0.397   1.082   2.698  1.0361  1.1522  2.2519
 7733SOL     OW34660   3.671   0.885  14.765 -0.2451 -0.1541  0.2977
 7733SOL    HW134661   3.618   0.909  14.689  0.5714 -0.6272 -0.4167
 7733SOL    HW234662   3.760   0.894  14.731  0.2107 -0.5798  1.3761
 7734SOL     OW34663   4.407   3.212  10.423 -0.0004  0.6591 -0.4457
 7734SOL    HW134664   4.374   3.300  10.405 -2.1030 -0.1848 -0.7620
 7734SOL    HW234665   4.398   3.177  10.334 -0.2768 -0.8388  0.1668
 7735SOL     OW34666   3.591   0.381   9.625  0.1867 -0.0105  0.0846
 7735SOL    HW134667   3.556   0.326   9.695  0.8200 -2.6840 -1.6851
 7735SOL    HW234668   3.668   0.331   9.598 -0.6661 -1.4442  0.2842
 7736SOL     OW34669   0.023   4.609   3.778  0.4273  0.1666 -0.1090
 7736SOL    HW134670   0.020   4.693   3.731 -0.8691  0.1916  0.0202
 7736SOL    HW234671   4.663   4.577   3.752  1.1783 -1.0090 -1.1429
 7737SOL     OW34672   3.528   1.400  12.958  0.1189 -0.2893 -0.0703
 7737SOL    HW134673   3.467   1.449  12.903  0.1249  2.0651  1.9996
 7737SOL    HW234674   3.602   1.400  12.898 -0.2742 -0.8619 -0.5465
 7738SOL     OW34675   3.035   4.290   7.920 -0.0796 -1.2981 -0.0614
 7738SOL    HW134676   2.960   4.251   7.964 -1.5063  1.5279  0.0048
 7738SOL    HW234677   3.097   4.225   7.953  2.0077  0.4286 -0.5572
 7739SOL     OW34678   4.532   2.045   6.615  0.6876 -0.2194 -0.4414
 7739SOL    HW134679   4.465   2.114   6.613  0.6170 -0.2291  1.0969
 7739SOL    HW234680   4.599   2.080   6.675  1.3785  2.4980 -2.7931
 7740SOL     OW34681   2.708   3.416  14.619  0.0585  0.1373 -0.3735
 7740SOL    HW134682   2.638   3.352  14.632  0.3205  0.0956  0.7932
 7740SOL    HW234683   2.776   3.391  14.682 -0.9603  2.6121  1.7118
 7741SOL     OW34684   2.355   2.393  15.568 -0.1515  0.3808  0.0458
 7741SOL    HW134685   2.404   2.467  15.532  0.5883  0.0016  0.2602
 7741SOL    HW234686   2.271   2.418  15.530 -0.2536  1.0010  0.6901
 7742SOL     OW34687   2.987   0.166   5.541  0.4181  0.2923 -0.6885
 7742SOL    HW134688   3.005   0.185   5.449 -0.0785  1.2906 -0.5913
 7742SOL    HW234689   2.977   0.254   5.579  2.0658 -0.6322  1.8397
 7743SOL     OW34690   4.696   2.555   3.276 -0.4133  0.1561  0.4170
 7743SOL    HW134691   4.657   2.536   3.362  0.3003  1.2241  0.9819
 7743SOL    HW234692   0.048   2.504   3.293 -1.6360 -1.4988  1.0635
 7744SOL     OW34693   0.740   1.484  10.656  0.3806  0.0528 -0.2244
 7744SOL    HW134694   0.696   1.486  10.741 -0.3128  0.2003 -0.5848
 7744SOL    HW234695   0.684   1.427  10.603  0.9252 -0.6280 -0.0586
 7745SOL     OW34696   4.567   0.256   4.198  0.4558  0.0322 -0.0865
 7745SOL    HW134697   4.566   0.326   4.263  2.8426  1.7005 -1.8432
 7745SOL    HW234698   4.636   0.295   4.145 -1.1260  0.8170 -1.5632
 7746SOL     OW34699   2.731   2.600  12.453 -0.1522  0.1529  0.0168
 7746SOL    HW134700   2.691   2.665  12.510 -1.9189 -1.4956  0.6394
 7746SOL    HW234701   2.769   2.544  12.521  1.6968  1.4866  0.0864
 7747SOL     OW34702   1.114   4.352  16.495  0.0349 -0.5091 -0.1962
 7747SOL    HW134703   1.134   4.417  16.428 -2.9182 -0.9048 -1.4839
 7747SOL    HW234704   1.064   4.410  16.552 -0.8264 -0.4216 -1.0507
 7748SOL     OW34705   2.197   3.352   5.783  0.3300  0.6451 -0.0620
 7748SOL    HW134706   2.241   3.269   5.804 -0.0186  0.3784 -0.3624
 7748SOL    HW234707   2.153   3.325   5.701 -0.7235  2.4472 -0.0838
 7749SOL     OW34708   1.437   2.467   5.143  0.2672 -1.0053 -0.3474
 7749SOL    HW134709   1.383   2.389   5.157  0.2444 -0.6907  1.3394
 7749SOL    HW234710   1.374   2.528   5.106 -0.0466 -0.8057  0.5081
 7750SOL     OW34711   1.265   1.830   6.102 -0.2056  0.8165  0.7982
 7750SOL    HW134712   1.296   1.857   6.016  0.0308 -0.3842  0.5033
 7750SOL    HW234713   1.179   1.872   6.098  0.7191  2.5845 -0.5988
 7751SOL     OW34714   0.752   3.088  15.122 -0.3287 -0.0945  0.7408
 7751SOL    HW134715   0.660   3.111  15.107  0.3087  0.9628 -1.4753
 7751SOL    HW234716   0.730   3.050  15.208 -0.6191 -1.4880  0.0543
 7752SOL     OW34717   1.491   0.151   8.543  0.3580 -0.0958 -0.6537
 7752SOL    HW134718   1.509   0.147   8.637 -1.8031  1.9203 -0.1842
 7752SOL    HW234719   1.556   0.213   8.510  1.9998 -1.8390 -0.7036
 7753SOL     OW34720   1.577   2.403   0.763  0.1251  0.2354 -0.5546
 7753SOL    HW134721   1.666   2.385   0.733  0.6480 -0.1532  1.2399
 7753SOL    HW234722   1.536   2.324   0.728  2.6124 -0.6499 -1.5199
 7754SOL     OW34723   4.266   2.832   2.877 -0.2599  0.6222  0.1765
 7754SOL    HW134724   4.227   2.794   2.955 -1.0969  3.6028  1.1780
 7754SOL    HW234725   4.341   2.774   2.861  1.4001  2.3712  1.6538
 7755SOL     OW34726   3.675   0.767   4.486  0.9754  0.0633  0.2698
 7755SOL    HW134727   3.708   0.849   4.449 -0.5619  0.6811  0.2990
 7755SOL    HW234728   3.712   0.780   4.573  0.9486 -1.3282  0.4980
 7756SOL     OW34729   4.590   0.688   6.774 -0.3184 -0.7923  0.4795
 7756SOL    HW134730   4.685   0.695   6.786 -0.1949  0.7376 -1.4812
 7756SOL    HW234731   4.584   0.720   6.684 -0.9331  1.3407  1.2713
 7757SOL     OW34732   2.689   1.830   9.033  0.0349 -0.4758 -0.9134
 7757SOL    HW134733   2.727   1.917   9.046 -2.4302  0.3339  0.8369
 7757SOL    HW234734   2.606   1.860   8.996  1.2988  3.7661 -0.3509
 7758SOL     OW34735   3.198   3.144  12.451 -0.7020 -0.8667  0.0052
 7758SOL    HW134736   3.288   3.176  12.448  0.2701 -3.4663  2.0286
 7758SOL    HW234737   3.175   3.176  12.539  1.2653 -0.6276  0.4175
 7759SOL     OW34738   4.513   1.834  14.146  0.1001 -1.0550 -0.0808
 7759SOL    HW134739   4.522   1.795  14.232 -4.3284 -1.7793  0.0582
 7759SOL    HW234740   4.535   1.764  14.085 -0.2388 -2.3422  1.2778
 7760SOL     OW34741   2.766   1.811  12.163 -0.0094  0.2017  0.6130
 7760SOL    HW134742   2.733   1.857  12.086  0.7907 -1.6223 -0.8218
 7760SOL    HW234743   2.708   1.846  12.231  1.7896  1.1771  1.6457
 7761SOL     OW34744   2.805   2.070  17.081  0.6261 -0.5695 -0.5213
 7761SOL    HW134745   2.836   1.999  17.138 -1.9935 -1.0496  0.3153
 7761SOL    HW234746   2.746   2.115  17.141  1.2538 -0.9347  0.3771
 7762SOL     OW34747   3.560   1.786  16.404  0.1396 -0.1436  0.3739
 7762SOL    HW134748   3.638   1.822  16.446  0.3794 -0.9775  0.6610
 7762SOL    HW234749   3.503   1.772  16.480  0.3927 -2.3019  0.1723
 7763SOL     OW34750   0.432   2.430   5.205 -0.5150 -0.6046  0.0324
 7763SOL    HW134751   0.466   2.405   5.119  0.0967  0.9319 -0.1513
 7763SOL    HW234752   0.405   2.344   5.239 -1.3220 -0.6704 -0.7863
 7764SOL     OW34753   2.185   1.089   5.154  0.0179 -0.3326  0.2810
 7764SOL    HW134754   2.098   1.057   5.179  0.9401 -2.1537  1.1353
 7764SOL    HW234755   2.231   1.097   5.237  0.9862  3.0066 -0.5802
 7765SOL     OW34756   2.175   3.669   8.410 -0.1741 -0.0580 -0.4712
 7765SOL    HW134757   2.256   3.667   8.360 -0.7181  0.4855 -1.3715
 7765SOL    HW234758   2.208   3.692   8.497 -0.3400  0.8563 -0.6476
 7766SOL     OW34759   2.604   1.894   6.229  0.3112  0.1589 -0.2280
 7766SOL    HW134760   2.583   1.850   6.147 -2.6275  2.1648 -0.5318
 7766SOL    HW234761   2.686   1.940   6.214  0.6321 -0.6938 -1.1220
 7767SOL     OW34762   0.315   1.224   4.690  0.3395 -0.3531  0.3446
 7767SOL    HW134763   0.411   1.231   4.686  0.4733 -0.5110  3.3527
 7767SOL    HW234764   0.299   1.141   4.736  0.6003 -0.4568  0.2508
 7768SOL     OW34765   3.176   0.234   1.246 -0.3541  0.4026 -0.2471
 7768SOL    HW134766   3.210   0.256   1.333 -0.9432 -1.3515  0.4327
 7768SOL    HW234767   3.156   0.318   1.207 -1.9357  0.3252  0.4096
 7769SOL     OW34768   3.967   3.250   5.576  0.6717 -0.0844  0.2586
 7769SOL    HW134769   4.016   3.261   5.494  0.4246  1.6474  0.3342
 7769SOL    HW234770   4.022   3.197   5.633 -0.5114 -1.1825  0.3668
 7770SOL     OW34771   2.849   3.569   4.580  0.1128 -0.1825 -0.0340
 7770SOL    HW134772   2.909   3.500   4.610  0.9965  0.7936  0.4494
 7770SOL    HW234773   2.782   3.559   4.648 -0.9734  0.8343 -0.9568
 7771SOL     OW34774   2.602   2.720   7.771  0.0834 -0.4757 -0.5311
 7771SOL    HW134775   2.529   2.767   7.811 -0.1205 -0.1489 -1.2915
 7771SOL    HW234776   2.662   2.727   7.846  0.2071  0.3021 -0.7044
 7772SOL     OW34777   2.520   0.492   2.214  0.4875 -0.0933 -0.6330
 7772SOL    HW134778   2.474   0.512   2.133  0.8685 -0.3826 -0.9198
 7772SOL    HW234779   2.476   0.410   2.239 -0.4544  0.2132 -1.2775
 7773SOL     OW34780   2.935   0.223   6.747 -0.2330  0.5970  0.3346
 7773SOL    HW134781   2.893   0.309   6.744 -3.4855 -0.9961  0.0793
 7773SOL    HW234782   2.941   0.192   6.657  0.0456  0.7827  0.2918
 7774SOL     OW34783   0.788   0.607   9.480  0.4129  0.1983 -0.5183
 7774SOL    HW134784   0.861   0.667   9.495  0.1554 -0.2524  2.4738
 7774SOL    HW234785   0.734   0.631   9.555 -0.3545 -2.3208 -0.2752
 7775SOL     OW34786   3.905   3.304   8.678 -0.4212 -0.0847  0.2124
 7775SOL    HW134787   3.959   3.367   8.632  0.6853 -0.5031  0.9424
 7775SOL    HW234788   3.962   3.227   8.687 -2.2811 -1.4121  0.7489
 7776SOL     OW34789   0.599   0.971  16.276  0.0233  0.7423  0.0735
 7776SOL    HW134790   0.532   1.036  16.297 -1.8561 -1.9030  2.2472
 7776SOL    HW234791   0.551   0.912  16.219  2.4068 -1.5525  0.4341
 7777SOL     OW34792   3.340   0.447  11.142 -0.1172 -0.4152  0.1056
 7777SOL    HW134793   3.357   0.353  11.139 -0.7242 -0.5023 -0.5959
 7777SOL    HW234794   3.305   0.464  11.054 -0.0905  0.8175  0.3328
 7778SOL     OW34795   2.987   0.640   7.240 -0.0593  0.1181  0.2466
 7778SOL    HW134796   3.034   0.558   7.224 -1.5098 -0.6018 -0.3195
 7778SOL    HW234797   2.976   0.643   7.334 -0.1084 -0.8371  0.2728
 7779SOL     OW34798   1.018   3.230  17.039  0.1011 -0.0364 -0.3123
 7779SOL    HW134799   1.054   3.313  17.071  0.5806 -1.1252  1.9368
 7779SOL    HW234800   0.947   3.262  16.983  0.6417 -1.0841 -1.6033
 7780SOL     OW34801   1.554   1.020   9.221 -0.5013 -0.4483 -0.1605
 7780SOL    HW134802   1.649   1.026   9.208 -1.0997  1.6776 -3.4257
 7780SOL    HW234803   1.557   0.962   9.297 -3.4257  0.1610  0.4086
 7781SOL     OW34804   4.367   1.858  10.574 -0.2834 -0.3183 -0.6713
 7781SOL    HW134805   4.284   1.856  10.527 -2.6221  3.8817  3.2831
 7781SOL    HW234806   4.424   1.794  10.532  1.6500  0.8993  0.1064
 7782SOL     OW34807   2.126   1.126   6.114 -0.3108 -0.5373  0.6989
 7782SOL    HW134808   2.059   1.114   6.046 -1.2818  1.6531  1.2823
 7782SOL    HW234809   2.071   1.175   6.175 -1.7717 -0.8883 -0.3344
 7783SOL     OW34810   1.148   1.842  14.867  0.1632 -0.1384  0.1385
 7783SOL    HW134811   1.056   1.863  14.851  0.1510 -0.8882 -0.7771
 7783SOL    HW234812   1.158   1.756  14.827  2.3300 -0.3254  1.1202
 7784SOL     OW34813   3.031   3.967   2.140  0.1234 -0.1127  0.2084
 7784SOL    HW134814   3.100   4.026   2.111  0.3548 -0.1807  0.6208
 7784SOL    HW234815   3.067   3.962   2.229 -0.3632  1.0379  0.4808
 7785SOL     OW34816   2.353   3.021   8.778  0.1277 -0.1529  0.8227
 7785SOL    HW134817   2.419   3.066   8.831  1.3637  0.1139 -0.9379
 7785SOL    HW234818   2.277   3.028   8.835 -0.8984  0.1219 -0.5788
 7786SOL     OW34819   0.644   1.395   2.215 -0.1484 -0.2359 -0.3543
 7786SOL    HW134820   0.603   1.348   2.287  1.1684  0.2491  0.7040
 7786SOL    HW234821   0.595   1.363   2.140  0.0859  0.9334 -1.0073
 7787SOL     OW34822   4.686   1.745   1.721 -0.5636  0.0462  0.5380
 7787SOL    HW134823   0.041   1.772   1.765 -0.4212  0.9041 -0.2477
 7787SOL    HW234824   4.653   1.825   1.681 -1.8020 -1.1787 -0.8577
 7788SOL     OW34825   2.064   0.093   3.695 -0.1582 -0.7005  0.1073
 7788SOL    HW134826   1.986   0.043   3.671  0.5562 -2.0871  0.6977
 7788SOL    HW234827   2.078   0.075   3.788  0.1275  1.2502  0.4541
 7789SOL     OW34828   0.966   3.908   2.499 -0.2785 -0.0022  0.0150
 7789SOL    HW134829   1.030   3.881   2.433  0.9840 -0.3122  1.3745
 7789SOL    HW234830   0.961   4.004   2.493 -4.1755 -0.1336  0.9639
 7790SOL     OW34831   4.069   0.528   0.074 -0.3020 -0.1064  0.3130
 7790SOL    HW134832   4.043   0.557   0.161 -2.4978 -2.7299  0.5095
 7790SOL    HW234833   4.161   0.512   0.096 -0.7254 -1.6868  0.8725
 7791SOL     OW34834   2.183   0.877   6.706 -0.7138 -1.0025  0.2965
 7791SOL    HW134835   2.119   0.912   6.768 -2.0896  0.7303 -2.1084
 7791SOL    HW234836   2.121   0.825   6.655 -0.1107 -2.2901  0.8557
 7792SOL     OW34837   0.365   4.186  15.684 -0.7733  0.4437 -0.3406
 7792SOL    HW134838   0.348   4.181  15.590 -0.5401 -0.4741 -0.3308
 7792SOL    HW234839   0.460   4.184  15.674 -0.6883 -0.4847  0.7417
 7793SOL     OW34840   2.042   4.228   6.195 -0.7923 -0.7050  0.5321
 7793SOL    HW134841   2.020   4.207   6.286 -0.9668 -0.3220  0.5759
 7793SOL    HW234842   2.132   4.195   6.191 -0.0014  1.1474  2.7496
 7794SOL     OW34843   3.713   3.690   8.825 -0.2948 -0.2519 -0.0831
 7794SOL    HW134844   3.690   3.627   8.893 -0.8025 -0.3156 -0.3131
 7794SOL    HW234845   3.671   3.772   8.849  0.6896  0.2004  0.0672
 7795SOL     OW34846   4.542   4.470   2.147 -0.1006  0.0813  0.2072
 7795SOL    HW134847   4.504   4.483   2.234  0.0851  0.9314  0.1619
 7795SOL    HW234848   4.619   4.414   2.160 -0.0971 -0.0148 -0.2433
 7796SOL     OW34849   0.766   1.321  11.520 -0.2172  0.8174  1.2025
 7796SOL    HW134850   0.705   1.247  11.521 -0.4152  0.9671  0.4152
 7796SOL    HW234851   0.716   1.377  11.460 -1.4748 -2.1557 -0.5351
 7797SOL     OW34852   4.149   2.569   8.664 -0.4046  0.0750  0.1114
 7797SOL    HW134853   4.228   2.515   8.662  0.5679  1.5433 -0.8902
 7797SOL    HW234854   4.081   2.511   8.631  1.2030  0.1495 -3.2712
 7798SOL     OW34855   0.050   1.283   8.327  0.8805  0.2223 -0.6376
 7798SOL    HW134856   4.720   1.351   8.290 -0.1974 -0.1876  0.2538
 7798SOL    HW234857   4.713   1.212   8.318  0.5500  0.3854  0.3828
 7799SOL     OW34858   3.588   2.739   5.778  0.2845 -0.1373  0.6400
 7799SOL    HW134859   3.509   2.688   5.795  1.9222 -2.9087 -0.0114
 7799SOL    HW234860   3.554   2.828   5.778 -1.0802 -0.6749 -0.8964
 7800SOL     OW34861   0.896   0.717   2.791 -0.0135 -0.0339  0.1195
 7800SOL    HW134862   0.904   0.727   2.696 -0.9765 -1.9941 -0.1679
 7800SOL    HW234863   0.850   0.798   2.811  2.9013  1.1079  2.2842
 7801SOL     OW34864   1.929   3.767   1.699 -0.1830  0.0968 -0.6395
 7801SOL    HW134865   1.904   3.755   1.607 -2.0648  0.0244 -0.1045
 7801SOL    HW234866   1.997   3.834   1.699 -0.5583  0.4698 -1.3403
 7802SOL     OW34867   3.175   3.814  13.591 -0.6742 -0.1666 -0.1165
 7802SOL    HW134868   3.106   3.854  13.642  0.4977 -1.2994  2.3509
 7802SOL    HW234869   3.155   3.847  13.503 -0.5456 -0.0553 -0.1032
 7803SOL     OW34870   4.286   3.748  10.915  0.5843 -0.1971 -0.1338
 7803SOL    HW134871   4.364   3.784  10.956 -1.1908  0.9176  2.1964
 7803SOL    HW234872   4.299   3.765  10.821  0.7503  1.0935  0.1379
 7804SOL     OW34873   0.059   3.565   8.621  0.1675 -0.0912 -0.3733
 7804SOL    HW134874   4.721   3.500   8.595 -1.7707  2.2575 -1.3753
 7804SOL    HW234875   0.051   3.553   8.716  3.3108 -1.1634 -0.2511
 7805SOL     OW34876   1.342   2.182  14.713  0.5468  1.0899  0.1775
 7805SOL    HW134877   1.414   2.230  14.674  2.6643 -1.1010  1.3936
 7805SOL    HW234878   1.267   2.222  14.670  0.7200  0.1794 -0.9787
 7806SOL     OW34879   1.970   0.889  12.370 -0.2760 -0.1884 -0.2197
 7806SOL    HW134880   1.968   0.837  12.451 -2.0795  0.9242  0.4452
 7806SOL    HW234881   2.042   0.845  12.325  0.6818 -0.0535  1.1757
 7807SOL     OW34882   0.618   1.944   2.561  0.5582 -0.4091 -0.1132
 7807SOL    HW134883   0.556   1.923   2.491  0.1112 -0.2159  0.2278
 7807SOL    HW234884   0.602   2.038   2.572  0.0505 -0.5512  0.3339
 7808SOL     OW34885   3.377   4.663   2.489  0.3075 -0.0924 -0.2829
 7808SOL    HW134886   3.284   4.642   2.497  0.8392 -1.6046  2.0439
 7808SOL    HW234887   3.414   4.575   2.476  1.1010  0.3925 -1.3119
 7809SOL     OW34888   4.563   2.110   9.153 -0.1720 -0.8728 -0.0184
 7809SOL    HW134889   4.654   2.086   9.171 -0.7402 -1.8673  1.5429
 7809SOL    HW234890   4.531   2.139   9.238 -0.2693  2.1005 -1.0870
 7810SOL     OW34891   3.043   2.178  16.823  0.3347 -0.3860  0.0648
 7810SOL    HW134892   3.027   2.253  16.766 -1.2728  0.7383  1.9546
 7810SOL    HW234893   3.048   2.107  16.760 -1.3382  1.2751 -1.9452
 7811SOL     OW34894   0.754   0.956   4.861 -0.3978  0.2157 -0.6473
 7811SOL    HW134895   0.838   0.985   4.825  1.1580 -0.5487  2.3031
 7811SOL    HW234896   0.685   1.014   4.830 -1.1350 -0.0365  0.4864
 7812SOL     OW34897   3.533   0.275   1.245  0.4742  0.1360 -0.8241
 7812SOL    HW134898   3.614   0.258   1.292 -0.6098 -2.0786  0.2308
 7812SOL    HW234899   3.509   0.347   1.304  2.4947 -0.1253  0.3267
 7813SOL     OW34900   2.723   2.867   3.004  0.2826  0.4547  0.1130
 7813SOL    HW134901   2.631   2.860   2.980  0.5505 -0.0733 -0.7884
 7813SOL    HW234902   2.770   2.839   2.925  0.1766  1.2449 -0.2213
 7814SOL     OW34903   0.587   3.825   7.126 -0.8107  0.2274 -0.1056
 7814SOL    HW134904   0.492   3.829   7.129 -0.9062 -1.4381 -1.1922
 7814SOL    HW234905   0.611   3.903   7.076 -0.5597 -0.2326 -0.6952
 7815SOL     OW34906   0.692   3.618   8.680 -0.3144 -0.0775 -0.4221
 7815SOL    HW134907   0.600   3.591   8.686 -0.9180  2.2235  0.9371
 7815SOL    HW234908   0.713   3.569   8.759  1.1804 -0.8193 -1.2902
 7816SOL     OW34909   2.594   3.801   6.427 -0.7266  0.2212  0.0508
 7816SOL    HW134910   2.506   3.827   6.454 -1.5309 -1.0630 -1.3184
 7816SOL    HW234911   2.647   3.845   6.493  1.4850  0.2310 -1.7386
 7817SOL     OW34912   0.441   1.105   5.382 -0.3353  0.4670  0.9581
 7817SOL    HW134913   0.377   1.160   5.337  1.1645  2.9831  1.9277
 7817SOL    HW234914   0.510   1.171   5.385 -0.1813  0.3084  0.9547
 7818SOL     OW34915   4.448   4.322   8.406 -0.0669  0.5158  0.2485
 7818SOL    HW134916   4.452   4.253   8.340  0.0739 -0.2344  1.0542
 7818SOL    HW234917   4.518   4.297   8.466  0.0748 -3.2947 -1.5606
 7819SOL     OW34918   3.158   3.474   2.934 -0.3135 -0.2042  0.1585
 7819SOL    HW134919   3.114   3.556   2.910 -1.6449 -0.4344  1.7975
 7819SOL    HW234920   3.241   3.502   2.895 -1.2176 -0.9728 -2.2967
 7820SOL     OW34921   2.316   4.179   6.202 -0.1772 -0.0272  0.0144
 7820SOL    HW134922   2.391   4.168   6.261  1.1697  0.6275 -1.5903
 7820SOL    HW234923   2.356   4.202   6.119 -0.1676  0.2412  0.0921
 7821SOL     OW34924   1.034   3.682   9.477  0.0548 -0.4198  0.2142
 7821SOL    HW134925   1.029   3.604   9.421  2.6364 -0.5014  0.0867
 7821SOL    HW234926   1.057   3.629   9.554  1.3340 -0.6944 -0.3520
 7822SOL     OW34927   3.819   0.912   5.699 -0.3050  0.0285 -0.2802
 7822SOL    HW134928   3.828   0.821   5.672  0.6649  0.9666 -3.0962
 7822SOL    HW234929   3.763   0.944   5.628 -0.4921 -3.0504 -1.5275
 7823SOL     OW34930   1.932   4.327   5.098  0.1468 -0.5136  0.2218
 7823SOL    HW134931   1.951   4.261   5.031 -2.9402 -0.8365 -0.3212
 7823SOL    HW234932   1.849   4.292   5.130 -1.0426  1.6896 -0.4362
 7824SOL     OW34933   1.501   1.971  15.876 -0.3296  0.4744 -0.4415
 7824SOL    HW134934   1.587   2.012  15.864 -0.1973  0.3319  0.0054
 7824SOL    HW234935   1.436   2.040  15.860 -1.5879 -0.8108 -0.8852
 7825SOL     OW34936   1.935   0.525  15.205  0.0613  0.1963 -0.3180
 7825SOL    HW134937   1.844   0.532  15.233  0.8196 -0.0434  2.2472
 7825SOL    HW234938   1.965   0.492  15.290 -1.5344 -1.2891 -0.3400
 7826SOL     OW34939   2.090   1.871   5.569  0.6297  0.6880  0.3177
 7826SOL    HW134940   2.131   1.853   5.484 -0.5867  0.0199 -0.1211
 7826SOL    HW234941   2.057   1.783   5.583  0.2276  0.3636 -2.5932
 7827SOL     OW34942   2.935   1.908  16.104  0.1241  0.0999 -0.1085
 7827SOL    HW134943   2.987   1.919  16.025 -0.4044 -1.0048 -0.6060
 7827SOL    HW234944   3.007   1.902  16.167 -0.2644 -0.6065  0.2719
 7828SOL     OW34945   2.354   4.115   0.051 -0.3699  0.1021 -0.1371
 7828SOL    HW134946   2.310   4.118  17.673  2.2302 -0.6983 -1.5060
 7828SOL    HW234947   2.398   4.199   0.060 -0.3131  0.2050 -1.2997
 7829SOL     OW34948   4.104   1.654   2.172 -0.2341  0.2417  0.4355
 7829SOL    HW134949   4.037   1.678   2.236 -0.7863 -4.6477  1.7026
 7829SOL    HW234950   4.102   1.717   2.101  3.3118  2.0385  1.9200
 7830SOL     OW34951   4.609   4.269  15.283 -0.0779 -0.3682 -0.2478
 7830SOL    HW134952   4.642   4.181  15.269 -0.6319 -0.2756 -2.1954
 7830SOL    HW234953   4.570   4.255  15.370  0.5437  2.3701  0.4804
 7831SOL     OW34954   0.534   3.855   4.420  0.0893 -0.0135 -0.3665
 7831SOL    HW134955   0.524   3.943   4.456 -0.6657 -1.2773  2.5861
 7831SOL    HW234956   0.466   3.801   4.460  1.4752 -1.8760 -0.5049
 7832SOL     OW34957   2.866   3.154   7.828  0.6286  0.0574 -0.0534
 7832SOL    HW134958   2.793   3.189   7.778 -0.5448  0.3654  1.8708
 7832SOL    HW234959   2.818   3.116   7.901  0.9753 -0.5710 -0.1525
 7833SOL     OW34960   2.629   0.744   4.591  0.1125 -0.4563  0.3946
 7833SOL    HW134961   2.551   0.753   4.646 -0.3712  1.1696 -0.5384
 7833SOL    HW234962   2.690   0.779   4.656 -0.6057  1.5457  0.0019
 7834SOL     OW34963   0.003   3.243   1.668  0.2920  0.0119  0.2005
 7834SOL    HW134964   0.033   3.299   1.740 -2.5290  0.8950  0.7162
 7834SOL    HW234965   4.662   3.301   1.632  0.7985  0.3576 -0.1894
 7835SOL     OW34966   4.202   3.449   3.021  0.3986  0.1501  0.1367
 7835SOL    HW134967   4.246   3.390   3.082  2.8842 -0.3345 -2.1229
 7835SOL    HW234968   4.114   3.416   3.005  0.5477  1.4380 -3.3789
 7836SOL     OW34969   0.799   2.503   3.067  0.1544  0.0230  0.2521
 7836SOL    HW134970   0.853   2.556   3.009 -0.2016 -0.5059 -0.5739
 7836SOL    HW234971   0.847   2.420   3.065  1.9409  1.0622  0.6078
 7837SOL     OW34972   1.652   4.644   6.849 -0.6047  0.2154 -0.1600
 7837SOL    HW134973   1.668   4.708   6.919  2.3092 -0.1625 -0.4908
 7837SOL    HW234974   1.570   4.678   6.814 -1.4983 -0.2636  1.4377
 7838SOL     OW34975   4.056   4.359   2.098  0.1977  0.1801 -0.3805
 7838SOL    HW134976   4.111   4.337   2.174 -0.2250  1.5786  0.3239
 7838SOL    HW234977   4.097   4.317   2.023 -0.9324 -0.6797 -0.5140
 7839SOL     OW34978   0.347   1.423  10.618  0.2290 -0.3997  0.5464
 7839SOL    HW134979   0.421   1.418  10.557  0.8178  2.3555  1.0041
 7839SOL    HW234980   0.336   1.329  10.627  0.4579 -0.6741 -1.9530
 7840SOL     OW34981   3.572   4.112   5.928  0.2534  0.0428 -0.2001
 7840SOL    HW134982   3.532   4.035   5.889  0.9309 -0.0194 -0.7738
 7840SOL    HW234983   3.659   4.104   5.889  0.2358 -1.3041  0.0388
 7841SOL     OW34984   1.302   3.699   2.568 -0.2248 -0.1170  0.0096
 7841SOL    HW134985   1.269   3.687   2.479 -0.9613  2.6397 -0.0737
 7841SOL    HW234986   1.284   3.616   2.614  0.3206 -0.6897 -0.8220
 7842SOL     OW34987   1.200   4.467  17.698  0.2473  0.4316 -0.3862
 7842SOL    HW134988   1.250   4.411  17.639  2.1309  1.4366  0.2412
 7842SOL    HW234989   1.214   4.430   0.078  2.8984  0.4295 -0.7913
 7843SOL     OW34990   0.340   3.091  13.081 -0.2984  0.2309 -0.2277
 7843SOL    HW134991   0.345   3.179  13.042  0.2958  0.6643  0.8142
 7843SOL    HW234992   0.267   3.063  13.027  1.5881 -1.0835 -2.0629
 7844SOL     OW34993   2.653   0.290  14.964 -0.1542  0.3902 -0.1976
 7844SOL    HW134994   2.626   0.253  15.048  0.6372 -0.8284 -0.4814
 7844SOL    HW234995   2.602   0.226  14.915 -1.2987  0.8417  0.4041
 7845SOL     OW34996   2.041   3.589   6.594 -0.1338 -0.7614 -0.0432
 7845SOL    HW134997   1.980   3.558   6.661 -0.3727  1.2955  0.6895
 7845SOL    HW234998   2.090   3.654   6.645  1.8499 -3.3721  1.3610
 7846SOL     OW34999   0.858   1.852   6.348  0.2264 -0.3148 -0.8555
 7846SOL    HW135000   0.931   1.898   6.308  0.7171  0.8689  1.4020
 7846SOL    HW235001   0.890   1.762   6.343 -2.7773 -1.4855  0.8949
 7847SOL     OW35002   4.294   3.788   4.859  0.1638  0.1490  0.4583
 7847SOL    HW135003   4.389   3.783   4.874 -0.1581  2.1143  3.1928
 7847SOL    HW235004   4.266   3.822   4.944  0.3383 -1.3417  1.1181
 7848SOL     OW35005   2.294   0.852   5.047 -0.1644  0.5203 -0.1579
 7848SOL    HW135006   2.256   0.929   5.091  0.8042  0.8242  0.1514
 7848SOL    HW235007   2.244   0.856   4.965  0.2298  1.2312 -0.3649
 7849SOL     OW35008   0.876   3.068   3.106  0.2985 -0.3083 -0.2264
 7849SOL    HW135009   0.955   3.071   3.051  1.4112 -2.0706  1.2816
 7849SOL    HW235010   0.890   3.147   3.158 -0.9381 -0.1950 -0.0649
 7850SOL     OW35011   4.577   0.604  10.364  0.2106 -0.3976 -0.5446
 7850SOL    HW135012   4.559   0.514  10.391  0.1469 -0.6697 -1.4680
 7850SOL    HW235013   4.490   0.629  10.334  0.4798  0.7826 -0.3180
 7851SOL     OW35014   2.289   2.152   4.087 -0.1250  0.0750  0.2103
 7851SOL    HW135015   2.286   2.150   4.183  2.6818  0.3569  0.2954
 7851SOL    HW235016   2.211   2.115   4.044 -0.4223  1.9367 -0.8627
 7852SOL     OW35017   0.783   4.583   4.682 -0.3209 -0.2705  0.1406
 7852SOL    HW135018   0.855   4.554   4.738 -0.2315  1.6895  1.0162
 7852SOL    HW235019   0.751   4.662   4.725 -0.0582  0.8813 -1.7705
 7853SOL     OW35020   0.643   0.578   0.025  0.1889  0.1405  0.2804
 7853SOL    HW135021   0.576   0.581  17.663 -0.2612 -2.0860  0.6137
 7853SOL    HW235022   0.707   0.639  17.697  0.2697  1.6903  3.1567
 7854SOL     OW35023   2.589   2.967  15.280  0.4591 -0.3319 -0.0115
 7854SOL    HW135024   2.584   2.893  15.340 -2.4140 -0.9631 -1.0322
 7854SOL    HW235025   2.680   2.995  15.289  0.2830  0.1506  0.2251
 7855SOL     OW35026   2.379   0.158  16.857  0.0489  0.7786 -0.3920
 7855SOL    HW135027   2.434   0.221  16.903 -0.1233  0.9981 -0.4849
 7855SOL    HW235028   2.425   0.109  16.788 -0.4889 -1.0226  0.5407
 7856SOL     OW35029   3.185   0.207  14.205 -0.4510 -0.4433  0.3211
 7856SOL    HW135030   3.096   0.223  14.236 -0.1728 -1.7859  1.8669
 7856SOL    HW235031   3.183   0.111  14.213 -0.6390 -0.4814 -0.1999
 7857SOL     OW35032   0.785   3.629   0.578 -0.2088 -0.2558  0.2127
 7857SOL    HW135033   0.808   3.718   0.603  0.1435 -0.6825  1.3862
 7857SOL    HW235034   0.777   3.574   0.656 -0.7210 -0.4711  0.0140
 7858SOL     OW35035   3.972   4.412  15.814  0.0393 -0.4226 -0.2248
 7858SOL    HW135036   4.045   4.473  15.806  1.3352 -2.0047 -0.4339
 7858SOL    HW235037   3.979   4.381  15.905  0.8271  1.3019  0.2922
 7859SOL     OW35038   0.567   0.511   3.738  0.0912  0.3837  0.3189
 7859SOL    HW135039   0.610   0.552   3.663 -0.3194 -1.0222 -0.6968
 7859SOL    HW235040   0.600   0.566   3.809  2.1648 -0.3255 -0.1003
 7860SOL     OW35041   3.367   1.758   8.643  0.1591 -0.1753  0.6080
 7860SOL    HW135042   3.307   1.759   8.568 -0.4596  0.1319  1.1073
 7860SOL    HW235043   3.416   1.838   8.626  0.6822 -0.6193  0.0282
 7861SOL     OW35044   1.191   1.258  10.753  0.8537 -0.0752  0.3678
 7861SOL    HW135045   1.256   1.312  10.798  0.7374  0.0924  0.3319
 7861SOL    HW235046   1.122   1.316  10.722 -0.3524 -0.2056  2.8181
 7862SOL     OW35047   0.034   3.526   0.216 -0.1341 -0.8045  0.2420
 7862SOL    HW135048   0.019   3.442   0.258 -0.0018 -1.9159 -1.9387
 7862SOL    HW235049   4.715   3.582   0.279  0.0285 -0.7293  0.2927
 7863SOL     OW35050   3.067   4.374   5.481 -0.0758  0.2799  0.0673
 7863SOL    HW135051   3.133   4.314   5.515 -0.8930 -0.6239  0.0454
 7863SOL    HW235052   3.113   4.456   5.500  2.4693 -0.4707 -2.8724
 7864SOL     OW35053   1.671   1.106   8.573 -0.6863 -0.0055  0.5755
 7864SOL    HW135054   1.688   1.063   8.657  1.3808 -0.0662  0.1232
 7864SOL    HW235055   1.584   1.067   8.558  0.2768 -2.0938  0.5050
 7865SOL     OW35056   1.986   0.161   7.063  0.5407 -0.3323 -0.1531
 7865SOL    HW135057   1.939   0.090   7.107 -0.2109 -1.4611 -2.7841
 7865SOL    HW235058   1.997   0.132   6.972 -0.1021 -0.7965 -0.0838
 7866SOL     OW35059   2.593   1.670   6.670  0.5314 -0.3989  0.3760
 7866SOL    HW135060   2.601   1.586   6.623  2.0440 -0.1643  0.2304
 7866SOL    HW235061   2.509   1.652   6.712 -0.4432  1.8202 -0.6615
 7867SOL     OW35062   2.950   2.275   3.592 -0.1894  0.2992  0.2713
 7867SOL    HW135063   2.868   2.256   3.638 -0.1415 -2.7299 -0.8731
 7867SOL    HW235064   2.930   2.360   3.554  1.8165 -0.2940 -2.0976
 7868SOL     OW35065   0.562   1.847   4.846  0.0633  0.9915  0.0603
 7868SOL    HW135066   0.480   1.804   4.869  0.0146  1.4674  0.7867
 7868SOL    HW235067   0.626   1.803   4.902  0.9451  3.3698  0.9349
 7869SOL     OW35068   2.760   1.196   7.208 -0.2067  0.2958 -0.2231
 7869SOL    HW135069   2.716   1.119   7.243 -0.1636 -0.3636 -1.6404
 7869SOL    HW235070   2.788   1.177   7.119  1.9056  1.6129  0.1495
 7870SOL     OW35071   2.625   3.377  12.532 -0.5741  0.0111 -0.2057
 7870SOL    HW135072   2.533   3.354  12.547 -1.0132  1.9739  0.1113
 7870SOL    HW235073   2.659   3.299  12.489  1.1934 -0.5474  2.1761
 7871SOL     OW35074   0.538   3.725   0.264 -0.6783 -0.1416  0.0027
 7871SOL    HW135075   0.507   3.679   0.186  1.4891  0.3717 -1.1320
 7871SOL    HW235076   0.544   3.808   0.219 -0.4065  0.5646  1.3348
 7872SOL     OW35077   2.511   3.455   5.116  0.4774  0.6978  0.0243
 7872SOL    HW135078   2.556   3.375   5.143  0.0849  0.3788 -0.2846
 7872SOL    HW235079   2.442   3.475   5.179 -1.7590 -0.7639 -1.9657
 7873SOL     OW35080   2.959   1.947   5.609 -1.0206  0.0999 -0.1215
 7873SOL    HW135081   2.878   1.983   5.645  0.8395  2.4564  1.6810
 7873SOL    HW235082   2.936   1.858   5.580  0.2805  0.0652 -1.0450
 7874SOL     OW35083   4.570   0.598   2.207  0.0932 -0.0434  0.1886
 7874SOL    HW135084   4.526   0.545   2.141  0.3974  0.1860 -0.1937
 7874SOL    HW235085   4.524   0.681   2.195 -1.6292 -1.2484 -1.5463
 7875SOL     OW35086   3.693   3.920   7.468  0.2944 -0.5918  0.3555
 7875SOL    HW135087   3.772   3.935   7.416 -2.4803  0.4831 -3.6011
 7875SOL    HW235088   3.630   3.973   7.418  0.2334 -1.4936 -0.5215
 7876SOL     OW35089   4.545   2.809   3.515 -0.1688 -0.0639 -0.1785
 7876SOL    HW135090   4.551   2.716   3.496  0.9885 -0.1756  0.7667
 7876SOL    HW235091   4.460   2.817   3.558 -0.3515  0.0846 -0.5616
 7877SOL     OW35092   0.594   0.257   6.145 -0.1375 -0.3676  0.4973
 7877SOL    HW135093   0.574   0.180   6.199 -0.7136 -0.4083  0.2306
 7877SOL    HW235094   0.631   0.213   6.068 -3.5877  0.1729 -1.4530
 7878SOL     OW35095   4.263   0.563   9.914  0.1437 -0.1832 -0.2858
 7878SOL    HW135096   4.341   0.614   9.937  0.7378 -0.9930 -0.5294
 7878SOL    HW235097   4.203   0.605   9.975 -1.6976 -3.5857  0.2371
 7879SOL     OW35098   3.962   1.474   9.023  0.8553  0.1906  0.0399
 7879SOL    HW135099   3.878   1.447   8.986  0.3060  0.1055  1.3248
 7879SOL    HW235100   4.016   1.397   9.005  0.6840  0.2808 -0.8337
 7880SOL     OW35101   0.101   0.331   3.465 -0.4064 -0.0896 -0.3736
 7880SOL    HW135102   0.018   0.286   3.475 -0.8875 -0.0037 -3.8789
 7880SOL    HW235103   0.128   0.341   3.556 -0.7945  2.2418 -0.5141
 7881SOL     OW35104   0.740   3.618   8.363  0.3386  0.2818  0.7359
 7881SOL    HW135105   0.737   3.596   8.456 -0.2742  0.6732  0.8094
 7881SOL    HW235106   0.690   3.699   8.375  0.1364  0.1967  0.4716
 7882SOL     OW35107   4.682   1.634  14.906  0.3770 -0.1227  0.3081
 7882SOL    HW135108   4.592   1.653  14.933  1.2991  2.0592  1.8616
 7882SOL    HW235109   4.706   1.715  14.862  0.2430  0.6121  1.5859
 7883SOL     OW35110   1.573   0.895   7.499 -0.0285 -0.3570  0.8369
 7883SOL    HW135111   1.562   0.941   7.416 -2.0482 -1.6244  0.3907
 7883SOL    HW235112   1.517   0.942   7.561  0.6810 -0.3827  1.4935
 7884SOL     OW35113   1.509   2.265  14.499 -0.0645 -0.0910  0.1243
 7884SOL    HW135114   1.539   2.189  14.449 -1.3472 -1.3908  1.3694
 7884SOL    HW235115   1.433   2.285  14.445 -0.9565 -1.9280  0.7182
 7885SOL     OW35116   1.026   2.377   3.983 -0.1589 -0.2380 -0.1663
 7885SOL    HW135117   0.964   2.449   3.989  0.4110  0.3805 -1.7803
 7885SOL    HW235118   1.027   2.347   4.074  0.8680  1.9989  0.5583
 7886SOL     OW35119   3.794   3.556   4.718 -0.2179 -0.3191 -0.1036
 7886SOL    HW135120   3.775   3.602   4.800  2.2827  0.6182 -0.0643
 7886SOL    HW235121   3.888   3.540   4.725  0.4256  2.5974 -2.0597
 7887SOL     OW35122   3.223   3.938   9.016  0.1886 -0.2124  0.4830
 7887SOL    HW135123   3.146   3.924   9.070  0.6055  2.3262  1.7374
 7887SOL    HW235124   3.296   3.949   9.076  0.6278  2.3016 -0.4801
 7888SOL     OW35125   2.567   1.576   9.084  0.6135 -0.0491 -0.1331
 7888SOL    HW135126   2.638   1.639   9.081  0.7318 -0.1041  1.6319
 7888SOL    HW235127   2.594   1.500   9.032  1.4178  1.2023 -1.5664
 7889SOL     OW35128   0.317   0.082   2.967  0.4227  0.0665 -0.2845
 7889SOL    HW135129   0.368   0.151   2.925  2.2180  0.2938  2.2846
 7889SOL    HW235130   0.374   0.012   2.935  0.7100  0.6711 -1.0979
 7890SOL     OW35131   0.968   2.230  14.258 -0.4108  0.7202  0.6841
 7890SOL    HW135132   1.046   2.187  14.222 -1.0603  0.7553 -0.7778
 7890SOL    HW235133   0.922   2.155  14.297  1.5516 -0.9209 -0.1183
 7891SOL     OW35134   1.851   1.727   9.232  1.1015 -0.3785 -0.1848
 7891SOL    HW135135   1.805   1.695   9.310 -0.6290 -1.1529 -1.5040
 7891SOL    HW235136   1.872   1.817   9.258  0.0420  0.2894 -1.6645
 7892SOL     OW35137   0.587   1.961  10.722  0.2264 -0.1868  0.3627
 7892SOL    HW135138   0.622   2.012  10.649 -2.1263 -0.5792 -1.0255
 7892SOL    HW235139   0.578   1.870  10.693  0.5716  0.4384 -1.6699
 7893SOL     OW35140   3.836   2.621   6.626 -0.2019 -0.2028  0.4892
 7893SOL    HW135141   3.921   2.593   6.657 -0.4722  0.9870  2.2827
 7893SOL    HW235142   3.825   2.699   6.680  0.6670 -0.1478  0.5828
 7894SOL     OW35143   1.867   3.090   9.994 -0.1892  0.4394 -0.9051
 7894SOL    HW135144   1.827   3.172  10.020 -0.0482  0.2721 -0.1596
 7894SOL    HW235145   1.955   3.122   9.971 -0.3367 -0.1613 -2.2905
 7895SOL     OW35146   2.973   1.661   9.543  0.1380  0.2518 -0.2245
 7895SOL    HW135147   3.057   1.667   9.499  0.4420 -2.9003 -0.0408
 7895SOL    HW235148   2.920   1.720   9.490 -1.1052 -0.6548 -0.0007
 7896SOL     OW35149   4.455   3.218   4.386 -0.2404  0.0502  0.6664
 7896SOL    HW135150   4.372   3.265   4.388 -0.2369  0.1701 -1.8946
 7896SOL    HW235151   4.488   3.237   4.298  3.0116  0.7628  2.0458
 7897SOL     OW35152   1.276   1.786   8.242 -0.2395  0.0799  0.2328
 7897SOL    HW135153   1.354   1.733   8.260 -0.4713  0.0408  1.1732
 7897SOL    HW235154   1.243   1.745   8.162  2.0251 -1.0516 -0.1351
 7898SOL     OW35155   4.375   4.205   2.060  0.1866 -0.4984 -0.1681
 7898SOL    HW135156   4.425   4.206   2.141  1.5055 -0.4038 -0.9833
 7898SOL    HW235157   4.347   4.294   2.034 -0.5518 -0.4961  0.6475
 7899SOL     OW35158   4.481   0.445   1.681 -0.4179 -0.3446 -0.0217
 7899SOL    HW135159   4.456   0.481   1.596  0.2807 -0.8359 -0.4276
 7899SOL    HW235160   4.398   0.398   1.692 -0.3110 -0.4227  0.4495
 7900SOL     OW35161   1.211   2.330   2.663  0.2108  0.1270 -0.0598
 7900SOL    HW135162   1.167   2.322   2.578  2.4611 -0.4701 -1.1673
 7900SOL    HW235163   1.206   2.238   2.691  0.2453  0.3286  0.6039
 7901SOL     OW35164   0.678   3.989  15.031 -0.0063 -0.2682 -0.1686
 7901SOL    HW135165   0.767   3.998  14.997  0.0575  1.5712  0.5094
 7901SOL    HW235166   0.645   3.933  14.960 -0.4064 -0.7253  0.3722
 7902SOL     OW35167   0.791   0.013   6.532 -0.3947 -0.1167 -0.0546
 7902SOL    HW135168   0.780   0.079   6.464  1.2726 -0.5545 -0.7553
 7902SOL    HW235169   0.831   0.068   6.599  1.4162 -0.0241 -1.1927
 7903SOL     OW35170   4.079   3.591   7.824 -0.1594  0.4395  0.0167
 7903SOL    HW135171   4.045   3.660   7.767  0.5776 -0.0184 -0.9728
 7903SOL    HW235172   4.059   3.629   7.910 -1.3475  0.5339 -0.3074
 7904SOL     OW35173   0.851   4.441   8.771 -0.4002  0.2539 -0.1772
 7904SOL    HW135174   0.945   4.449   8.752  0.3823  1.3222  4.1235
 7904SOL    HW235175   0.851   4.375   8.839 -1.4619  0.0044 -0.4254
 7905SOL     OW35176   4.544   2.409   4.565  0.6390 -0.0644  0.4356
 7905SOL    HW135177   4.497   2.473   4.510  2.0723  0.6722  0.0771
 7905SOL    HW235178   4.484   2.337   4.585  0.6837 -0.1368  0.3061
 7906SOL     OW35179   3.104   1.944  10.460 -0.5261 -0.7747 -0.5218
 7906SOL    HW135180   3.083   1.905  10.375 -0.5326  1.5857 -1.5827
 7906SOL    HW235181   3.031   1.907  10.509  0.2231  1.6505  2.4036
 7907SOL     OW35182   1.650   1.079   3.004  0.0590 -0.0199  0.4031
 7907SOL    HW135183   1.574   1.026   2.980  0.6490  1.0392 -3.7529
 7907SOL    HW235184   1.646   1.141   2.930  0.3040  0.1178  0.5056
 7908SOL     OW35185   1.159   3.438  16.275  0.6625  0.1192 -0.2162
 7908SOL    HW135186   1.189   3.444  16.366  2.1393 -1.0268 -0.6346
 7908SOL    HW235187   1.239   3.406  16.233  0.6425 -1.2166  0.7428
 7909SOL     OW35188   2.534   0.134   2.703 -0.1273  0.1456  0.3583
 7909SOL    HW135189   2.582   0.198   2.755  1.4280  1.5336 -2.7693
 7909SOL    HW235190   2.548   0.164   2.613  0.3575 -0.8111  0.1160
 7910SOL     OW35191   1.301   4.350  15.702  0.0089  0.0474  0.7220
 7910SOL    HW135192   1.386   4.306  15.706  0.7203  1.2078 -1.3820
 7910SOL    HW235193   1.277   4.355  15.794  0.5931  1.7524  0.7823
 7911SOL     OW35194   3.505   0.417   8.701 -0.0367  0.0739 -0.1540
 7911SOL    HW135195   3.458   0.334   8.707  0.3480 -0.0842  0.6198
 7911SOL    HW235196   3.440   0.464   8.648  1.0457 -1.1627 -2.5574
 7912SOL     OW35197   1.718   1.722  15.024  0.4607 -0.2530 -0.8897
 7912SOL    HW135198   1.722   1.717  14.928  0.6389 -0.1234 -0.8906
 7912SOL    HW235199   1.792   1.773  15.058 -0.1310  2.1927 -3.2374
 7913SOL     OW35200   1.318   4.159   7.295  0.1433 -0.4354 -0.0714
 7913SOL    HW135201   1.266   4.093   7.342 -0.8598  0.4037 -0.0188
 7913SOL    HW235202   1.303   4.241   7.341 -1.4571 -1.0331  0.4695
 7914SOL     OW35203   1.997   0.859   7.730 -0.6293 -0.0701  0.4199
 7914SOL    HW135204   1.932   0.929   7.730 -2.0452 -1.3598 -1.8309
 7914SOL    HW235205   2.082   0.903   7.738 -0.6374  0.2050 -1.0436
 7915SOL     OW35206   4.100   2.202   6.224 -0.0511  0.3860  0.1116
 7915SOL    HW135207   4.176   2.252   6.196  1.2766 -1.7412 -0.0392
 7915SOL    HW235208   4.026   2.261   6.205  0.1740  0.5039 -0.3904
 7916SOL     OW35209   3.274   2.773   8.971  0.2422 -0.1132  0.5300
 7916SOL    HW135210   3.232   2.720   8.903  0.6712  0.4859 -0.2105
 7916SOL    HW235211   3.206   2.837   8.993  0.8517  0.9209 -0.5580
 7917SOL     OW35212   2.489   3.192   1.111  0.1734 -0.4262 -0.0959
 7917SOL    HW135213   2.500   3.099   1.089 -0.2447 -0.3575 -0.6054
 7917SOL    HW235214   2.416   3.202   1.172 -1.1728  0.6554 -1.8814
 7918SOL     OW35215   0.620   0.720   4.890 -0.3012 -0.8372 -0.6016
 7918SOL    HW135216   0.528   0.739   4.871 -0.9157 -2.7608  0.3778
 7918SOL    HW235217   0.666   0.795   4.852  2.4391 -1.1616  2.1138
 7919SOL     OW35218   0.783   1.819   8.669 -0.3277  0.2264  0.0232
 7919SOL    HW135219   0.739   1.755   8.613  0.6245 -0.7763  0.4452
 7919SOL    HW235220   0.707   1.853   8.716 -1.7531  1.3914 -3.0986
 7920SOL     OW35221   1.996   3.755   3.726  0.2807 -0.1603  0.2696
 7920SOL    HW135222   2.022   3.781   3.815 -1.1855  0.2896  0.5797
 7920SOL    HW235223   1.942   3.679   3.748 -1.1544  0.8652  0.2645
 7921SOL     OW35224   3.038   1.876  17.031  0.5382 -0.2181 -0.5986
 7921SOL    HW135225   3.007   1.788  17.052  0.2462  0.1966  0.7073
 7921SOL    HW235226   3.017   1.877  16.938 -1.4015  0.7716 -0.1525
 7922SOL     OW35227   0.773   3.451   5.353  0.4378  0.1392  0.5000
 7922SOL    HW135228   0.750   3.372   5.402 -0.8118 -0.0319 -0.3355
 7922SOL    HW235229   0.868   3.449   5.361  0.4789 -2.9471 -0.7060
 7923SOL     OW35230   2.655   3.446   6.019 -0.1331 -0.8097 -0.0669
 7923SOL    HW135231   2.693   3.380   5.961  1.1729 -0.4756  0.3871
 7923SOL    HW235232   2.695   3.528   5.991 -0.1755 -0.2089  1.6236
 7924SOL     OW35233   2.827   4.585   1.419 -0.4228  0.4993 -0.1365
 7924SOL    HW135234   2.777   4.548   1.492  0.2772  0.7829  0.4893
 7924SOL    HW235235   2.880   4.510   1.391  1.6474  1.3031  1.6401
 7925SOL     OW35236   2.362   0.632   1.991  0.6490  0.1949 -0.1253
 7925SOL    HW135237   2.351   0.726   1.981  0.5661 -0.1209 -2.9158
 7925SOL    HW235238   2.408   0.607   1.911  1.3793 -1.2863  0.7681
 7926SOL     OW35239   2.944   0.361   7.184 -0.0502  0.1841 -0.0639
 7926SOL    HW135240   2.916   0.287   7.237  2.1239 -2.3215 -2.3934
 7926SOL    HW235241   2.878   0.363   7.115  1.3668  0.9091 -1.4025
 7927SOL     OW35242   0.097   3.868   6.593 -0.4808 -0.7290  0.1185
 7927SOL    HW135243   0.090   3.927   6.517 -0.6366 -1.4989 -0.4610
 7927SOL    HW235244   0.131   3.927   6.660 -1.2775 -0.3978  0.2386
 7928SOL     OW35245   1.943   0.445   9.008  0.3518 -0.2596  0.3028
 7928SOL    HW135246   1.849   0.447   9.027  0.5488 -0.2281  1.3102
 7928SOL    HW235247   1.955   0.540   9.009  1.0057 -0.3283 -0.9370
 7929SOL     OW35248   1.957   3.722   9.006 -0.1302  0.7933  0.2147
 7929SOL    HW135249   1.865   3.709   8.984 -0.9665  0.9007  3.5978
 7929SOL    HW235250   1.954   3.817   8.995 -0.3637  0.7344 -0.2251
 7930SOL     OW35251   1.656   4.092  12.313 -0.7531  0.1863  0.4671
 7930SOL    HW135252   1.709   4.066  12.238  0.0010  1.8440  0.4453
 7930SOL    HW235253   1.702   4.160  12.362 -0.2978 -0.6456  1.2032
 7931SOL     OW35254   2.242   4.627  16.450 -0.0510 -0.3363  0.0338
 7931SOL    HW135255   2.323   4.588  16.416  0.7124 -0.0768  1.5506
 7931SOL    HW235256   2.233   4.704  16.395  0.8371 -0.3895 -0.1866
 7932SOL     OW35257   3.998   3.289   5.117 -0.0875  0.2921 -0.5398
 7932SOL    HW135258   4.039   3.330   5.041  1.8367 -0.4950  0.0685
 7932SOL    HW235259   3.952   3.215   5.077  0.7070 -0.9232  0.8086
 7933SOL     OW35260   1.439   3.948   0.575 -0.1406  0.0439  0.2208
 7933SOL    HW135261   1.404   4.025   0.530  1.4467 -0.7322 -2.3650
 7933SOL    HW235262   1.440   3.980   0.665  0.8407  1.9411 -0.4788
 7934SOL     OW35263   3.179   3.234   3.705 -0.3533  0.3811  0.2510
 7934SOL    HW135264   3.242   3.162   3.708 -0.3570  0.2556 -2.5215
 7934SOL    HW235265   3.242   3.303   3.684  0.0679 -0.6721 -1.9661
 7935SOL     OW35266   4.153   2.927   5.138 -0.1474 -0.1572 -0.3130
 7935SOL    HW135267   4.077   2.881   5.174  0.2413 -2.0701 -1.9726
 7935SOL    HW235268   4.106   2.999   5.096  1.6920  1.0298 -0.2999
 7936SOL     OW35269   3.123   2.761  16.943 -0.3626  0.4544 -0.2143
 7936SOL    HW135270   3.065   2.691  16.973 -1.4018  1.5368  0.3084
 7936SOL    HW235271   3.167   2.794  17.022 -1.3263  1.5186 -0.1159
 7937SOL     OW35272   1.459   3.474   5.188 -0.0928  0.0922 -0.0840
 7937SOL    HW135273   1.368   3.500   5.181  0.0678  1.0424  1.3493
 7937SOL    HW235274   1.446   3.380   5.171 -2.7238 -0.0798  2.8896
 7938SOL     OW35275   2.813   4.347   8.110  0.6053 -0.4161  0.0426
 7938SOL    HW135276   2.743   4.392   8.064 -0.9182 -0.0732  2.6595
 7938SOL    HW235277   2.858   4.416   8.160  0.0631 -0.3041  0.3719
 7939SOL     OW35278   4.439   0.750   5.623  0.4093  0.2977 -0.4359
 7939SOL    HW135279   4.439   0.832   5.575 -0.6466  0.5599  0.0117
 7939SOL    HW235280   4.437   0.781   5.713 -3.9514 -0.4480 -0.2597
 7940SOL     OW35281   0.352   3.648  16.196  0.3276  0.0016 -0.7324
 7940SOL    HW135282   0.414   3.580  16.170  0.9480  1.2089 -2.3743
 7940SOL    HW235283   0.272   3.622  16.151 -0.3117  0.4524  0.1337
 7941SOL     OW35284   4.227   2.564  10.814 -0.2130  0.5420 -0.1831
 7941SOL    HW135285   4.175   2.552  10.893 -0.4628 -0.2910 -0.4761
 7941SOL    HW235286   4.251   2.474  10.792 -2.1621 -0.0438  0.0973
 7942SOL     OW35287   1.979   3.372   1.203  0.0487 -0.0122  0.2316
 7942SOL    HW135288   2.035   3.294   1.207 -0.2461 -0.3211 -1.7167
 7942SOL    HW235289   1.943   3.368   1.292  1.2932  0.9883  0.7864
 7943SOL     OW35290   1.198   3.823   4.345 -0.6720  0.2959  0.8010
 7943SOL    HW135291   1.117   3.840   4.297  0.4061  3.2911  0.0419
 7943SOL    HW235292   1.252   3.896   4.315 -1.4746  0.9447  0.9248
 7944SOL     OW35293   1.769   0.976   3.497 -0.0851 -0.3304 -0.4077
 7944SOL    HW135294   1.843   1.037   3.497  0.5668 -1.1079 -1.8293
 7944SOL    HW235295   1.746   0.973   3.404 -2.2211  0.6631  0.0969
 7945SOL     OW35296   4.181   3.575   9.801  0.2002  0.8708  0.1866
 7945SOL    HW135297   4.258   3.606   9.753 -0.3664  2.6992  0.4379
 7945SOL    HW235298   4.125   3.652   9.793 -0.5938  0.2275 -0.3735
 7946SOL     OW35299   0.871   1.142   9.036 -0.3945  0.2752 -0.4566
 7946SOL    HW135300   0.965   1.135   9.024 -0.4072 -0.2129 -0.2558
 7946SOL    HW235301   0.848   1.064   8.985  0.3431 -0.0973 -0.2148
 7947SOL     OW35302   0.107   2.447  13.956  0.5409  0.0394 -0.5520
 7947SOL    HW135303   0.042   2.428  13.888  0.4615 -1.8402  0.0503
 7947SOL    HW235304   0.187   2.405  13.924  0.8458 -0.4020  0.8009
 7948SOL     OW35305   4.347   3.790   8.584  0.3877  0.4061 -0.0513
 7948SOL    HW135306   4.345   3.703   8.545 -0.3354  0.7525 -0.7972
 7948SOL    HW235307   4.299   3.778   8.665 -1.7315  0.2974 -1.3240
 7949SOL     OW35308   2.540   0.318   9.105  0.4924  0.3435 -0.4753
 7949SOL    HW135309   2.571   0.289   9.019  0.3759 -0.3525 -0.2790
 7949SOL    HW235310   2.622   0.320   9.155  1.1035 -1.2114 -1.3965
 7950SOL     OW35311   0.716   1.300  16.111 -0.6118 -0.4417 -0.2914
 7950SOL    HW135312   0.779   1.269  16.046 -1.3053 -2.0477 -0.2051
 7950SOL    HW235313   0.634   1.297  16.060 -0.6819 -0.5055 -0.1745
 7951SOL     OW35314   3.640   4.483   0.579  0.2914  0.4319 -0.4730
 7951SOL    HW135315   3.620   4.446   0.493 -0.1542  0.9260 -0.5854
 7951SOL    HW235316   3.696   4.414   0.614 -0.5051  0.8462  1.5700
 7952SOL     OW35317   4.356   4.576   1.404  0.8166  0.5563 -0.2079
 7952SOL    HW135318   4.321   4.535   1.482 -1.6144  2.4114 -0.3053
 7952SOL    HW235319   4.447   4.586   1.431  0.7799 -1.3750  0.5734
 7953SOL     OW35320   3.740   4.184   9.983  0.4991  0.2340  0.5998
 7953SOL    HW135321   3.807   4.219  10.041  0.7506  2.9087 -1.2869
 7953SOL    HW235322   3.743   4.088   9.990  2.0419  0.1834 -0.7345
 7954SOL     OW35323   0.721   3.765   3.509  0.3571 -0.4338 -0.3459
 7954SOL    HW135324   0.634   3.733   3.485 -0.5560  1.9484 -0.2280
 7954SOL    HW235325   0.763   3.761   3.423  0.5978 -0.9314 -0.2043
 7955SOL     OW35326   3.401   4.722  12.032  0.1225  0.2622 -0.3682
 7955SOL    HW135327   3.497   4.725  12.038 -0.0419  2.5135  0.7826
 7955SOL    HW235328   3.388   4.627  12.030 -0.3336  0.3011  0.5707
 7956SOL     OW35329   1.194   4.228   9.294  0.6547  0.2786 -0.3197
 7956SOL    HW135330   1.267   4.289   9.289 -0.6016  1.8659  0.4190
 7956SOL    HW235331   1.190   4.220   9.389 -1.0792  1.7951 -0.2654
 7957SOL     OW35332   3.204   0.624  14.103 -0.5678  0.0022  0.0580
 7957SOL    HW135333   3.220   0.577  14.185 -0.2813  1.3341  0.7830
 7957SOL    HW235334   3.195   0.548  14.047 -2.8583  0.1669  0.2170
 7958SOL     OW35335   2.845   4.535  12.985 -0.3823  1.0376  0.5090
 7958SOL    HW135336   2.756   4.510  13.009 -0.7814  0.5482 -1.5025
 7958SOL    HW235337   2.866   4.577  13.069  0.5726  1.7574 -0.0925
 7959SOL     OW35338   4.390   1.919   0.118  0.1394  0.1021 -0.2454
 7959SOL    HW135339   4.385   1.843   0.060  0.5898  1.5362 -2.1714
 7959SOL    HW235340   4.354   1.892   0.202  1.4728 -0.7130  0.0692
 7960SOL     OW35341   0.936   1.732   9.194  0.1307 -0.1409 -0.6989
 7960SOL    HW135342   0.884   1.655   9.216 -0.1672 -0.2407 -1.7651
 7960SOL    HW235343   0.875   1.803   9.210 -0.2872 -0.8218  0.8021
 7961SOL     OW35344   0.535   4.338   7.956  0.3870  0.1492  0.0844
 7961SOL    HW135345   0.534   4.282   8.033 -0.1643  1.1089  0.7790
 7961SOL    HW235346   0.454   4.388   7.973 -0.9513 -1.9811 -0.0536
 7962SOL     OW35347   3.071   1.814   7.054 -0.1510 -0.0930 -0.5087
 7962SOL    HW135348   3.048   1.834   7.145 -2.6044 -1.7161 -0.7514
 7962SOL    HW235349   3.087   1.905   7.031 -0.9329  0.0263 -0.5920
 7963SOL     OW35350   0.502   3.153  14.998 -0.6676 -0.4341 -0.4714
 7963SOL    HW135351   0.487   3.241  14.963  0.5463 -0.5313 -1.2356
 7963SOL    HW235352   0.500   3.091  14.926 -0.7762 -1.2779  0.2547
 7964SOL     OW35353   2.115   0.630  14.768 -0.1805 -0.4954  0.3359
 7964SOL    HW135354   2.097   0.708  14.716  0.4209  0.0932  1.0051
 7964SOL    HW235355   2.098   0.559  14.705  2.4385 -0.3751 -0.5116
 7965SOL     OW35356   2.304   0.202   3.639 -0.5433 -0.2259  0.2562
 7965SOL    HW135357   2.292   0.265   3.568 -1.4459 -1.8707 -1.0304
 7965SOL    HW235358   2.215   0.166   3.636 -0.4554 -0.4393  0.1848
 7966SOL     OW35359   0.411   1.730  13.316 -0.0923  0.4130 -0.0475
 7966SOL    HW135360   0.330   1.765  13.354  0.4226 -1.0049  2.3088
 7966SOL    HW235361   0.478   1.772  13.370 -0.5003  0.7899  0.1669
 7967SOL     OW35362   0.681   2.007   2.129 -0.4083  0.3693  0.2094
 7967SOL    HW135363   0.707   2.091   2.167  2.7203  0.0093 -1.1262
 7967SOL    HW235364   0.721   2.012   2.042  1.5269  3.2889  1.2685
 7968SOL     OW35365   3.803   4.411  15.025  0.5780  0.4624 -0.4483
 7968SOL    HW135366   3.723   4.423  14.973 -1.5361  0.1594  2.7382
 7968SOL    HW235367   3.794   4.479  15.092 -1.0886  0.4114 -0.6119
 7969SOL     OW35368   1.028   4.551   4.832  0.1852  0.0981 -0.0729
 7969SOL    HW135369   1.069   4.471   4.800 -0.6853 -1.0830  1.7774
 7969SOL    HW235370   1.085   4.623   4.804  0.4995  0.1541  0.7004
 7970SOL     OW35371   0.452   2.054   1.001  0.1530  0.1343  0.4138
 7970SOL    HW135372   0.461   1.985   1.066  1.2343 -1.0001 -0.9424
 7970SOL    HW235373   0.502   2.021   0.926 -0.1334  1.4972 -0.3901
 7971SOL     OW35374   4.300   4.446   6.755 -0.2647 -0.4687  0.0540
 7971SOL    HW135375   4.231   4.470   6.693  0.0498  2.3084  0.7955
 7971SOL    HW235376   4.258   4.419   6.837  0.9626 -1.0003  0.5070
 7972SOL     OW35377   3.273   4.539   8.362  0.0821  0.0540 -0.3663
 7972SOL    HW135378   3.274   4.443   8.356  0.3040 -0.0893  1.8097
 7972SOL    HW235379   3.180   4.553   8.343  0.2104  1.4002 -0.0084
 7973SOL     OW35380   1.432   0.901   0.473 -0.5595  0.0377 -0.1027
 7973SOL    HW135381   1.380   0.880   0.395 -0.6739 -1.4587  0.3692
 7973SOL    HW235382   1.514   0.938   0.439 -1.9642  0.0030 -3.5268
 7974SOL     OW35383   3.696   4.036  13.311 -0.2729  0.4285 -0.2326
 7974SOL    HW135384   3.628   3.990  13.361  0.2350  0.7585  0.7592
 7974SOL    HW235385   3.751   4.077  13.377  1.5619  0.8779 -2.0494
 7975SOL     OW35386   3.379   1.902  15.432 -0.3954  0.1170  0.3803
 7975SOL    HW135387   3.415   1.990  15.443 -0.5730  0.3411 -0.8310
 7975SOL    HW235388   3.313   1.905  15.502 -0.2917  1.0264  0.4465
 7976SOL     OW35389   1.380   2.208   4.113 -0.1539  0.5284 -0.1066
 7976SOL    HW135390   1.414   2.138   4.169  0.5911 -0.9242 -2.3668
 7976SOL    HW235391   1.345   2.166   4.034  2.2658  2.5476 -2.2523
 7977SOL     OW35392   1.936   1.225  13.715 -0.2700  0.7218  0.1899
 7977SOL    HW135393   1.982   1.307  13.727 -1.2591  1.2519  0.3818
 7977SOL    HW235394   1.854   1.223  13.764 -0.9770  5.0898 -0.8183
 7978SOL     OW35395   3.871   3.931  16.028  0.3089 -0.6215 -0.0325
 7978SOL    HW135396   3.864   3.948  15.934 -1.9078 -2.6927 -0.2346
 7978SOL    HW235397   3.962   3.954  16.049 -0.1902  0.3588  1.0836
 7979SOL     OW35398   4.682   2.983   1.638 -0.0053  0.1225  0.5779
 7979SOL    HW135399   4.690   3.077   1.654 -1.1955  0.3930 -0.3891
 7979SOL    HW235400   4.646   2.959   1.723  0.2926 -1.1844  0.3276
 7980SOL     OW35401   0.041   2.295  16.601  0.1420 -0.7801 -0.4019
 7980SOL    HW135402   4.707   2.357  16.641 -0.4820 -0.4979 -1.7873
 7980SOL    HW235403   4.711   2.223  16.572  1.1109 -1.3380 -0.8902
 7981SOL     OW35404   1.768   0.398   7.338  0.2841 -0.9937 -0.6132
 7981SOL    HW135405   1.859   0.417   7.314  0.0964 -2.1402 -2.2388
 7981SOL    HW235406   1.723   0.483   7.340 -2.5255 -2.4516 -1.1169
 7982SOL     OW35407   0.448   1.749   9.245 -0.2810 -0.1963  0.0199
 7982SOL    HW135408   0.497   1.676   9.208  0.4227  1.0886 -1.6089
 7982SOL    HW235409   0.494   1.762   9.328  0.3735  1.3200 -0.5678
 7983SOL     OW35410   0.486   3.297  17.033 -0.0433 -0.6996 -0.6658
 7983SOL    HW135411   0.413   3.331  16.982  1.3193 -0.4309 -2.4279
 7983SOL    HW235412   0.460   3.299  17.126 -1.7078  2.2601 -1.2083
 7984SOL     OW35413   1.351   4.371   8.669 -0.0854 -0.1097  0.4382
 7984SOL    HW135414   1.350   4.296   8.610 -2.2038  1.8336 -1.9775
 7984SOL    HW235415   1.330   4.325   8.750 -0.4090 -1.1189 -0.2309
 7985SOL     OW35416   1.362   1.740   2.616 -0.2099  0.6335 -0.1098
 7985SOL    HW135417   1.440   1.795   2.608 -0.1868  0.8681  1.6714
 7985SOL    HW235418   1.399   1.651   2.615  1.6144  1.3800  1.6759
 7986SOL     OW35419   4.248   1.618   3.984 -0.5200  0.3299  0.2360
 7986SOL    HW135420   4.201   1.535   3.979 -0.6346  0.3968  0.1944
 7986SOL    HW235421   4.181   1.676   3.948 -1.9455  0.2848  2.8190
 7987SOL     OW35422   3.431   2.498  16.675  0.2561  0.0962 -0.1322
 7987SOL    HW135423   3.363   2.487  16.741  0.3635 -0.7795 -0.1660
 7987SOL    HW235424   3.446   2.413  16.635 -0.1381  0.2605 -0.6282
 7988SOL     OW35425   1.759   2.112  15.077 -0.1789 -0.0965 -0.6841
 7988SOL    HW135426   1.724   2.093  14.990  0.5153 -2.6024 -0.4237
 7988SOL    HW235427   1.678   2.144  15.118 -0.1453 -0.0596 -0.6462
 7989SOL     OW35428   3.636   2.306   0.961  0.4491 -0.0549  0.1824
 7989SOL    HW135429   3.641   2.294   1.056 -1.4134  0.7160  0.3869
 7989SOL    HW235430   3.565   2.371   0.957  0.9627  0.3545 -2.0990
 7990SOL     OW35431   3.398   3.335   6.394  0.5717 -0.4120  0.1019
 7990SOL    HW135432   3.313   3.292   6.384  0.0917  1.0260 -1.8431
 7990SOL    HW235433   3.364   3.383   6.470  0.1310 -0.9093  0.2226
 7991SOL     OW35434   0.268   1.759   4.982  0.1999 -0.7114  0.6268
 7991SOL    HW135435   0.276   1.665   5.000 -1.5327 -1.2275 -1.2051
 7991SOL    HW235436   0.256   1.752   4.887 -1.8639 -2.4113  0.9966
 7992SOL     OW35437   1.618   1.052   6.977 -0.0233  0.4716  0.0989
 7992SOL    HW135438   1.697   1.095   6.945 -0.2746  0.4204 -0.5960
 7992SOL    HW235439   1.580   1.130   7.018  1.2414  0.2587  1.6757
 7993SOL     OW35440   0.138   3.099   5.199 -0.0153 -0.1781  0.1637
 7993SOL    HW135441   0.126   3.182   5.154 -0.9468 -0.1367  0.4895
 7993SOL    HW235442   0.093   3.040   5.138  0.3553  0.5401 -0.7930
 7994SOL     OW35443   2.587   4.481   5.750 -0.4119  0.1255 -0.2842
 7994SOL    HW135444   2.646   4.429   5.804 -1.1453 -1.6260 -1.1610
 7994SOL    HW235445   2.571   4.556   5.807  0.2401 -1.9675  2.6921
 7995SOL     OW35446   4.094   4.637   7.616 -0.0120  0.0712  0.1582
 7995SOL    HW135447   4.182   4.609   7.640  0.2075 -0.3445 -1.1789
 7995SOL    HW235448   4.101   0.003   7.638  0.3270  0.4513 -1.5673
 7996SOL     OW35449   0.226   3.115   4.875  0.2475  0.0083 -0.4575
 7996SOL    HW135450   0.177   3.160   4.806 -1.2805  1.0042  1.2827
 7996SOL    HW235451   0.271   3.041   4.835  3.3771  1.7684 -0.2029
 7997SOL     OW35452   0.458   2.788   3.610  0.6398 -0.5025 -0.0548
 7997SOL    HW135453   0.481   2.876   3.640 -0.2450  0.2438 -1.5549
 7997SOL    HW235454   0.521   2.777   3.540 -0.6709 -1.1668 -1.1304
 7998SOL     OW35455   1.114   3.628  16.684  0.3676 -0.1190  0.0315
 7998SOL    HW135456   1.096   3.719  16.662  2.4055 -0.1272 -1.7485
 7998SOL    HW235457   1.050   3.580  16.631 -1.3859  0.5667  1.5553
 7999SOL     OW35458   2.109   0.988   3.935 -0.7664  0.4702 -0.4005
 7999SOL    HW135459   2.141   1.054   3.873  0.1017  0.6910  0.2837
 7999SOL    HW235460   2.180   0.963   3.994 -2.5950 -0.0486  1.5651
 8000SOL     OW35461   1.223   4.641   3.390  0.0973  0.9641  0.0568
 8000SOL    HW135462   1.174   4.560   3.406  0.5282 -0.0647 -3.7122
 8000SOL    HW235463   1.216   4.645   3.294 -0.2719 -0.0682  0.0463
 8001SOL     OW35464   4.175   2.243   4.516 -0.6429  0.0707  0.1899
 8001SOL    HW135465   4.225   2.168   4.547  0.3578  1.6662  2.4804
 8001SOL    HW235466   4.120   2.261   4.593  0.6309 -0.0167  1.1252
 8002SOL     OW35467   3.521   2.934  10.462 -0.8187 -0.2239 -0.1555
 8002SOL    HW135468   3.474   2.933  10.546 -0.4059  0.2552  0.0832
 8002SOL    HW235469   3.554   2.846  10.445  0.9294  0.5790 -0.9589
 8003SOL     OW35470   2.240   3.995   9.227 -0.4257 -0.1260  0.1973
 8003SOL    HW135471   2.255   3.952   9.143 -2.2794 -0.8259  0.2199
 8003SOL    HW235472   2.178   3.931   9.261 -0.0997 -0.7937 -0.4700
 8004SOL     OW35473   3.029   0.986   3.661 -0.5941 -0.6731 -0.3389
 8004SOL    HW135474   2.962   0.974   3.594  1.2724  1.6567 -2.6045
 8004SOL    HW235475   3.074   1.067   3.641 -0.1308 -1.4744 -2.4707
 8005SOL     OW35476   1.284   1.186  10.326  0.5072 -0.1445 -0.3512
 8005SOL    HW135477   1.228   1.253  10.366  0.8581  0.0949 -0.2523
 8005SOL    HW235478   1.276   1.203  10.232  0.2463  0.5334 -0.2084
 8006SOL     OW35479   3.024   4.306   7.367 -0.4269 -0.1477 -0.3568
 8006SOL    HW135480   3.066   4.271   7.446 -2.1724 -0.0578  0.6191
 8006SOL    HW235481   3.052   4.398   7.370  1.0626 -0.5851 -0.7369
 8007SOL     OW35482   0.341   3.898   6.826  0.1335 -0.1150 -0.2684
 8007SOL    HW135483   0.394   3.903   6.747  0.7650 -0.2177  0.1508
 8007SOL    HW235484   0.360   3.974   6.880 -0.3123  0.3534 -0.7608
 8008SOL     OW35485   2.195   2.364   7.092  0.2409 -0.1473  0.0454
 8008SOL    HW135486   2.119   2.308   7.080  0.7321 -1.3967  2.8378
 8008SOL    HW235487   2.161   2.452   7.109  0.8047 -0.3329  2.2159
 8009SOL     OW35488   4.329   1.886   0.385  0.2550  0.0235  0.0090
 8009SOL    HW135489   4.395   1.948   0.414  1.0695 -1.1185  0.5958
 8009SOL    HW235490   4.331   1.823   0.457 -1.5040 -0.8786 -0.7246
 8010SOL     OW35491   1.098   1.988   8.303 -0.2513  0.5922 -0.6231
 8010SOL    HW135492   1.161   1.940   8.248 -2.2810 -0.9829 -1.6078
 8010SOL    HW235493   1.040   1.917   8.331 -1.5158  1.3704 -1.2917
 8011SOL     OW35494   1.465   0.279  14.839  0.7164  0.5155  0.3041
 8011SOL    HW135495   1.432   0.341  14.904  0.3161  0.0236  0.5665
 8011SOL    HW235496   1.555   0.273  14.872  1.0954 -0.1051 -0.8296
 8012SOL     OW35497   1.171   0.514   8.710  0.0566  0.7929 -0.1488
 8012SOL    HW135498   1.100   0.555   8.759 -0.0428 -0.8422  1.0591
 8012SOL    HW235499   1.233   0.542   8.777  0.8181 -0.1256 -0.4716
 8013SOL     OW35500   4.286   0.495   6.986 -0.4230  0.7832  0.0695
 8013SOL    HW135501   4.372   0.469   6.953 -0.7729  2.4834 -2.2173
 8013SOL    HW235502   4.316   0.563   7.045 -1.8631  0.2630  1.4017
 8014SOL     OW35503   3.934   1.329   4.684  0.1823  0.0357 -0.1590
 8014SOL    HW135504   3.845   1.359   4.699 -0.1827 -1.7422  1.1986
 8014SOL    HW235505   3.922   1.239   4.653  2.9967  0.2502 -1.9183
 8015SOL     OW35506   4.391   1.776   3.726  0.0475  0.3325 -0.2552
 8015SOL    HW135507   4.302   1.786   3.760  0.4425  0.8369  0.6404
 8015SOL    HW235508   4.436   1.834   3.788  1.2438 -1.5593  0.6304
 8016SOL     OW35509   3.051   3.604   7.367  0.4088 -0.8659  0.4706
 8016SOL    HW135510   3.074   3.681   7.418  0.5303  0.3394 -1.4042
 8016SOL    HW235511   3.086   3.529   7.416  0.0678 -1.1813  0.2331
 8017SOL     OW35512   1.694   1.301   5.986  0.0169 -0.3186 -0.1447
 8017SOL    HW135513   1.754   1.229   6.009  2.6339  2.0140  0.3789
 8017SOL    HW235514   1.727   1.314   5.897 -0.1216 -1.4024 -0.3493
 8018SOL     OW35515   0.236   0.707   7.093 -0.2296  0.3122  0.3753
 8018SOL    HW135516   0.181   0.690   7.016 -1.2870 -1.0879  1.4287
 8018SOL    HW235517   0.323   0.713   7.054 -0.2413  0.1978  0.3317
 8019SOL     OW35518   0.194   0.644   9.366 -0.7123 -0.0955  0.2010
 8019SOL    HW135519   0.202   0.738   9.381 -2.7485 -0.0735  1.1987
 8019SOL    HW235520   0.240   0.606   9.440  0.3266 -0.2232 -0.5188
 8020SOL     OW35521   2.834   2.707   8.878  0.2460  0.0005 -0.1997
 8020SOL    HW135522   2.798   2.753   8.953 -0.6840  2.5020 -2.1797
 8020SOL    HW235523   2.917   2.755   8.871 -0.3825  1.1311  0.2172
 8021SOL     OW35524   0.476   3.720   3.461  0.2483  0.7311 -0.2914
 8021SOL    HW135525   0.402   3.684   3.509  0.9293  0.3395  0.4611
 8021SOL    HW235526   0.448   3.704   3.370 -1.4459  2.4785 -0.0899
 8022SOL     OW35527   4.587   1.815   9.892  0.1827  0.2522  0.2893
 8022SOL    HW135528   4.660   1.786   9.946 -1.1164 -0.5636  1.5925
 8022SOL    HW235529   4.597   1.910   9.887  0.8076  0.1352 -0.6852
 8023SOL     OW35530   1.602   0.840   4.853  0.0282  0.2275  0.4657
 8023SOL    HW135531   1.629   0.808   4.939  1.6313 -0.3863 -0.2668
 8023SOL    HW235532   1.673   0.803   4.800  0.2117 -2.4055  2.5492
 8024SOL     OW35533   3.740   4.641   2.504 -0.1502 -0.0443 -0.5428
 8024SOL    HW135534   3.671   4.691   2.548 -1.3311 -1.3807 -0.8676
 8024SOL    HW235535   3.764   4.686   2.423 -0.5784 -1.9588 -1.7253
 8025SOL     OW35536   1.379   2.429   4.334 -0.5979  0.6174 -0.4612
 8025SOL    HW135537   1.368   2.365   4.264 -1.4500 -0.6345  0.8264
 8025SOL    HW235538   1.473   2.434   4.349 -0.3909  1.5993 -2.0927
 8026SOL     OW35539   2.860   2.336   0.226 -0.2767  0.1262 -0.0914
 8026SOL    HW135540   2.870   2.417   0.275  0.8384 -0.5159  0.7352
 8026SOL    HW235541   2.948   2.333   0.187 -0.7420  2.4963 -1.3184
 8027SOL     OW35542   3.955   0.016  14.570  0.8332 -0.2671 -0.2534
 8027SOL    HW135543   4.027   0.079  14.567 -0.5225  1.1884 -2.4966
 8027SOL    HW235544   3.881   0.072  14.593  0.4650 -1.4909  1.5763
 8028SOL     OW35545   4.663   3.464   4.140  0.3697  0.4063  0.0960
 8028SOL    HW135546   4.629   3.536   4.086  1.1392  1.1964  0.6869
 8028SOL    HW235547   4.725   3.517   4.190  1.8094 -1.6137  0.4330
 8029SOL     OW35548   2.530   3.055   7.353 -0.3893 -0.0281  0.0410
 8029SOL    HW135549   2.509   3.146   7.332 -0.9076  0.4643  2.7116
 8029SOL    HW235550   2.615   3.074   7.393 -0.3031  2.4642 -1.2817
 8030SOL     OW35551   0.694   0.590   8.181  0.5383 -0.1781 -0.2630
 8030SOL    HW135552   0.655   0.545   8.107  1.0370 -1.0190 -0.0150
 8030SOL    HW235553   0.617   0.607   8.235  1.2587  1.1349  0.3526
 8031SOL     OW35554   4.282   1.322   6.447  0.1871  0.0122 -0.4042
 8031SOL    HW135555   4.245   1.368   6.372  0.2211  0.1789 -0.3174
 8031SOL    HW235556   4.328   1.391   6.495 -0.0786 -0.3668  0.3929
 8032SOL     OW35557   2.701   4.124   5.944 -0.2255 -0.6014 -0.2533
 8032SOL    HW135558   2.729   4.172   5.866  0.3025 -1.7874 -0.7862
 8032SOL    HW235559   2.761   4.050   5.941  1.1772  0.5479 -0.4102
 8033SOL     OW35560   1.304   4.009  13.037 -0.3109 -0.8823  0.0150
 8033SOL    HW135561   1.229   3.975  12.987 -1.2867  0.3242  0.6571
 8033SOL    HW235562   1.286   3.985  13.128 -0.8899  1.2601  0.4540
 8034SOL     OW35563   1.420   3.298   5.798 -0.1497 -0.2664  0.2636
 8034SOL    HW135564   1.420   3.208   5.767  0.5746  0.1014 -0.8192
 8034SOL    HW235565   1.489   3.285   5.863  0.2169 -0.8659 -0.2446
 8035SOL     OW35566   1.304   1.468   3.002 -0.3078 -0.0021 -0.0796
 8035SOL    HW135567   1.250   1.446   3.077 -1.3823 -0.2532 -0.9340
 8035SOL    HW235568   1.343   1.381   2.994  1.6906  0.9410 -0.6908
 8036SOL     OW35569   1.529   0.308  11.990  0.2527  0.0893  0.0338
 8036SOL    HW135570   1.501   0.399  11.983 -0.5206 -0.3505 -2.4782
 8036SOL    HW235571   1.624   0.319  11.997  0.8270 -4.0904 -1.4043
 8037SOL     OW35572   0.140   0.652   3.978 -0.3083  0.0120  0.2142
 8037SOL    HW135573   0.135   0.621   3.888  0.3922 -0.7351  0.4286
 8037SOL    HW235574   0.221   0.608   4.004  0.6483  0.6967 -1.6242
 8038SOL     OW35575   0.775   3.345   3.466 -0.4754  0.3043 -0.1028
 8038SOL    HW135576   0.779   3.407   3.538 -0.1458  0.5880 -0.3681
 8038SOL    HW235577   0.768   3.260   3.510 -3.6395  1.1516  1.0159
 8039SOL     OW35578   1.353   0.982  16.862 -0.3600 -0.7757 -0.6801
 8039SOL    HW135579   1.401   0.953  16.940 -0.0132  1.7555  0.0674
 8039SOL    HW235580   1.299   0.903  16.859  0.0655 -1.0603 -0.7163
 8040SOL     OW35581   1.057   1.366   6.337 -0.0209 -0.1003  0.0820
 8040SOL    HW135582   1.133   1.338   6.390 -0.9091  0.9788  1.9209
 8040SOL    HW235583   1.016   1.283   6.311 -0.5610  0.0131  0.5858
 8041SOL     OW35584   0.333   3.107   7.748  0.0060 -0.0843 -0.1962
 8041SOL    HW135585   0.254   3.125   7.696  0.3769  1.6031 -0.1853
 8041SOL    HW235586   0.362   3.195   7.771 -1.2440 -0.1289  1.5962
 8042SOL     OW35587   1.254   0.086  11.454  0.2695  0.0476 -0.2104
 8042SOL    HW135588   1.270   0.032  11.376 -0.5105  2.3360 -1.9528
 8042SOL    HW235589   1.244   0.175  11.419 -0.3072 -0.5777 -1.6527
 8043SOL     OW35590   4.050   0.446  14.671  0.1115  0.6555 -0.1434
 8043SOL    HW135591   4.107   0.369  14.661 -1.6955 -0.5632 -1.1129
 8043SOL    HW235592   3.963   0.405  14.662  0.1598  0.7055 -0.8198
 8044SOL     OW35593   1.714   0.248   5.025 -0.2372 -0.1101 -0.1686
 8044SOL    HW135594   1.695   0.162   4.987 -0.1833 -0.3989  0.4640
 8044SOL    HW235595   1.756   0.217   5.105  2.6721  0.7176 -1.3790
 8045SOL     OW35596   3.899   2.274  15.541 -0.6426  0.6519  0.2576
 8045SOL    HW135597   3.882   2.203  15.480 -0.7003  2.2753 -1.6102
 8045SOL    HW235598   3.914   2.348  15.482  1.6689 -0.3511 -0.4211
 8046SOL     OW35599   1.866   2.052   7.756 -0.7449 -0.7513 -0.6884
 8046SOL    HW135600   1.960   2.041   7.744 -0.1926  4.1209 -1.0233
 8046SOL    HW235601   1.833   2.045   7.667  0.4370 -0.5687 -1.1437
 8047SOL     OW35602   0.628   1.512   6.495  0.3490  0.4019 -0.3134
 8047SOL    HW135603   0.598   1.503   6.585  0.8895 -1.2855 -0.2968
 8047SOL    HW235604   0.711   1.465   6.505  0.4672  0.7104  0.1387
 8048SOL     OW35605   0.298   1.553   8.899  0.4342 -0.0320  0.1923
 8048SOL    HW135606   0.220   1.599   8.931  0.9959  0.0980  1.3557
 8048SOL    HW235607   0.273   1.555   8.807  2.0094 -1.4121 -0.2584
 8049SOL     OW35608   4.187   2.815   7.564 -0.1918  1.3128 -0.3153
 8049SOL    HW135609   4.237   2.825   7.645 -1.2676 -2.3336  0.8299
 8049SOL    HW235610   4.115   2.876   7.578  2.1102  3.6687  1.1732
 8050SOL     OW35611   3.612   1.544   7.693 -0.1570 -0.1880  0.8169
 8050SOL    HW135612   3.610   1.484   7.767 -2.8065 -2.6427 -1.2404
 8050SOL    HW235613   3.703   1.571   7.682 -0.3381 -0.1205 -0.6320
 8051SOL     OW35614   0.021   3.508   8.883  0.2543 -0.0098 -0.1280
 8051SOL    HW135615   0.076   3.475   8.955 -0.1838 -0.0434  0.1927
 8051SOL    HW235616   4.660   3.473   8.901 -0.0984  0.2958 -1.3099
 8052SOL     OW35617   0.043   0.450  12.172 -0.2263 -0.1496 -0.0479
 8052SOL    HW135618   0.114   0.414  12.226  1.7195  0.1055 -2.4040
 8052SOL    HW235619   0.081   0.438  12.085  1.2175 -1.7785  0.7958
 8053SOL     OW35620   3.280   0.438  12.418 -0.0861 -0.2197 -0.2808
 8053SOL    HW135621   3.200   0.408  12.376  0.6533  0.1305 -1.9370
 8053SOL    HW235622   3.337   0.362  12.405  0.0287 -0.3250  0.8257
 8054SOL     OW35623   0.926   1.740   8.076 -0.1427  0.0537  0.0631
 8054SOL    HW135624   0.928   1.715   8.168  0.1811 -1.5938 -0.3888
 8054SOL    HW235625   1.017   1.766   8.062 -0.0612 -1.2888 -1.9977
 8055SOL     OW35626   3.516   4.482   7.401 -0.5634 -0.1271  0.1016
 8055SOL    HW135627   3.496   4.444   7.486  1.4181  0.8267  0.9986
 8055SOL    HW235628   3.457   4.436   7.342 -0.5040  0.8715 -0.7399
 8056SOL     OW35629   3.403   3.211   0.151  0.6706 -0.0299 -0.6366
 8056SOL    HW135630   3.385   3.228   0.059 -0.6086  1.0894 -0.1741
 8056SOL    HW235631   3.350   3.277   0.195 -0.0294 -1.3267  0.5008
 8057SOL     OW35632   2.095   1.365   1.334  0.0778  0.5689  0.2378
 8057SOL    HW135633   2.021   1.322   1.376  0.3239  0.2784  0.3752
 8057SOL    HW235634   2.096   1.453   1.370 -1.0323  0.1954  1.1606
 8058SOL     OW35635   0.777   0.841   3.877  0.0183 -0.0899  0.4787
 8058SOL    HW135636   0.686   0.867   3.859  0.8759  2.3984 -0.2884
 8058SOL    HW235637   0.755   0.753   3.907  2.0208 -0.9657 -0.6243
 8059SOL     OW35638   1.482   1.932   3.815  0.0692 -0.3646  0.3403
 8059SOL    HW135639   1.472   2.006   3.756  0.7128  0.0035  0.6898
 8059SOL    HW235640   1.532   1.874   3.758  1.4856  1.0278  0.1580
 8060SOL     OW35641   4.204   3.285   4.643  0.4291 -0.2954 -0.5689
 8060SOL    HW135642   4.202   3.333   4.560 -0.4907 -2.9517 -2.0660
 8060SOL    HW235643   4.196   3.195   4.612  1.0675 -0.4664 -0.2445
 8061SOL     OW35644   3.827   4.345   7.764 -0.0299 -0.3414  0.0673
 8061SOL    HW135645   3.739   4.372   7.789 -0.0628  0.2294 -0.6644
 8061SOL    HW235646   3.809   4.295   7.684  3.1343  1.8299 -2.0467
 8062SOL     OW35647   3.255   2.705   0.429 -0.1293  0.1237 -0.4389
 8062SOL    HW135648   3.237   2.785   0.380  1.8389  0.2330 -0.9492
 8062SOL    HW235649   3.285   2.745   0.511  0.0381 -2.2625  0.6539
 8063SOL     OW35650   2.442   3.180   4.414  0.6064 -0.3883  0.3173
 8063SOL    HW135651   2.383   3.192   4.339  1.8840  0.7727 -0.5028
 8063SOL    HW235652   2.384   3.140   4.479  0.1446 -0.3773 -0.0812
 8064SOL     OW35653   1.211   3.859   7.422  0.1585 -0.4056  0.7318
 8064SOL    HW135654   1.130   3.879   7.469  1.7819  1.4309  2.7172
 8064SOL    HW235655   1.261   3.804   7.482  0.3003 -1.1491 -0.0662
 8065SOL     OW35656   4.478   1.900   4.569 -0.1079  0.0499 -0.0675
 8065SOL    HW135657   4.552   1.913   4.628 -0.1359 -2.4243  0.5245
 8065SOL    HW235658   4.477   1.806   4.553  0.0427  0.3745 -2.0278
 8066SOL     OW35659   3.538   3.601   6.372  0.3785 -0.4867  0.3867
 8066SOL    HW135660   3.450   3.628   6.347  0.7313 -0.3341 -0.6612
 8066SOL    HW235661   3.535   3.506   6.361 -0.5062 -0.1100 -2.5295
 8067SOL     OW35662   3.077   2.534  13.671 -0.1629  0.0794 -0.0306
 8067SOL    HW135663   3.089   2.555  13.578  2.8700  1.3976  0.6328
 8067SOL    HW235664   3.012   2.465  13.657  0.7113 -1.0081  1.3492
 8068SOL     OW35665   2.176   1.301   6.941  0.2996  0.4276 -0.0777
 8068SOL    HW135666   2.140   1.377   6.987  2.6218  1.8840 -0.6992
 8068SOL    HW235667   2.155   1.324   6.851  1.8363  0.1444 -0.5090
 8069SOL     OW35668   2.786   0.687   8.656  0.0387  0.1632  0.5707
 8069SOL    HW135669   2.855   0.753   8.652 -1.9437  2.1663 -0.5559
 8069SOL    HW235670   2.714   0.749   8.667 -0.0984  0.2995 -1.0166
 8070SOL     OW35671   4.689   1.640   8.896 -0.5076  0.7768 -0.1915
 8070SOL    HW135672   4.668   1.548   8.883  1.6021  0.4030 -0.9296
 8070SOL    HW235673   0.021   1.647   8.821  0.7526 -3.0720  0.4584
 8071SOL     OW35674   2.133   2.070   8.348  0.3521 -0.5753  0.3353
 8071SOL    HW135675   2.071   2.043   8.415  0.3004 -1.4531 -0.0588
 8071SOL    HW235676   2.177   1.986   8.334 -0.9329 -1.0101 -1.1675
 8072SOL     OW35677   2.766   0.333   2.532 -0.1993 -0.4311  0.3425
 8072SOL    HW135678   2.805   0.362   2.449 -0.5435 -0.4073  0.1865
 8072SOL    HW235679   2.708   0.265   2.498 -2.3160  1.3965  0.2589
 8073SOL     OW35680   4.147   4.707   4.308 -0.6669  0.0039  0.2088
 8073SOL    HW135681   4.092   4.702   4.386 -0.2704  0.2710  0.5050
 8073SOL    HW235682   4.099   0.050   4.263 -1.2610 -0.4435  0.1586
 8074SOL     OW35683   1.351   0.820   2.284  0.1287 -0.1606 -0.3821
 8074SOL    HW135684   1.410   0.774   2.223 -0.8620 -1.9913  0.0267
 8074SOL    HW235685   1.325   0.749   2.343  0.5356 -0.6258 -0.7532
 8075SOL     OW35686   3.611   1.589  16.236  0.2124  0.5804  0.0762
 8075SOL    HW135687   3.699   1.562  16.261 -0.0929 -0.0908  0.4213
 8075SOL    HW235688   3.600   1.668  16.288  0.0488  0.0787  0.7927
 8076SOL     OW35689   3.839   3.123   3.390  0.0316 -0.2505  0.2485
 8076SOL    HW135690   3.884   3.208   3.386 -1.2137  0.3877 -0.4307
 8076SOL    HW235691   3.756   3.150   3.349  0.3341  3.0408  1.7991
 8077SOL     OW35692   0.479   4.319   3.119  0.1170 -0.5334  0.8692
 8077SOL    HW135693   0.563   4.342   3.079 -0.8649  1.3852 -0.1358
 8077SOL    HW235694   0.516   4.261   3.185  0.9328  0.2609  1.1181
 8078SOL     OW35695   2.436   0.520  13.719  0.5016  0.3463  0.4216
 8078SOL    HW135696   2.468   0.587  13.659  0.9017  1.4003  1.8304
 8078SOL    HW235697   2.351   0.503  13.678  0.7911  1.2168 -0.5343
 8079SOL     OW35698   3.092   1.591   1.910 -0.5943 -0.3568 -0.4428
 8079SOL    HW135699   3.121   1.505   1.941 -1.7689 -0.8166 -0.6010
 8079SOL    HW235700   3.067   1.634   1.992  0.8615 -0.1084 -0.1296
 8080SOL     OW35701   2.488   0.865  15.553  0.0123 -0.5049  0.3612
 8080SOL    HW135702   2.573   0.859  15.597 -0.8713  2.4068  2.5265
 8080SOL    HW235703   2.493   0.958  15.529  1.7739 -1.0456 -1.3876
 8081SOL     OW35704   1.531   4.650   2.863 -0.0811  0.5993  0.3532
 8081SOL    HW135705   1.609   4.680   2.817 -0.5195 -0.9190 -1.3763
 8081SOL    HW235706   1.475   4.637   2.786 -2.8724  0.9394  2.3391
 8082SOL     OW35707   0.033   0.538   5.668  0.2782  0.2741  0.9256
 8082SOL    HW135708   4.668   0.538   5.695  0.6494  1.4219  2.1900
 8082SOL    HW235709   0.078   0.474   5.724 -0.1006  0.2012  1.1459
 8083SOL     OW35710   0.101   0.880   6.101 -0.3968  0.4165  0.1072
 8083SOL    HW135711   0.158   0.839   6.036 -1.3335 -1.1893  0.2982
 8083SOL    HW235712   0.133   0.970   6.112  3.5798 -1.4457  3.8431
 8084SOL     OW35713   1.635   1.026   9.564  0.3812 -0.3257 -0.5303
 8084SOL    HW135714   1.598   1.102   9.520  1.8807  1.3935  1.1516
 8084SOL    HW235715   1.635   1.049   9.657 -0.5283 -0.1462 -0.5780
 8085SOL     OW35716   1.734   1.529  11.776 -0.0825  0.0440 -0.6643
 8085SOL    HW135717   1.784   1.605  11.748  0.4255 -0.0842 -0.1145
 8085SOL    HW235718   1.763   1.520  11.867  1.7870  0.0895 -1.2480
 8086SOL     OW35719   4.200   4.464   2.540  0.3000 -0.0167 -0.0053
 8086SOL    HW135720   4.112   4.499   2.557  0.7718  2.1035 -1.8983
 8086SOL    HW235721   4.240   4.469   2.627 -0.5503 -1.8030  0.4831
 8087SOL     OW35722   2.689   1.885   0.308  0.0077  0.2468 -0.2184
 8087SOL    HW135723   2.763   1.858   0.364 -0.4610 -0.8827 -0.1434
 8087SOL    HW235724   2.671   1.804   0.261  1.5187 -0.5763  0.6195
 8088SOL     OW35725   3.136   4.713   5.787  0.4259 -0.0606 -0.0114
 8088SOL    HW135726   3.054   4.680   5.823  0.4615  1.2771  1.2557
 8088SOL    HW235727   3.139   0.074   5.824 -2.3391 -0.7059  1.6877
 8089SOL     OW35728   3.649   0.752   7.718 -0.2703 -0.7726 -0.1594
 8089SOL    HW135729   3.681   0.675   7.765 -2.9126 -1.7168  0.0853
 8089SOL    HW235730   3.707   0.763   7.643 -0.8886  0.3237 -0.4878
 8090SOL     OW35731   3.425   2.951   8.240  0.2032 -0.0997 -0.1803
 8090SOL    HW135732   3.421   3.025   8.300 -0.2962 -1.5784  1.6200
 8090SOL    HW235733   3.335   2.929   8.217 -0.1004  0.2868  0.6278
 8091SOL     OW35734   0.097   1.992   3.304 -1.0324  0.0688  0.6729
 8091SOL    HW135735   0.012   1.985   3.262 -1.2701 -0.6718  1.2823
 8091SOL    HW235736   0.073   2.040   3.384  0.8543 -1.4369  2.1441
 8092SOL     OW35737   3.346   3.750   2.529  0.1411  0.1976 -0.0942
 8092SOL    HW135738   3.393   3.797   2.598  0.5376  0.9639 -0.8831
 8092SOL    HW235739   3.428   3.720   2.488  0.6211 -1.4718  2.0990
 8093SOL     OW35740   3.180   1.020  16.769 -0.3656  0.0882 -0.1307
 8093SOL    HW135741   3.133   0.945  16.805  2.4081 -0.3871  2.5002
 8093SOL    HW235742   3.268   1.000  16.802 -1.1893 -0.2408  1.8611
 8094SOL     OW35743   3.098   2.321  15.474 -0.6098  0.3890 -0.1843
 8094SOL    HW135744   3.056   2.241  15.505 -1.0598  1.3108  1.5817
 8094SOL    HW235745   3.023   2.363  15.432 -0.2835 -0.3324 -1.4763
 8095SOL     OW35746   2.568   3.125   7.025  1.0594 -0.0579 -0.7303
 8095SOL    HW135747   2.639   3.062   7.017  1.3047  0.1182  0.0285
 8095SOL    HW235748   2.625   3.202   7.030 -0.3264  0.9108  0.1919
 8096SOL     OW35749   0.735   1.024  15.110  0.1737 -0.2601  0.1861
 8096SOL    HW135750   0.692   1.068  15.183 -2.0109 -0.0292 -1.2274
 8096SOL    HW235751   0.762   0.940  15.146  0.0786 -0.3462  0.0575
 8097SOL     OW35752   0.986   3.029   2.625  0.6740  0.6979  0.6038
 8097SOL    HW135753   0.939   2.948   2.646  2.6322 -0.4555  0.5335
 8097SOL    HW235754   1.011   3.059   2.712  0.3461  1.0246  0.5855
 8098SOL     OW35755   2.556   0.138   5.415  0.4618  0.2306 -0.3234
 8098SOL    HW135756   2.604   0.198   5.472 -1.5756  1.5815 -0.0244
 8098SOL    HW235757   2.481   0.195   5.399 -0.1147 -0.6407 -0.7222
 8099SOL     OW35758   1.172   2.270   0.994 -0.0129  0.4284  0.1352
 8099SOL    HW135759   1.264   2.297   0.988  0.2557 -0.5900 -0.2100
 8099SOL    HW235760   1.191   2.216   1.071  1.2382  1.8138  0.8084
 8100SOL     OW35761   4.267   0.219   6.968 -0.1126  0.0585 -0.4703
 8100SOL    HW135762   4.302   0.201   7.055  0.8672 -0.0441 -0.8910
 8100SOL    HW235763   4.251   0.314   6.969  0.8794  0.2317 -1.0418
 8101SOL     OW35764   3.601   0.121   3.527  0.5498 -0.2876 -0.2335
 8101SOL    HW135765   3.607   0.121   3.622 -1.7060 -0.3629 -0.0954
 8101SOL    HW235766   3.554   0.038   3.523 -0.4494  0.2188  1.0867
 8102SOL     OW35767   1.675   1.460   2.474  0.1236 -0.5541 -0.3869
 8102SOL    HW135768   1.707   1.374   2.446 -1.4565 -0.6650 -1.8623
 8102SOL    HW235769   1.648   1.506   2.394  0.1701  0.0454 -0.0513
 8103SOL     OW35770   4.379   2.358   7.453 -0.3598  0.0730 -0.5258
 8103SOL    HW135771   4.330   2.290   7.407 -1.0622  1.2478 -1.4971
 8103SOL    HW235772   4.343   2.437   7.414  0.0342  0.5075 -0.0103
 8104SOL     OW35773   0.526   2.983  17.161  0.3994  0.0304 -0.2347
 8104SOL    HW135774   0.503   2.984  17.068 -2.5474  2.8070  0.5240
 8104SOL    HW235775   0.460   2.928  17.205 -0.0807 -0.6113 -1.7342
 8105SOL     OW35776   1.576   0.990  15.675 -0.4019 -0.6483 -0.0560
 8105SOL    HW135777   1.502   0.943  15.638 -0.5067 -1.2020  0.8797
 8105SOL    HW235778   1.619   1.021  15.595  0.4030 -2.3073 -0.2610
 8106SOL     OW35779   0.483   2.220   8.362 -0.0858  0.0631  0.3045
 8106SOL    HW135780   0.531   2.234   8.281 -2.5928 -0.1809 -1.2294
 8106SOL    HW235781   0.533   2.263   8.431  0.0297 -0.2669  0.4235
 8107SOL     OW35782   1.705   2.306  11.563 -0.7549 -0.1794 -0.0802
 8107SOL    HW135783   1.755   2.267  11.491 -1.2481  0.5916 -0.8496
 8107SOL    HW235784   1.626   2.253  11.572 -0.0141 -1.1143  1.0264
 8108SOL     OW35785   1.857   2.749  15.453 -0.2751  0.1826 -0.2671
 8108SOL    HW135786   1.857   2.676  15.391  0.7289 -0.3947  0.4215
 8108SOL    HW235787   1.764   2.767  15.470  0.4973  1.7833  2.3108
 8109SOL     OW35788   3.899   1.561   3.508 -0.1319 -0.1551  0.2848
 8109SOL    HW135789   3.876   1.638   3.560  0.7467  0.6437 -0.5089
 8109SOL    HW235790   3.986   1.589   3.480 -0.0779 -2.7379 -2.1097
 8110SOL     OW35791   3.514   3.852   8.218  0.0770 -0.2082  0.1036
 8110SOL    HW135792   3.604   3.885   8.214 -0.4117  1.2550  1.4157
 8110SOL    HW235793   3.495   3.896   8.301 -1.7665 -1.5919  0.4274
 8111SOL     OW35794   3.880   1.608   7.680 -0.4062  0.4143 -0.1893
 8111SOL    HW135795   3.940   1.545   7.640  0.1348  0.9098 -0.1444
 8111SOL    HW235796   3.927   1.652   7.751 -1.7194  0.6031  0.5647
 8112SOL     OW35797   2.735   2.107   7.046  0.3386  0.1835  0.1929
 8112SOL    HW135798   2.665   2.067   7.098  1.4137 -0.0405  1.4711
 8112SOL    HW235799   2.703   2.083   6.959 -0.1933  0.7374  0.2370
 8113SOL     OW35800   3.956   0.173  16.066 -0.7489  0.1878  0.1051
 8113SOL    HW135801   3.956   0.092  16.117  0.2829  1.1247  1.5570
 8113SOL    HW235802   4.000   0.234  16.125  0.5642  0.3438 -1.0325
 8114SOL     OW35803   0.788   0.896   7.078  0.9190  0.5592  0.2782
 8114SOL    HW135804   0.809   0.824   7.019 -0.1824 -0.4733  1.1367
 8114SOL    HW235805   0.715   0.851   7.120  0.1537  0.2052 -1.4316
 8115SOL     OW35806   3.943   0.830  13.879  0.8494 -0.1179  0.4636
 8115SOL    HW135807   3.913   0.794  13.796  3.0962  0.6793 -0.6908
 8115SOL    HW235808   4.017   0.879  13.842  0.1314 -0.5983 -1.5959
 8116SOL     OW35809   4.290   1.681   2.909 -0.0868  0.0325  0.2849
 8116SOL    HW135810   4.239   1.649   2.835  0.1905 -1.9846  0.9646
 8116SOL    HW235811   4.252   1.767   2.926  0.7231  0.2270  1.0796
 8117SOL     OW35812   1.741   4.291  12.514 -0.3671  0.2987 -0.4031
 8117SOL    HW135813   1.692   4.319  12.590 -0.4971  0.8019 -0.6695
 8117SOL    HW235814   1.814   4.353  12.517 -1.8272  1.9427  0.7760
 8118SOL     OW35815   4.565   1.506   6.385 -0.1685 -0.1542 -0.1282
 8118SOL    HW135816   4.608   1.449   6.448  1.0092  0.9281  0.0527
 8118SOL    HW235817   4.482   1.515   6.431  0.3280 -1.1607  0.9416
 8119SOL     OW35818   2.263   2.865   5.134 -0.4549  0.2132  0.2451
 8119SOL    HW135819   2.197   2.800   5.110 -1.7928  2.3114 -1.8194
 8119SOL    HW235820   2.217   2.949   5.132  0.1838  0.5940  1.4289
 8120SOL     OW35821   4.103   3.181  16.934  0.0345  0.1766  0.1709
 8120SOL    HW135822   4.054   3.246  16.885 -0.2101 -1.3988 -1.6776
 8120SOL    HW235823   4.097   3.221  17.021  0.3963  0.7256 -0.0600
 8121SOL     OW35824   3.078   4.154   4.721  0.5865  0.1337 -0.2380
 8121SOL    HW135825   3.144   4.174   4.655  0.2417  0.0069 -0.6256
 8121SOL    HW235826   3.038   4.074   4.686  0.9415 -0.3465  0.4682
 8122SOL     OW35827   1.126   2.309   2.394  0.1091 -0.4346  0.0394
 8122SOL    HW135828   1.202   2.258   2.363  0.6671 -0.5402  1.5892
 8122SOL    HW235829   1.093   2.353   2.316  1.6927 -0.2891 -0.5611
 8123SOL     OW35830   4.665   3.784   7.458  0.2986 -0.0059  0.1111
 8123SOL    HW135831   4.625   3.839   7.525 -0.6999  0.3015 -0.7390
 8123SOL    HW235832   0.003   3.731   7.505  0.4481  0.6091  0.6048
 8124SOL     OW35833   0.525   1.115   4.914  0.0179 -0.0131  0.9343
 8124SOL    HW135834   0.488   1.039   4.957  0.5713 -0.7869  0.0446
 8124SOL    HW235835   0.507   1.092   4.822  1.2675  2.0079  0.1751
 8125SOL     OW35836   1.373   2.795   8.235  0.0728 -0.4638  0.0116
 8125SOL    HW135837   1.368   2.786   8.330  1.3821 -1.0498  0.0243
 8125SOL    HW235838   1.280   2.777   8.218  0.4460 -1.3399 -1.1253
 8126SOL     OW35839   3.215   2.736   6.472  1.1192  0.7277 -0.2078
 8126SOL    HW135840   3.181   2.687   6.547  0.6101  0.5979 -0.5252
 8126SOL    HW235841   3.186   2.677   6.403 -0.7130  2.7510 -1.1459
 8127SOL     OW35842   1.171   1.879  11.308  1.0721 -0.0867 -0.2173
 8127SOL    HW135843   1.130   1.934  11.241 -1.0297 -0.1475  1.0101
 8127SOL    HW235844   1.265   1.886  11.292  0.9447 -1.9231 -1.6388
 8128SOL     OW35845   2.078   3.665   5.851 -0.2659  0.1548 -0.3498
 8128SOL    HW135846   2.031   3.657   5.768  0.4784 -1.7189 -0.5796
 8128SOL    HW235847   2.095   3.573   5.870  0.2083 -0.0489 -1.7352
 8129SOL     OW35848   2.937   0.133  16.459 -0.0287 -0.3024 -0.0502
 8129SOL    HW135849   2.903   0.215  16.422 -1.6355 -0.3298  1.3729
 8129SOL    HW235850   3.031   0.151  16.458 -0.3246  1.4449  0.9858
 8130SOL     OW35851   3.868   1.857   7.566  0.1403 -0.1846  0.5838
 8130SOL    HW135852   3.857   1.774   7.613 -0.0981  1.0198  2.6972
 8130SOL    HW235853   3.959   1.873   7.593  0.1364  0.7002  0.0492
 8131SOL     OW35854   3.542   4.436   2.488  0.1749 -0.1989  0.5359
 8131SOL    HW135855   3.529   4.357   2.436 -1.0923  0.0271  0.5039
 8131SOL    HW235856   3.623   4.473   2.453 -0.5995  0.6783 -0.3644
 8132SOL     OW35857   0.423   0.908   5.157  0.4863  0.2423 -0.2123
 8132SOL    HW135858   0.377   0.966   5.217  0.1530  0.1420 -0.3719
 8132SOL    HW235859   0.381   0.823   5.168  0.1367  0.7012  1.9896
 8133SOL     OW35860   4.607   3.693   0.423  0.4995 -0.3415  0.1139
 8133SOL    HW135861   4.531   3.695   0.366  0.8137  0.6435 -0.2749
 8133SOL    HW235862   4.597   3.756   0.495 -3.2121 -0.8133 -0.0251
 8134SOL     OW35863   2.258   1.557   9.710  0.3241 -0.1955  0.1999
 8134SOL    HW135864   2.169   1.529   9.729  0.2822 -0.2236 -0.0293
 8134SOL    HW235865   2.248   1.592   9.621  3.2713 -0.4937 -0.2456
 8135SOL     OW35866   2.443   0.758   4.773 -0.1967 -0.6540  0.0680
 8135SOL    HW135867   2.383   0.823   4.810  0.1309  0.5662 -1.5186
 8135SOL    HW235868   2.425   0.679   4.823  2.2036  1.4968  4.3032
 8136SOL     OW35869   0.284   0.262   6.024 -0.7278  0.0338  0.6324
 8136SOL    HW135870   0.340   0.261   5.947 -2.5346  0.5799 -0.6753
 8136SOL    HW235871   0.293   0.171   6.053 -0.7346 -0.1029  0.1959
 8137SOL     OW35872   2.725   3.518   8.360 -0.0116 -0.0307  0.1049
 8137SOL    HW135873   2.754   3.608   8.343  1.1732  0.0701  2.6939
 8137SOL    HW235874   2.773   3.495   8.440 -1.1183  1.2306  1.1180
 8138SOL     OW35875   1.618   0.244  17.122 -0.3044 -0.2624 -0.3586
 8138SOL    HW135876   1.700   0.196  17.108 -0.0825 -0.1399  0.5349
 8138SOL    HW235877   1.588   0.246  17.031 -3.1041  0.3987  0.5594
 8139SOL     OW35878   1.616   3.462  15.987 -0.5482 -0.7231  0.0245
 8139SOL    HW135879   1.585   3.433  15.901  0.4651  0.1683 -0.6501
 8139SOL    HW235880   1.686   3.521  15.957  0.0848 -1.0904  0.7932
 8140SOL     OW35881   4.509   4.457   2.833 -0.3628 -0.2427 -0.3648
 8140SOL    HW135882   4.506   4.505   2.751 -1.1052  0.4042  0.0396
 8140SOL    HW235883   4.581   4.505   2.873  0.9833 -0.2074 -2.8140
 8141SOL     OW35884   0.066   0.326  17.281  0.4090  0.1910 -0.3915
 8141SOL    HW135885   0.023   0.241  17.289 -1.6969  1.1876 -1.1859
 8141SOL    HW235886   0.023   0.376  17.350 -0.2923  1.0201 -1.4508
 8142SOL     OW35887   1.046   2.299   6.594 -0.1921  0.0180  0.1253
 8142SOL    HW135888   1.037   2.394   6.600 -1.9540 -0.1675  0.4861
 8142SOL    HW235889   1.105   2.288   6.520 -1.6880 -1.6365 -0.8343
 8143SOL     OW35890   4.638   2.646   8.352  0.5492 -0.5687  0.5421
 8143SOL    HW135891   4.614   2.675   8.440 -1.1760  1.3940 -0.5986
 8143SOL    HW235892   0.006   2.632   8.362  0.3344 -1.4391  1.4173
 8144SOL     OW35893   2.166   4.180  17.120  0.8612  0.3240  0.7104
 8144SOL    HW135894   2.245   4.228  17.093  1.7181 -1.6189 -0.2275
 8144SOL    HW235895   2.200   4.110  17.175 -2.0985 -0.6667  1.2799
 8145SOL     OW35896   3.007   0.243   8.155 -0.2008 -0.5510  0.4575
 8145SOL    HW135897   3.050   0.165   8.190  0.2610 -0.4963  0.0220
 8145SOL    HW235898   3.020   0.226   8.061 -0.9893  0.7684  0.1033
 8146SOL     OW35899   0.301   2.126   2.686 -0.0662 -0.0893  0.1260
 8146SOL    HW135900   0.217   2.162   2.714 -0.4905  0.6511 -2.0926
 8146SOL    HW235901   0.267   2.092   2.603  0.8852 -0.8320  0.0436
 8147SOL     OW35902   1.230   4.687   3.110  0.4788 -0.6457 -0.1582
 8147SOL    HW135903   1.157   4.672   3.050  0.4047 -0.6759 -0.0606
 8147SOL    HW235904   1.282   0.024   3.062 -1.1631 -1.9331 -3.6700
 8148SOL     OW35905   2.446   3.703  12.564  0.2549 -0.1076 -0.1114
 8148SOL    HW135906   2.356   3.672  12.571 -0.2305  0.9870 -1.5102
 8148SOL    HW235907   2.440   3.767  12.493 -1.1074 -0.9925 -0.7956
 8149SOL     OW35908   2.972   0.718  16.641  0.4294 -0.1032  0.2221
 8149SOL    HW135909   2.960   0.810  16.617 -0.9886 -0.6167 -1.0223
 8149SOL    HW235910   2.948   0.720  16.734 -1.6755 -0.6313 -0.3188
 8150SOL     OW35911   3.023   3.540   8.580  0.1380  0.4995 -0.3732
 8150SOL    HW135912   2.945   3.488   8.598  0.6038  0.7240  2.3675
 8150SOL    HW235913   2.990   3.613   8.527  0.6199  1.3340  0.4665
 8151SOL     OW35914   2.255   0.473  13.911 -0.2415  0.3068  0.1763
 8151SOL    HW135915   2.210   0.417  13.849 -2.1322 -0.1264  1.9281
 8151SOL    HW235916   2.334   0.504  13.867 -1.0916 -0.7650 -2.0897
 8152SOL     OW35917   2.272   4.507   7.822 -0.0479 -0.2396  0.2997
 8152SOL    HW135918   2.289   4.600   7.841 -0.1221 -0.0465 -0.6086
 8152SOL    HW235919   2.316   4.503   7.738 -2.9405  1.3746 -1.2844
 8153SOL     OW35920   4.632   3.397   5.396 -0.2148 -0.1210 -0.7464
 8153SOL    HW135921   4.652   3.394   5.489  0.2331  3.9472 -0.7231
 8153SOL    HW235922   4.722   3.376   5.369  0.5950 -0.8389  2.5345
 8154SOL     OW35923   4.054   0.508   1.756  0.4755 -0.4060  0.2585
 8154SOL    HW135924   4.107   0.429   1.748  0.8110  0.0702 -2.2461
 8154SOL    HW235925   4.101   0.550   1.828  0.8054 -2.1134  1.0191
 8155SOL     OW35926   3.469   3.707   9.163 -0.5542  0.4270 -0.3045
 8155SOL    HW135927   3.392   3.656   9.137 -1.8492  1.4169  1.6201
 8155SOL    HW235928   3.416   3.783   9.186 -0.1408  1.1964 -1.8840
 8156SOL     OW35929   1.974   0.349  15.002  0.0201  0.1269  0.3708
 8156SOL    HW135930   1.956   0.392  15.086  0.6763  2.6206 -0.7801
 8156SOL    HW235931   2.015   0.271  15.040 -0.0364  0.2570  0.7008
 8157SOL     OW35932   3.185   1.054   7.109  0.4122 -0.1244  0.3899
 8157SOL    HW135933   3.190   0.985   7.175 -2.2209 -1.4661 -0.8174
 8157SOL    HW235934   3.121   1.019   7.047  1.0169  0.6138 -0.6455
 8158SOL     OW35935   0.705   2.467  16.579  0.6441 -0.7742  0.8634
 8158SOL    HW135936   0.746   2.406  16.518 -2.1475 -2.5893  0.8600
 8158SOL    HW235937   0.631   2.494  16.525  1.8478  0.3698 -0.2401
 8159SOL     OW35938   2.842   0.843   9.729  0.4900  0.3330 -0.1721
 8159SOL    HW135939   2.889   0.926   9.726  0.5047  0.3950  1.6145
 8159SOL    HW235940   2.761   0.866   9.774 -0.2621 -0.0894 -1.3157
 8160SOL     OW35941   0.137   3.801   4.319 -0.4457 -0.2406 -0.1304
 8160SOL    HW135942   0.160   3.797   4.412  0.4690  0.1045 -0.3541
 8160SOL    HW235943   0.178   3.879   4.283 -1.0716 -0.3452 -1.0768
 8161SOL     OW35944   0.707   0.346   2.041  0.2640  0.1076 -0.0559
 8161SOL    HW135945   0.613   0.348   2.024  0.2341 -1.6422 -0.0741
 8161SOL    HW235946   0.743   0.389   1.963 -0.3460  0.0188 -0.3887
 8162SOL     OW35947   4.679   1.935   8.441 -0.0834  0.1011 -0.1669
 8162SOL    HW135948   4.645   1.984   8.366 -2.2178 -1.3435 -0.1306
 8162SOL    HW235949   0.026   1.992   8.465 -0.2144 -0.2258  1.0081
 8163SOL     OW35950   4.046   3.739   5.900  0.6118 -0.2990  0.1068
 8163SOL    HW135951   4.065   3.660   5.848  0.9176  1.3571 -2.2812
 8163SOL    HW235952   3.963   3.708   5.937 -0.5697  0.7800 -1.6260
 8164SOL     OW35953   0.399   0.813  11.205 -0.5720 -0.9413  0.3109
 8164SOL    HW135954   0.447   0.832  11.125 -0.0607 -0.9983  0.6018
 8164SOL    HW235955   0.306   0.803  11.185 -0.4786 -3.0441  0.8193
 8165SOL     OW35956   3.230   2.487   3.980  0.3748  0.0432  0.1914
 8165SOL    HW135957   3.255   2.402   4.018  0.6381 -0.3471 -0.8508
 8165SOL    HW235958   3.267   2.494   3.892 -0.6132  2.5490 -0.0084
 8166SOL     OW35959   1.648   1.126   9.810 -0.2256  0.1080  0.0887
 8166SOL    HW135960   1.733   1.107   9.850 -0.7623  0.4215  1.3614
 8166SOL    HW235961   1.618   1.188   9.876 -1.9511 -0.3688 -0.2460
 8167SOL     OW35962   2.426   1.754  14.751 -0.3548  0.7084  0.1535
 8167SOL    HW135963   2.347   1.740  14.802  0.0050  1.6065  0.9734
 8167SOL    HW235964   2.496   1.738  14.815  1.6792  0.4017 -2.1381
 8168SOL     OW35965   1.188   0.673  12.292 -0.0519 -0.3377  0.1196
 8168SOL    HW135966   1.240   0.753  12.306  0.7281 -1.0023  1.0715
 8168SOL    HW235967   1.135   0.671  12.371  0.6576  1.2074  0.6313
 8169SOL     OW35968   2.944   0.027   1.172  0.6994  0.2158  0.0040
 8169SOL    HW135969   2.981   4.672   1.206  1.4865  0.5130 -0.1326
 8169SOL    HW235970   2.986   0.101   1.215  0.8036 -0.2615  0.7290
 8170SOL     OW35971   2.209   2.863   5.411  0.4480  0.3243  0.2445
 8170SOL    HW135972   2.216   2.768   5.419  1.8497  0.3233 -0.9459
 8170SOL    HW235973   2.221   2.872   5.316  0.6564 -0.2371  0.2192
 8171SOL     OW35974   2.572   1.492  12.971 -0.6534  0.1731  0.1923
 8171SOL    HW135975   2.598   1.470  12.882 -1.4689  0.1673 -0.0400
 8171SOL    HW235976   2.575   1.404  13.009  2.1888  0.4962  0.7551
 8172SOL     OW35977   2.209   1.349   7.327 -0.2773 -0.1218  0.0027
 8172SOL    HW135978   2.302   1.357   7.345  0.2017  0.8596 -2.9267
 8172SOL    HW235979   2.195   1.256   7.347  0.3818 -0.9017 -3.2285
 8173SOL     OW35980   4.379   3.748   3.494  0.2200 -0.6983 -0.0883
 8173SOL    HW135981   4.430   3.694   3.554  1.4570  0.3746 -0.1825
 8173SOL    HW235982   4.375   3.691   3.417 -2.0101 -1.0090  0.2536
 8174SOL     OW35983   0.181   1.081   9.317 -0.6136 -0.2179 -0.1889
 8174SOL    HW135984   0.131   1.015   9.364  0.9942 -0.8132  0.6846
 8174SOL    HW235985   0.245   1.018   9.283 -2.2139 -2.9364  1.8381
 8175SOL     OW35986   3.487   2.995   5.991 -0.1179 -0.5257 -0.7319
 8175SOL    HW135987   3.547   3.063   6.019 -0.5144 -0.1838 -0.7205
 8175SOL    HW235988   3.402   3.038   6.000  0.8552  1.4871 -1.1480
 8176SOL     OW35989   0.691   3.330   1.107  0.2122  0.4324 -0.7962
 8176SOL    HW135990   0.758   3.302   1.045 -1.5740  0.2588 -2.6396
 8176SOL    HW235991   0.620   3.334   1.043 -0.4541  0.2361 -0.0737
 8177SOL     OW35992   3.611   4.603   5.183 -0.3400  0.1260  0.2743
 8177SOL    HW135993   3.592   4.568   5.270  0.0633 -0.9081 -0.0598
 8177SOL    HW235994   3.615   4.526   5.127  1.2436 -0.3929  1.1029
 8178SOL     OW35995   1.230   2.339   8.294 -0.4977 -0.4400  0.3502
 8178SOL    HW135996   1.211   2.257   8.339  0.8946 -2.1672 -2.2120
 8178SOL    HW235997   1.150   2.343   8.242 -0.3183 -2.6490 -0.0809
 8179SOL     OW35998   3.801   0.981   4.383 -0.7529 -0.3573 -0.1449
 8179SOL    HW135999   3.837   1.014   4.465 -0.9683 -0.3332 -0.0610
 8179SOL    HW236000   3.867   1.004   4.317  0.4943 -0.2264  1.1482
 8180SOL     OW36001   2.438   2.477  11.388  0.1594  0.0850  0.2156
 8180SOL    HW136002   2.526   2.440  11.384 -0.4665 -1.4841  0.9682
 8180SOL    HW236003   2.455   2.566  11.356 -1.8398  0.3890 -0.0119
 8181SOL     OW36004   3.424   2.678   7.100 -0.1771 -0.2058  0.9504
 8181SOL    HW136005   3.337   2.716   7.113 -0.2609  0.5986 -1.7986
 8181SOL    HW236006   3.421   2.689   7.005  0.1024 -1.5510  0.7914
 8182SOL     OW36007   0.868   2.061   7.256 -0.1754  0.5123  0.7485
 8182SOL    HW136008   0.800   2.036   7.193 -0.8462  0.2843  1.5753
 8182SOL    HW236009   0.893   1.978   7.294  2.0655  1.4829  1.4199
 8183SOL     OW36010   3.570   0.433   5.818  0.1844  0.0653 -0.0274
 8183SOL    HW136011   3.612   0.391   5.893 -0.5278 -0.4819  0.0744
 8183SOL    HW236012   3.482   0.398   5.833  0.7060 -1.4357 -0.5427
 8184SOL     OW36013   1.495   4.209   0.501  0.5760  0.6636  0.2669
 8184SOL    HW136014   1.520   4.276   0.438  1.6004  0.6318  0.6355
 8184SOL    HW236015   1.530   4.248   0.581  0.0118  1.3759  0.1704
 8185SOL     OW36016   1.176   0.666   9.350 -0.5186 -0.4968 -0.0397
 8185SOL    HW136017   1.212   0.617   9.424  0.7423  0.0652 -0.2909
 8185SOL    HW236018   1.102   0.716   9.383  0.2498  1.0300 -0.6434
 8186SOL     OW36019   2.000   4.025  17.496  0.1350 -0.5020 -0.4397
 8186SOL    HW136020   1.915   4.052  17.529 -0.2740  0.0476 -1.9377
 8186SOL    HW236021   2.006   3.930  17.506  5.3752 -0.1544 -0.0307
 8187SOL     OW36022   3.141   3.914   9.677  0.5205  0.0144 -0.4397
 8187SOL    HW136023   3.119   3.855   9.604  1.4672  0.7855 -1.3483
 8187SOL    HW236024   3.227   3.944   9.649 -0.0320  0.2864 -1.8689
 8188SOL     OW36025   0.934   2.635  14.229  0.3526  0.8496 -0.1396
 8188SOL    HW136026   0.951   2.713  14.176  3.8924 -2.3258 -3.7158
 8188SOL    HW236027   0.886   2.678  14.300 -1.6977 -2.6519  0.5963
 8189SOL     OW36028   2.120   4.143   8.041  1.1063  0.1245 -0.1420
 8189SOL    HW136029   2.068   4.209   8.087 -0.5148 -1.0330 -0.3205
 8189SOL    HW236030   2.081   4.066   8.083  0.3706  0.3336 -0.4474
 8190SOL     OW36031   3.159   2.473   0.465  0.2559  0.1719  0.4712
 8190SOL    HW136032   3.207   2.401   0.424  1.2988 -0.1071  2.1487
 8190SOL    HW236033   3.206   2.556   0.458  0.2935  0.1953  0.9742
 8191SOL     OW36034   4.331   3.866   3.112 -0.1534  0.2425 -0.3142
 8191SOL    HW136035   4.262   3.904   3.166  0.7722  1.5066 -0.0309
 8191SOL    HW236036   4.282   3.853   3.030 -0.0305 -1.2276 -0.1592
 8192SOL     OW36037   1.106   0.037   6.884  0.3871  0.7406  0.1750
 8192SOL    HW136038   1.097   4.679   6.841  1.6114 -0.1254  1.6026
 8192SOL    HW236039   1.119   0.105   6.817 -2.3808 -1.0243 -2.1288
 8193SOL     OW36040   1.384   0.144  15.094  0.1259  0.2415  0.6427
 8193SOL    HW136041   1.470   0.121  15.127 -0.3885 -0.8151  1.2527
 8193SOL    HW236042   1.350   0.192  15.170  2.5112  0.7186  1.3912
 8194SOL     OW36043   3.477   1.528   9.314  0.1684  0.3552 -0.2211
 8194SOL    HW136044   3.564   1.549   9.348  0.1454 -1.6576  1.1085
 8194SOL    HW236045   3.438   1.606   9.273 -0.8031  1.6945  3.2551
 8195SOL     OW36046   1.981   0.454   3.004  0.0103  0.3143 -0.7047
 8195SOL    HW136047   1.935   0.486   3.082 -2.2069 -0.7911 -1.5568
 8195SOL    HW236048   2.013   0.536   2.966  0.9541  0.8794  1.2887
 8196SOL     OW36049   3.966   1.580   9.570 -0.0184 -0.1939  0.5974
 8196SOL    HW136050   4.023   1.605   9.497 -2.1078  0.9199 -0.6456
 8196SOL    HW236051   3.953   1.658   9.622 -0.1737  0.5780 -0.6046
 8197SOL     OW36052   4.661   4.514   8.337  0.3162  0.0300 -0.0191
 8197SOL    HW136053   4.616   4.479   8.414 -1.2993  1.5601 -0.2536
 8197SOL    HW236054   4.716   4.579   8.379  1.3153 -1.2298  0.6121
 8198SOL     OW36055   3.481   4.599   3.538  0.0547 -0.7329  0.1249
 8198SOL    HW136056   3.436   4.538   3.479  2.5089 -1.9938 -0.4346
 8198SOL    HW236057   3.474   4.554   3.622  1.2605 -0.3851  0.4156
 8199SOL     OW36058   3.292   4.709   4.803 -0.1697 -0.2408  0.2320
 8199SOL    HW136059   3.285   0.025   4.718  0.7349 -1.2950 -0.3777
 8199SOL    HW236060   3.253   4.622   4.793 -1.3901  0.5519 -1.7899
 8200SOL     OW36061   0.692   3.888   8.077  0.2447  0.9252 -0.2662
 8200SOL    HW136062   0.708   3.799   8.045 -2.1251  0.5813 -0.5105
 8200SOL    HW236063   0.766   3.905   8.135  0.8406  2.2394 -1.4168
 8201SOL     OW36064   3.301   3.104  15.346  0.1759  0.1168  1.0175
 8201SOL    HW136065   3.360   3.164  15.392  0.0182  0.2877  1.0000
 8201SOL    HW236066   3.349   3.087  15.265  0.4817  0.9438  1.0262
 8202SOL     OW36067   2.779   4.568  13.479 -0.5644  0.0092  0.5644
 8202SOL    HW136068   2.840   4.610  13.539 -0.1826  1.3738 -0.7575
 8202SOL    HW236069   2.833   4.510  13.424 -1.6886 -2.2143  1.8317
 8203SOL     OW36070   4.350   3.808   1.498  0.6157 -0.4163  0.4455
 8203SOL    HW136071   4.361   3.887   1.446  2.7599 -2.2818 -1.9449
 8203SOL    HW236072   4.343   3.741   1.430  0.6307 -1.0352  1.0512
 8204SOL     OW36073   0.524   2.265   3.546 -0.0987  0.1108 -0.0565
 8204SOL    HW136074   0.609   2.236   3.577 -0.3028  0.3009  0.6838
 8204SOL    HW236075   0.502   2.342   3.598  2.0297  1.5858 -1.3105
 8205SOL     OW36076   0.923   3.667   7.748 -0.1764  0.0214 -0.2526
 8205SOL    HW136077   0.833   3.693   7.731 -0.1732  0.1862 -0.0218
 8205SOL    HW236078   0.902   3.573   7.746 -0.4227  0.1005 -1.1929
 8206SOL     OW36079   0.783   0.773  15.218 -0.1115  0.2780 -0.0002
 8206SOL    HW136080   0.755   0.715  15.147  3.2183 -0.6495 -0.5389
 8206SOL    HW236081   0.876   0.772  15.195  0.4398 -0.5942  2.2879
 8207SOL     OW36082   0.373   2.468   6.207  0.7486  0.0424 -0.6764
 8207SOL    HW136083   0.409   2.500   6.125  1.3576 -2.4347 -1.3461
 8207SOL    HW236084   0.346   2.379   6.186  0.2532  0.3011 -1.1381
 8208SOL     OW36085   1.603   2.838  15.484  0.2699 -0.2294  0.5863
 8208SOL    HW136086   1.571   2.844  15.394  0.1085 -0.9582  0.5931
 8208SOL    HW236087   1.537   2.897  15.521 -0.0095 -0.9538  1.2434
 8209SOL     OW36088   2.327   1.151   3.809  0.3623  0.3345 -0.2859
 8209SOL    HW136089   2.356   1.066   3.777  2.9406  1.2657 -0.3672
 8209SOL    HW236090   2.414   1.178   3.836 -0.0626  1.3607  0.0861
 8210SOL     OW36091   0.303   2.485   8.204 -0.1060  0.2258 -0.2707
 8210SOL    HW136092   0.266   2.573   8.211  0.5874  0.7788 -3.4557
 8210SOL    HW236093   0.395   2.502   8.222 -0.0734 -0.5501  0.2746
 8211SOL     OW36094   4.354   2.877   6.516 -0.1343 -0.0285 -0.7210
 8211SOL    HW136095   4.444   2.883   6.487  0.2976 -0.9623  0.4195
 8211SOL    HW236096   4.347   2.944   6.585  2.0209 -1.4978  0.9296
 8212SOL     OW36097   0.945   2.458   7.601 -0.2719  0.2682 -0.0921
 8212SOL    HW136098   0.983   2.510   7.672  1.9202 -3.2346  1.3474
 8212SOL    HW236099   0.967   2.520   7.532 -0.3367  1.3526  0.8597
 8213SOL     OW36100   2.761   1.719   6.411 -0.0290 -0.7019  0.5384
 8213SOL    HW136101   2.713   1.797   6.384  1.2573  0.1589  0.7647
 8213SOL    HW236102   2.724   1.692   6.495 -1.6928  0.3540  0.1349
 8214SOL     OW36103   0.438   0.925   6.178 -0.5065  0.3999  0.4735
 8214SOL    HW136104   0.349   0.918   6.144  0.3213 -0.6738 -1.5036
 8214SOL    HW236105   0.426   0.990   6.247 -1.0572 -1.0901  1.7818
 8215SOL     OW36106   0.420   4.697  12.277 -0.5338  0.6778  0.0002
 8215SOL    HW136107   0.419   0.009  12.364  2.6054  0.6684  0.0687
 8215SOL    HW236108   0.513   4.674  12.276 -0.6115  0.3577  0.0768
 8216SOL     OW36109   4.410   4.709  15.065  0.1365  0.3927  0.1566
 8216SOL    HW136110   4.321   4.701  15.032  1.0088 -0.0632 -2.0543
 8216SOL    HW236111   4.463   4.674  14.994  0.1271 -0.1526  0.4197
 8217SOL     OW36112   3.602   2.553   8.561 -0.3836 -0.0081 -0.3523
 8217SOL    HW136113   3.606   2.647   8.546 -1.9125  0.0591 -0.3736
 8217SOL    HW236114   3.523   2.546   8.615 -1.6888  1.2226 -2.1232
 8218SOL     OW36115   2.258   4.547   6.564 -0.0573 -0.5780 -0.3293
 8218SOL    HW136116   2.310   4.547   6.644  1.3720  0.9119 -1.2474
 8218SOL    HW236117   2.327   4.518   6.504  2.4899  1.3155  1.6858
 8219SOL     OW36118   2.497   2.194   4.603  0.3859  0.5357 -0.4692
 8219SOL    HW136119   2.536   2.108   4.619 -0.6579  0.4685  1.6982
 8219SOL    HW236120   2.495   2.234   4.690 -0.0836  1.6752 -1.0168
 8220SOL     OW36121   0.211   1.897  13.398  0.0080 -0.3127 -0.1768
 8220SOL    HW136122   0.161   1.975  13.374 -1.0748 -0.9436  0.0350
 8220SOL    HW236123   0.166   1.859  13.474  0.2720 -0.1319  0.0690
 8221SOL     OW36124   0.574   2.906   7.555  0.7731 -0.0799 -0.1720
 8221SOL    HW136125   0.608   2.954   7.631 -0.4746  0.0017  0.3265
 8221SOL    HW236126   0.529   2.832   7.595 -1.2405  0.5018 -1.3565
 8222SOL     OW36127   4.479   1.830   9.644  0.3883 -0.6241  0.3004
 8222SOL    HW136128   4.501   1.808   9.734 -0.1148  1.1303  0.8434
 8222SOL    HW236129   4.502   1.922   9.647 -2.1529 -0.0277  1.6618
 8223SOL     OW36130   2.719   3.888   5.639  0.2280  0.2590 -0.2901
 8223SOL    HW136131   2.655   3.931   5.583 -0.6821 -3.7746 -2.3350
 8223SOL    HW236132   2.694   3.796   5.643 -3.3735  1.2816  0.4465
 8224SOL     OW36133   1.417   1.752   5.241 -0.0774 -0.0395 -0.1069
 8224SOL    HW136134   1.431   1.802   5.161 -0.1029 -1.3962 -0.9683
 8224SOL    HW236135   1.352   1.684   5.221  0.4063 -0.7153  0.5925
 8225SOL     OW36136   3.058   2.988  17.315 -0.4134 -0.1052  0.5328
 8225SOL    HW136137   3.028   3.032  17.236 -1.8957 -1.3595  0.3896
 8225SOL    HW236138   2.970   2.982  17.353 -1.1672 -1.9537 -1.5170
 8226SOL     OW36139   3.191   2.520   2.088 -0.1550 -0.3796  0.4264
 8226SOL    HW136140   3.104   2.481   2.074  0.3994 -1.1655 -0.8620
 8226SOL    HW236141   3.248   2.444   2.100 -0.3207 -0.8168 -1.5786
 8227SOL     OW36142   2.490   4.464   6.819 -0.0881 -0.2824 -0.2196
 8227SOL    HW136143   2.512   4.497   6.906 -0.5011  1.1450 -0.6654
 8227SOL    HW236144   2.570   4.487   6.772 -0.3221 -0.9285 -0.9351
 8228SOL     OW36145   0.278   4.418  13.612  0.5504  0.0645 -0.1693
 8228SOL    HW136146   0.284   4.486  13.545 -0.3159 -0.8121 -1.1414
 8228SOL    HW236147   0.189   4.381  13.606  0.0218  1.1582  1.0709
 8229SOL     OW36148   3.891   3.703   7.600 -0.4911 -0.0039  0.1196
 8229SOL    HW136149   3.803   3.722   7.632 -0.2536 -0.6374  1.1504
 8229SOL    HW236150   3.936   3.787   7.600  1.4091 -1.0397  2.2502
 8230SOL     OW36151   1.150   1.657  11.052 -0.0777  0.0394 -0.0965
 8230SOL    HW136152   1.198   1.724  11.004  0.4571 -0.7335 -0.6574
 8230SOL    HW236153   1.083   1.641  10.986  0.2381  0.1457 -0.4422
 8231SOL     OW36154   2.037   3.980   2.525 -0.1461  0.5005  0.3100
 8231SOL    HW136155   2.118   4.024   2.551 -0.0949  1.6618 -1.8230
 8231SOL    HW236156   2.028   3.998   2.432 -1.5280 -0.0457  0.3326
 8232SOL     OW36157   3.571   2.823   7.257 -0.6472 -0.4625 -0.0286
 8232SOL    HW136158   3.649   2.774   7.281 -0.4825 -1.0994 -1.8866
 8232SOL    HW236159   3.511   2.756   7.225 -1.9787  0.7663 -0.1276
 8233SOL     OW36160   4.176   4.299   2.317  0.3836  1.0955  0.8767
 8233SOL    HW136161   4.196   4.210   2.345 -3.6918  0.3413  1.3878
 8233SOL    HW236162   4.175   4.340   2.404 -2.6871 -1.2805  1.9819
 8234SOL     OW36163   0.412   0.570   4.037 -0.4927 -0.2615 -0.3420
 8234SOL    HW136164   0.410   0.475   4.034 -1.2025 -0.2932  1.2944
 8234SOL    HW236165   0.499   0.582   4.076  0.1653 -0.4498 -1.7464
 8235SOL     OW36166   2.835   2.792   7.246 -0.1947  0.0543 -0.0141
 8235SOL    HW136167   2.843   2.850   7.322  2.7834  0.0646 -0.3350
 8235SOL    HW236168   2.865   2.850   7.177  0.1599 -0.4825 -0.3052
 8236SOL     OW36169   3.658   1.912  10.351  0.1075 -0.1469 -0.3713
 8236SOL    HW136170   3.671   1.855  10.427 -1.8999  0.3105  0.3174
 8236SOL    HW236171   3.564   1.925  10.368  0.5074  0.5973  1.2513
 8237SOL     OW36172   3.729   1.762   9.192 -0.1330 -0.4962 -0.5567
 8237SOL    HW136173   3.662   1.803   9.247 -0.2528 -1.8300  0.2796
 8237SOL    HW236174   3.782   1.720   9.259 -0.9417  1.7131  1.4761
 8238SOL     OW36175   4.356   4.585   7.170  0.2202  0.2179  0.2008
 8238SOL    HW136176   4.322   4.659   7.221 -0.2767 -0.5141  0.9280
 8238SOL    HW236177   4.289   4.579   7.101  0.4642  2.8235 -0.2711
 8239SOL     OW36178   4.631   0.554   3.793 -0.1462  0.1821  1.0237
 8239SOL    HW136179   4.687   0.615   3.746  0.8987 -0.8929  0.8677
 8239SOL    HW236180   4.548   0.600   3.780  0.0840  0.2825 -0.1132
 8240SOL     OW36181   1.111   1.022   2.080 -0.1313  0.0641  0.3713
 8240SOL    HW136182   1.079   0.954   2.021 -1.1554  0.6321  0.2785
 8240SOL    HW236183   1.088   0.986   2.166  2.7692 -2.0575  0.2888
 8241SOL     OW36184   2.293   0.620   4.105  0.0920  0.6149  0.0872
 8241SOL    HW136185   2.375   0.585   4.139 -0.6966  0.6483  2.0057
 8241SOL    HW236186   2.245   0.543   4.075  0.1060  0.9313 -0.7364
 8242SOL     OW36187   0.145   1.764   3.417  0.5018  0.0969 -0.1597
 8242SOL    HW136188   0.193   1.796   3.492  0.2278  1.2783 -0.4899
 8242SOL    HW236189   0.121   1.845   3.373 -1.3814 -0.0426  0.6274
 8243SOL     OW36190   3.211   1.694  15.334  0.3401 -0.0682  0.3075
 8243SOL    HW136191   3.265   1.619  15.354 -0.8634 -0.4596  2.0915
 8243SOL    HW236192   3.272   1.764  15.310 -0.0158  1.0705  2.6455
 8244SOL     OW36193   0.924   0.726   8.063 -0.2056  0.2556 -0.1144
 8244SOL    HW136194   0.903   0.816   8.090  1.4618  0.2238  1.3276
 8244SOL    HW236195   0.858   0.678   8.113  1.0957 -1.0740  0.3059
 8245SOL     OW36196   0.460   3.355   2.370 -0.4036  0.9470 -1.1240
 8245SOL    HW136197   0.435   3.266   2.396 -0.4058  1.2746  0.0053
 8245SOL    HW236198   0.381   3.395   2.407  0.7225  1.5090  0.6665
 8246SOL     OW36199   3.931   1.101   5.343  0.0787  0.2375 -0.2819
 8246SOL    HW136200   3.850   1.065   5.307 -1.3509  1.3793  1.7863
 8246SOL    HW236201   3.951   1.173   5.283  0.6978 -0.7251 -1.2351
 8247SOL     OW36202   0.890   1.875  14.777  0.0317 -0.1386  0.5425
 8247SOL    HW136203   0.912   1.940  14.711 -0.8407  0.1287  0.5160
 8247SOL    HW236204   0.812   1.840  14.735  0.9602 -0.8552 -0.5818
 8248SOL     OW36205   4.113   0.568   5.122  0.7407 -0.0936 -0.1180
 8248SOL    HW136206   4.096   0.483   5.083 -0.9436  0.1227  0.1802
 8248SOL    HW236207   4.172   0.550   5.195 -1.5500 -1.4417  1.3828
 8249SOL     OW36208   2.793   2.434   8.990  0.0727 -0.2970 -0.3651
 8249SOL    HW136209   2.801   2.508   8.930 -1.3807 -0.0122 -0.2246
 8249SOL    HW236210   2.780   2.475   9.075 -1.6835  0.7531 -1.1493
 8250SOL     OW36211   3.636   1.474   3.880 -0.3628  0.2038  0.4323
 8250SOL    HW136212   3.608   1.460   3.789  1.1605 -0.9558  0.1454
 8250SOL    HW236213   3.563   1.527   3.912 -0.5924 -0.3487  0.8097
 8251SOL     OW36214   0.384   2.837   2.942  0.2073  0.1735 -0.4603
 8251SOL    HW136215   0.454   2.791   2.896 -1.0946 -1.2596 -1.0316
 8251SOL    HW236216   0.320   2.766   2.935  0.3030 -0.0338  0.8047
 8252SOL     OW36217   3.394   1.982   3.072  0.2042 -0.6332 -0.2456
 8252SOL    HW136218   3.380   2.075   3.057  1.9141 -0.1548  1.0234
 8252SOL    HW236219   3.485   1.987   3.101  0.5653  0.3378 -1.5245
 8253SOL     OW36220   0.092   0.865   3.307 -0.0582 -0.6150 -0.2791
 8253SOL    HW136221   0.118   0.773   3.313  1.0739 -0.3472 -0.9483
 8253SOL    HW236222   0.151   0.911   3.366  1.1096 -0.8572 -1.2578
 8254SOL     OW36223   3.953   0.206   5.654 -0.1339 -0.1016 -0.1462
 8254SOL    HW136224   4.022   0.261   5.617  1.2174 -1.5463  0.2019
 8254SOL    HW236225   3.890   0.278   5.663 -3.1818 -2.8519  0.4509
 8255SOL     OW36226   0.989   2.433   6.916  0.5307 -0.1397 -0.2349
 8255SOL    HW136227   1.041   2.363   6.955  0.0177 -0.7440 -0.6410
 8255SOL    HW236228   0.898   2.403   6.915  0.4970 -0.1360  2.5476
 8256SOL     OW36229   3.812   0.921   9.110 -0.0712  0.4066  0.1602
 8256SOL    HW136230   3.840   1.010   9.088 -0.5781  0.6095  0.3221
 8256SOL    HW236231   3.823   0.918   9.205 -1.9475  0.2018  0.3856
 8257SOL     OW36232   1.594   4.395  12.712  0.0018 -0.1721  0.3037
 8257SOL    HW136233   1.505   4.362  12.723  0.1417 -1.2022 -1.7950
 8257SOL    HW236234   1.617   4.407  12.805 -3.3793  0.9779  0.9821
 8258SOL     OW36235   2.209   1.445   8.801  0.2990 -0.1968 -0.0328
 8258SOL    HW136236   2.303   1.448   8.823  0.9374  1.9903 -3.0681
 8258SOL    HW236237   2.195   1.539   8.794  0.1670 -0.2807 -0.8629
 8259SOL     OW36238   0.180   2.427   3.459  0.2167  0.0510  0.0256
 8259SOL    HW136239   0.209   2.471   3.539 -0.3113 -0.4603  0.4953
 8259SOL    HW236240   0.263   2.414   3.413 -0.8621 -4.1945 -0.6663
 8260SOL     OW36241   0.800   0.301  16.350 -0.2733  0.5039  0.3458
 8260SOL    HW136242   0.797   0.277  16.443 -1.4507  0.0540  0.1868
 8260SOL    HW236243   0.713   0.340  16.341 -0.0360  1.7290  3.4316
 8261SOL     OW36244   1.654   2.565  13.403  0.2160 -0.2024 -0.1013
 8261SOL    HW136245   1.675   2.658  13.396 -1.3865  0.2177  0.6710
 8261SOL    HW236246   1.729   2.523  13.361  1.8689 -0.2068  2.8588
 8262SOL     OW36247   0.043   4.087   7.093  0.2794  0.3814 -0.1637
 8262SOL    HW136248   0.121   4.137   7.066  1.5763 -1.8237 -0.4843
 8262SOL    HW236249   0.006   4.148   7.158 -0.4529 -0.5567  0.2930
 8263SOL     OW36250   0.380   1.305   3.244  0.2965 -0.6261  1.2168
 8263SOL    HW136251   0.396   1.215   3.272  0.6516 -1.0642 -0.3896
 8263SOL    HW236252   0.286   1.302   3.224  0.1157 -1.0429  2.1674
 8264SOL     OW36253   3.835   2.525  16.994  0.0859 -0.4947 -0.0802
 8264SOL    HW136254   3.899   2.543  16.926 -1.9216  0.4094 -1.7221
 8264SOL    HW236255   3.866   2.578  17.067 -0.1433  0.3010 -0.5727
 8265SOL     OW36256   3.717   3.137  15.091  0.1681 -0.1494 -0.3949
 8265SOL    HW136257   3.762   3.100  15.167  0.2048 -0.3968 -0.5360
 8265SOL    HW236258   3.707   3.229  15.115  0.4145  0.1074 -1.2614
 8266SOL     OW36259   1.489   4.022  10.015  0.3807  0.4645  0.5597
 8266SOL    HW136260   1.393   4.015  10.016  0.2904  0.9089 -2.5854
 8266SOL    HW236261   1.496   4.112  10.045 -0.3033  0.4308  0.8339
 8267SOL     OW36262   0.046   0.028  13.103 -0.6716 -0.3157  0.1389
 8267SOL    HW136263   4.706   0.095  13.122 -1.5753 -0.8884 -1.0018
 8267SOL    HW236264   0.007   0.000  13.020 -0.9442  0.2259  0.0825
 8268SOL     OW36265   2.724   3.993   2.275  0.2718  0.1236  0.3490
 8268SOL    HW136266   2.802   3.989   2.219  1.3191 -2.1299  1.9578
 8268SOL    HW236267   2.752   3.923   2.334  2.7538  0.3496 -0.5505
 8269SOL     OW36268   3.241   4.699   7.980  0.3761 -0.8073 -0.0402
 8269SOL    HW136269   3.334   4.719   7.973  0.4156 -0.2915  1.9068
 8269SOL    HW236270   3.195   0.044   7.936  1.9068 -0.0946 -0.4919
 8270SOL     OW36271   0.058   3.902  11.861 -0.4389  0.0111  0.5426
 8270SOL    HW136272   0.128   3.842  11.836 -0.5474 -0.4243  1.2616
 8270SOL    HW236273   4.706   3.850  11.874  0.7297 -2.0725 -0.7056
 8271SOL     OW36274   2.179   4.677   9.442  0.1531  0.1853  0.5648
 8271SOL    HW136275   2.232   4.675   9.521  2.8204  2.0623 -1.1771
 8271SOL    HW236276   2.139   0.038   9.444  1.2396  0.6948  0.0621
 8272SOL     OW36277   1.539   3.415   6.479 -0.1588 -0.3750  0.0260
 8272SOL    HW136278   1.478   3.489   6.480  0.3224  0.0402 -1.7779
 8272SOL    HW236279   1.552   3.418   6.574 -0.3309  1.3139  0.0021
 8273SOL     OW36280   4.671   0.594   9.381 -0.1270 -0.2443  0.5435
 8273SOL    HW136281   4.648   0.533   9.452 -0.5928  0.3382  0.8930
 8273SOL    HW236282   0.037   0.577   9.363 -0.5356 -0.1720 -1.5871
 8274SOL     OW36283   3.251   4.377  14.949 -0.0187  0.1563  0.4620
 8274SOL    HW136284   3.211   4.390  14.863 -1.4003  1.1720  1.2581
 8274SOL    HW236285   3.193   4.429  15.005 -0.5234 -0.7301  0.7736
 8275SOL     OW36286   3.748   0.478   2.698  0.4058 -0.2130 -0.3076
 8275SOL    HW136287   3.783   0.565   2.683 -0.5984  0.3986  0.8514
 8275SOL    HW236288   3.664   0.518   2.720 -0.4014 -1.7204 -0.5952
 8276SOL     OW36289   2.816   4.531   6.244 -0.1544  0.0917  0.3148
 8276SOL    HW136290   2.851   4.496   6.162  0.6783  0.5769  0.4613
 8276SOL    HW236291   2.876   4.606   6.250 -0.0295 -0.0847  1.2477
 8277SOL     OW36292   2.047   0.470   7.369 -1.1037 -0.1345  0.2010
 8277SOL    HW136293   1.988   0.506   7.435 -0.9797 -1.2316  0.9218
 8277SOL    HW236294   2.123   0.445   7.422  0.5551  1.1171 -1.5968
 8278SOL     OW36295   0.752   2.248  10.609  0.1381  0.1190 -0.1227
 8278SOL    HW136296   0.675   2.205  10.572  0.4891 -0.5510 -0.0926
 8278SOL    HW236297   0.703   2.303  10.670 -0.9401 -1.0267  0.0535
 8279SOL     OW36298   2.674   4.640   1.148 -0.2688 -0.2157  0.0270
 8279SOL    HW136299   2.740   4.707   1.162 -0.4641  0.2659 -1.3820
 8279SOL    HW236300   2.723   4.573   1.100  0.5873  0.0309  0.5622
 8280SOL     OW36301   0.957   1.864   4.714  0.4388  0.2399  0.0394
 8280SOL    HW136302   0.951   1.935   4.650  2.6029  0.0163 -0.4279
 8280SOL    HW236303   0.896   1.801   4.675  0.5903 -0.0148  0.2108
 8281SOL     OW36304   4.690   1.270   5.036 -0.4538 -0.2052  0.1977
 8281SOL    HW136305   4.650   1.353   5.013 -0.3929 -0.3262 -0.3528
 8281SOL    HW236306   4.723   1.293   5.123  0.9990 -2.4034  0.2298
 8282SOL     OW36307   1.329   0.481  14.986  0.0820 -0.2457  0.1804
 8282SOL    HW136308   1.352   0.520  15.071  0.4198  1.2577 -0.5941
 8282SOL    HW236309   1.267   0.542  14.947  1.0711  0.5153 -0.1972
 8283SOL     OW36310   1.149   3.039   8.524  0.0850  0.0454  0.0503
 8283SOL    HW136311   1.105   3.046   8.440 -1.0204  1.6061  0.7568
 8283SOL    HW236312   1.082   3.010   8.585 -0.9127  0.1663 -0.9977
 8284SOL     OW36313   3.996   3.076   9.887  1.2097  0.4142 -0.3889
 8284SOL    HW136314   3.984   3.165   9.853  0.4149  0.4778  0.0518
 8284SOL    HW236315   3.952   3.083   9.972  2.4597 -1.1268  0.3836
 8285SOL     OW36316   3.558   1.638  12.585  0.8500 -0.1524 -0.4319
 8285SOL    HW136317   3.621   1.676  12.646 -1.3471  0.3003  1.5465
 8285SOL    HW236318   3.607   1.622  12.504  1.6235  0.2520 -0.0479
 8286SOL     OW36319   3.813   4.394   7.034  0.0298  0.0643  0.3896
 8286SOL    HW136320   3.859   4.316   7.003  0.7310  1.0422 -1.0324
 8286SOL    HW236321   3.780   4.364   7.118 -3.4276  2.3011 -0.1645
 8287SOL     OW36322   0.254   0.898   2.559 -0.0960 -0.6068 -0.2979
 8287SOL    HW136323   0.277   0.907   2.466  1.4080 -0.7535  0.0733
 8287SOL    HW236324   0.167   0.857   2.561 -0.3506  0.0776  2.2033
 8288SOL     OW36325   2.895   4.705   2.609 -0.1070  0.4222 -0.0142
 8288SOL    HW136326   2.849   4.637   2.659  1.9112  0.6810  2.1659
 8288SOL    HW236327   2.842   4.707   2.530 -1.8466 -0.9895  1.1005
 8289SOL     OW36328   0.035   1.980   7.059  0.4948  0.0813 -0.3826
 8289SOL    HW136329   0.068   1.890   7.058 -0.1403 -0.1536  0.7070
 8289SOL    HW236330   0.102   2.028   7.108 -0.8612  3.6382 -2.0680
 8290SOL     OW36331   1.767   2.583   6.191  0.2241  0.5230  0.0989
 8290SOL    HW136332   1.773   2.678   6.200 -6.1560  1.1639 -2.8889
 8290SOL    HW236333   1.698   2.567   6.255 -0.1509 -0.1792 -0.4790
 8291SOL     OW36334   2.469   2.153   0.641 -0.3860 -0.2444 -0.1203
 8291SOL    HW136335   2.559   2.134   0.613 -0.5809  0.1944 -1.0659
 8291SOL    HW236336   2.477   2.212   0.716  0.3079  0.7558 -0.9724
 8292SOL     OW36337   3.442   4.094  11.285  0.3179 -0.5190 -0.5805
 8292SOL    HW136338   3.353   4.112  11.255  0.0594  1.6976  1.5555
 8292SOL    HW236339   3.455   4.004  11.253  1.3588  0.6004 -3.2823
 8293SOL     OW36340   1.637   1.879   8.573 -0.3611 -0.3586  0.9039
 8293SOL    HW136341   1.606   1.823   8.644  3.2566 -1.5283  1.6026
 8293SOL    HW236342   1.613   1.967   8.603 -0.0812  0.0107  0.0352
 8294SOL     OW36343   2.627   3.145   4.630  0.4793  0.2424 -0.7523
 8294SOL    HW136344   2.565   3.157   4.558 -0.4574  1.3128  0.2489
 8294SOL    HW236345   2.628   3.221   4.688 -0.3231 -1.1504  1.1006
 8295SOL     OW36346   1.903   2.793   4.122  0.4364 -0.4511 -0.2931
 8295SOL    HW136347   1.905   2.742   4.202 -1.0955  1.4716  0.9788
 8295SOL    HW236348   1.836   2.859   4.139 -0.9589 -2.0974  0.5930
 8296SOL     OW36349   0.213   3.116   2.115 -0.2402 -0.0118 -0.3519
 8296SOL    HW136350   0.241   3.204   2.136  2.1754 -0.5267 -1.4204
 8296SOL    HW236351   0.140   3.110   2.177 -0.1383 -0.0957 -0.2389
 8297SOL     OW36352   4.196   1.055   4.077  0.2270 -0.3938 -0.1648
 8297SOL    HW136353   4.258   0.995   4.118  1.0754 -0.3278 -1.3459
 8297SOL    HW236354   4.158   1.009   4.002 -0.6292  1.0778 -0.6338
 8298SOL     OW36355   0.237   1.136   2.352  0.5866  0.4076 -0.4075
 8298SOL    HW136356   0.320   1.090   2.340 -0.6993 -2.0917  0.2478
 8298SOL    HW236357   0.239   1.187   2.271  1.5178 -2.9646 -2.4878
 8299SOL     OW36358   2.308   1.623  12.953 -0.0213 -0.0532 -0.0073
 8299SOL    HW136359   2.395   1.585  12.967 -0.5311 -1.5002 -0.7101
 8299SOL    HW236360   2.298   1.584  12.867  0.9456 -0.8754  0.2610
 8300SOL     OW36361   2.043   1.090  14.174  0.1744 -0.3645 -0.0533
 8300SOL    HW136362   2.124   1.141  14.179 -1.1922  1.6670  1.7267
 8300SOL    HW236363   2.039   1.060  14.265 -0.5749 -0.4649 -0.1202
 8301SOL     OW36364   1.938   1.420   3.970 -0.3814  0.4662  0.5173
 8301SOL    HW136365   1.902   1.480   4.036 -1.7915 -0.3994  0.5262
 8301SOL    HW236366   2.028   1.449   3.956 -0.4553  0.5396  0.1815
 8302SOL     OW36367   4.615   3.979  15.248 -0.9049  0.1161  0.2720
 8302SOL    HW136368   4.585   3.919  15.316 -0.3318  2.4894  2.6195
 8302SOL    HW236369   4.617   3.924  15.170  0.5323 -1.6488  1.5365
 8303SOL     OW36370   2.476   2.278   6.710 -0.1221 -0.0751  0.2022
 8303SOL    HW136371   2.445   2.189   6.695  1.7294 -1.0311  2.0700
 8303SOL    HW236372   2.416   2.302   6.781 -1.6571  0.2469 -1.2050
 8304SOL     OW36373   0.864   3.902  14.627  0.3764 -0.0874 -0.7008
 8304SOL    HW136374   0.814   3.841  14.573  0.2902 -0.7883  0.1764
 8304SOL    HW236375   0.906   3.841  14.687 -0.5111 -1.1070 -1.1162
 8305SOL     OW36376   3.762   1.440  12.793  0.4289  0.0209 -0.2017
 8305SOL    HW136377   3.772   1.527  12.755  2.4382 -0.4322 -0.6716
 8305SOL    HW236378   3.852   1.412  12.808 -0.3017 -3.2102 -1.7559
 8306SOL     OW36379   0.217   1.264   6.809 -0.4044  0.1043  0.1703
 8306SOL    HW136380   0.190   1.173   6.827 -1.2604  1.2344  4.6601
 8306SOL    HW236381   0.295   1.268   6.865  0.5567 -1.6408 -1.0532
 8307SOL     OW36382   1.492   3.363  14.485 -0.4968  0.2067 -0.7506
 8307SOL    HW136383   1.434   3.327  14.553  0.5219  0.3608  0.1951
 8307SOL    HW236384   1.545   3.286  14.464  1.7232  2.4104 -3.2839
 8308SOL     OW36385   3.492   1.640   2.313  0.4738  0.0944  0.4425
 8308SOL    HW136386   3.460   1.723   2.278 -0.4507 -0.1430  0.7211
 8308SOL    HW236387   3.530   1.596   2.237 -2.6086 -1.7138 -0.0556
 8309SOL     OW36388   2.528   1.614   6.110  0.8995 -0.0424  0.2927
 8309SOL    HW136389   2.497   1.683   6.051 -1.1250 -0.4272  0.8923
 8309SOL    HW236390   2.441   1.587   6.138  0.2165  1.2633 -0.5484
 8310SOL     OW36391   3.636   2.741  10.642 -0.2710 -0.0720 -0.6145
 8310SOL    HW136392   3.605   2.714  10.728  2.9980  0.7915  0.8283
 8310SOL    HW236393   3.654   2.833  10.661  3.9719 -0.5278 -2.5032
 8311SOL     OW36394   3.901   0.262   1.687 -0.5607 -0.1490  0.2869
 8311SOL    HW136395   3.939   0.225   1.607 -2.0960  0.3442 -0.6707
 8311SOL    HW236396   3.901   0.356   1.665 -2.3140  0.0605  1.2267
 8312SOL     OW36397   3.612   3.308   3.667  0.3040 -0.8737 -0.3893
 8312SOL    HW136398   3.570   3.315   3.581 -0.5611  0.2016  0.1136
 8312SOL    HW236399   3.639   3.216   3.670  3.2435 -0.0541 -2.0185
 8313SOL     OW36400   2.546   4.405  16.584 -0.0230 -0.2656  0.4887
 8313SOL    HW136401   2.508   4.426  16.499  0.2400  1.1120  0.7010
 8313SOL    HW236402   2.625   4.459  16.595 -2.4526  3.7746 -2.0273
 8314SOL     OW36403   1.633   4.707   5.718  0.2343  0.4583  0.3517
 8314SOL    HW136404   1.557   0.038   5.730 -1.1683 -0.8249 -2.0989
 8314SOL    HW236405   1.644   4.655   5.797  0.2907 -0.6978 -0.4118
 8315SOL     OW36406   0.701   4.079  14.766 -0.0119 -0.2582  0.0235
 8315SOL    HW136407   0.771   4.040  14.715  1.0404  1.6521  0.0221
 8315SOL    HW236408   0.671   3.992  14.794  0.2311 -0.4863 -0.4131
 8316SOL     OW36409   0.820   3.609  15.477 -0.0427  0.2446 -0.5358
 8316SOL    HW136410   0.792   3.618  15.386 -1.0477  1.3015 -0.1158
 8316SOL    HW236411   0.851   3.699  15.489 -0.1326 -0.0515  1.9666
 8317SOL     OW36412   3.916   0.230   1.958 -0.0384 -0.3714 -0.3773
 8317SOL    HW136413   3.926   0.249   1.865  2.5838  1.0668  0.1965
 8317SOL    HW236414   3.835   0.179   1.955 -1.0681  1.2149  0.2458
 8318SOL     OW36415   1.728   1.095  16.229  0.1074  0.7584 -0.1297
 8318SOL    HW136416   1.696   1.133  16.147 -1.3069  1.6285  0.8211
 8318SOL    HW236417   1.769   1.159  16.287 -2.3449  0.7580  1.5965
 8319SOL     OW36418   4.078   0.111   3.172  0.2395  0.1857  0.0293
 8319SOL    HW136419   4.061   0.204   3.181  2.0846  0.2614  2.5329
 8319SOL    HW236420   3.993   0.071   3.188  1.0371 -0.7728  1.8883
 8320SOL     OW36421   0.261   3.247   7.032 -0.1073 -0.0792 -0.1535
 8320SOL    HW136422   0.203   3.311   7.074 -2.1832 -2.1193  0.0878
 8320SOL    HW236423   0.348   3.262   7.069  0.8531 -2.1970 -1.5597
 8321SOL     OW36424   0.566   4.219   5.031  0.6231  0.1252 -0.5844
 8321SOL    HW136425   0.511   4.245   4.956 -1.8392 -4.7835 -0.4900
 8321SOL    HW236426   0.510   4.242   5.105 -1.0061  0.1339 -1.7996
 8322SOL     OW36427   3.544   4.443   9.198 -0.2321  0.5135  0.2019
 8322SOL    HW136428   3.588   4.454   9.282 -0.6339 -0.9524  0.6104
 8322SOL    HW236429   3.601   4.499   9.145  0.9417 -1.8305 -1.0038
 8323SOL     OW36430   4.550   3.165   9.181 -0.1313 -0.0079  0.0229
 8323SOL    HW136431   4.461   3.129   9.188 -0.7769  1.9471  2.0335
 8323SOL    HW236432   4.538   3.248   9.228  0.4737 -0.2219  0.5573
 8324SOL     OW36433   0.790   1.069   7.509 -0.2346 -0.2868  0.2198
 8324SOL    HW136434   0.711   1.045   7.461  0.3877 -2.0599  0.0855
 8324SOL    HW236435   0.772   1.148   7.560  1.5745  0.0877  0.2842
 8325SOL     OW36436   4.558   4.264   9.534  0.5402 -0.1114 -0.0222
 8325SOL    HW136437   4.551   4.353   9.570  1.5484 -0.4126  0.8902
 8325SOL    HW236438   4.531   4.278   9.443 -2.4740  1.6323  1.1390
 8326SOL     OW36439   0.144   2.627   6.736  0.1445 -0.3797  0.5675
 8326SOL    HW136440   0.145   2.534   6.759 -2.4472 -1.3643 -3.2850
 8326SOL    HW236441   0.206   2.632   6.664  1.4781 -2.9982  1.5170
 8327SOL     OW36442   2.449   1.208   0.806  0.8009  0.0181  0.5959
 8327SOL    HW136443   2.429   1.139   0.742  0.0003 -0.3416  1.2372
 8327SOL    HW236444   2.489   1.165   0.882  0.6459  0.0426  0.6912
 8328SOL     OW36445   4.113   3.228   9.184  0.1101  0.3016  0.0549
 8328SOL    HW136446   4.058   3.185   9.250 -1.0113 -1.1158 -1.8342
 8328SOL    HW236447   4.186   3.167   9.199  1.0988  1.0511 -1.7380
 8329SOL     OW36448   3.234   0.364  13.044  0.4534 -0.1614  0.1503
 8329SOL    HW136449   3.302   0.401  13.100  0.5008 -0.0734  0.0359
 8329SOL    HW236450   3.153   0.380  13.092  0.5437  0.4735  0.0920
 8330SOL     OW36451   0.365   0.801   4.881  0.0671  0.2766 -0.3654
 8330SOL    HW136452   0.297   0.737   4.860 -0.0859  0.1046  0.6655
 8330SOL    HW236453   0.331   0.842   4.961  0.1973 -0.4679  0.0680
 8331SOL     OW36454   3.368   1.321  13.832  0.2593 -0.2008  0.2720
 8331SOL    HW136455   3.323   1.342  13.914 -1.9794 -0.6698 -0.8293
 8331SOL    HW236456   3.450   1.282  13.862 -0.4065 -0.9291  1.1473
 8332SOL     OW36457   1.793   2.712   6.770  0.4733 -0.2922 -0.3356
 8332SOL    HW136458   1.819   2.780   6.832  0.5285 -0.5350 -0.0920
 8332SOL    HW236459   1.795   2.756   6.685  2.0453  0.4453  0.0875
 8333SOL     OW36460   3.924   1.037   4.639 -0.9364 -0.3654 -0.0272
 8333SOL    HW136461   3.972   1.023   4.720  1.6726 -1.0505 -1.6760
 8333SOL    HW236462   3.964   0.966   4.588 -1.2039 -0.1359 -0.5591
 8334SOL     OW36463   3.461   3.980   9.909  0.0234  0.0587  0.2299
 8334SOL    HW136464   3.493   3.896   9.944  0.0458 -0.2822 -0.6078
 8334SOL    HW236465   3.376   3.983   9.951  0.6069  0.1277  1.4175
 8335SOL     OW36466   2.722   3.986   7.834 -0.1087 -0.4438  0.2229
 8335SOL    HW136467   2.671   3.969   7.913  1.3390 -1.7875  0.8408
 8335SOL    HW236468   2.695   3.902   7.798 -1.0831  1.3196 -3.2158
 8336SOL     OW36469   3.570   1.840   0.710 -0.2779  0.0188 -0.2714
 8336SOL    HW136470   3.519   1.849   0.791 -2.1440  1.1961 -1.5934
 8336SOL    HW236471   3.580   1.930   0.678 -1.0689 -0.4717 -1.8672
 8337SOL     OW36472   4.155   4.650  12.021 -0.5490 -0.3893  0.0004
 8337SOL    HW136473   4.161   4.603  12.104 -1.8533 -1.6046 -0.6019
 8337SOL    HW236474   4.139   0.015  12.047  1.8499  0.1873 -0.5731
 8338SOL     OW36475   4.446   3.262   6.219  0.4235 -0.3675  0.5206
 8338SOL    HW136476   4.529   3.255   6.265 -0.6916 -4.1808  1.9446
 8338SOL    HW236477   4.371   3.251   6.278 -0.5838  1.2142 -0.4668
 8339SOL     OW36478   2.596   1.429   4.046 -0.1974  0.0364 -0.1927
 8339SOL    HW136479   2.606   1.500   3.983  0.8184 -0.4492 -0.5826
 8339SOL    HW236480   2.609   1.353   3.989  2.1844  0.1628  0.1561
 8340SOL     OW36481   4.014   2.755  10.822  0.2340 -0.0108 -0.4222
 8340SOL    HW136482   3.974   2.772  10.737 -0.0283 -1.6498 -0.6252
 8340SOL    HW236483   4.054   2.671  10.799 -0.9497 -1.1864  1.7409
 8341SOL     OW36484   2.646   1.543   9.503  0.6635  0.2369  0.6381
 8341SOL    HW136485   2.604   1.477   9.447  1.0574  1.5848 -1.2488
 8341SOL    HW236486   2.661   1.478   9.571  0.1950 -1.5875 -0.9865
 8342SOL     OW36487   1.723   3.597  13.878 -0.8045 -0.2184 -0.4420
 8342SOL    HW136488   1.754   3.683  13.908 -1.2017  0.1018 -0.9282
 8342SOL    HW236489   1.631   3.596  13.906 -0.9807 -1.2979 -1.0805
 8343SOL     OW36490   0.370   4.002   6.486  0.0247  0.2862  0.2726
 8343SOL    HW136491   0.363   4.088   6.526 -0.9209 -0.7344  2.3186
 8343SOL    HW236492   0.374   4.022   6.393  1.0340  0.6457  0.3918
 8344SOL     OW36493   0.337   1.207   1.255 -0.0479  0.2618  0.1946
 8344SOL    HW136494   0.377   1.121   1.249  0.4035  0.2719  3.0727
 8344SOL    HW236495   0.408   1.261   1.220  1.0466 -0.8475  0.7275
 8345SOL     OW36496   1.979   2.823  14.333 -0.4691 -0.2528 -0.0807
 8345SOL    HW136497   1.965   2.744  14.384  1.5833 -0.2416  0.5099
 8345SOL    HW236498   1.953   2.881  14.404  2.2466 -0.3638  1.0080
 8346SOL     OW36499   1.102   0.860   7.756  0.8405  0.1201  0.2131
 8346SOL    HW136500   1.077   0.768   7.760 -0.5515  0.4763 -0.1886
 8346SOL    HW236501   1.183   0.863   7.808  1.2159  1.6294 -0.4469
 8347SOL     OW36502   0.431   1.073   4.417  0.4979 -0.6217 -0.6452
 8347SOL    HW136503   0.481   1.007   4.369  0.1349  0.3020 -2.2985
 8347SOL    HW236504   0.341   1.052   4.390  0.0457 -0.0019  0.3829
 8348SOL     OW36505   4.111   1.056   5.522 -0.2473 -0.1475  0.5772
 8348SOL    HW136506   4.055   1.059   5.444  1.9147  0.4362 -0.9596
 8348SOL    HW236507   4.122   0.962   5.538 -1.0415 -0.3543 -0.1251
 8349SOL     OW36508   3.667   4.565   0.960  0.1071 -0.0428  0.0154
 8349SOL    HW136509   3.758   4.594   0.954  0.3786 -0.7632  0.7120
 8349SOL    HW236510   3.675   4.516   1.041  2.3489  1.5214  0.7433
 8350SOL     OW36511   3.360   1.497  16.272  0.2398 -0.2925  0.4067
 8350SOL    HW136512   3.367   1.509  16.177  0.6138 -0.5719  0.3991
 8350SOL    HW236513   3.450   1.515  16.299  0.0504 -0.0566  0.8776
 8351SOL     OW36514   2.701   3.614   3.616 -0.0561 -0.6844  0.1701
 8351SOL    HW136515   2.791   3.597   3.643  0.2382  0.8466  0.1424
 8351SOL    HW236516   2.712   3.638   3.524  0.8411 -0.8812  0.2269
 8352SOL     OW36517   1.329   2.740   1.747 -0.2913  0.6572  0.0091
 8352SOL    HW136518   1.268   2.695   1.805  0.2171  1.2366  1.0075
 8352SOL    HW236519   1.371   2.668   1.699  0.4952  1.6000 -0.7268
 8353SOL     OW36520   0.946   3.536  17.620  0.0154  0.2684  0.4148
 8353SOL    HW136521   1.018   3.512  17.561 -0.2179 -0.2131  0.3189
 8353SOL    HW236522   0.982   3.524   0.000  1.1272 -0.1567 -0.0932
 8354SOL     OW36523   2.411   1.213   7.001  0.3927 -0.4080 -0.5441
 8354SOL    HW136524   2.324   1.245   6.977  0.0275 -0.3382  0.8408
 8354SOL    HW236525   2.456   1.282   6.953 -0.7255  0.4300 -0.3860
 8355SOL     OW36526   2.434   1.739   8.203 -0.2798 -0.5450  0.5597
 8355SOL    HW136527   2.436   1.822   8.155 -2.8621 -2.2993 -2.5864
 8355SOL    HW236528   2.514   1.707   8.160  0.2916  1.8140 -0.1378
 8356SOL     OW36529   1.381   0.473   7.833  0.0520  0.4142 -0.3400
 8356SOL    HW136530   1.344   0.546   7.883 -0.7118  0.2256 -0.6358
 8356SOL    HW236531   1.450   0.446   7.894 -0.9516 -0.1075  0.5657
 8357SOL     OW36532   0.907   3.890   8.217 -0.0194 -0.2200  0.1176
 8357SOL    HW136533   0.987   3.880   8.166  0.5130  1.2177  0.6774
 8357SOL    HW236534   0.933   3.843   8.297  0.4627 -0.7712 -0.3641
 8358SOL     OW36535   1.262   0.628   8.954 -0.0353  0.7276 -0.1106
 8358SOL    HW136536   1.244   0.543   8.993 -1.6457  1.2972  0.3741
 8358SOL    HW236537   1.312   0.656   9.031 -1.2517  1.1608  0.5193
 8359SOL     OW36538   3.761   3.684  15.591  0.2230  0.1794 -0.0776
 8359SOL    HW136539   3.682   3.654  15.636  1.2437 -1.6892  0.4827
 8359SOL    HW236540   3.801   3.609  15.547  1.1750 -1.0168  2.7926
 8360SOL     OW36541   0.904   2.412   0.396  0.2846 -0.1718 -0.0388
 8360SOL    HW136542   0.831   2.443   0.449  0.1019 -0.2487 -0.2416
 8360SOL    HW236543   0.912   2.327   0.438  0.9271 -0.3347 -0.4811
 8361SOL     OW36544   3.894   2.628  13.632 -0.3091 -0.5928  0.1109
 8361SOL    HW136545   3.979   2.670  13.617 -0.4910 -0.1130  0.4309
 8361SOL    HW236546   3.856   2.697  13.686  0.2910 -0.9574  0.9985
 8362SOL     OW36547   3.925   0.325   7.494  0.7569 -0.4986 -0.6062
 8362SOL    HW136548   3.863   0.394   7.473 -1.4653 -1.6920  2.0377
 8362SOL    HW236549   3.879   0.247   7.463 -0.2734 -0.5651  1.0997
 8363SOL     OW36550   0.824   0.146   1.727 -0.8901 -0.3114 -0.0739
 8363SOL    HW136551   0.790   0.056   1.723  0.2112 -0.8631  2.6564
 8363SOL    HW236552   0.770   0.187   1.794 -2.6187  1.6452 -2.6702
 8364SOL     OW36553   1.044   3.474   0.187 -0.0774 -0.0397  0.5551
 8364SOL    HW136554   0.983   3.416   0.233  1.0715 -0.2300  1.7962
 8364SOL    HW236555   1.043   3.557   0.234 -0.0875 -0.3135  1.0279
 8365SOL     OW36556   3.327   4.553   6.926 -0.1823 -0.6749 -0.2097
 8365SOL    HW136557   3.289   4.610   6.859  1.3686  0.8756  0.2476
 8365SOL    HW236558   3.419   4.571   6.910 -0.8392  0.8396 -2.4351
 8366SOL     OW36559   1.073   4.051   9.150  0.0613  1.0804  0.8582
 8366SOL    HW136560   1.048   3.974   9.200  1.7034  0.4833  0.7652
 8366SOL    HW236561   1.103   4.109   9.220  1.8649  0.3393  0.6945
 8367SOL     OW36562   3.937   3.679   3.338  0.4213  0.7564 -0.2147
 8367SOL    HW136563   4.031   3.692   3.328  0.8755 -2.1378  0.3207
 8367SOL    HW236564   3.938   3.599   3.390  1.5669  0.2598 -1.0042
 8368SOL     OW36565   0.827   3.309   7.140  0.4582 -0.3771 -0.0981
 8368SOL    HW136566   0.767   3.235   7.147  1.5855 -1.3916 -1.2883
 8368SOL    HW236567   0.820   3.333   7.232 -0.5712 -1.9553  0.2396
 8369SOL     OW36568   2.544   2.077  10.462 -0.0291 -0.0575 -0.1451
 8369SOL    HW136569   2.467   2.116  10.503 -0.2234 -0.2587 -0.3173
 8369SOL    HW236570   2.501   2.036  10.387 -0.6284 -0.4294  0.4045
 8370SOL     OW36571   1.290   0.264   8.803 -0.3201 -0.5611 -0.5265
 8370SOL    HW136572   1.261   0.343   8.757  1.5668  0.5936  0.2796
 8370SOL    HW236573   1.386   0.269   8.801 -0.4173  1.3466 -1.1858
 8371SOL     OW36574   2.793   1.520   5.554  0.2657  0.6061  0.4134
 8371SOL    HW136575   2.867   1.490   5.607 -0.6202  0.1061  1.3684
 8371SOL    HW236576   2.724   1.471   5.599 -0.4091 -2.1404 -3.6594
 8372SOL     OW36577   4.385   4.284   9.306  0.0761 -0.2530  0.4040
 8372SOL    HW136578   4.363   4.354   9.245  1.5778 -1.0610 -1.0596
 8372SOL    HW236579   4.377   4.219   9.237 -1.3422  0.0022  0.3197
 8373SOL     OW36580   3.359   4.133   0.087  0.1528 -0.3139  0.3626
 8373SOL    HW136581   3.390   4.173   0.006 -0.6649  1.8212  1.1036
 8373SOL    HW236582   3.273   4.104   0.059  0.3385  0.7352 -1.2691
 8374SOL     OW36583   2.938   0.110  10.654 -0.0685 -0.0460 -0.2459
 8374SOL    HW136584   2.861   0.166  10.648  0.2132  0.4578  0.9343
 8374SOL    HW236585   2.899   0.025  10.673 -1.5366  0.8960  0.9560
 8375SOL     OW36586   3.111   2.694  17.290 -0.0925 -0.2345  0.5645
 8375SOL    HW136587   3.088   2.780  17.327  1.0157  0.1316  0.3983
 8375SOL    HW236588   3.033   2.639  17.286 -0.8481  0.8779 -0.3636
 8376SOL     OW36589   1.520   0.096   9.764 -0.2969  0.6298  1.0743
 8376SOL    HW136590   1.523   0.038   9.688  1.8637  1.0829  0.8110
 8376SOL    HW236591   1.433   0.134   9.758  0.3813  2.1200  0.6476
 8377SOL     OW36592   0.222   0.563  16.003 -0.3421 -0.3131 -0.3458
 8377SOL    HW136593   0.239   0.577  16.096  0.3890  0.2906 -0.5715
 8377SOL    HW236594   0.167   0.485  16.013  1.0227 -0.9377  2.0939
 8378SOL     OW36595   0.197   2.289   8.343  0.2269  0.4718  0.1469
 8378SOL    HW136596   0.218   2.373   8.303 -2.0325  0.6289 -0.7039
 8378SOL    HW236597   0.284   2.248   8.349  1.0928  2.2189 -0.2398
 8379SOL     OW36598   1.206   4.167   8.223 -0.1441 -0.0707  0.1618
 8379SOL    HW136599   1.135   4.105   8.238 -0.9236  0.4298 -1.5645
 8379SOL    HW236600   1.166   4.254   8.217  0.7651  0.4053  0.8695
 8380SOL     OW36601   2.068   3.802   9.346 -0.1304 -0.3643  0.0039
 8380SOL    HW136602   1.985   3.848   9.358 -0.7432 -1.5774  0.4504
 8380SOL    HW236603   2.088   3.781   9.438  2.5524 -0.7248 -0.6595
 8381SOL     OW36604   0.208   2.691  10.158  0.6756 -0.1852  0.0243
 8381SOL    HW136605   0.143   2.659  10.095 -1.2229  0.1371  1.8264
 8381SOL    HW236606   0.286   2.659  10.112  0.2893 -2.0543  0.6492
 8382SOL     OW36607   3.828   1.045   5.959 -0.4153  0.1259 -0.0293
 8382SOL    HW136608   3.801   1.075   5.872 -2.4929 -0.2581  0.4786
 8382SOL    HW236609   3.921   1.033   5.941 -0.5894 -2.3722  0.6885
 8383SOL     OW36610   0.280   2.803   0.052  0.4190 -0.0181 -0.3697
 8383SOL    HW136611   0.196   2.757   0.061  0.4093 -0.1801 -1.2807
 8383SOL    HW236612   0.345   2.733   0.063 -0.3716 -0.7865 -0.5890
 8384SOL     OW36613   1.046   3.270   7.922 -0.0782  0.0897 -0.3451
 8384SOL    HW136614   1.063   3.246   8.013 -3.7080 -0.8025  0.1030
 8384SOL    HW236615   1.095   3.352   7.912 -2.1457  1.2330 -0.9910
 8385SOL     OW36616   2.966   3.370  16.027 -0.2587 -0.5199 -0.4019
 8385SOL    HW136617   2.977   3.386  15.933 -1.5045  0.4797 -0.3807
 8385SOL    HW236618   2.872   3.384  16.041 -0.2849  1.9532 -2.9882
 8386SOL     OW36619   1.384   1.737   6.640  0.1972 -0.2562  0.0049
 8386SOL    HW136620   1.369   1.676   6.568 -1.7559  0.3025 -0.0517
 8386SOL    HW236621   1.356   1.684   6.715 -0.0854 -2.7597 -1.8850
 8387SOL     OW36622   1.583   0.568  13.291 -0.1775 -0.6413  0.1838
 8387SOL    HW136623   1.590   0.640  13.227  1.0470  0.3562  1.4381
 8387SOL    HW236624   1.507   0.519  13.259 -0.5587 -0.4173  0.7416
 8388SOL     OW36625   3.112   2.707  12.680 -0.3893 -0.5321 -0.2231
 8388SOL    HW136626   3.078   2.787  12.640  1.2732  0.7743  0.9686
 8388SOL    HW236627   3.200   2.701  12.642 -1.5305 -0.6301 -2.8165
 8389SOL     OW36628   2.287   1.799  11.735 -0.2629 -0.3119  0.9244
 8389SOL    HW136629   2.202   1.843  11.728 -0.6108 -0.9343  1.2458
 8389SOL    HW236630   2.270   1.724  11.792 -3.0480  0.1192  0.6626
 8390SOL     OW36631   2.473   1.565   4.710  0.2678  0.3849  0.4307
 8390SOL    HW136632   2.422   1.646   4.712  0.1720  0.3313  0.1322
 8390SOL    HW236633   2.401   1.513   4.674  1.3226 -0.4525 -0.4781
 8391SOL     OW36634   2.509   0.175   7.341 -0.5878 -0.4202 -0.3751
 8391SOL    HW136635   2.425   0.161   7.298  0.6478 -1.8646 -2.2867
 8391SOL    HW236636   2.482   0.193   7.432 -0.9910 -0.6308 -0.4509
 8392SOL     OW36637   4.518   2.782   9.557  0.8741 -0.2026 -0.5120
 8392SOL    HW136638   4.491   2.782   9.649 -1.7273 -0.3601 -1.2619
 8392SOL    HW236639   4.443   2.815   9.507  0.2269 -1.5494 -0.4429
 8393SOL     OW36640   4.385   0.540   8.908 -0.7539  0.4705  0.1105
 8393SOL    HW136641   4.406   0.609   8.846 -0.7428 -0.4418 -0.8954
 8393SOL    HW236642   4.458   0.478   8.900 -0.7504  0.6314 -1.0273
 8394SOL     OW36643   1.968   3.264  11.701 -0.2128  0.0349  0.2274
 8394SOL    HW136644   1.895   3.288  11.758 -2.1016  0.6981 -2.4060
 8394SOL    HW236645   1.999   3.186  11.746 -0.7266  1.0174  2.2587
 8395SOL     OW36646   2.694   1.232   9.096  0.5512 -0.6295 -0.1282
 8395SOL    HW136647   2.652   1.197   9.018  4.1383  0.2915 -2.4658
 8395SOL    HW236648   2.786   1.242   9.069  0.7460 -1.6126  0.1501
 8396SOL     OW36649   1.557   3.921   4.713  0.0898 -0.9972  0.2009
 8396SOL    HW136650   1.540   3.951   4.624  1.4832 -0.3258  0.1546
 8396SOL    HW236651   1.653   3.918   4.708  0.1352  0.7890  0.0821
 8397SOL     OW36652   4.716   2.317   2.540 -0.0251 -0.0199  0.1727
 8397SOL    HW136653   0.011   2.362   2.621 -2.1405  0.1647  0.6293
 8397SOL    HW236654   4.698   2.388   2.477  0.0769  2.5816  3.0833
 8398SOL     OW36655   0.517   3.532   4.908 -0.2102 -0.6825 -0.6521
 8398SOL    HW136656   0.478   3.602   4.856  1.0274  0.1001 -0.5275
 8398SOL    HW236657   0.499   3.549   5.000  1.1656  2.0016 -0.8956
 8399SOL     OW36658   4.633   4.306   3.975 -0.2527  0.1552 -0.1340
 8399SOL    HW136659   4.669   4.248   3.909 -1.5387  1.6960 -2.1715
 8399SOL    HW236660   4.559   4.349   3.932  0.2253  0.3612 -0.7469
 8400SOL     OW36661   3.300   4.054   2.064  0.0697 -0.2706  0.0860
 8400SOL    HW136662   3.325   4.024   2.152 -1.3983  0.6511  0.8225
 8400SOL    HW236663   3.349   3.991   2.011 -0.7715 -0.7304 -0.1454
 8401SOL     OW36664   3.778   4.016   6.399  0.3149  0.1497 -0.6793
 8401SOL    HW136665   3.820   3.939   6.360  3.2712  1.2166  0.3435
 8401SOL    HW236666   3.790   3.998   6.493 -0.6181  0.0081 -0.5901
 8402SOL     OW36667   4.698   4.489   5.718  0.3130 -0.0889  0.4589
 8402SOL    HW136668   4.696   4.408   5.768 -1.1463  0.0691  0.6415
 8402SOL    HW236669   0.038   4.538   5.768 -0.8709  1.0920  0.8737
 8403SOL     OW36670   1.742   1.317   6.369 -0.1332 -0.2825 -0.6390
 8403SOL    HW136671   1.829   1.305   6.331  0.8918 -0.3891  1.7382
 8403SOL    HW236672   1.765   1.367   6.447 -0.1651  1.2202 -1.6022
 8404SOL     OW36673   0.593   2.472   7.330 -0.2516  0.5741  0.0034
 8404SOL    HW136674   0.627   2.383   7.330 -1.6852  0.0574 -1.6662
 8404SOL    HW236675   0.500   2.454   7.343  0.1810  0.5290  3.0807
 8405SOL     OW36676   3.120   3.110   0.622 -0.3469  0.1528 -0.2103
 8405SOL    HW136677   3.037   3.102   0.669  1.2439  0.6198  2.7209
 8405SOL    HW236678   3.101   3.196   0.584 -0.1932  0.7302  1.0027
 8406SOL     OW36679   1.348   4.206   2.662 -0.3326 -0.3528 -0.4301
 8406SOL    HW136680   1.413   4.139   2.687 -1.5184 -0.2900  2.7601
 8406SOL    HW236681   1.389   4.291   2.676  0.9904 -0.8578 -1.1349
 8407SOL     OW36682   3.101   0.691   4.172  0.2407 -0.1833  0.2525
 8407SOL    HW136683   3.085   0.607   4.129  1.6672 -0.0186 -0.6090
 8407SOL    HW236684   3.074   0.664   4.260  1.0656  0.3703  0.6663
 8408SOL     OW36685   3.879   1.140  13.707 -0.0404  0.6796  1.0285
 8408SOL    HW136686   3.924   1.219  13.678  1.6824  0.5666  3.3658
 8408SOL    HW236687   3.893   1.145  13.801  0.5988  0.8086  0.9227
 8409SOL     OW36688   1.977   1.821   0.798  0.1350  0.5827 -0.2632
 8409SOL    HW136689   1.955   1.728   0.809  0.5742  0.1938 -2.5710
 8409SOL    HW236690   2.026   1.820   0.715  0.3267 -3.0920 -0.1132
 8410SOL     OW36691   4.332   4.361  13.624 -0.2285 -0.7502 -0.0539
 8410SOL    HW136692   4.369   4.408  13.549  3.1061 -0.0780  2.0166
 8410SOL    HW236693   4.383   4.393  13.698 -2.2244  1.8270  0.2167
 8411SOL     OW36694   4.216   4.301   5.907  0.4664 -0.7102 -0.1325
 8411SOL    HW136695   4.137   4.342   5.871 -0.1623 -0.6035  1.3930
 8411SOL    HW236696   4.274   4.277   5.834 -0.3905  2.4703 -1.8964
 8412SOL     OW36697   1.130   3.695   3.255  0.1281 -0.4029 -0.1759
 8412SOL    HW136698   1.168   3.766   3.203 -4.5797  3.0294  1.1191
 8412SOL    HW236699   1.179   3.693   3.337 -1.3845  1.0194  0.7657
 8413SOL     OW36700   1.764   0.077   3.207  0.4415  0.1841  0.3245
 8413SOL    HW136701   1.850   0.048   3.239  1.1607  1.9073 -0.0270
 8413SOL    HW236702   1.726   0.116   3.286  0.1700 -2.5653  1.5244
 8414SOL     OW36703   2.385   3.780   4.834  0.2871 -0.9661 -0.3511
 8414SOL    HW136704   2.462   3.729   4.856  1.5743  1.6366  1.2569
 8414SOL    HW236705   2.322   3.709   4.850  2.2976 -2.6624  0.0188
 8415SOL     OW36706   1.630   4.564   5.221 -0.3751  0.5916 -0.2981
 8415SOL    HW136707   1.583   4.482   5.204  0.6286 -0.2309  0.9184
 8415SOL    HW236708   1.640   4.589   5.129 -1.3813  1.8133 -0.0609
 8416SOL     OW36709   4.053   3.706   5.548 -0.5333 -0.1264  0.0648
 8416SOL    HW136710   4.145   3.696   5.522 -0.3389  0.6608  0.4382
 8416SOL    HW236711   4.019   3.633   5.600  0.8635 -0.3507  0.6728
 8417SOL     OW36712   0.278   4.307   9.897  0.0128 -0.3686 -0.2806
 8417SOL    HW136713   0.321   4.289   9.813  0.1186  1.6820 -0.6516
 8417SOL    HW236714   0.354   4.336   9.947 -0.6333 -1.1801  1.1938
 8418SOL     OW36715   1.627   0.704   3.300  0.6491  0.1346 -0.1005
 8418SOL    HW136716   1.549   0.694   3.354 -0.2996  0.8791 -1.3260
 8418SOL    HW236717   1.640   0.798   3.305  1.7878  0.0677 -1.6752
 8419SOL     OW36718   0.361   1.766   7.221  0.0104  0.0151  0.5300
 8419SOL    HW136719   0.401   1.852   7.233 -0.6897  0.4192 -0.0534
 8419SOL    HW236720   0.302   1.758   7.297 -0.4327  0.1566  0.2036
 8420SOL     OW36721   1.362   3.446   8.796 -0.1211 -0.6432  0.6789
 8420SOL    HW136722   1.419   3.409   8.863  2.1896 -0.1474 -1.0170
 8420SOL    HW236723   1.421   3.450   8.721 -0.0648  1.2831  0.8405
 8421SOL     OW36724   2.891   3.535  14.419  0.4742 -0.3765 -0.0133
 8421SOL    HW136725   2.833   3.608  14.395  0.4593  0.1106  1.4876
 8421SOL    HW236726   2.837   3.488  14.482  0.0465 -0.0310 -0.1224
 8422SOL     OW36727   2.889   0.222   0.331 -0.0774  0.0343  0.3406
 8422SOL    HW136728   2.975   0.208   0.371 -0.0178 -1.0325 -0.1463
 8422SOL    HW236729   2.848   0.278   0.398 -0.6071 -1.4652  1.2699
 8423SOL     OW36730   2.049   0.863  14.647  0.2128  0.9882 -0.3466
 8423SOL    HW136731   2.042   0.924  14.720  2.2630  0.7653  0.0338
 8423SOL    HW236732   2.023   0.921  14.575  0.3109 -1.9213 -2.7534
 8424SOL     OW36733   3.355   1.365   3.650 -0.4439 -0.4695  0.1467
 8424SOL    HW136734   3.428   1.348   3.590 -0.7219 -0.1814 -0.2715
 8424SOL    HW236735   3.346   1.456   3.624 -0.7295 -0.2107  1.1861
 8425SOL     OW36736   2.268   4.242  15.811  0.2364 -0.1382 -0.4481
 8425SOL    HW136737   2.272   4.286  15.726 -0.9784 -0.6057 -0.7437
 8425SOL    HW236738   2.307   4.158  15.787 -0.8865 -1.3592  1.9962
 8426SOL     OW36739   4.267   3.815  11.226 -0.4625 -0.7196  0.4478
 8426SOL    HW136740   4.216   3.850  11.299  1.4564  1.8958  0.5577
 8426SOL    HW236741   4.192   3.791  11.173  0.1812  0.2910 -0.8969
 8427SOL     OW36742   2.836   3.491   3.158 -0.0007  0.5109  0.1218
 8427SOL    HW136743   2.780   3.523   3.087  1.8569  1.6231 -0.8228
 8427SOL    HW236744   2.871   3.404   3.141 -0.7513 -0.1053  1.7185
 8428SOL     OW36745   3.619   0.419   6.208 -0.0496  0.4779  0.0539
 8428SOL    HW136746   3.560   0.377   6.271 -0.6917 -1.3183 -1.7440
 8428SOL    HW236747   3.625   0.511   6.232  1.3564  0.2584  0.5579
 8429SOL     OW36748   0.494   2.857  13.973 -0.1269 -0.2459 -0.6311
 8429SOL    HW136749   0.532   2.769  13.970  2.1749  0.7065  0.4499
 8429SOL    HW236750   0.476   2.871  14.066  0.8693  1.1662 -0.6426
 8430SOL     OW36751   4.498   1.535   3.843  0.3681 -0.1614  0.4115
 8430SOL    HW136752   4.472   1.610   3.790 -2.6684 -0.6819  1.1848
 8430SOL    HW236753   4.422   1.547   3.899 -0.2822  4.3198 -1.4604
 8431SOL     OW36754   3.644   0.228  12.145  0.2142 -0.3177  0.5746
 8431SOL    HW136755   3.693   0.203  12.067 -0.0301  0.8014  0.0596
 8431SOL    HW236756   3.565   0.270  12.110  1.2630  0.7801 -0.4511
 8432SOL     OW36757   0.398   3.891  15.664  0.0188  0.0808 -0.2448
 8432SOL    HW136758   0.302   3.892  15.666  0.0325  0.8444  0.0979
 8432SOL    HW236759   0.428   3.978  15.693 -0.5368 -0.3550  1.6503
 8433SOL     OW36760   1.901   2.379   0.798  0.4706  0.6205 -0.4264
 8433SOL    HW136761   1.979   2.433   0.787 -0.5789  2.1259 -0.4369
 8433SOL    HW236762   1.857   2.437   0.860 -1.4526 -0.0971 -1.1257
 8434SOL     OW36763   2.331   2.270   0.449  0.1279  0.1349 -0.1129
 8434SOL    HW136764   2.378   2.226   0.520  0.5360  1.1609  0.2440
 8434SOL    HW236765   2.319   2.205   0.380  3.3348  0.6621 -1.1957
 8435SOL     OW36766   2.409   1.420   7.780 -0.0953 -0.2364  0.5738
 8435SOL    HW136767   2.353   1.418   7.857  0.0604  1.2137  0.7198
 8435SOL    HW236768   2.370   1.354   7.722  1.3409 -2.2962  1.9485
 8436SOL     OW36769   0.845   0.206   6.754 -0.2179  0.3612 -0.6821
 8436SOL    HW136770   0.861   0.267   6.683  0.4149  2.4713  1.3034
 8436SOL    HW236771   0.864   0.264   6.827 -1.9159  1.8110 -1.3807
 8437SOL     OW36772   2.275   0.469  13.071  0.2246  0.0492 -0.1329
 8437SOL    HW136773   2.186   0.468  13.038 -0.3230  0.9665  1.3023
 8437SOL    HW236774   2.306   0.549  13.030 -0.6266  1.7687  2.5952
 8438SOL     OW36775   2.460   2.786  13.059 -0.1210 -0.7569 -0.1765
 8438SOL    HW136776   2.442   2.793  12.965 -1.3739 -1.4071  0.0154
 8438SOL    HW236777   2.551   2.758  13.051 -0.0948 -0.9891  0.8843
 8439SOL     OW36778   0.583   3.212   3.274  0.1789  0.0621 -0.0687
 8439SOL    HW136779   0.636   3.274   3.325  0.9062 -2.1178  1.8201
 8439SOL    HW236780   0.605   3.130   3.317 -0.7585 -1.0960 -1.8425
 8440SOL     OW36781   3.173   2.701   6.087 -0.1912 -0.3092  0.9116
 8440SOL    HW136782   3.157   2.631   6.150  0.7534 -0.7981  0.6151
 8440SOL    HW236783   3.268   2.694   6.075  0.2739  2.5079  2.8289
 8441SOL     OW36784   0.993   1.135   6.757 -0.2039 -0.1764  0.4272
 8441SOL    HW136785   1.038   1.052   6.742  1.4719  0.7962  0.0219
 8441SOL    HW236786   0.946   1.146   6.674 -1.2154  3.0121  1.4368
 8442SOL     OW36787   3.523   2.810   9.347 -0.1762  0.8361  0.0239
 8442SOL    HW136788   3.551   2.892   9.308  1.2046 -0.3554 -1.4482
 8442SOL    HW236789   3.607   2.767   9.357 -0.4183  0.6814  1.4442
 8443SOL     OW36790   1.407   0.680   2.068  0.1767 -0.3243 -0.4606
 8443SOL    HW136791   1.440   0.751   2.014 -0.7445  1.0161  0.7416
 8443SOL    HW236792   1.318   0.710   2.082 -0.3221 -1.6750 -0.7152
 8444SOL     OW36793   3.301   2.885   4.630  0.0195  0.5020 -0.2736
 8444SOL    HW136794   3.266   2.797   4.646 -0.4643  0.9660  1.1979
 8444SOL    HW236795   3.350   2.886   4.548 -0.2293 -1.7415 -0.4511
 8445SOL     OW36796   0.236   1.435   6.248 -0.6346 -0.1796  0.3593
 8445SOL    HW136797   0.257   1.509   6.305  3.7983  0.0894 -1.6216
 8445SOL    HW236798   0.223   1.477   6.163 -1.0732  1.2185  1.1183
 8446SOL     OW36799   2.064   3.609   6.320 -0.0883  0.2342 -0.3111
 8446SOL    HW136800   2.134   3.664   6.285  2.1081 -2.9642 -0.8509
 8446SOL    HW236801   2.055   3.629   6.413 -0.8797 -0.9606 -0.1347
 8447SOL     OW36802   0.124   1.428  14.985  0.0770  0.5384  0.4459
 8447SOL    HW136803   0.068   1.503  14.964  0.1653  0.5395  0.2129
 8447SOL    HW236804   0.201   1.473  15.020  1.9639 -0.5648 -2.3185
 8448SOL     OW36805   2.212   3.804  16.360  0.0797  1.1264  0.0151
 8448SOL    HW136806   2.277   3.841  16.419  1.8081  0.9032 -1.7717
 8448SOL    HW236807   2.159   3.874  16.321  1.6631  3.0308  1.2946
 8449SOL     OW36808   1.964   2.281   6.231 -0.6017 -0.2754  0.2768
 8449SOL    HW136809   1.947   2.187   6.232  2.0963 -0.7736 -0.2404
 8449SOL    HW236810   1.900   2.309   6.165 -0.0125  0.9923  0.2379
 8450SOL     OW36811   3.104   3.551   3.883  0.7528 -0.7131  0.4016
 8450SOL    HW136812   3.090   3.576   3.975  0.8793  1.8349 -0.2886
 8450SOL    HW236813   3.190   3.586   3.862  0.5166  0.6694  1.6885
 8451SOL     OW36814   3.675   1.280   3.051 -0.4193 -0.0198  0.4155
 8451SOL    HW136815   3.637   1.195   3.075  0.5515 -0.0576  1.7546
 8451SOL    HW236816   3.763   1.265   3.084 -0.1418  2.1986  0.6554
 8452SOL     OW36817   1.851   4.464   0.721  0.7326 -0.0070  0.0732
 8452SOL    HW136818   1.839   4.395   0.655 -1.0781  0.3646  0.0145
 8452SOL    HW236819   1.904   4.527   0.673 -1.9360  2.2628  0.1768
 8453SOL     OW36820   3.542   1.921   7.297  0.0524 -0.4628 -0.0648
 8453SOL    HW136821   3.518   1.934   7.205 -0.9209 -0.6199  0.1702
 8453SOL    HW236822   3.585   1.837   7.312  0.5614 -0.1824  0.0427
 8454SOL     OW36823   1.952   4.403   3.101  0.5044 -0.3842  0.1393
 8454SOL    HW136824   1.965   4.449   3.018 -1.0999  0.0921  0.1479
 8454SOL    HW236825   1.923   4.318   3.069 -0.7225  0.1909 -0.2960
 8455SOL     OW36826   2.082   3.926  15.083 -0.3559 -0.3336  0.3426
 8455SOL    HW136827   2.014   3.963  15.025  0.4791 -0.7177 -0.8774
 8455SOL    HW236828   2.109   3.851  15.030 -1.2422  0.2138 -0.8959
 8456SOL     OW36829   3.562   3.438   1.337 -0.1515  0.0380 -0.2224
 8456SOL    HW136830   3.524   3.365   1.287 -1.9292  0.3398  0.7021
 8456SOL    HW236831   3.493   3.454   1.401 -0.8183  1.2488 -1.2477
 8457SOL     OW36832   0.871   3.625   3.986 -0.2361 -0.2169 -0.4616
 8457SOL    HW136833   0.939   3.577   3.939 -0.5159  0.0915 -1.1928
 8457SOL    HW236834   0.875   3.582   4.071 -0.7493  2.3682  0.8950
 8458SOL     OW36835   1.721   1.940   2.668  0.0474  0.0230 -0.4331
 8458SOL    HW136836   1.810   1.927   2.633  0.7072  2.4738  0.3569
 8458SOL    HW236837   1.741   1.990   2.747 -0.4203 -0.5240  0.0293
 8459SOL     OW36838   3.456   4.454   3.313  0.2020 -0.0094  0.2305
 8459SOL    HW136839   3.392   4.394   3.274  1.0394  0.6867 -2.1982
 8459SOL    HW236840   3.517   4.478   3.243 -1.6553  0.7473 -1.1445
 8460SOL     OW36841   4.105   0.692  10.091  1.0710  0.1806 -0.2227
 8460SOL    HW136842   4.080   0.606  10.126 -0.7237  0.8422  0.1200
 8460SOL    HW236843   4.018   0.729  10.104  0.5314 -0.7337 -1.1647
 8461SOL     OW36844   1.962   1.328   8.822  0.4239  0.0551  0.3390
 8461SOL    HW136845   2.052   1.358   8.838  1.1842 -1.1922 -1.6101
 8461SOL    HW236846   1.915   1.410   8.837  0.8484  0.1557  1.1598
 8462SOL     OW36847   0.635   4.418   9.517 -0.2653  0.2762  0.4369
 8462SOL    HW136848   0.577   4.351   9.552 -0.1737  0.3243  0.6846
 8462SOL    HW236849   0.578   4.453   9.449  0.9892 -0.7056 -1.1150
 8463SOL     OW36850   3.798   1.785   8.409 -0.0742 -0.5870  0.4123
 8463SOL    HW136851   3.746   1.862   8.384 -3.2857 -2.2612  1.9356
 8463SOL    HW236852   3.879   1.809   8.364 -0.8988  0.4324 -0.5229
 8464SOL     OW36853   0.322   2.095   1.621 -0.7043  0.2908  0.2937
 8464SOL    HW136854   0.256   2.036   1.583  0.2890 -1.1538  0.7809
 8464SOL    HW236855   0.275   2.178   1.618 -1.0081  0.1391  0.7096
 8465SOL     OW36856   2.681   3.877   3.186  0.0802  0.1037  0.2677
 8465SOL    HW136857   2.596   3.921   3.194  1.3846  2.5100  0.8248
 8465SOL    HW236858   2.672   3.854   3.094  0.6919  2.2149 -0.3252
 8466SOL     OW36859   3.153   2.763   5.812  0.1488 -0.1290 -0.6419
 8466SOL    HW136860   3.160   2.736   5.903 -0.6932  1.6846 -0.0477
 8466SOL    HW236861   3.203   2.687   5.780  0.1816  1.3586 -4.1500
 8467SOL     OW36862   1.653   3.802  10.053 -0.1837  0.2990  0.0921
 8467SOL    HW136863   1.599   3.880  10.041  1.3537  1.6077  1.8045
 8467SOL    HW236864   1.736   3.831  10.015 -0.3047 -2.2514 -2.1424
 8468SOL     OW36865   0.741   1.778   6.585  0.5995 -0.1718 -0.6451
 8468SOL    HW136866   0.690   1.718   6.531  2.1555  0.3179 -2.6716
 8468SOL    HW236867   0.773   1.837   6.517  0.5422  1.4325  0.7158
 8469SOL     OW36868   4.113   2.036  14.320  0.1550  0.5404  0.2281
 8469SOL    HW136869   4.108   1.946  14.352 -0.9755  0.2933 -0.6329
 8469SOL    HW236870   4.044   2.069  14.378  2.1984  1.4665  2.1404
 8470SOL     OW36871   3.560   3.196   4.242  0.8974 -0.3469  0.0712
 8470SOL    HW136872   3.543   3.187   4.148  0.1755  0.0930  0.1664
 8470SOL    HW236873   3.487   3.139   4.266 -0.3224  1.3677  0.3786
 8471SOL     OW36874   3.349   2.354  15.352 -0.5223 -0.1027  0.2039
 8471SOL    HW136875   3.259   2.334  15.379 -1.8380  3.8152 -1.2607
 8471SOL    HW236876   3.336   2.386  15.263  0.7448 -0.7524 -0.2093
 8472SOL     OW36877   4.710   4.637   0.953 -0.3770 -0.3882  0.0390
 8472SOL    HW136878   0.077   4.617   0.952 -0.1756  0.6824 -3.5833
 8472SOL    HW236879   4.723   0.005   0.942  0.9445 -0.3916  1.5776
 8473SOL     OW36880   0.759   3.035  13.588 -0.2235 -0.2370  0.0164
 8473SOL    HW136881   0.783   2.949  13.623  2.8662 -0.3843 -2.4238
 8473SOL    HW236882   0.729   3.065  13.674  1.2157  1.4747 -0.0743
 8474SOL     OW36883   2.917   3.249   8.972 -0.6012  0.0203 -0.1065
 8474SOL    HW136884   2.966   3.199   8.906 -0.8011 -1.0727  0.5913
 8474SOL    HW236885   2.986   3.288   9.025  0.6726 -1.5444 -0.6058
 8475SOL     OW36886   3.080   2.481   8.426 -0.7002 -0.2053 -0.7511
 8475SOL    HW136887   3.032   2.499   8.507 -4.3433  1.3520 -3.2475
 8475SOL    HW236888   3.022   2.428   8.371 -0.6806 -0.5037 -0.4883
 8476SOL     OW36889   4.539   4.343   3.443  0.0822  0.2348  0.3015
 8476SOL    HW136890   4.565   4.279   3.509 -1.5011 -0.1167  0.5946
 8476SOL    HW236891   4.455   4.310   3.411  0.8680 -2.5103  1.0287
 8477SOL     OW36892   2.168   4.346   5.250 -0.4461  0.1771  0.4145
 8477SOL    HW136893   2.211   4.260   5.256 -0.3816  0.1432 -0.6392
 8477SOL    HW236894   2.104   4.339   5.179  1.6798  2.0652 -1.6588
 8478SOL     OW36895   1.069   0.189   2.759 -0.4753 -0.2506 -0.0745
 8478SOL    HW136896   1.000   0.124   2.769 -0.6206 -0.4911 -2.7158
 8478SOL    HW236897   1.019   0.270   2.745  0.1479  0.5192  2.0320
 8479SOL     OW36898   4.635   2.668   8.806  0.0413 -0.3228 -0.2728
 8479SOL    HW136899   4.586   2.688   8.886 -0.5514  0.3594 -0.8131
 8479SOL    HW236900   4.692   2.746   8.800 -1.2337  0.8083  2.2398
 8480SOL     OW36901   1.711   0.758  11.431  0.5369 -0.0342 -0.4791
 8480SOL    HW136902   1.716   0.662  11.434 -1.5290 -0.1081  0.4026
 8480SOL    HW236903   1.734   0.779  11.522 -0.6731  2.9205 -0.8564
 8481SOL     OW36904   4.214   2.110   3.876 -0.1164  0.1439 -0.1586
 8481SOL    HW136905   4.125   2.096   3.910 -0.2860 -0.2431 -0.7643
 8481SOL    HW236906   4.198   2.179   3.812 -0.8598  0.7393  0.6615
 8482SOL     OW36907   2.097   2.316   4.897 -0.3739 -0.6507  0.1586
 8482SOL    HW136908   2.171   2.375   4.885  0.1117 -2.1456 -4.2488
 8482SOL    HW236909   2.028   2.382   4.907 -1.0997 -1.1135 -1.7550
 8483SOL     OW36910   1.216   0.891  12.693 -0.1352  0.6086 -0.1868
 8483SOL    HW136911   1.271   0.894  12.615 -0.5410 -1.2077 -0.5311
 8483SOL    HW236912   1.283   0.900  12.761  1.9040 -1.1768 -1.9663
 8484SOL     OW36913   4.248   0.059   7.321 -0.1316  0.0470  0.5138
 8484SOL    HW136914   4.155   0.080   7.331 -0.5689 -1.9243  0.5289
 8484SOL    HW236915   4.267   0.020   7.406 -1.1523 -3.3564 -0.7973
 8485SOL     OW36916   1.575   2.570   8.601 -0.5587 -0.4130 -0.7250
 8485SOL    HW136917   1.528   2.645   8.638  0.2896 -0.0766 -0.3264
 8485SOL    HW236918   1.504   2.525   8.554 -3.0097  0.2543  2.3281
 8486SOL     OW36919   0.879   3.048   0.206 -0.3654  0.2573 -0.0983
 8486SOL    HW136920   0.876   3.143   0.202 -1.1205  0.2193 -0.4540
 8486SOL    HW236921   0.948   3.026   0.144  0.4185  1.6148  0.3088
 8487SOL     OW36922   1.148   0.963   4.663  0.3692 -0.0261  0.5938
 8487SOL    HW136923   1.133   0.971   4.569  1.4239 -0.1582  0.4191
 8487SOL    HW236924   1.238   0.996   4.667  0.5352 -0.7105  2.5457
 8488SOL     OW36925   0.911   1.931   7.669 -0.2602 -0.0371 -0.4986
 8488SOL    HW136926   0.901   2.016   7.626  0.3252 -1.0014 -2.5679
 8488SOL    HW236927   0.991   1.952   7.718  0.8861  0.0446 -2.3802
 8489SOL     OW36928   3.173   4.362   7.036  0.3661 -0.0864 -0.5571
 8489SOL    HW136929   3.118   4.437   7.015 -0.2285  0.0463  1.4302
 8489SOL    HW236930   3.256   4.401   7.007 -0.1732  1.3632 -0.1601
 8490SOL     OW36931   1.002   3.347   5.699 -0.7457  0.0799  0.4689
 8490SOL    HW136932   1.077   3.345   5.758  0.1369 -0.4120 -0.6580
 8490SOL    HW236933   0.986   3.441   5.696  1.0343  0.3674 -0.3936
 8491SOL     OW36934   1.172   3.753   7.695 -0.2861  0.1231  0.1499
 8491SOL    HW136935   1.081   3.724   7.695  0.2476 -1.5627 -0.2866
 8491SOL    HW236936   1.171   3.811   7.771 -1.3139  2.3954 -1.5985
 8492SOL     OW36937   1.236   3.126   5.498  0.4905  0.2709  0.3144
 8492SOL    HW136938   1.281   3.095   5.576 -1.3160 -2.8548  0.1235
 8492SOL    HW236939   1.292   3.086   5.432  0.0293 -1.0061  0.6888
 8493SOL     OW36940   3.423   2.450  17.509 -0.1592  0.4109 -0.4447
 8493SOL    HW136941   3.414   2.539  17.540  1.3080  0.3624  0.1274
 8493SOL    HW236942   3.389   2.464  17.420  0.5420  2.2669 -0.4118
 8494SOL     OW36943   3.416   1.269   8.504 -0.1929 -0.1202 -0.0475
 8494SOL    HW136944   3.434   1.176   8.489 -1.5420 -0.1627 -1.4650
 8494SOL    HW236945   3.411   1.284   8.598  1.6911 -1.6046  0.2815
 8495SOL     OW36946   3.692   2.057   1.612 -0.0489  0.2366 -0.0101
 8495SOL    HW136947   3.730   2.141   1.636  1.0014 -0.2616  0.0968
 8495SOL    HW236948   3.625   2.084   1.550  1.4286  1.3306 -1.1229
 8496SOL     OW36949   1.608   2.944   3.632 -0.3911  0.0980  0.0334
 8496SOL    HW136950   1.626   2.862   3.678  0.1524  0.1733 -0.0354
 8496SOL    HW236951   1.515   2.933   3.614  0.1035 -0.9816 -1.9341
 8497SOL     OW36952   2.441   4.263   8.236  1.0960  0.5885 -0.3822
 8497SOL    HW136953   2.430   4.358   8.225 -0.7176  0.4525  0.3770
 8497SOL    HW236954   2.392   4.235   8.159  1.4280 -0.7460 -0.1088
 8498SOL     OW36955   1.529   2.140  15.585 -0.8919 -0.0331  0.4155
 8498SOL    HW136956   1.604   2.099  15.627 -0.4858  1.1282  0.8247
 8498SOL    HW236957   1.459   2.075  15.573 -1.1483  0.7646 -2.3615
 8499SOL     OW36958   3.139   4.560   2.578  0.0898 -0.1331  0.6882
 8499SOL    HW136959   3.051   4.598   2.581 -0.9435 -2.4313 -0.8603
 8499SOL    HW236960   3.113   4.471   2.599  1.2924 -0.5520  0.4320
 8500SOL     OW36961   2.977   1.474   5.937 -0.2730 -0.5397  1.2303
 8500SOL    HW136962   3.053   1.502   5.989  1.4518 -1.4848 -0.7427
 8500SOL    HW236963   3.019   1.477   5.851 -0.1091 -0.8533  1.2975
 8501SOL     OW36964   3.952   3.015   4.100 -0.5076  0.0026 -1.3006
 8501SOL    HW136965   3.977   3.090   4.153  1.6690 -0.6370 -1.4148
 8501SOL    HW236966   3.899   3.063   4.036  0.2306  1.6544 -0.6596
 8502SOL     OW36967   0.588   4.677   6.229 -0.2604 -0.0549 -0.1468
 8502SOL    HW136968   0.615   4.615   6.297  1.8009  0.7351 -0.2435
 8502SOL    HW236969   0.614   4.625   6.153 -0.6338  0.6910 -0.7919
 8503SOL     OW36970   3.028   4.010   2.668 -0.2846 -1.1502  0.4245
 8503SOL    HW136971   2.937   3.983   2.658 -0.8450 -0.0327  2.4086
 8503SOL    HW236972   3.070   3.976   2.590  0.4922  1.2244 -0.2031
 8504SOL     OW36973   2.826   1.761   8.585 -0.2698  0.0525  0.7462
 8504SOL    HW136974   2.731   1.774   8.590 -0.0885  1.4242  0.3952
 8504SOL    HW236975   2.817   1.691   8.520 -2.5046  0.3865  0.7141
 8505SOL     OW36976   2.821   3.876   9.003  0.7559 -0.1265  0.4329
 8505SOL    HW136977   2.788   3.933   8.933  2.8959  0.3957 -0.1723
 8505SOL    HW236978   2.743   3.839   9.042 -0.3307  1.1510 -0.5146
 8506SOL     OW36979   0.296   1.160   8.227 -0.6349  0.2626  0.0324
 8506SOL    HW136980   0.261   1.105   8.298 -1.0853  1.1342  0.4833
 8506SOL    HW236981   0.365   1.106   8.189 -0.1075  0.6229  0.4765
 8507SOL     OW36982   0.551   0.539  11.233  0.1138  0.3064 -0.4663
 8507SOL    HW136983   0.607   0.576  11.165 -0.1317  1.2534 -0.1574
 8507SOL    HW236984   0.500   0.620  11.237  1.5149  1.0108  3.3187
 8508SOL     OW36985   0.135   0.668  17.268  0.1496  0.6200  0.3634
 8508SOL    HW136986   0.128   0.652  17.174 -1.2098 -1.5184  0.8281
 8508SOL    HW236987   0.207   0.731  17.264  1.5328 -1.0330 -1.5089
 8509SOL     OW36988   3.453   4.169  13.673  0.1141 -0.1272 -0.0831
 8509SOL    HW136989   3.444   4.263  13.690 -1.5796 -0.3457  0.2753
 8509SOL    HW236990   3.420   4.135  13.756  0.5067  1.7687  0.8415
 8510SOL     OW36991   4.039   3.953   5.655  1.1008  0.4552 -0.5191
 8510SOL    HW136992   4.007   3.921   5.739 -1.4025 -1.2732 -2.1102
 8510SOL    HW236993   4.056   3.875   5.603 -0.5177  0.9946 -1.8632
 8511SOL     OW36994   3.246   4.177   4.499 -0.4454  0.0926 -0.0064
 8511SOL    HW136995   3.308   4.238   4.460 -0.3756 -0.5815 -0.9421
 8511SOL    HW236996   3.183   4.161   4.429  0.8146 -0.1859 -1.0561
 8512SOL     OW36997   4.101   4.223   7.576  0.3308 -0.4528 -0.0656
 8512SOL    HW136998   4.037   4.226   7.505 -1.2511 -1.1440  1.3273
 8512SOL    HW236999   4.040   4.222   7.649 -1.2300  1.0428 -1.3457
 8513SOL     OW37000   1.219   0.575   5.940 -0.3209  0.4041 -0.0185
 8513SOL    HW137001   1.248   0.486   5.963 -3.1344 -0.4115  0.4864
 8513SOL    HW237002   1.180   0.562   5.853 -0.7386  2.4428 -0.1378
 8514SOL     OW37003   2.610   0.600  16.960 -0.0662 -0.5127  0.1848
 8514SOL    HW137004   2.533   0.630  17.007 -0.0979 -1.9298  1.0358
 8514SOL    HW237005   2.576   0.587  16.871  2.2459 -0.0616 -0.7491
 8515SOL     OW37006   3.247   3.009   5.736 -0.6254  0.1276 -0.5278
 8515SOL    HW137007   3.298   3.030   5.814 -2.5010 -1.5230  1.1500
 8515SOL    HW237008   3.189   2.939   5.767  0.0438  0.0344  0.5149
 8516SOL     OW37009   2.747   1.664   4.657  0.1173 -0.5157 -0.4425
 8516SOL    HW137010   2.795   1.638   4.578 -2.0470  1.2867 -2.3291
 8516SOL    HW237011   2.669   1.610   4.645 -0.8996  0.9023 -0.2085
 8517SOL     OW37012   2.784   0.103   3.489 -0.2186  0.2792 -0.3764
 8517SOL    HW137013   2.706   0.148   3.521 -1.0359  0.1045 -2.0981
 8517SOL    HW237014   2.783   0.131   3.398 -2.4634 -0.0494 -0.4619
 8518SOL     OW37015   0.756   1.437   9.862 -0.3224 -0.1980  0.4136
 8518SOL    HW137016   0.716   1.405   9.943 -1.8287 -1.5689 -0.8828
 8518SOL    HW237017   0.838   1.388   9.861  0.0602  0.4386  0.2076
 8519SOL     OW37018   3.071   2.974   1.714  0.0402  0.0557  0.0475
 8519SOL    HW137019   3.079   3.025   1.794 -1.7640  0.3724  0.0241
 8519SOL    HW237020   2.977   2.988   1.704 -0.4427 -1.4708  2.4345
 8520SOL     OW37021   0.983   1.772  13.839  0.0574 -1.0733 -0.0449
 8520SOL    HW137022   0.919   1.834  13.875  1.3943 -1.0258  2.2583
 8520SOL    HW237023   0.949   1.763  13.750 -1.8916  0.3793  0.5570
 8521SOL     OW37024   4.159   1.643   2.653 -0.4307  0.3680  0.7640
 8521SOL    HW137025   4.171   1.607   2.564  0.8347  1.1236  0.6354
 8521SOL    HW237026   4.085   1.592   2.685 -1.5210  0.6786 -1.2575
 8522SOL     OW37027   0.291   0.249   5.524 -0.2450  0.0085 -0.2013
 8522SOL    HW137028   0.253   0.276   5.607  2.2718 -0.8312  1.2013
 8522SOL    HW237029   0.322   0.335   5.496 -0.0348 -0.1210 -0.3688
 8523SOL     OW37030   2.919   4.386   6.535  0.2162 -0.9441 -0.8051
 8523SOL    HW137031   2.944   4.437   6.458 -0.2627 -0.9481 -0.9612
 8523SOL    HW237032   2.827   4.404   6.555  0.5771  0.7299 -0.6543
 8524SOL     OW37033   0.214   3.960   0.935  0.0752 -0.7297  0.2262
 8524SOL    HW137034   0.308   3.944   0.927  0.6204  1.6024  1.8310
 8524SOL    HW237035   0.197   3.908   1.013  0.1080  1.0686  1.4306
 8525SOL     OW37036   0.305   4.054  11.086  0.0239  0.2768  0.0818
 8525SOL    HW137037   0.337   4.024  11.001  1.1259  1.1654  0.1763
 8525SOL    HW237038   0.302   4.148  11.068  2.1593  0.5615  1.1434
 8526SOL     OW37039   3.214   0.347   2.397 -0.1273 -0.2947 -0.0688
 8526SOL    HW137040   3.121   0.327   2.394  0.0942 -1.4243  0.6846
 8526SOL    HW237041   3.233   0.334   2.304  3.4401  0.8115  0.5057
 8527SOL     OW37042   3.594   4.155  16.063 -0.1483 -0.1488 -0.4323
 8527SOL    HW137043   3.558   4.069  16.084  2.0933 -1.2779 -1.2039
 8527SOL    HW237044   3.610   4.148  15.969 -1.1045  1.7714 -0.7371
 8528SOL     OW37045   1.190   3.509   5.139  0.1320 -0.2108 -0.0265
 8528SOL    HW137046   1.184   3.424   5.097  2.5776 -0.2147 -0.3956
 8528SOL    HW237047   1.098   3.536   5.135  0.4968  0.8133 -1.4481
 8529SOL     OW37048   0.736   4.524   3.334 -0.1277  0.6709 -0.3308
 8529SOL    HW137049   0.738   4.495   3.426 -0.2036  1.8032  0.0245
 8529SOL    HW237050   0.777   4.452   3.286 -2.3456 -0.5156 -0.4758
 8530SOL     OW37051   4.020   1.548  15.181 -0.0565  0.3130 -0.0965
 8530SOL    HW137052   3.956   1.496  15.133  0.2395 -0.0297 -0.1156
 8530SOL    HW237053   4.048   1.491  15.253  0.9821 -1.5857 -2.0008
 8531SOL     OW37054   3.402   4.443   6.453  0.5562  0.6400  0.2809
 8531SOL    HW137055   3.489   4.417   6.483  0.8177  0.4521 -0.6308
 8531SOL    HW237056   3.394   4.398   6.368  0.6923  0.4309  0.3786
 8532SOL     OW37057   1.285   1.462   7.967  0.6355  0.2855 -0.7091
 8532SOL    HW137058   1.358   1.422   7.920  0.7121 -1.6997  1.1018
 8532SOL    HW237059   1.328   1.491   8.048 -0.5476  0.3522 -0.1058
 8533SOL     OW37060   0.210   2.391  11.915 -0.3791  0.8715  0.2229
 8533SOL    HW137061   0.294   2.350  11.895 -1.8280 -1.7574 -0.6396
 8533SOL    HW237062   0.167   2.391  11.829  0.3464 -2.3810 -0.1513
 8534SOL     OW37063   0.965   2.432   4.270  0.0092  0.5611  0.1193
 8534SOL    HW137064   0.916   2.383   4.336  0.7231  1.6029  1.4265
 8534SOL    HW237065   1.038   2.460   4.326  1.0462 -2.1841  0.1701
 8535SOL     OW37066   1.636   3.035  14.667 -0.5171  0.1766  0.9377
 8535SOL    HW137067   1.553   3.002  14.700 -1.4005  0.5235 -0.9383
 8535SOL    HW237068   1.645   3.118  14.714  2.0105  1.0042 -0.9670
 8536SOL     OW37069   1.201   4.164  14.448 -0.1358 -0.1514  0.2630
 8536SOL    HW137070   1.235   4.117  14.371 -0.5032  1.8240 -1.1088
 8536SOL    HW237071   1.122   4.112  14.458 -1.1819  1.3747 -0.1617
 8537SOL     OW37072   0.986   0.474   4.982 -0.1449  0.8331  0.5954
 8537SOL    HW137073   1.000   0.566   5.004  0.1751  0.4651  1.9416
 8537SOL    HW237074   1.074   0.446   4.958 -0.0769  1.8488 -0.3356
 8538SOL     OW37075   0.934   0.154  13.161 -0.1289  0.4056 -0.4374
 8538SOL    HW137076   0.972   0.105  13.234 -0.8071  0.4505 -0.0539
 8538SOL    HW237077   0.979   0.110  13.088 -3.4706  0.2177 -2.3741
 8539SOL     OW37078   1.105   1.660   3.416 -0.4710 -0.0641  0.3237
 8539SOL    HW137079   1.084   1.753   3.407 -3.3254 -0.9123 -1.9529
 8539SOL    HW237080   1.018   1.622   3.425 -0.5586  0.4940  1.8107
 8540SOL     OW37081   2.850   2.942  14.199 -0.2211 -0.4217 -0.3961
 8540SOL    HW137082   2.765   2.984  14.183  0.5934  2.0583  1.8660
 8540SOL    HW237083   2.836   2.863  14.147 -2.4868  1.2662 -2.3349
 8541SOL     OW37084   0.973   3.147   5.513 -0.2443 -0.3541 -0.5860
 8541SOL    HW137085   0.969   3.221   5.574 -2.4875 -0.5255 -0.5137
 8541SOL    HW237086   1.065   3.131   5.492 -0.5993 -2.6446 -0.3729
 8542SOL     OW37087   2.922   0.914   7.215  0.1462 -0.3260  0.0402
 8542SOL    HW137088   2.947   0.822   7.206  0.8848  0.1288 -2.5270
 8542SOL    HW237089   2.898   0.944   7.127 -0.0203 -4.0488 -1.1663
 8543SOL     OW37090   0.573   4.637  12.930 -0.1487 -0.3739 -0.2249
 8543SOL    HW137091   0.482   4.627  12.955 -0.0805  1.3572  0.7206
 8543SOL    HW237092   0.564   4.601  12.842 -2.5717 -0.2179 -0.0351
 8544SOL     OW37093   4.017   2.539   8.976 -0.0345 -0.2840 -0.2068
 8544SOL    HW137094   4.001   2.445   8.970 -0.8792 -0.1384 -0.2325
 8544SOL    HW237095   3.979   2.562   9.061 -3.4668 -0.0120 -1.7911
 8545SOL     OW37096   0.327   0.516  12.001 -0.5310  0.1861  0.0020
 8545SOL    HW137097   0.390   0.546  11.935 -0.2775 -0.8541 -0.2175
 8545SOL    HW237098   0.263   0.467  11.951 -0.3162 -0.2671  0.1708
 8546SOL     OW37099   2.669   3.337   2.730  0.3231 -0.6951  0.0560
 8546SOL    HW137100   2.575   3.322   2.738  0.2483  0.8179  1.9458
 8546SOL    HW237101   2.701   3.278   2.798 -1.1691  0.0025  1.3747
 8547SOL     OW37102   0.888   4.073   6.420 -0.9371 -0.3030 -0.1821
 8547SOL    HW137103   0.884   3.993   6.473 -1.3825  0.0475  0.3178
 8547SOL    HW237104   0.800   4.107   6.439 -1.1618 -0.0054 -1.7839
 8548SOL     OW37105   2.872   1.539   6.756 -0.3551 -0.2372  0.8073
 8548SOL    HW137106   2.853   1.625   6.795 -1.3564 -1.0301  2.0409
 8548SOL    HW237107   2.956   1.554   6.712  0.3016 -0.6214  1.9520
 8549SOL     OW37108   2.172   1.307  10.492 -0.2457 -0.4739  0.6045
 8549SOL    HW137109   2.111   1.375  10.464 -2.0642 -2.7171 -0.9429
 8549SOL    HW237110   2.251   1.331  10.444 -0.1020  1.4140  1.8066
 8550SOL     OW37111   0.909   2.826   7.976 -0.7568 -0.2355 -0.4065
 8550SOL    HW137112   0.814   2.829   7.987 -0.9157 -1.4883 -1.3228
 8550SOL    HW237113   0.932   2.835   7.884 -0.4766  1.4663 -0.1538
 8551SOL     OW37114   0.084   3.005   7.124 -0.2727 -0.2004 -0.2324
 8551SOL    HW137115   0.119   3.082   7.080  1.5258  0.5672  2.5126
 8551SOL    HW237116   0.102   2.925   7.075 -0.8451 -0.9363  0.7426
 8552SOL     OW37117   3.775   3.685  16.058  0.3696  0.0408 -0.2460
 8552SOL    HW137118   3.828   3.764  16.059 -1.9372  1.5573  1.8590
 8552SOL    HW237119   3.715   3.698  15.985  2.8879  0.3065 -2.2544
 8553SOL     OW37120   4.203   3.404  10.007 -0.3807 -0.2318 -0.4920
 8553SOL    HW137121   4.193   3.458   9.929  0.0356 -0.6223 -0.8074
 8553SOL    HW237122   4.277   3.445  10.051  0.3850  0.6821 -2.6697
 8554SOL     OW37123   1.782   2.295   2.295  0.9156 -0.1556  0.4393
 8554SOL    HW137124   1.793   2.200   2.296 -0.7103 -0.3554  0.1199
 8554SOL    HW237125   1.871   2.330   2.286  0.6120  0.5850  0.2782
 8555SOL     OW37126   2.480   1.766   4.447 -0.0021  0.1550  0.1615
 8555SOL    HW137127   2.485   1.711   4.368 -1.4919 -1.7514  1.4147
 8555SOL    HW237128   2.457   1.698   4.510 -2.3662 -0.5793 -1.5033
 8556SOL     OW37129   4.447   2.470   8.713  0.2129  0.3579 -0.2367
 8556SOL    HW137130   4.503   2.533   8.759  3.6232 -1.5392 -1.8137
 8556SOL    HW237131   4.446   2.404   8.782  1.5420 -1.9488 -2.4425
 8557SOL     OW37132   2.493   3.304   9.710 -0.0723  0.8662 -0.1805
 8557SOL    HW137133   2.502   3.250   9.789 -0.4416 -0.3046 -0.9382
 8557SOL    HW237134   2.569   3.268   9.663 -0.3150  0.8764 -0.5766
 8558SOL     OW37135   1.859   1.218   3.220 -0.7432  0.7956  0.1620
 8558SOL    HW137136   1.901   1.182   3.299 -0.5782 -0.0215 -0.3036
 8558SOL    HW237137   1.930   1.232   3.158 -0.3978 -1.0914  0.1444
 8559SOL     OW37138   4.643   3.464  10.374 -0.0126  0.2465 -0.3889
 8559SOL    HW137139   4.571   3.414  10.336 -0.1372  0.4433 -0.4113
 8559SOL    HW237140   4.717   3.427  10.326  1.2307  1.2778  0.7411
 8560SOL     OW37141   1.017   4.678  17.657 -0.2940 -0.1632  0.2544
 8560SOL    HW137142   1.093   4.625  17.679  0.4528  1.2111  1.0365
 8560SOL    HW237143   0.954   4.630   0.003 -2.2258  2.7986  0.6138
 8561SOL     OW37144   0.596   3.181   8.253  0.5721 -0.0824 -0.0116
 8561SOL    HW137145   0.583   3.273   8.276  2.7616  0.3807 -0.5771
 8561SOL    HW237146   0.527   3.142   8.307  0.5754 -0.1275 -0.0400
 8562SOL     OW37147   1.035   1.320  11.814 -0.5492 -0.0669  0.6060
 8562SOL    HW137148   1.111   1.353  11.862 -0.7858  1.9212 -0.3823
 8562SOL    HW237149   1.082   1.259  11.757 -0.1549  1.2501 -0.4566
 8563SOL     OW37150   2.892   4.529   4.959  0.3730 -0.8368 -0.1864
 8563SOL    HW137151   2.918   4.438   4.944  0.6421 -1.1325  2.0823
 8563SOL    HW237152   2.884   4.557   4.868  1.8495 -1.2691 -0.4568
 8564SOL     OW37153   2.994   2.237   9.044 -0.0548 -0.4198 -0.1898
 8564SOL    HW137154   2.926   2.192   9.095  2.6529 -1.9538  2.0516
 8564SOL    HW237155   2.963   2.327   9.047 -0.8097 -0.6503 -0.9109
 8565SOL     OW37156   0.028   1.946   5.391 -0.3958 -0.0146 -0.5595
 8565SOL    HW137157   4.670   1.986   5.371 -1.0324 -1.3485 -0.5334
 8565SOL    HW237158   0.044   1.903   5.306  0.6013  0.5797 -0.6747
 8566SOL     OW37159   1.660   2.952   6.075 -0.4592  0.0726  0.6913
 8566SOL    HW137160   1.694   2.893   6.008 -1.1793  0.5175 -0.0631
 8566SOL    HW237161   1.698   3.032   6.040 -0.3430 -0.1858  0.2321
 8567SOL     OW37162   2.526   0.591  15.596 -0.3488  0.2023  0.3894
 8567SOL    HW137163   2.482   0.672  15.570  2.3771  2.1100  1.7743
 8567SOL    HW237164   2.587   0.578  15.523 -0.1988 -1.2424  0.7638
 8568SOL     OW37165   2.203   2.617   7.787 -0.0170  0.1788  0.0782
 8568SOL    HW137166   2.114   2.584   7.796 -0.1426  0.5154  0.0939
 8568SOL    HW237167   2.211   2.639   7.695  1.8511  1.6016  0.5629
 8569SOL     OW37168   4.672   1.883   2.984  0.2296  0.5595 -0.4743
 8569SOL    HW137169   4.598   1.900   2.925  0.8585  0.4526 -1.3043
 8569SOL    HW237170   4.634   1.909   3.068 -1.0015 -1.0572 -0.5261
 8570SOL     OW37171   3.993   1.788   3.182  0.2960  0.2085  0.3586
 8570SOL    HW137172   4.064   1.818   3.125 -1.6407  0.5821 -1.8232
 8570SOL    HW237173   3.948   1.872   3.184 -0.9822 -0.4378 -1.3158
 8571SOL     OW37174   3.088   1.596   1.623 -0.3753  0.4477  0.6294
 8571SOL    HW137175   3.006   1.630   1.587 -0.3042 -1.6938 -1.5882
 8571SOL    HW237176   3.092   1.612   1.717 -1.2337 -0.4675  0.8267
 8572SOL     OW37177   4.087   0.630   2.824 -0.4068 -0.0800 -0.2292
 8572SOL    HW137178   4.072   0.563   2.758  1.1376  0.7219 -1.3957
 8572SOL    HW237179   4.141   0.702   2.791 -1.2965 -0.0711 -1.6375
 8573SOL     OW37180   1.491   3.967   5.618  0.1086  0.5349 -0.6945
 8573SOL    HW137181   1.568   3.959   5.673  0.1406  0.3207 -0.7700
 8573SOL    HW237182   1.467   4.060   5.626  1.6521  1.0051 -1.5925
 8574SOL     OW37183   2.645   4.011   8.848 -0.9151 -0.5974 -0.1427
 8574SOL    HW137184   2.626   4.058   8.766  0.2242  1.4302  0.7458
 8574SOL    HW237185   2.574   4.033   8.908 -1.5942  1.4094 -1.6559
 8575SOL     OW37186   3.194   4.402   0.829 -0.2940  0.0798 -0.3522
 8575SOL    HW137187   3.171   4.463   0.760  1.0376  4.2269  2.8721
 8575SOL    HW237188   3.289   4.399   0.818 -0.1149 -0.9082  1.3867
 8576SOL     OW37189   0.818   2.008   8.462 -0.1393 -0.0846  0.2568
 8576SOL    HW137190   0.813   1.962   8.545 -0.6463 -0.6252 -0.0775
 8576SOL    HW237191   0.792   1.943   8.397  1.1549 -0.7136  0.3597
 8577SOL     OW37192   1.439   1.246   5.811 -0.1218 -0.3533  0.1264
 8577SOL    HW137193   1.516   1.291   5.847 -0.2844 -0.7091  0.8986
 8577SOL    HW237194   1.478   1.160   5.798  1.7078 -0.0621  3.6643
 8578SOL     OW37195   1.586   4.126   3.017 -0.3207  0.1920  0.0234
 8578SOL    HW137196   1.662   4.120   3.074 -0.8101  1.3637  0.7985
 8578SOL    HW237197   1.582   4.221   3.012 -0.0775  0.1646 -0.7970
 8579SOL     OW37198   4.325   3.675   2.883 -0.4745 -0.0391 -0.1556
 8579SOL    HW137199   4.283   3.607   2.936 -1.3677  2.1704  1.9632
 8579SOL    HW237200   4.411   3.637   2.868 -1.4713 -1.6931 -1.6950
 8580SOL     OW37201   2.156   2.225   6.547 -0.3072  0.2455 -0.0498
 8580SOL    HW137202   2.201   2.174   6.614  0.4485 -0.4168 -1.0435
 8580SOL    HW237203   2.090   2.167   6.508 -1.0062  1.2497 -0.3621
 8581SOL     OW37204   0.002   4.140   6.700  0.4831  0.2062  0.4557
 8581SOL    HW137205   4.719   4.177   6.612 -0.9780  1.5993  1.1952
 8581SOL    HW237206   0.027   4.221   6.745 -0.2251  1.4676 -1.3986
 8582SOL     OW37207   0.195   0.577   4.803 -0.5182 -0.1657  0.7702
 8582SOL    HW137208   0.166   0.512   4.739  2.2543 -1.8800  1.2416
 8582SOL    HW237209   0.159   0.541   4.884  1.9093 -0.7862  1.5792
 8583SOL     OW37210   4.577   2.632   4.792 -0.1487 -0.2243  0.2601
 8583SOL    HW137211   4.580   2.558   4.854 -0.6023  0.1680  0.7465
 8583SOL    HW237212   4.567   2.582   4.711  0.4629  2.7898 -1.6483
 8584SOL     OW37213   2.011   4.559   3.948 -0.5936  0.2894  0.0496
 8584SOL    HW137214   2.105   4.571   3.965 -0.2684  0.0697 -1.5801
 8584SOL    HW237215   2.010   4.490   3.882  0.3093  1.2613 -0.9740
 8585SOL     OW37216   0.268   2.040   0.497  0.0212 -0.3377  0.2007
 8585SOL    HW137217   0.362   2.057   0.503  0.1605 -0.8874 -0.4645
 8585SOL    HW237218   0.244   1.991   0.575 -0.2018  2.4480  1.8998
 8586SOL     OW37219   0.514   1.516  11.502 -0.0395 -0.5268 -0.1657
 8586SOL    HW137220   0.512   1.464  11.422 -1.7228 -0.3679 -0.2356
 8586SOL    HW237221   0.435   1.481  11.543  0.7204 -0.2252  1.5651
 8587SOL     OW37222   3.977   2.174   5.138 -0.6512  0.6117  0.1739
 8587SOL    HW137223   4.037   2.148   5.209 -0.6176 -1.5927 -0.6457
 8587SOL    HW237224   3.924   2.095   5.130 -0.3446  0.0600  3.5168
 8588SOL     OW37225   2.546   1.989   6.891 -0.3256  0.1240 -0.8474
 8588SOL    HW137226   2.465   2.036   6.910 -1.1933 -0.2615 -3.6464
 8588SOL    HW237227   2.503   1.907   6.867  2.0757 -1.1243 -0.9022
 8589SOL     OW37228   2.860   0.587   3.227 -0.2100 -0.7959 -0.8956
 8589SOL    HW137229   2.912   0.541   3.161  2.0904  0.6819 -0.1428
 8589SOL    HW237230   2.834   0.510   3.278  1.6909 -0.8559  0.0238
 8590SOL     OW37231   1.064   2.138   5.786  0.8287  0.0991  0.0530
 8590SOL    HW137232   1.002   2.098   5.725  0.8845  0.0347  0.0390
 8590SOL    HW237233   1.070   2.227   5.751  0.8431  0.3405  0.6626
 8591SOL     OW37234   1.537   3.394   6.756 -0.2697 -0.1157  0.2122
 8591SOL    HW137235   1.576   3.337   6.823 -1.2052  0.0323  0.8897
 8591SOL    HW237236   1.484   3.456   6.806  0.4907  0.4066  0.3736
 8592SOL     OW37237   1.656   2.018  11.304  0.0639  0.1011  0.2160
 8592SOL    HW137238   1.713   1.986  11.234 -0.7133 -0.1438 -0.3013
 8592SOL    HW237239   1.574   1.976  11.278  0.2215  0.3879 -0.7408
 8593SOL     OW37240   4.702   3.610   7.932  0.0558 -0.6330 -0.0532
 8593SOL    HW137241   4.623   3.652   7.899 -1.0013 -2.0785  0.6729
 8593SOL    HW237242   0.045   3.654   7.882 -2.1591  0.0458 -2.4909
 8594SOL     OW37243   3.814   0.453   5.261  0.1568 -0.4880 -0.0815
 8594SOL    HW137244   3.853   0.413   5.183  2.2844  2.2220 -0.4084
 8594SOL    HW237245   3.758   0.378   5.280  2.7691 -2.7976 -1.5416
 8595SOL     OW37246   1.640   0.947   2.461  0.1505  0.1537  0.2916
 8595SOL    HW137247   1.702   0.968   2.531  2.1754  1.6980 -1.9441
 8595SOL    HW237248   1.634   0.852   2.473  0.0634  0.1220  0.0032
 8596SOL     OW37249   0.541   2.482   4.282  0.1640 -0.3018  0.3863
 8596SOL    HW137250   0.554   2.464   4.375  1.1738  0.0369  0.3095
 8596SOL    HW237251   0.596   2.560   4.286  2.4612 -1.8957  0.3226
 8597SOL     OW37252   0.048   0.155   4.434 -0.3295  0.3632  0.0582
 8597SOL    HW137253   4.719   0.165   4.356  0.2212 -0.1546 -0.3968
 8597SOL    HW237254   4.720   0.172   4.511 -0.0328  0.9788  0.1302
 8598SOL     OW37255   2.560   4.234   7.788  0.6229  0.2146 -0.3078
 8598SOL    HW137256   2.582   4.145   7.813  0.0566  0.3048  0.5060
 8598SOL    HW237257   2.542   4.265   7.877  0.9291  0.9044 -0.4862
 8599SOL     OW37258   1.476   2.612  16.201 -0.4049  0.2751  0.3595
 8599SOL    HW137259   1.431   2.644  16.280 -0.3223 -0.9115  0.8910
 8599SOL    HW237260   1.423   2.648  16.131 -0.9055 -2.2790 -0.5526
 8600SOL     OW37261   3.968   1.579   7.287  0.1218 -0.3264 -0.6654
 8600SOL    HW137262   4.001   1.530   7.362  2.1610 -1.4439 -2.2622
 8600SOL    HW237263   3.905   1.514   7.256 -0.4169  0.2204 -0.7168
 8601SOL     OW37264   2.202   0.578  15.329  0.0538 -0.2249 -0.4316
 8601SOL    HW137265   2.226   0.534  15.248  1.0516  2.2749 -1.4891
 8601SOL    HW237266   2.192   0.670  15.303 -1.7142  0.0782  1.2810
 8602SOL     OW37267   0.433   0.309   1.981 -0.1355 -0.5215 -0.0985
 8602SOL    HW137268   0.398   0.371   2.046 -0.6233 -0.2463 -0.6233
 8602SOL    HW237269   0.355   0.300   1.927  1.0182 -0.6273 -1.7754
 8603SOL     OW37270   3.435   2.311  17.161  0.0257 -0.3750 -0.3797
 8603SOL    HW137271   3.408   2.392  17.203 -0.9555 -2.1738  2.4299
 8603SOL    HW237272   3.489   2.342  17.089 -1.4292  2.4264 -0.2548
 8604SOL     OW37273   2.401   4.363  17.041 -0.3857 -0.2547  0.1724
 8604SOL    HW137274   2.467   4.348  16.973  0.3233 -3.2099  1.5158
 8604SOL    HW237275   2.451   4.378  17.122 -0.6420 -0.2058  0.3224
 8605SOL     OW37276   0.316   4.005   3.728 -0.1729 -0.1700  0.0285
 8605SOL    HW137277   0.355   3.918   3.718 -1.2089 -0.4759 -1.3447
 8605SOL    HW237278   0.269   4.010   3.645 -1.0649  0.4023  0.5793
 8606SOL     OW37279   4.577   1.908  12.822 -0.1272 -0.3360  0.3107
 8606SOL    HW137280   4.619   1.833  12.865  1.0547 -0.2238 -0.6397
 8606SOL    HW237281   4.602   1.897  12.730  1.3875 -0.2969  0.7229
 8607SOL     OW37282   3.906   4.210   4.808  0.3113  0.4173 -0.8013
 8607SOL    HW137283   3.907   4.132   4.752 -0.1517 -0.3037  0.1981
 8607SOL    HW237284   3.820   4.233   4.774 -0.0498  0.1674 -0.0416
 8608SOL     OW37285   1.269   2.222   6.418 -0.0029  0.3409  0.2517
 8608SOL    HW137286   1.310   2.146   6.378 -0.3933 -0.2750  1.0025
 8608SOL    HW237287   1.335   2.290   6.407  1.4206 -0.9350  0.8583
 8609SOL     OW37288   0.562   1.134   5.737 -0.0467  0.5280 -0.2232
 8609SOL    HW137289   0.565   1.046   5.699  0.1542  0.3139  0.2962
 8609SOL    HW237290   0.581   1.114   5.829 -0.4994 -3.5449 -1.0210
 8610SOL     OW37291   4.353   0.362   2.516 -0.0457 -0.1079  0.0828
 8610SOL    HW137292   4.404   0.333   2.592 -1.8966  0.5947  1.5873
 8610SOL    HW237293   4.383   0.306   2.444  2.9258  1.5115  0.0767
 8611SOL     OW37294   1.866   1.760   7.849  0.2636 -0.2807  0.4276
 8611SOL    HW137295   1.819   1.730   7.771  0.7658  0.1270 -0.0343
 8611SOL    HW237296   1.878   1.855   7.840  0.0930 -0.5070 -2.0169
 8612SOL     OW37297   4.084   4.106  15.892  0.3524  0.5856 -0.5554
 8612SOL    HW137298   4.179   4.112  15.900  0.1054 -1.2183  4.0858
 8612SOL    HW237299   4.067   4.104  15.987  0.8410  0.1674 -0.4794
 8613SOL     OW37300   4.326   2.927  10.313  0.3570  0.1206  0.2588
 8613SOL    HW137301   4.380   2.869  10.259 -0.1098 -0.2294  0.1712
 8613SOL    HW237302   4.358   2.917  10.403 -1.2656  0.3380  0.8547
 8614SOL     OW37303   3.415   0.191  11.231  0.4733 -0.1832 -0.0066
 8614SOL    HW137304   3.503   0.181  11.195  0.4249  1.4699 -0.5722
 8614SOL    HW237305   3.434   0.191  11.325 -0.4972  2.1102  0.1923
 8615SOL     OW37306   1.683   4.205   5.215 -0.2506 -0.3855 -0.7862
 8615SOL    HW137307   1.746   4.134   5.224 -0.5925 -0.6712 -0.6591
 8615SOL    HW237308   1.618   4.175   5.279  0.5325  1.4824  0.8845
 8616SOL     OW37309   0.527   0.178  16.182  0.1038  0.7831  0.6644
 8616SOL    HW137310   0.569   0.142  16.260 -2.5645  1.4582  2.3898
 8616SOL    HW237311   0.487   0.100  16.145  0.5400  1.5844 -1.5621
 8617SOL     OW37312   0.640   2.212   3.157 -0.1362  0.0035 -0.1992
 8617SOL    HW137313   0.657   2.299   3.121  2.2691 -0.9903 -1.4664
 8617SOL    HW237314   0.657   2.151   3.085  1.0105 -0.5192  0.5009
 8618SOL     OW37315   3.973   1.947  12.062 -0.1755 -0.9409 -0.0072
 8618SOL    HW137316   3.894   1.986  12.098  1.9714  1.6611  1.8348
 8618SOL    HW237317   3.957   1.852  12.066  0.6971 -1.0988 -0.2234
 8619SOL     OW37318   3.411   3.519   9.567  0.7212 -0.4493 -0.2367
 8619SOL    HW137319   3.417   3.424   9.560 -0.0081 -0.5052 -0.0795
 8619SOL    HW237320   3.486   3.549   9.619  0.8636  0.6715 -1.1014
 8620SOL     OW37321   2.688   3.142  13.406  0.6392 -0.1057  0.4998
 8620SOL    HW137322   2.675   3.154  13.500  1.8741 -0.8996  0.7753
 8620SOL    HW237323   2.639   3.065  13.376  1.7664 -0.5289 -0.2331
 8621SOL     OW37324   0.813   3.652  10.908 -0.3306  0.0185  0.5680
 8621SOL    HW137325   0.883   3.589  10.891 -0.4437  0.6207 -2.2173
 8621SOL    HW237326   0.767   3.646  10.824 -0.9717 -1.2830  0.9993
 8622SOL     OW37327   1.126   1.299  15.527  0.0068 -0.4223  0.1178
 8622SOL    HW137328   1.083   1.221  15.564  0.1079  0.1216  1.3867
 8622SOL    HW237329   1.181   1.310  15.605 -0.6387 -0.3218  0.5613
 8623SOL     OW37330   2.604   0.704   7.689 -0.3188  0.1598  0.2019
 8623SOL    HW137331   2.575   0.751   7.767 -1.1842  0.6518 -0.4181
 8623SOL    HW237332   2.650   0.772   7.639  0.7257 -1.2494 -0.7741
 8624SOL     OW37333   0.446   3.734   2.344 -0.2901  0.2967 -0.1302
 8624SOL    HW137334   0.522   3.785   2.373  0.7276 -0.5659 -1.3032
 8624SOL    HW237335   0.469   3.650   2.382 -1.5594  0.9590  2.1256
 8625SOL     OW37336   0.274   3.118   2.612  0.3169 -0.6885  0.1767
 8625SOL    HW137337   0.309   3.113   2.524 -0.5499  0.7769 -0.2444
 8625SOL    HW237338   0.354   3.120   2.665  0.2806  3.3911  0.0603
 8626SOL     OW37339   3.279   1.698   2.635  0.8783  0.2204  0.3795
 8626SOL    HW137340   3.323   1.614   2.629 -2.1433 -1.3883  0.5486
 8626SOL    HW237341   3.186   1.677   2.643  1.7577 -3.2538  1.3450
 8627SOL     OW37342   0.698   3.584   5.985  0.1581  0.8485 -0.2099
 8627SOL    HW137343   0.792   3.567   5.976  0.4241  1.9017  0.6034
 8627SOL    HW237344   0.692   3.675   5.955 -1.7001 -0.0110 -2.5333
 8628SOL     OW37345   2.230   0.614   5.200 -0.8556 -0.2950  0.2157
 8628SOL    HW137346   2.255   0.689   5.146 -0.7487 -2.8956 -3.3405
 8628SOL    HW237347   2.135   0.628   5.211 -0.8373  0.1203 -0.1435
 8629SOL     OW37348   4.328   0.067   2.338 -0.2023 -0.2242  0.4317
 8629SOL    HW137349   4.353   0.151   2.299  2.6461 -0.4206  1.8796
 8629SOL    HW237350   4.303   0.019   2.259 -1.3919  0.0964  0.6121
 8630SOL     OW37351   0.762   3.769   9.741 -0.3682 -0.2628  0.4407
 8630SOL    HW137352   0.828   3.792   9.676  1.6159 -1.7484  1.9183
 8630SOL    HW237353   0.679   3.796   9.702 -0.6764  0.1561  1.3967
 8631SOL     OW37354   3.702   3.841   9.228  0.3468  0.0947 -0.0587
 8631SOL    HW137355   3.721   3.859   9.136  1.9989  0.9124  0.4630
 8631SOL    HW237356   3.639   3.769   9.216 -0.1422  0.5385 -0.1434
 8632SOL     OW37357   3.906   1.649   6.596  0.1838  0.2476  0.6097
 8632SOL    HW137358   3.960   1.676   6.521  1.2567  0.2299  1.3683
 8632SOL    HW237359   3.851   1.576   6.567 -1.2195  0.9102  1.6155
 8633SOL     OW37360   0.542   3.295   7.096 -0.9924 -0.0650 -0.0846
 8633SOL    HW137361   0.615   3.337   7.052  1.1491 -1.7232  1.9315
 8633SOL    HW237362   0.568   3.210   7.061 -1.6660 -0.6458  0.8037
 8634SOL     OW37363   3.518   2.181   1.428 -0.2502  0.1947  0.3157
 8634SOL    HW137364   3.437   2.130   1.427 -0.7761  1.0560 -1.1153
 8634SOL    HW237365   3.491   2.272   1.439 -3.0700 -0.6825  0.5808
 8635SOL     OW37366   3.385   4.247   5.787  0.1345  0.3823  0.6765
 8635SOL    HW137367   3.437   4.314   5.742  3.9844 -2.3747  0.9755
 8635SOL    HW237368   3.442   4.212   5.856  0.3603  0.3116  0.4513
 8636SOL     OW37369   0.814   0.427   6.598 -0.1962  0.1103  0.3594
 8636SOL    HW137370   0.734   0.479   6.601  0.9767  1.7632  2.7964
 8636SOL    HW237371   0.830   0.429   6.503  0.0988 -2.0801  0.3687
 8637SOL     OW37372   0.718   3.400  10.478  0.8932  0.4824  0.2465
 8637SOL    HW137373   0.737   3.389  10.384  0.7838 -0.0020  0.2793
 8637SOL    HW237374   0.726   3.493  10.498  1.4103  0.9653 -2.1807
 8638SOL     OW37375   1.932   3.656   4.262  0.1429 -0.5063  0.4905
 8638SOL    HW137376   2.009   3.674   4.208  1.1521 -0.3323  2.0043
 8638SOL    HW237377   1.971   3.652   4.349 -0.0245 -1.8913  0.5061
 8639SOL     OW37378   2.672   3.232   9.122  0.6546  0.3874  0.6607
 8639SOL    HW137379   2.684   3.251   9.216 -2.7303 -0.4309  1.2432
 8639SOL    HW237380   2.750   3.265   9.078  2.3938 -2.0551  1.8921
 8640SOL     OW37381   0.537   4.627   1.605 -0.1272 -0.4031  0.8865
 8640SOL    HW137382   0.458   4.573   1.604  0.0645 -0.6999  1.7527
 8640SOL    HW237383   0.497   4.714   1.609  1.2807  0.2945 -0.3614
 8641SOL     OW37384   1.653   3.144   1.194  0.4160  0.0363 -0.0391
 8641SOL    HW137385   1.667   3.055   1.163 -0.5735 -0.7718  1.8186
 8641SOL    HW237386   1.677   3.194   1.116  1.6243  0.8441  0.8531
 8642SOL     OW37387   0.078   3.887  12.229 -0.6647  1.0331  0.3816
 8642SOL    HW137388   0.160   3.844  12.254 -1.4672 -0.1973  0.8796
 8642SOL    HW237389   0.106   3.939  12.154 -1.1753  1.2173  0.3207
 8643SOL     OW37390   4.458   3.740   2.531 -0.6882  0.7514  0.1504
 8643SOL    HW137391   4.520   3.689   2.583 -0.5075  0.9253  0.1043
 8643SOL    HW237392   4.510   3.743   2.451 -2.9821  1.0382 -1.3436
 8644SOL     OW37393   0.518   4.613   7.319  0.1452  0.4571 -0.0050
 8644SOL    HW137394   0.589   4.625   7.256 -0.5345 -1.6085 -1.1836
 8644SOL    HW237395   0.508   4.699   7.359 -0.6769  1.0971 -1.6273
 8645SOL     OW37396   4.540   4.115   3.137  0.6823 -0.0247  1.1126
 8645SOL    HW137397   4.470   4.054   3.159 -0.6805  1.1421  0.0558
 8645SOL    HW237398   4.615   4.063   3.109  0.9101  1.0854 -0.3323
 8646SOL     OW37399   3.864   1.614   8.027  0.5079 -0.6534  0.3483
 8646SOL    HW137400   3.922   1.626   8.103  2.0119 -1.7468 -0.6202
 8646SOL    HW237401   3.923   1.659   7.967  0.0412 -1.2756 -0.5698
 8647SOL     OW37402   4.536   2.761  14.652 -0.3002 -0.2847  0.7105
 8647SOL    HW137403   4.474   2.713  14.596 -2.0769  1.2749  1.3553
 8647SOL    HW237404   4.506   2.849  14.630  1.2204 -0.3940 -1.8683
 8648SOL     OW37405   3.585   1.092   4.615 -0.1359 -0.7050 -0.0884
 8648SOL    HW137406   3.543   1.007   4.605  0.1772 -0.6314 -2.0759
 8648SOL    HW237407   3.517   1.151   4.581 -0.3993  0.0106  1.7013
 8649SOL     OW37408   4.576   2.913   7.471  0.3374  0.4107 -0.1243
 8649SOL    HW137409   4.669   2.892   7.467 -0.1154 -1.0858 -2.3989
 8649SOL    HW237410   4.547   2.844   7.531  1.1379 -0.2728 -0.5329
 8650SOL     OW37411   4.411   1.571   5.644 -0.2043  0.4355  0.8425
 8650SOL    HW137412   4.422   1.666   5.649  2.7065 -0.0836  3.6579
 8650SOL    HW237413   4.438   1.548   5.555  0.3326 -1.4145  1.4881
 8651SOL     OW37414   4.621   2.640   5.427 -0.4493  0.1754 -0.1421
 8651SOL    HW137415   4.538   2.629   5.473 -1.3083 -1.1307 -2.0146
 8651SOL    HW237416   4.677   2.689   5.488 -2.2559  0.9248  0.9104
 8652SOL     OW37417   3.945   4.197   3.214  0.2704 -0.2657  0.0741
 8652SOL    HW137418   3.940   4.285   3.175  2.8729 -0.4347 -0.6684
 8652SOL    HW237419   3.852   4.180   3.232  0.2255 -2.0563 -1.8586
 8653SOL     OW37420   1.325   3.237  14.662  0.2581  0.2382 -0.6622
 8653SOL    HW137421   1.231   3.220  14.668 -0.2392  3.5401  1.0692
 8653SOL    HW237422   1.359   3.218  14.750  0.4223 -2.6753 -1.3403
 8654SOL     OW37423   2.561   1.150   8.855  0.0918  0.0906  0.8101
 8654SOL    HW137424   2.481   1.184   8.815  2.3615  1.9868 -2.0963
 8654SOL    HW237425   2.600   1.124   8.771 -1.8126  0.8380 -0.3264
 8655SOL     OW37426   0.888   3.866  17.528 -0.0682 -0.2091  0.0902
 8655SOL    HW137427   0.835   3.787  17.544 -1.0539  0.5026  0.3239
 8655SOL    HW237428   0.976   3.836  17.552  0.0376 -0.1152 -0.1746
 8656SOL     OW37429   2.810   0.460   3.623  0.5970  0.5333 -0.6931
 8656SOL    HW137430   2.898   0.453   3.587  1.1129 -0.4272  0.7650
 8656SOL    HW237431   2.802   0.378   3.671  0.0511  1.6312  1.0869
 8657SOL     OW37432   3.392   2.361   9.370  0.3850 -0.2043  0.2146
 8657SOL    HW137433   3.471   2.414   9.381 -0.9442  1.6936  0.6737
 8657SOL    HW237434   3.344   2.434   9.330  1.7574  0.1992 -0.6820
 8658SOL     OW37435   1.705   1.961  15.349  0.0698 -0.4893 -0.0240
 8658SOL    HW137436   1.660   2.042  15.328  2.7508  1.3248  1.1922
 8658SOL    HW237437   1.786   1.970  15.299 -0.0187 -1.2791 -0.3091
 8659SOL     OW37438   4.022   1.505  12.799 -0.2049  0.3824 -0.0714
 8659SOL    HW137439   4.116   1.492  12.808 -0.2777  0.3659  0.6877
 8659SOL    HW237440   3.994   1.539  12.884  0.3261  0.5808  0.0200
 8660SOL     OW37441   3.846   1.017   7.133 -0.3842 -0.7756 -0.2038
 8660SOL    HW137442   3.935   1.006   7.101  0.4272  2.2149  1.0530
 8660SOL    HW237443   3.856   1.056   7.220  2.9850 -1.2193 -0.4143
 8661SOL     OW37444   4.227   2.398   4.288  0.0550 -0.1823  0.7742
 8661SOL    HW137445   4.226   2.358   4.375 -0.2726  2.0722  1.7863
 8661SOL    HW237446   4.273   2.335   4.232  0.6800 -1.9849  3.2809
 8662SOL     OW37447   4.077   1.525   0.698 -0.2954  0.3214 -0.1617
 8662SOL    HW137448   4.053   1.617   0.703 -0.1607  0.2860  1.0825
 8662SOL    HW237449   3.998   1.472   0.683  0.0293 -1.3100  3.8213
 8663SOL     OW37450   1.716   1.712   8.099 -0.0183  0.1144  0.0882
 8663SOL    HW137451   1.740   1.620   8.086 -0.1489  0.1701 -0.5572
 8663SOL    HW237452   1.784   1.757   8.049  0.4071  0.2360  0.7691
 8664SOL     OW37453   2.455   1.122   7.973  0.3531  0.2378  0.0806
 8664SOL    HW137454   2.414   1.109   8.059  0.8206 -0.5140  0.1878
 8664SOL    HW237455   2.500   1.204   7.991  0.9270 -0.2604  0.9454
 8665SOL     OW37456   4.492   0.782   4.759  0.5554  0.1151  0.2140
 8665SOL    HW137457   4.422   0.769   4.824  0.7189  0.9730  0.5498
 8665SOL    HW237458   4.525   0.696   4.785 -2.2498 -1.1746 -0.4735
 8666SOL     OW37459   0.591   0.584  10.166  0.2917  0.2786  0.0688
 8666SOL    HW137460   0.557   0.613  10.081  0.8297  3.4448  0.8986
 8666SOL    HW237461   0.630   0.661  10.209  1.7278  0.0036 -0.7289
 8667SOL     OW37462   3.338   0.568   2.518  0.0239 -0.2480 -0.8847
 8667SOL    HW137463   3.296   0.508   2.457 -0.2542 -1.5681  0.6187
 8667SOL    HW237464   3.273   0.638   2.515 -2.2955 -2.3637  0.2429
 8668SOL     OW37465   0.933   1.118   6.484 -0.1680  0.4737 -0.2121
 8668SOL    HW137466   0.906   1.128   6.392  1.3861  0.9743 -0.6132
 8668SOL    HW237467   1.014   1.069   6.472  0.1166  1.7603 -3.6206
 8669SOL     OW37468   3.194   2.598   0.826 -0.4321 -0.4654  0.2966
 8669SOL    HW137469   3.144   2.575   0.748 -1.0994 -0.8597  0.8378
 8669SOL    HW237470   3.242   2.674   0.793  0.3875 -0.8878  0.5238
 8670SOL     OW37471   3.717   2.382   9.652 -0.4696  0.3699 -0.9682
 8670SOL    HW137472   3.731   2.458   9.708 -0.1284 -1.7752  1.8601
 8670SOL    HW237473   3.663   2.329   9.711  1.4773  0.5599  0.9430
 8671SOL     OW37474   4.565   1.284   5.915 -0.2004 -0.1548 -0.4649
 8671SOL    HW137475   4.652   1.324   5.924  0.2432 -1.0350 -0.8930
 8671SOL    HW237476   4.505   1.354   5.940  1.5118  1.3486 -0.5093
 8672SOL     OW37477   1.085   0.099   3.830 -0.1793  0.1207  0.3560
 8672SOL    HW137478   1.119   0.187   3.843 -0.9098  0.0560  2.7613
 8672SOL    HW237479   1.086   0.104   3.735 -0.1682  0.4036  0.3719
 8673SOL     OW37480   1.790   2.049  13.690  0.1683  0.6712  0.6353
 8673SOL    HW137481   1.720   2.084  13.745 -0.6723  2.9925 -1.9304
 8673SOL    HW237482   1.754   2.087  13.610  2.0777  0.0604 -0.5249
 8674SOL     OW37483   4.161   3.436  12.244 -0.4653  0.0134 -0.0244
 8674SOL    HW137484   4.112   3.491  12.184  0.7990  1.0589 -0.0895
 8674SOL    HW237485   4.248   3.475  12.240 -1.6415  2.4894 -0.8463
 8675SOL     OW37486   3.481   2.730   6.061  0.7517  0.4756 -0.1337
 8675SOL    HW137487   3.471   2.825   6.052  1.3195  0.5956  0.5267
 8675SOL    HW237488   3.539   2.723   6.137  0.1017 -3.3107  0.0258
 8676SOL     OW37489   3.819   3.877   3.462 -0.3505  0.2690 -0.2679
 8676SOL    HW137490   3.825   3.791   3.420  0.1190 -0.0687  0.4921
 8676SOL    HW237491   3.909   3.907   3.446 -1.2298  2.8473 -0.3808
 8677SOL     OW37492   2.263   0.261   5.839  0.3903  0.8354 -0.3876
 8677SOL    HW137493   2.327   0.269   5.768  1.6726  1.2763  0.8068
 8677SOL    HW237494   2.252   0.354   5.860 -1.3875  0.5716 -0.1936
 8678SOL     OW37495   1.713   4.680   4.702 -0.5078  0.1436  0.2901
 8678SOL    HW137496   1.638   0.013   4.695 -0.9755 -0.7027 -1.9010
 8678SOL    HW237497   1.781   4.710   4.642 -1.5946 -0.0861 -1.0504
 8679SOL     OW37498   4.124   1.721   3.423  0.2828 -0.2085 -0.4513
 8679SOL    HW137499   4.123   1.808   3.463  1.5863 -1.0738  1.4927
 8679SOL    HW237500   4.067   1.731   3.347  1.8537  0.4778 -1.5444
 8680SOL     OW37501   0.664   3.187   5.429  0.4071 -0.8650  0.0671
 8680SOL    HW137502   0.588   3.169   5.375 -0.6246  1.6455  0.6905
 8680SOL    HW237503   0.734   3.162   5.368  0.7842  0.6011 -0.1094
 8681SOL     OW37504   2.600   3.615   4.918 -0.4597  0.2388 -0.0143
 8681SOL    HW137505   2.688   3.646   4.940 -1.0045  0.9554  1.1564
 8681SOL    HW237506   2.581   3.563   4.996 -1.1689 -3.1153 -2.4586
 8682SOL     OW37507   0.250   3.854   8.967  0.1892 -0.3811 -0.0640
 8682SOL    HW137508   0.189   3.895   8.905  1.4889  0.5486 -0.7346
 8682SOL    HW237509   0.327   3.900   8.935  0.8181  1.6638  4.3809
 8683SOL     OW37510   4.521   0.275   9.590  0.6492 -0.1086 -0.0370
 8683SOL    HW137511   4.475   0.312   9.665  0.7419 -1.3199  0.6208
 8683SOL    HW237512   4.480   0.321   9.518  0.6083  0.0089  0.0623
 8684SOL     OW37513   1.130   1.986  15.752  0.2003 -0.0187 -0.2165
 8684SOL    HW137514   1.169   1.934  15.682  0.5023 -1.5050  1.0560
 8684SOL    HW237515   1.206   2.043  15.766  0.5360 -0.4982 -0.1088
 8685SOL     OW37516   3.654   4.417   6.030  0.2813 -0.0386  0.3176
 8685SOL    HW137517   3.742   4.437   6.063  1.3280  0.4058 -2.7170
 8685SOL    HW237518   3.655   4.324   6.008 -1.9305  0.0219 -0.0625
 8686SOL     OW37519   2.853   4.607   7.608 -0.2156  0.3932 -0.0721
 8686SOL    HW137520   2.822   4.519   7.631  0.3827 -0.2566 -1.7260
 8686SOL    HW237521   2.818   4.660   7.680 -0.2472 -2.0788  1.7256
 8687SOL     OW37522   3.622   4.103  16.606  0.2220 -0.3313 -0.1685
 8687SOL    HW137523   3.607   4.103  16.701 -0.7259  0.2428 -0.3209
 8687SOL    HW237524   3.713   4.133  16.611 -0.4358  1.3235  1.8445
 8688SOL     OW37525   2.676   0.082   0.238 -0.0663  0.2249 -0.5972
 8688SOL    HW137526   2.601   0.137   0.262 -1.0381 -1.2190 -0.3707
 8688SOL    HW237527   2.754   0.125   0.274  2.2235 -1.3814 -3.7367
 8689SOL     OW37528   2.787   0.505   1.609  0.2538 -0.5460  0.9562
 8689SOL    HW137529   2.761   0.512   1.517  2.0614 -0.1926  0.4746
 8689SOL    HW237530   2.856   0.570   1.611 -1.0883  0.9052 -0.0518
 8690SOL     OW37531   1.396   1.729   4.251 -0.0083  0.3861 -0.4380
 8690SOL    HW137532   1.351   1.722   4.167  1.9063 -1.3544 -1.3177
 8690SOL    HW237533   1.397   1.635   4.270 -0.2801  0.2854 -0.9340
 8691SOL     OW37534   0.614   2.894   2.215 -0.3625  0.0103  0.2462
 8691SOL    HW137535   0.564   2.863   2.140  0.0921 -0.6961  0.2366
 8691SOL    HW237536   0.637   2.984   2.191 -1.8483  0.2675 -0.1569
 8692SOL     OW37537   3.223   2.974  10.469  0.1585  0.3037 -0.2077
 8692SOL    HW137538   3.271   2.935  10.396 -2.1089 -1.9521 -0.4982
 8692SOL    HW237539   3.267   2.943  10.548  1.2220 -0.2095 -0.9954
 8693SOL     OW37540   0.634   3.193   2.991  0.2652  0.1853 -0.4889
 8693SOL    HW137541   0.592   3.206   3.076  1.0534  1.1916 -0.2515
 8693SOL    HW237542   0.724   3.170   3.012 -0.6672 -2.7161  0.3127
 8694SOL     OW37543   3.686   1.348   1.826  0.1438  0.2674 -0.0287
 8694SOL    HW137544   3.616   1.403   1.860 -0.3403 -1.1515  1.3080
 8694SOL    HW237545   3.640   1.266   1.807 -0.6919  0.9763 -1.0493
 8695SOL     OW37546   0.126   3.607   0.547  0.3674 -0.8191 -0.2928
 8695SOL    HW137547   0.062   3.668   0.509  1.4443  1.1610  1.1030
 8695SOL    HW237548   0.202   3.648   0.505  0.0794 -0.3297 -0.3430
 8696SOL     OW37549   1.097   0.796   3.917  0.1103 -0.2372 -0.8870
 8696SOL    HW137550   1.045   0.734   3.967 -0.7834  0.9921 -0.2988
 8696SOL    HW237551   1.188   0.765   3.913  0.4376  0.7148 -0.9636
 8697SOL     OW37552   0.274   4.589  14.344 -0.6553  0.1723  0.2990
 8697SOL    HW137553   0.255   4.577  14.437  0.3619 -0.3314  0.4433
 8697SOL    HW237554   0.232   4.674  14.331 -0.6051 -0.4993 -4.1407
 8698SOL     OW37555   3.981   2.983   0.099 -0.1144  0.4812  0.6260
 8698SOL    HW137556   4.000   2.892   0.124  2.1123  0.7835  0.0420
 8698SOL    HW237557   4.064   3.016   0.134  2.0124 -2.8067 -1.2980
 8699SOL     OW37558   4.531   0.432   6.879  0.2827  0.0585 -0.0061
 8699SOL    HW137559   4.600   0.381   6.837  0.1743  3.2325 -4.0131
 8699SOL    HW237560   4.561   0.522   6.881 -0.5118  0.3050  1.1798
 8700SOL     OW37561   1.024   4.392   8.140  0.3505  0.2097 -0.1846
 8700SOL    HW137562   1.000   4.397   8.232  0.6059  2.2172 -0.2303
 8700SOL    HW237563   1.017   4.484   8.118  0.8747  0.4220  0.5355
 8701SOL     OW37564   0.574   4.294  14.876 -0.3495 -0.3140  0.0518
 8701SOL    HW137565   0.628   4.218  14.856  0.7336  0.5957 -0.4722
 8701SOL    HW237566   0.612   4.376  14.845 -1.7440 -0.2908 -1.6446
 8702SOL     OW37567   4.705   0.935   4.682 -0.5471  0.0437  0.2558
 8702SOL    HW137568   4.661   0.861   4.724 -0.5404  0.5701  1.1841
 8702SOL    HW237569   4.642   0.953   4.612 -1.3302 -0.5535  0.8070
 8703SOL     OW37570   2.189   0.520   2.688 -0.0554  0.0271  0.2001
 8703SOL    HW137571   2.187   0.426   2.667 -0.3354  0.5447 -2.0139
 8703SOL    HW237572   2.121   0.550   2.628 -0.6231 -1.7012 -0.0450
 8704SOL     OW37573   2.232   0.630   4.615 -0.5907  0.4134  0.1552
 8704SOL    HW137574   2.224   0.691   4.688  0.4640 -0.4660  0.9989
 8704SOL    HW237575   2.285   0.680   4.553 -1.9710  0.7330 -0.7551
 8705SOL     OW37576   1.298   2.396  12.026 -0.2133 -0.2666  0.2197
 8705SOL    HW137577   1.307   2.307  12.061 -0.2498 -0.3199  0.0918
 8705SOL    HW237578   1.386   2.408  11.989 -1.6238  1.9976 -2.3391
 8706SOL     OW37579   1.373   0.156  12.166 -0.0174 -0.2163 -0.1451
 8706SOL    HW137580   1.336   0.111  12.090  0.4061 -1.3968  0.3348
 8706SOL    HW237581   1.438   0.212  12.122 -1.5217  0.7564 -1.1045
 8707SOL     OW37582   3.880   4.270   9.425  0.0258 -0.1654 -0.2159
 8707SOL    HW137583   3.907   4.344   9.371 -1.2547  0.5579  0.1156
 8707SOL    HW237584   3.935   4.202   9.389 -1.2735 -2.3731  1.9433
 8708SOL     OW37585   0.210   3.033   8.327 -0.5159 -1.4148  1.2142
 8708SOL    HW137586   0.260   3.071   8.399  2.1743 -0.5409 -1.1466
 8708SOL    HW237587   0.121   3.065   8.339 -0.3438 -0.9265  1.1956
 8709SOL     OW37588   3.281   0.763   4.452  0.0618  0.0027  0.0329
 8709SOL    HW137589   3.286   0.851   4.414  0.4466  0.3117  0.8046
 8709SOL    HW237590   3.193   0.743   4.419 -1.1240  2.2161  1.8938
 8710SOL     OW37591   4.176   4.570   3.587 -0.0706  0.2371 -0.1574
 8710SOL    HW137592   4.225   4.613   3.517  0.8460  1.4146  1.2291
 8710SOL    HW237593   4.120   4.503   3.547  1.5919 -1.0804 -0.2404
 8711SOL     OW37594   0.065   1.984   1.085  0.4919 -0.2723 -0.6531
 8711SOL    HW137595   0.108   2.065   1.111  2.2857 -1.7577  1.0290
 8711SOL    HW237596   4.699   2.009   1.092  0.3899 -0.8277 -0.0159
 8712SOL     OW37597   3.410   3.938   6.678  0.7657 -0.1674  0.1927
 8712SOL    HW137598   3.390   4.017   6.629  1.7629 -0.7520 -1.1558
 8712SOL    HW237599   3.363   3.865   6.637 -0.1768 -1.5314  3.6172
 8713SOL     OW37600   3.644   4.311   6.535  0.2166 -0.7159 -0.0863
 8713SOL    HW137601   3.614   4.226   6.502 -1.0612  0.2711 -1.5186
 8713SOL    HW237602   3.714   4.294   6.597  0.9823  0.3014 -0.6830
 8714SOL     OW37603   1.762   1.570   4.493 -0.1560  0.1964  0.1096
 8714SOL    HW137604   1.702   1.530   4.430 -0.1021  2.7478 -1.5180
 8714SOL    HW237605   1.704   1.610   4.558 -1.2712  0.0407 -0.7811
 8715SOL     OW37606   2.922   3.933   1.864 -0.3601  0.5651 -0.1706
 8715SOL    HW137607   3.006   3.910   1.824 -1.9143 -2.1871 -1.8348
 8715SOL    HW237608   2.946   3.933   1.957 -1.0050  0.8615 -0.0035
 8716SOL     OW37609   3.528   4.616   4.831  0.4904  0.8330  0.1650
 8716SOL    HW137610   3.451   4.673   4.830 -0.8639 -0.9757  1.5415
 8716SOL    HW237611   3.557   4.627   4.741 -0.4643  0.8755 -0.1386
 8717SOL     OW37612   1.391   1.833   7.592  0.0457 -0.5932  0.2182
 8717SOL    HW137613   1.323   1.798   7.649  0.8176  1.8809  2.6889
 8717SOL    HW237614   1.391   1.929   7.598 -0.1736 -0.5513 -0.4607
 8718SOL     OW37615   2.179   2.933   0.049  0.2255  0.6325  0.6089
 8718SOL    HW137616   2.160   2.862   0.111 -1.9683  1.1413  0.5244
 8718SOL    HW237617   2.134   3.005   0.092 -0.3456 -0.3393  1.6505
 8719SOL     OW37618   2.673   4.122   9.598  0.2363  0.2547  0.2959
 8719SOL    HW137619   2.639   4.192   9.654 -1.6337 -1.6204  1.5522
 8719SOL    HW237620   2.613   4.130   9.524 -0.0471 -1.2584  0.3696
 8720SOL     OW37621   3.900   2.000   7.332  0.1106  0.2806 -0.2177
 8720SOL    HW137622   3.831   1.954   7.283 -0.4265 -0.3923  1.1824
 8720SOL    HW237623   3.893   1.960   7.418 -3.6297  0.4208 -0.4351
 8721SOL     OW37624   0.341   2.118   5.068 -0.1667  0.4815  0.0314
 8721SOL    HW137625   0.420   2.066   5.086 -0.2146  1.1239  2.0484
 8721SOL    HW237626   0.328   2.153   5.156 -1.2323  1.6268 -0.5733
 8722SOL     OW37627   1.853   4.390   6.466 -0.2102  0.5752  0.5663
 8722SOL    HW137628   1.774   4.391   6.412  0.2533 -0.7325 -0.1593
 8722SOL    HW237629   1.833   4.453   6.535 -2.4402 -0.0611  0.5083
 8723SOL     OW37630   2.160   1.837   9.310 -0.4467  0.4506  0.0797
 8723SOL    HW137631   2.231   1.899   9.327 -2.2708  1.2452  4.7310
 8723SOL    HW237632   2.217   1.783   9.256 -1.8608 -1.7897  0.8338
 8724SOL     OW37633   0.268   3.995   4.183 -0.3940 -0.3176 -0.2825
 8724SOL    HW137634   0.269   4.090   4.178  1.0822 -0.2598  0.9438
 8724SOL    HW237635   0.347   3.970   4.136 -1.1699 -1.0951 -1.1680
 8725SOL     OW37636   2.380   3.495   6.069 -0.0666  0.2953 -0.2592
 8725SOL    HW137637   2.404   3.567   6.127 -1.5055  0.9474 -0.4695
 8725SOL    HW237638   2.470   3.480   6.040 -0.0499  1.8129 -0.9616
 8726SOL     OW37639   1.173   3.327   4.265  0.0510  0.0011  0.0119
 8726SOL    HW137640   1.112   3.371   4.206  1.0510  2.4559  0.8359
 8726SOL    HW237641   1.146   3.361   4.350 -2.2776 -1.2750 -0.2249
 8727SOL     OW37642   0.300   1.300   5.251  0.2794  0.4350 -0.5561
 8727SOL    HW137643   0.211   1.301   5.215 -0.0833  1.7210  0.4155
 8727SOL    HW237644   0.305   1.391   5.280 -3.2854  0.7776 -1.0888
 8728SOL     OW37645   3.815   2.374   8.738  0.1887  0.1099 -0.9048
 8728SOL    HW137646   3.852   2.462   8.746  0.9669 -0.2927 -0.1060
 8728SOL    HW237647   3.840   2.339   8.823 -0.7797  1.1750 -0.1869
 8729SOL     OW37648   3.153   4.152   6.821 -0.9841 -0.6089  0.5268
 8729SOL    HW137649   3.162   4.209   6.897 -0.7801 -0.3377  0.2967
 8729SOL    HW237650   3.215   4.194   6.762  1.0839 -1.8887  1.7819
 8730SOL     OW37651   0.732   0.473   7.240 -0.0720  0.2419 -0.5812
 8730SOL    HW137652   0.640   0.492   7.257 -0.2005  0.5402 -1.5717
 8730SOL    HW237653   0.759   0.439   7.325 -2.4430  1.8106  0.7669
 8731SOL     OW37654   0.480   1.918   2.327  0.4737 -0.0093  0.1757
 8731SOL    HW137655   0.542   1.970   2.276 -0.4644  1.1878  0.2492
 8731SOL    HW237656   0.498   1.827   2.303  1.3744  0.3735 -0.5790
 8732SOL     OW37657   3.683   1.789   6.717 -0.3087  0.3850  0.4485
 8732SOL    HW137658   3.753   1.767   6.655  0.2756  2.0392  0.5152
 8732SOL    HW237659   3.668   1.706   6.761  3.8365 -1.2590 -1.2278
 8733SOL     OW37660   1.642   3.141   1.462  0.3743 -0.2708  0.5445
 8733SOL    HW137661   1.679   3.053   1.472 -2.2516 -1.7552 -2.8315
 8733SOL    HW237662   1.644   3.151   1.367  0.3383 -2.8606  0.2784
 8734SOL     OW37663   3.138   2.061   6.949  0.1576 -0.3064  0.3033
 8734SOL    HW137664   3.224   2.104   6.949  0.1351 -0.2614  1.0926
 8734SOL    HW237665   3.090   2.128   6.900  0.5541  1.0053  1.7233
 8735SOL     OW37666   0.478   3.656  14.059  0.0344  0.3606  0.4259
 8735SOL    HW137667   0.436   3.736  14.025 -0.1389 -0.5732 -1.5299
 8735SOL    HW237668   0.475   3.599  13.983 -0.4756  1.3566 -0.3067
 8736SOL     OW37669   4.455   4.134   7.269 -0.2233 -0.0969  0.2056
 8736SOL    HW137670   4.443   4.118   7.363  1.3686  1.7529  0.7053
 8736SOL    HW237671   4.538   4.181   7.267 -0.7493  0.7455 -1.3588
 8737SOL     OW37672   1.758   4.587   7.783 -0.0929  0.1976  0.4465
 8737SOL    HW137673   1.691   4.587   7.851  1.6200  1.4853  2.1394
 8737SOL    HW237674   1.832   4.558   7.837  0.6739  0.5912 -0.4014
 8738SOL     OW37675   0.553   0.201   6.951 -0.4262  0.0489  0.2573
 8738SOL    HW137676   0.632   0.178   7.000 -1.8822 -0.6975  2.2329
 8738SOL    HW237677   0.569   0.137   6.882 -1.2030  0.1264  0.0060
 8739SOL     OW37678   3.006   1.401   8.368  0.4648  0.3725 -0.4432
 8739SOL    HW137679   3.063   1.345   8.316  1.3928  0.4368  0.5011
 8739SOL    HW237680   3.037   1.386   8.457  0.4976  1.1700 -0.3158
 8740SOL     OW37681   2.173   1.768   3.269  0.5393  0.6925 -0.0521
 8740SOL    HW137682   2.212   1.698   3.217 -2.6732 -0.4963 -0.9048
 8740SOL    HW237683   2.079   1.761   3.252  0.6008 -1.3680  0.4802
 8741SOL     OW37684   1.418   2.007   1.755 -0.0781  0.4069  0.1074
 8741SOL    HW137685   1.351   1.940   1.772 -1.4462  2.0762  1.3977
 8741SOL    HW237686   1.422   2.045   1.843 -3.5331 -0.1699  0.5501
 8742SOL     OW37687   2.655   0.509   6.271  0.1736 -0.1683  0.4222
 8742SOL    HW137688   2.730   0.453   6.291 -0.2306 -0.4803  1.0804
 8742SOL    HW237689   2.639   0.478   6.182 -2.0248 -0.7197  1.0092
 8743SOL     OW37690   1.565   0.242   5.489 -0.0539 -0.0503 -0.6037
 8743SOL    HW137691   1.639   0.184   5.508 -2.2848 -2.5270  0.6028
 8743SOL    HW237692   1.500   0.235   5.559 -0.6355  0.3702 -1.1038
 8744SOL     OW37693   4.393   2.989   3.175  0.3453 -0.1102  0.1293
 8744SOL    HW137694   4.324   3.017   3.116 -0.2601  0.7597  1.2345
 8744SOL    HW237695   4.476   3.021   3.139 -0.0755  1.7468  0.7706
 8745SOL     OW37696   1.980   3.346   1.489  0.2296 -0.1237  0.1826
 8745SOL    HW137697   2.006   3.262   1.528  1.3448  0.2631  0.2932
 8745SOL    HW237698   2.061   3.398   1.488 -0.3527  0.8130  2.0201
 8746SOL     OW37699   3.263   1.455   3.890 -0.4170  0.1103  0.3087
 8746SOL    HW137700   3.300   1.419   3.809 -0.0233  0.6188  0.2643
 8746SOL    HW237701   3.316   1.404   3.951 -0.9292 -1.1431 -0.2934
 8747SOL     OW37702   1.803   3.013  14.201 -0.5122  0.1353  0.4518
 8747SOL    HW137703   1.747   2.964  14.141  0.4442 -0.8767  0.4017
 8747SOL    HW237704   1.839   2.944  14.257 -1.5632 -2.8901 -2.6199
 8748SOL     OW37705   2.674   1.692   5.077 -0.4302  0.9283  0.5566
 8748SOL    HW137706   2.690   1.626   5.010 -1.5437 -0.0865  1.2989
 8748SOL    HW237707   2.667   1.640   5.157 -0.0537  1.2236  0.7837
 8749SOL     OW37708   1.174   3.128   3.843 -0.1249  0.5566  0.3780
 8749SOL    HW137709   1.162   3.119   3.938  1.0782 -1.1868  0.3713
 8749SOL    HW237710   1.080   3.129   3.823  0.0131  1.3997 -0.2253
 8750SOL     OW37711   4.540   2.228  14.507  0.3262 -0.1110  0.3425
 8750SOL    HW137712   4.536   2.237  14.412  0.4440 -0.2541  0.3240
 8750SOL    HW237713   4.579   2.141  14.517  1.6502  0.5406  0.8381
 8751SOL     OW37714   3.332   0.911   3.115 -1.0004 -0.0275 -0.1565
 8751SOL    HW137715   3.308   0.901   3.208 -0.5877  1.3505  0.0908
 8751SOL    HW237716   3.261   0.970   3.093 -2.0462 -1.7377 -1.3700
 8752SOL     OW37717   2.978   2.467   5.094 -0.3564  0.2679  0.5501
 8752SOL    HW137718   2.978   2.560   5.070 -1.8392 -0.4658 -2.3292
 8752SOL    HW237719   3.071   2.446   5.098 -0.4321  0.0027  0.9076
 8753SOL     OW37720   0.669   4.095  17.046  0.4147  0.0584  0.1369
 8753SOL    HW137721   0.651   4.173  17.099  1.8648  0.5774 -0.1341
 8753SOL    HW237722   0.643   4.022  17.101  1.7557 -1.0996 -0.7926
 8754SOL     OW37723   0.816   4.310   3.919 -0.6527  0.0756 -0.3935
 8754SOL    HW137724   0.721   4.299   3.915 -0.5933 -0.6246  0.1224
 8754SOL    HW237725   0.815   4.403   3.894  3.3071  0.3182  0.2491
 8755SOL     OW37726   0.765   4.059   4.079 -0.1149  0.4301  0.2527
 8755SOL    HW137727   0.800   4.111   4.152  1.0359 -1.5341  1.0969
 8755SOL    HW237728   0.788   4.118   4.008 -1.8871 -0.5951 -1.1852
 8756SOL     OW37729   1.994   1.570   5.238  0.2492  0.4769 -0.2592
 8756SOL    HW137730   2.002   1.654   5.283  0.6525  1.0655 -1.4344
 8756SOL    HW237731   2.054   1.586   5.165  1.4511 -0.7819  0.4393
 8757SOL     OW37732   3.670   1.725   1.878 -0.0295  0.1038 -0.2193
 8757SOL    HW137733   3.586   1.711   1.834  0.6278  2.2657 -2.2079
 8757SOL    HW237734   3.726   1.741   1.801 -2.3708  1.6029 -1.6221
 8758SOL     OW37735   2.040   3.926   5.975 -0.4735 -0.2876 -0.3142
 8758SOL    HW137736   2.079   4.011   5.952 -1.5400  0.5408  0.9576
 8758SOL    HW237737   2.059   3.877   5.895 -0.9428 -0.8684 -0.0708
 8759SOL     OW37738   3.881   3.083  12.479 -0.3414  0.1222  0.1695
 8759SOL    HW137739   3.832   3.045  12.552 -1.3098 -1.4112 -1.2605
 8759SOL    HW237740   3.959   3.117  12.522 -0.4646  0.2286  0.3091
 8760SOL     OW37741   1.973   3.889   6.351  0.3212 -0.4418  0.6920
 8760SOL    HW137742   1.904   3.879   6.285  1.6359  4.5736 -1.4451
 8760SOL    HW237743   2.044   3.871   6.290  0.1668  2.3390 -0.3024
 8761SOL     OW37744   0.343   0.168   8.601 -0.4004  0.1355 -0.3126
 8761SOL    HW137745   0.271   0.138   8.658 -1.6205  0.5112 -1.6713
 8761SOL    HW237746   0.415   0.118   8.640 -0.4000 -0.3033 -0.8794
 8762SOL     OW37747   3.157   3.640  14.522 -0.4498  0.2893  0.3636
 8762SOL    HW137748   3.180   3.729  14.494  0.4028  0.0932  0.4351
 8762SOL    HW237749   3.069   3.637  14.486 -0.6281 -1.7999  1.0243
 8763SOL     OW37750   1.393   3.592   4.298  0.1129 -0.0630  0.1559
 8763SOL    HW137751   1.441   3.647   4.237 -1.8857  0.5037 -0.9293
 8763SOL    HW237752   1.309   3.635   4.312 -0.7050 -1.2097 -1.1538
 8764SOL     OW37753   1.934   2.409  15.643  0.4690 -0.4285 -0.0509
 8764SOL    HW137754   1.863   2.405  15.578 -0.7504  3.2575  1.0140
 8764SOL    HW237755   1.914   2.334  15.699  2.1201 -0.7165  0.1578
 8765SOL     OW37756   2.737   3.478   2.145  0.0510  0.1854  0.6323
 8765SOL    HW137757   2.789   3.557   2.126  0.5815 -0.0778  0.9829
 8765SOL    HW237758   2.762   3.459   2.236  0.0373 -2.6406  0.0306
 8766SOL     OW37759   2.145   3.611   9.140  0.1939 -0.3500 -0.1585
 8766SOL    HW137760   2.074   3.654   9.094  0.9481  0.8563 -0.1853
 8766SOL    HW237761   2.157   3.670   9.214 -1.2557 -0.5592  0.2402
 8767SOL     OW37762   2.174   1.899   6.286  1.0743  0.0108  0.2419
 8767SOL    HW137763   2.200   1.960   6.217 -0.9780 -0.5687 -1.0290
 8767SOL    HW237764   2.245   1.925   6.345 -0.4875 -1.8096  2.9649
 8768SOL     OW37765   3.490   3.167  17.240  0.3845 -0.1751 -0.4374
 8768SOL    HW137766   3.405   3.212  17.246  1.4470  1.1735  4.2396
 8768SOL    HW237767   3.535   3.192  17.321  0.8764 -2.4510 -0.0183
 8769SOL     OW37768   3.074   1.713   6.206 -0.0231 -0.2845 -0.2689
 8769SOL    HW137769   3.032   1.697   6.291  0.8695  0.4075  0.3059
 8769SOL    HW237770   3.141   1.778   6.228  0.6081 -0.8950 -0.3734
 8770SOL     OW37771   2.400   2.617   6.640  0.1935  0.0749  0.0897
 8770SOL    HW137772   2.313   2.624   6.679  0.0706  2.1920 -0.5642
 8770SOL    HW237773   2.397   2.642   6.548  0.8909  2.0947  0.6085
 8771SOL     OW37774   4.670   1.925  10.259  0.0820  0.0483  0.0321
 8771SOL    HW137775   0.018   1.941  10.201  0.3318  2.5802  1.0480
 8771SOL    HW237776   4.644   1.833  10.256  0.0096  0.1533 -3.4176
 8772SOL     OW37777   0.932   1.231   4.824 -0.1119 -0.2065  0.1098
 8772SOL    HW137778   0.918   1.315   4.780 -0.2481  0.0876  0.7103
 8772SOL    HW237779   0.879   1.241   4.903 -1.1174 -0.2568 -0.5631
 8773SOL     OW37780   3.626   2.635   6.282 -0.0207 -0.2868  0.2296
 8773SOL    HW137781   3.666   2.722   6.286 -2.4053  0.8876 -1.5923
 8773SOL    HW237782   3.624   2.622   6.377  3.3831 -4.6241 -0.2990
 8774SOL     OW37783   1.244   0.094   4.175  0.9779  0.2924 -0.2258
 8774SOL    HW137784   1.300   0.084   4.252 -0.3427  0.5893  0.7704
 8774SOL    HW237785   1.292   0.163   4.129 -0.9724  0.2935 -2.2642
 8775SOL     OW37786   2.885   0.134  10.019 -0.1350 -0.0761  0.2075
 8775SOL    HW137787   2.957   0.144   9.957 -0.5934  0.5991 -0.2178
 8775SOL    HW237788   2.812   0.138   9.957 -1.2771  0.3921  1.5879
 8776SOL     OW37789   3.702   1.043   5.244  0.0194  0.0366 -0.7415
 8776SOL    HW137790   3.609   1.066   5.238  0.3702  1.5440 -0.2815
 8776SOL    HW237791   3.718   1.010   5.155 -1.6426 -1.5267 -0.4754
 8777SOL     OW37792   3.990   1.243  13.202 -0.1932 -0.1263  0.1515
 8777SOL    HW137793   3.897   1.258  13.187 -0.1637  0.7083  0.8433
 8777SOL    HW237794   4.020   1.319  13.251  0.7121  0.0286 -0.6404
 8778SOL     OW37795   0.826   3.211   5.886  0.1007  0.5719  0.6285
 8778SOL    HW137796   0.878   3.262   5.825  0.4497  0.3324  0.7273
 8778SOL    HW237797   0.891   3.164   5.938  0.0452  0.4192  0.5624
 8779SOL     OW37798   1.316   4.365  13.456  0.4744  0.1312  0.3018
 8779SOL    HW137799   1.406   4.335  13.467  1.7730  3.5026 -0.9191
 8779SOL    HW237800   1.296   4.318  13.375  2.5455  1.1470 -0.8078
 8780SOL     OW37801   1.471   3.569  14.062 -0.0919 -0.1351 -0.1456
 8780SOL    HW137802   1.422   3.569  14.144 -0.5392  1.8367 -0.3941
 8780SOL    HW237803   1.474   3.474  14.052 -3.3636 -0.1903 -0.5903
 8781SOL     OW37804   1.308   3.954   1.337  0.0671  0.2740 -0.3212
 8781SOL    HW137805   1.288   3.921   1.425 -3.2238  2.5308 -0.2396
 8781SOL    HW237806   1.353   4.036   1.358 -1.1402  0.9764 -0.4435
 8782SOL     OW37807   4.367   2.259   6.621  0.0138  0.0882 -0.0049
 8782SOL    HW137808   4.378   2.348   6.587  2.2598 -0.3750 -0.4715
 8782SOL    HW237809   4.371   2.279   6.715 -0.0133 -0.1909  0.0571
 8783SOL     OW37810   3.786   3.401   9.539 -0.2905  0.1489 -0.0708
 8783SOL    HW137811   3.769   3.309   9.560 -1.3679  0.8604  2.1585
 8783SOL    HW237812   3.878   3.393   9.513 -0.3257  0.1585 -0.2015
 8784SOL     OW37813   3.177   2.424  14.705  0.2758 -0.2464  0.0966
 8784SOL    HW137814   3.187   2.518  14.721 -1.4476  0.2155 -1.5395
 8784SOL    HW237815   3.262   2.405  14.665  1.4501  2.4392  1.3489
 8785SOL     OW37816   3.764   2.363   8.126 -0.2373 -0.6556  0.0971
 8785SOL    HW137817   3.749   2.268   8.132  0.9785 -1.0080 -2.3809
 8785SOL    HW237818   3.768   2.372   8.031  0.1444  1.0646  0.2864
 8786SOL     OW37819   2.186   3.129   2.368 -0.1607 -0.2271 -0.1075
 8786SOL    HW137820   2.172   3.222   2.350  0.3468 -0.8291 -3.6935
 8786SOL    HW237821   2.217   3.099   2.283  0.2778  0.3314 -0.1461
 8787SOL     OW37822   1.076   2.051  16.017  0.4109 -0.2842  0.5782
 8787SOL    HW137823   1.013   1.986  16.047  1.9700 -2.1395 -0.1834
 8787SOL    HW237824   1.081   2.033  15.923  2.5777 -1.6617  0.9515
 8788SOL     OW37825   3.458   0.836   2.876 -0.2206  0.4079  0.0638
 8788SOL    HW137826   3.438   0.874   2.962  4.3828 -0.6626  1.5974
 8788SOL    HW237827   3.370   0.807   2.853  0.7319 -1.6029 -1.0751
 8789SOL     OW37828   2.659   2.762   2.427  0.1753 -0.9633  0.3162
 8789SOL    HW137829   2.601   2.837   2.429  1.2646 -0.1034 -0.0915
 8789SOL    HW237830   2.677   2.767   2.333 -2.4030 -0.0644 -0.1192
 8790SOL     OW37831   4.562   0.048  11.283  0.6421  0.3704  0.0041
 8790SOL    HW137832   4.540   0.096  11.363 -1.3343  0.5468 -0.6353
 8790SOL    HW237833   4.657   0.042  11.286  0.5426 -1.6449 -0.8918
 8791SOL     OW37834   0.046   2.334   5.057 -0.2241 -0.0165  0.1912
 8791SOL    HW137835   0.130   2.352   5.015 -0.0098 -1.1472  0.1505
 8791SOL    HW237836   0.078   2.356   5.144 -0.1097  1.0725 -0.1232
 8792SOL     OW37837   0.096   0.131  12.198 -0.1554 -0.0882  0.2402
 8792SOL    HW137838   0.080   0.170  12.112 -0.7414  1.5286  1.0739
 8792SOL    HW237839   0.161   0.198  12.220  0.0523  0.4818 -2.1450
 8793SOL     OW37840   3.181   3.990   2.889 -0.0253 -0.3781  0.8904
 8793SOL    HW137841   3.100   3.994   2.940 -1.1153  4.4317 -1.1494
 8793SOL    HW237842   3.138   4.014   2.806 -1.9343  0.4852  2.1293
 8794SOL     OW37843   0.032   1.560   3.836  0.0105  0.0829 -0.1504
 8794SOL    HW137844   4.667   1.532   3.827  0.1247 -0.2751 -0.2193
 8794SOL    HW237845   0.028   1.644   3.882  1.8430  0.4974 -0.7571
 8795SOL     OW37846   2.288   3.741   8.123  0.3014 -0.2227 -0.0704
 8795SOL    HW137847   2.324   3.707   8.041  0.7139  0.9575 -0.3861
 8795SOL    HW237848   2.194   3.738   8.103  0.7973  0.6663 -2.5601
 8796SOL     OW37849   3.639   2.487   9.387 -0.5648  0.0524 -0.2421
 8796SOL    HW137850   3.696   2.552   9.346 -0.2801 -0.6537 -0.9690
 8796SOL    HW237851   3.689   2.456   9.462  1.3081  1.8296 -0.7483
 8797SOL     OW37852   4.549   1.316   1.106  0.4660  0.6892 -0.4522
 8797SOL    HW137853   4.495   1.312   1.184  0.1685 -1.0753 -0.7516
 8797SOL    HW237854   4.597   1.393   1.138 -0.8141  0.3932  2.1897
 8798SOL     OW37855   1.211   3.067   7.789 -0.6589  0.1268 -0.0680
 8798SOL    HW137856   1.169   3.150   7.812  1.8754  0.8976  1.7210
 8798SOL    HW237857   1.253   3.091   7.706  1.6245 -4.0647 -0.1148
 8799SOL     OW37858   0.442   4.108   4.650 -0.1565  0.1832  0.1249
 8799SOL    HW137859   0.393   4.142   4.725 -1.4061 -2.1501  0.3803
 8799SOL    HW237860   0.446   4.192   4.605  0.2197  0.6687  1.0736
 8800SOL     OW37861   3.696   4.370   3.441 -0.2210  0.2545 -0.1599
 8800SOL    HW137862   3.680   4.282   3.408  1.8746 -0.5278  0.9099
 8800SOL    HW237863   3.612   4.405   3.412  1.3252  1.7908 -2.7889
 8801SOL     OW37864   1.417   2.102   7.621  0.4659  0.2276 -0.0506
 8801SOL    HW137865   1.338   2.144   7.587 -0.0777 -0.8842 -0.1384
 8801SOL    HW237866   1.473   2.180   7.613  1.5630 -0.2758  2.8166
 8802SOL     OW37867   1.104   3.765   2.319  0.3021 -0.0832 -0.2270
 8802SOL    HW137868   1.049   3.695   2.282  2.7649 -1.0102 -2.1440
 8802SOL    HW237869   1.194   3.742   2.296 -0.1486 -1.7165 -0.3922
 8803SOL     OW37870   3.291   2.304   5.697 -0.2480 -0.1233 -0.6139
 8803SOL    HW137871   3.283   2.223   5.648  1.5141 -1.3790  1.2003
 8803SOL    HW237872   3.216   2.308   5.758  0.8843  0.3735  0.7450
 8804SOL     OW37873   1.279   1.558   9.401  0.9936 -0.5432  0.3533
 8804SOL    HW137874   1.268   1.652   9.392 -2.1288 -1.1256 -2.2974
 8804SOL    HW237875   1.370   1.548   9.373  1.2665 -0.5955  1.2516
 8805SOL     OW37876   0.378   2.808   5.456  0.8424  0.1260  0.5487
 8805SOL    HW137877   0.376   2.714   5.441  1.5532  0.1180  0.5045
 8805SOL    HW237878   0.452   2.839   5.405  2.2537 -2.1378  1.2156
 8806SOL     OW37879   3.820   0.431   5.718 -0.0837 -0.2254  0.3657
 8806SOL    HW137880   3.846   0.515   5.681  1.2583 -0.4997  0.6612
 8806SOL    HW237881   3.726   0.447   5.724  0.1532  1.6086 -0.8831
 8807SOL     OW37882   2.544   3.623  14.546 -0.1879 -0.1477  0.6507
 8807SOL    HW137883   2.599   3.636  14.469  1.0892  1.4670  1.8316
 8807SOL    HW237884   2.603   3.578  14.607 -0.3743 -1.9500 -0.5087
 8808SOL     OW37885   2.242   2.749  14.892  0.3166 -0.2744  0.1740
 8808SOL    HW137886   2.260   2.730  14.800 -0.2864 -0.7774  0.1631
 8808SOL    HW237887   2.160   2.700  14.899 -0.6663  1.3983  0.3952
 8809SOL     OW37888   2.284   3.216   8.144 -0.1939  0.2278 -0.9953
 8809SOL    HW137889   2.237   3.133   8.143  3.6023 -1.9443 -2.0288
 8809SOL    HW237890   2.252   3.245   8.059 -0.0571 -2.3103 -1.9214
 8810SOL     OW37891   2.864   1.528   4.423  0.1047 -0.5662 -0.1519
 8810SOL    HW137892   2.952   1.554   4.399 -0.1620  0.4649 -0.0281
 8810SOL    HW237893   2.848   1.462   4.355  3.2587 -2.5395  1.0339
 8811SOL     OW37894   0.748   0.197  12.899  0.2980  0.5715 -0.8546
 8811SOL    HW137895   0.765   0.109  12.866  0.9808  0.5799 -0.5300
 8811SOL    HW237896   0.702   0.181  12.981  2.1067  0.1535  0.0609
 8812SOL     OW37897   3.880   4.619  12.227 -1.1697  0.0828  0.0246
 8812SOL    HW137898   3.901   4.532  12.261  2.9520  1.2248  0.4868
 8812SOL    HW237899   3.969   4.655  12.220 -1.7667  0.9841 -3.1755
 8813SOL     OW37900   4.316   3.487   6.128  0.8724 -0.1027  0.1068
 8813SOL    HW137901   4.344   3.467   6.038 -0.4205  0.2048 -0.3619
 8813SOL    HW237902   4.368   3.422   6.176 -2.0331 -1.5634  1.3018
 8814SOL     OW37903   3.067   0.386  12.263 -0.1578 -0.0033 -0.0952
 8814SOL    HW137904   3.104   0.368  12.177 -0.7875 -2.2787  0.1326
 8814SOL    HW237905   3.046   0.299  12.295  3.2085 -1.1989 -1.0875
 8815SOL     OW37906   3.894   2.487   7.473  0.2740  0.1581 -0.3529
 8815SOL    HW137907   3.862   2.547   7.541  0.9832  1.4482 -1.1634
 8815SOL    HW237908   3.847   2.407   7.494  0.0216  0.7317  1.2530
 8816SOL     OW37909   3.468   4.454  12.301  0.0539 -0.2989  0.0738
 8816SOL    HW137910   3.460   4.537  12.348  0.7351 -0.0356 -0.2682
 8816SOL    HW237911   3.481   4.389  12.370 -2.5423 -1.4289 -0.4926
 8817SOL     OW37912   3.681   1.270   2.663  0.8783  0.1023 -0.1962
 8817SOL    HW137913   3.731   1.345   2.631 -1.4582  1.2101 -1.3018
 8817SOL    HW237914   3.644   1.302   2.745  0.1512  0.6273 -0.7280
 8818SOL     OW37915   1.103   4.359  10.658 -0.1880  0.0390 -0.2927
 8818SOL    HW137916   1.166   4.341  10.728  1.5060  0.6573 -1.6765
 8818SOL    HW237917   1.083   4.451  10.671  0.9290  0.2875 -0.3953
 8819SOL     OW37918   1.380   0.172   7.047  0.0658 -0.5934 -0.3177
 8819SOL    HW137919   1.475   0.169   7.056 -0.2831  0.6191  3.6770
 8819SOL    HW237920   1.350   0.145   7.134 -0.4492 -1.0794 -0.6395
 8820SOL     OW37921   0.478   1.515   8.070 -0.3188  0.6265 -0.0851
 8820SOL    HW137922   0.461   1.581   8.003 -0.5345 -0.4906 -1.1192
 8820SOL    HW237923   0.407   1.453   8.056  0.1374 -0.1756  1.1051
 8821SOL     OW37924   2.629   1.743   3.626 -0.0697  0.2185 -0.2174
 8821SOL    HW137925   2.608   1.712   3.537  1.6349 -0.2477 -0.4496
 8821SOL    HW237926   2.572   1.820   3.625 -1.9848 -1.2004 -0.0282
 8822SOL     OW37927   0.840   4.424   5.724 -0.1899 -0.1624  0.0236
 8822SOL    HW137928   0.887   4.468   5.795 -0.7052  1.9561 -0.9513
 8822SOL    HW237929   0.914   4.413   5.664  0.8424  2.4791  0.8200
 8823SOL     OW37930   1.963   1.407   9.394 -0.1404  0.7974  0.0710
 8823SOL    HW137931   1.964   1.389   9.300  0.8190 -0.2855  0.3017
 8823SOL    HW237932   1.960   1.315   9.417  1.9797  0.7932  0.2691
 8824SOL     OW37933   2.794   4.586   4.714  0.2990  0.4991 -0.2916
 8824SOL    HW137934   2.768   4.674   4.739  2.6284  1.0167  0.3716
 8824SOL    HW237935   2.852   4.601   4.639  0.7908 -1.7781 -0.3847
 8825SOL     OW37936   3.651   3.945  15.517 -0.2826 -0.0671 -0.5183
 8825SOL    HW137937   3.696   3.973  15.438 -0.2906 -1.0350 -0.8688
 8825SOL    HW237938   3.694   3.861  15.534 -0.0635 -0.0706 -1.0947
 8826SOL     OW37939   4.509   4.128   2.315  0.4539 -0.2461  0.1151
 8826SOL    HW137940   4.504   4.064   2.385 -0.6174 -0.6566 -0.3239
 8826SOL    HW237941   4.529   4.210   2.360  1.6096 -0.1693 -0.5223
 8827SOL     OW37942   0.272   2.022   8.478  0.4000 -0.7143  0.2561
 8827SOL    HW137943   0.286   2.076   8.555  1.3107  4.7417 -3.7438
 8827SOL    HW237944   0.324   2.065   8.410  1.5877  1.3231  2.4499
 8828SOL     OW37945   2.258   1.892  12.161  0.4233  0.2405 -0.5881
 8828SOL    HW137946   2.276   1.934  12.077 -1.6318  1.9661 -0.1789
 8828SOL    HW237947   2.166   1.911  12.180 -0.2003 -0.4195 -2.9104
 8829SOL     OW37948   4.462   2.943  14.884 -0.0962 -0.5360 -0.6642
 8829SOL    HW137949   4.417   2.871  14.840  0.5673 -2.0693  1.1650
 8829SOL    HW237950   4.418   3.017  14.842 -0.0841 -0.2443 -0.1676
 8830SOL     OW37951   0.427   2.250   2.346  0.0525  0.0153  0.1821
 8830SOL    HW137952   0.377   2.190   2.290  0.6771  1.6109 -2.0723
 8830SOL    HW237953   0.377   2.331   2.337  1.9058  1.2098  0.9265
 8831SOL     OW37954   2.414   0.680   2.925 -0.1896  0.0135 -0.0487
 8831SOL    HW137955   2.433   0.770   2.900 -1.1994  0.4825  0.8708
 8831SOL    HW237956   2.318   0.678   2.925 -0.2148  0.8597  1.6524
 8832SOL     OW37957   0.517   3.268   5.720 -0.3039 -0.7492 -0.0115
 8832SOL    HW137958   0.516   3.208   5.645 -0.3873 -0.6449 -0.0946
 8832SOL    HW237959   0.575   3.336   5.687  1.1438 -1.5959  0.7949
 8833SOL     OW37960   1.159   2.620   0.150 -0.1598 -0.3675  0.2865
 8833SOL    HW137961   1.252   2.610   0.129 -0.3892 -0.3343 -0.7528
 8833SOL    HW237962   1.163   2.655   0.238 -0.1474  2.8096 -0.9867
 8834SOL     OW37963   0.717   0.467   4.939  0.2492 -0.0852 -0.2757
 8834SOL    HW137964   0.711   0.562   4.929  1.0478 -0.0543 -0.4459
 8834SOL    HW237965   0.812   0.458   4.952  0.2263  0.5274  0.3348
 8835SOL     OW37966   2.219   3.379   4.306  0.2059  0.2354  0.2492
 8835SOL    HW137967   2.208   3.471   4.281 -1.3104 -0.2701 -0.9278
 8835SOL    HW237968   2.158   3.372   4.379 -1.1720  2.6763 -0.6712
 8836SOL     OW37969   4.152   4.023   6.003  0.0242  0.3445  0.2187
 8836SOL    HW137970   4.227   3.990   5.953 -0.5014  0.5194 -0.6913
 8836SOL    HW237971   4.179   4.114   6.011  0.8944  0.1490 -0.4622
 8837SOL     OW37972   1.296   1.085   6.111 -0.3064 -0.0994 -0.1612
 8837SOL    HW137973   1.384   1.113   6.136  0.2385 -2.1067  0.1779
 8837SOL    HW237974   1.300   0.995   6.144 -0.5824  0.6164  1.8447
 8838SOL     OW37975   3.007   2.309   2.352  0.5203 -0.0396 -0.0473
 8838SOL    HW137976   3.020   2.333   2.444  0.8337  1.5479 -0.5010
 8838SOL    HW237977   3.026   2.392   2.307  1.5623 -0.6403 -0.7301
 8839SOL     OW37978   2.524   2.513   3.048  0.9495 -0.1099 -0.0198
 8839SOL    HW137979   2.444   2.499   3.097  0.6217  2.2073  0.1229
 8839SOL    HW237980   2.575   2.434   3.065 -0.0825 -0.4376  1.5076
 8840SOL     OW37981   0.562   0.084   8.231 -0.7786  0.0862  0.3387
 8840SOL    HW137982   0.596   0.002   8.194  0.9336  0.7726  0.4173
 8840SOL    HW237983   0.467   0.071   8.224 -0.6976  0.7071 -1.8736
 8841SOL     OW37984   3.462   0.151   3.781  0.1317  0.6479 -0.1809
 8841SOL    HW137985   3.536   0.185   3.831 -0.4987 -0.3563  1.4139
 8841SOL    HW237986   3.405   0.228   3.783 -1.0688 -0.1733 -2.7883
 8842SOL     OW37987   4.359   0.577   6.647 -0.0220  0.0489  0.3660
 8842SOL    HW137988   4.308   0.538   6.719  0.5376 -0.0895  0.6870
 8842SOL    HW237989   4.401   0.649   6.693  1.0830  0.2509 -0.9713
 8843SOL     OW37990   1.594   2.096   3.605  0.4641  0.0919  0.2014
 8843SOL    HW137991   1.598   2.152   3.682  1.4608  3.5338 -2.3649
 8843SOL    HW237992   1.686   2.084   3.583 -0.2923  0.4351 -3.1452
 8844SOL     OW37993   4.308   0.985   4.668  0.4351 -0.0198  0.1000
 8844SOL    HW137994   4.396   0.947   4.665  0.9928  1.1280  1.9177
 8844SOL    HW237995   4.328   1.078   4.658  2.9152 -0.1575  3.9433
 8845SOL     OW37996   1.509   3.847   6.485 -0.1949 -0.4180 -0.1943
 8845SOL    HW137997   1.593   3.819   6.523  0.2516  0.3130 -0.6538
 8845SOL    HW237998   1.448   3.779   6.515 -0.2594  0.6883  2.1739
 8846SOL     OW37999   3.549   1.171   5.537  0.5172 -0.2526  0.1762
 8846SOL    HW138000   3.598   1.091   5.515 -0.3310 -0.4371 -1.0328
 8846SOL    HW238001   3.468   1.153   5.490  0.2233 -0.7499  0.8860
 8847SOL     OW38002   2.065   1.021   6.937 -0.1075  0.2821 -0.0251
 8847SOL    HW138003   2.131   1.074   6.982  0.4770  0.6495 -1.3224
 8847SOL    HW238004   2.081   0.935   6.976 -1.3550  0.9703  1.9862
 8848SOL     OW38005   3.370   1.958   0.870  0.0709  0.0598  0.0555
 8848SOL    HW138006   3.370   1.938   0.963 -2.7026  0.6581  0.1765
 8848SOL    HW238007   3.286   2.003   0.863  0.4024  0.6868  0.0518
 8849SOL     OW38008   2.449   3.356   1.599  0.4409 -0.4777  0.7562
 8849SOL    HW138009   2.406   3.274   1.577  1.2457 -0.3885 -1.1232
 8849SOL    HW238010   2.538   3.324   1.616  1.4276  0.2461 -3.0926
 8850SOL     OW38011   1.235   4.036   9.764  0.9388  0.4302 -0.0888
 8850SOL    HW138012   1.151   4.010   9.726 -0.4001 -0.8864  3.7510
 8850SOL    HW238013   1.300   3.977   9.727  2.0695  1.4514  0.2499
 8851SOL     OW38014   2.490   4.247   7.274  0.0905 -0.2417 -0.2986
 8851SOL    HW138015   2.460   4.173   7.222  1.1754 -1.0210  0.1760
 8851SOL    HW238016   2.403   4.286   7.274  0.3894  0.4251  0.2202
 8852SOL     OW38017   3.237   1.415   5.185 -0.0784 -0.6785  0.3304
 8852SOL    HW138018   3.324   1.454   5.188 -0.5396  0.3336  0.3823
 8852SOL    HW238019   3.183   1.475   5.134 -0.5946  1.0748  2.9064
 8853SOL     OW38020   0.894   4.041   5.246 -0.0750 -0.5354  0.5399
 8853SOL    HW138021   0.902   4.076   5.158  2.2681 -1.3644  0.4269
 8853SOL    HW238022   0.953   3.965   5.243  0.0749 -0.3553 -0.9935
 8854SOL     OW38023   4.343   0.912   3.318 -0.7050  0.1684  0.5077
 8854SOL    HW138024   4.339   0.902   3.223 -0.0436 -0.9022  0.5840
 8854SOL    HW238025   4.387   0.994   3.339  0.1150 -0.4553  1.2673
 8855SOL     OW38026   0.014   0.861   2.763  0.1477  0.3213 -0.0424
 8855SOL    HW138027   0.043   0.885   2.851 -1.2722 -0.1945  0.5644
 8855SOL    HW238028   4.647   0.847   2.778 -0.1235  0.1459 -1.8605
 8856SOL     OW38029   4.110   2.151   5.869 -0.2970  0.5411 -0.4513
 8856SOL    HW138030   4.108   2.177   5.777 -0.4920 -1.4885 -1.0146
 8856SOL    HW238031   4.023   2.173   5.902 -0.3861  1.0814 -1.0423
 8857SOL     OW38032   1.942   3.070  17.580 -0.1312 -0.1030  0.1710
 8857SOL    HW138033   1.983   3.030  17.504 -0.4816  0.8394 -0.5063
 8857SOL    HW238034   1.898   2.996  17.622 -1.5511  0.7675  0.2034
 8858SOL     OW38035   3.314   3.635   5.742 -0.5389 -0.2154  0.0727
 8858SOL    HW138036   3.405   3.614   5.722 -0.9221 -1.5235 -0.2851
 8858SOL    HW238037   3.284   3.695   5.674  0.3881 -1.8180 -1.7629
 8859SOL     OW38038   1.238   4.118   5.190 -0.3790 -0.0699 -0.2347
 8859SOL    HW138039   1.240   4.023   5.199  3.0653  0.0058 -0.1286
 8859SOL    HW238040   1.218   4.115   5.096 -0.4603 -0.8636 -0.1905
 8860SOL     OW38041   4.455   1.933   5.380 -0.7680  0.0862 -0.9619
 8860SOL    HW138042   4.434   2.013   5.428  2.1383  0.0042  0.4830
 8860SOL    HW238043   4.377   1.923   5.326 -3.6625  0.5109  3.1570
 8861SOL     OW38044   1.256   0.133   9.841 -0.1669 -0.0237  0.2508
 8861SOL    HW138045   1.279   0.080   9.917 -0.5341 -1.4224 -0.6050
 8861SOL    HW238046   1.165   0.157   9.856 -0.3866 -0.7298  0.0851
 8862SOL     OW38047   4.351   0.854   4.174  0.3604  0.0303 -0.4801
 8862SOL    HW138048   4.282   0.788   4.188 -0.6904  1.0246 -0.9829
 8862SOL    HW238049   4.376   0.856   4.266 -2.6496 -1.8212  0.4015
 8863SOL     OW38050   0.079   2.822   1.280  0.3760  0.0949  0.1718
 8863SOL    HW138051   0.139   2.879   1.328  0.9320 -0.9255  0.6962
 8863SOL    HW238052   0.122   2.826   1.195  0.0833  0.0497  0.0222
 8864SOL     OW38053   3.201   1.906   1.652 -0.2419  0.0324 -0.6814
 8864SOL    HW138054   3.291   1.892   1.622 -0.0041 -1.3262  0.6580
 8864SOL    HW238055   3.146   1.918   1.575 -0.4187  0.5413 -0.4746
 8865SOL     OW38056   1.378   2.374   6.953 -0.8168  0.3149 -0.0397
 8865SOL    HW138057   1.321   2.306   6.989 -1.2762  1.1052  0.7365
 8865SOL    HW238058   1.413   2.323   6.880 -0.2859  0.2695  0.2450
 8866SOL     OW38059   4.589   1.171   6.203  0.0032 -0.3603  0.1156
 8866SOL    HW138060   4.685   1.166   6.210  0.0470  0.8146  0.4299
 8866SOL    HW238061   4.581   1.196   6.111 -2.0256 -1.9171 -0.1308
 8867SOL     OW38062   1.025   3.525   1.315 -0.0674  0.2387  0.2746
 8867SOL    HW138063   1.098   3.550   1.371  0.4278 -0.4199 -0.0841
 8867SOL    HW238064   0.987   3.469   1.383  1.6297 -0.7866  0.3855
 8868SOL     OW38065   4.464   1.254  16.245 -0.2924 -0.3013  0.4518
 8868SOL    HW138066   4.447   1.205  16.165 -0.3780  0.2831  0.1158
 8868SOL    HW238067   4.391   1.232  16.303  0.1719  1.2598  1.6488
 8869SOL     OW38068   0.523   1.129   9.116  0.2273 -0.5768  0.0587
 8869SOL    HW138069   0.517   1.041   9.153 -3.5756 -0.0842  0.6517
 8869SOL    HW238070   0.575   1.109   9.039 -0.7920  0.8363 -1.0045
 8870SOL     OW38071   1.014   1.881   4.372 -0.0127 -0.0162  0.1806
 8870SOL    HW138072   0.992   1.958   4.425  2.2597  1.5134 -1.0999
 8870SOL    HW238073   1.109   1.868   4.373 -0.0181 -0.1031 -0.6642
 8871SOL     OW38074   0.838   1.964  15.782 -0.0452  0.5110 -0.0684
 8871SOL    HW138075   0.931   1.964  15.760 -0.2955 -0.7888 -1.1044
 8871SOL    HW238076   0.816   1.884  15.829 -2.6034  0.7583 -0.8435
 8872SOL     OW38077   2.960   3.134   0.326 -0.0108 -0.5770  0.0979
 8872SOL    HW138078   2.905   3.166   0.398  1.0204  1.1669  0.0975
 8872SOL    HW238079   2.895   3.086   0.274 -1.1621  0.3030  0.7294
 8873SOL     OW38080   3.748   2.204  15.334 -0.0534  0.0559 -0.6276
 8873SOL    HW138081   3.733   2.289  15.292 -1.5281 -0.5556 -1.3454
 8873SOL    HW238082   3.735   2.144  15.260 -2.2887  0.7347 -0.7872
 8874SOL     OW38083   4.209   4.136   7.164 -0.1536 -0.5372 -0.4338
 8874SOL    HW138084   4.194   4.043   7.151 -1.6816 -0.3621  0.1769
 8874SOL    HW238085   4.294   4.144   7.209 -0.0020  1.1675 -1.0264
 8875SOL     OW38086   1.303   4.359   7.494  0.2003  0.0874  0.3419
 8875SOL    HW138087   1.256   4.433   7.531  1.9444  1.3621  0.0255
 8875SOL    HW238088   1.343   4.322   7.572  1.2773  0.8903  0.1762
 8876SOL     OW38089   3.874   3.067   9.034 -0.3286  0.4150  0.5594
 8876SOL    HW138090   3.888   3.040   8.944  0.2037  3.5149 -0.3071
 8876SOL    HW238091   3.938   3.019   9.087  0.0125  2.3667  1.9124
 8877SOL     OW38092   4.707   2.976   7.859  0.5996  0.4968 -0.6587
 8877SOL    HW138093   0.035   2.935   7.792  2.8376 -2.6181  3.0716
 8877SOL    HW238094   0.041   3.037   7.899  1.3019 -0.4151 -0.3225
 8878SOL     OW38095   2.626   3.782   7.693 -0.6011 -0.0970  0.2239
 8878SOL    HW138096   2.544   3.733   7.701 -2.7107  3.2456 -0.8767
 8878SOL    HW238097   2.616   3.811   7.602 -1.4887  1.5224  0.8401
 8879SOL     OW38098   0.348   4.436   5.573 -0.8255  0.0460  0.3455
 8879SOL    HW138099   0.293   4.372   5.527  0.1287 -1.5900  1.4654
 8879SOL    HW238100   0.431   4.390   5.566 -1.1127 -0.6671  1.4805
 8880SOL     OW38101   3.892   0.517   1.531 -0.2160 -0.1848 -0.1348
 8880SOL    HW138102   3.907   0.596   1.477 -2.5983  1.0528  1.0177
 8880SOL    HW238103   3.968   0.526   1.588 -1.3164  1.2318  1.1085
 8881SOL     OW38104   2.318   3.933  15.213 -0.2956  0.6135  0.5012
 8881SOL    HW138105   2.251   3.961  15.151  0.3728 -0.0888 -0.5343
 8881SOL    HW238106   2.257   3.905  15.281  0.2223 -1.2357  0.2138
 8882SOL     OW38107   1.026   1.452  10.663 -0.1197 -0.3073  0.4055
 8882SOL    HW138108   1.064   1.530  10.704  0.4860  1.0114 -2.6945
 8882SOL    HW238109   0.933   1.465  10.682  0.1290  0.2064  1.3181
 8883SOL     OW38110   4.592   0.573   9.769  0.1206  0.1721 -0.1691
 8883SOL    HW138111   4.665   0.512   9.777  1.3085  1.6526  0.3513
 8883SOL    HW238112   4.573   0.602   9.858 -0.7891 -2.5875  0.5500
 8884SOL     OW38113   4.338   3.417   5.868  0.4161 -0.5067 -0.1224
 8884SOL    HW138114   4.428   3.409   5.836  0.4093 -0.5273 -0.1361
 8884SOL    HW238115   4.291   3.431   5.786  2.3695 -0.4746 -1.2340
 8885SOL     OW38116   0.719   4.640   9.161 -0.2825 -0.7111 -0.4693
 8885SOL    HW138117   0.740   4.596   9.243 -0.1160  2.4338  1.2025
 8885SOL    HW238118   0.797   4.695   9.166 -1.2667  0.6378  0.1424
 8886SOL     OW38119   4.046   2.310   1.220  0.3317 -0.0304 -0.6443
 8886SOL    HW138120   4.099   2.384   1.251 -0.3153 -0.8428  2.4102
 8886SOL    HW238121   3.962   2.352   1.208  1.4931  2.4013 -0.2938
 8887SOL     OW38122   0.552   1.515  10.856 -0.1238  0.0754  0.5117
 8887SOL    HW138123   0.478   1.493  10.801 -0.9943  3.3256  0.3565
 8887SOL    HW238124   0.518   1.547  10.940  0.4230  0.6016  0.5355
 8888SOL     OW38125   1.622   3.076   9.429  0.1596  0.5036  0.7340
 8888SOL    HW138126   1.647   2.987   9.407 -1.4875  1.0318 -3.1307
 8888SOL    HW238127   1.692   3.123   9.384 -1.4398 -1.2866 -3.5685
 8889SOL     OW38128   3.931   0.668  14.547 -0.3363 -0.2449 -0.8276
 8889SOL    HW138129   3.945   0.587  14.596 -1.0638 -1.5208 -2.6954
 8889SOL    HW238130   3.903   0.632  14.463  0.4247  0.4957 -1.4003
 8890SOL     OW38131   4.109   0.996   7.013  0.2483 -0.6168 -0.2339
 8890SOL    HW138132   4.187   0.959   7.055  1.3319  0.9955 -0.8373
 8890SOL    HW238133   4.113   0.966   6.923 -0.9079  0.9533 -0.8095
 8891SOL     OW38134   0.865   0.976   8.166 -0.1707 -0.0695 -0.2260
 8891SOL    HW138135   0.783   0.950   8.209  0.6700 -1.2177  0.6723
 8891SOL    HW238136   0.850   1.070   8.159  0.9306  0.1438  0.2238
 8892SOL     OW38137   2.077   1.955   5.867  0.0629 -0.1282 -0.9304
 8892SOL    HW138138   2.058   1.923   5.779 -1.1272 -0.6948 -0.4635
 8892SOL    HW238139   2.044   2.045   5.864  0.0498 -0.0898  0.1043
 8893SOL     OW38140   4.330   0.232   8.526  0.3561 -0.1758 -0.1265
 8893SOL    HW138141   4.400   0.226   8.591  0.2667 -0.5276 -0.0632
 8893SOL    HW238142   4.270   0.160   8.550 -1.5364  1.4197 -0.0365
 8894SOL     OW38143   4.563   4.335   1.403 -0.1712 -0.2627  0.3995
 8894SOL    HW138144   4.533   4.285   1.327 -0.1304  0.2770  0.0205
 8894SOL    HW238145   4.624   4.396   1.361 -2.0650  1.3178 -0.0727
 8895SOL     OW38146   4.257   2.085   1.192  0.0244 -0.2618  0.5477
 8895SOL    HW138147   4.228   1.994   1.179  0.3269 -0.4808  1.4076
 8895SOL    HW238148   4.176   2.135   1.200 -1.1568 -2.1373  0.3606
 8896SOL     OW38149   0.155   0.728   8.249 -0.6139  0.4185 -0.4343
 8896SOL    HW138150   0.137   0.794   8.315  1.4079  0.7299 -0.1777
 8896SOL    HW238151   0.200   0.667   8.308  1.3238  1.4649 -0.8166
 8897SOL     OW38152   1.379   0.469  13.132 -0.1241 -0.6650  0.2459
 8897SOL    HW138153   1.327   0.542  13.097  3.2160  0.9525 -1.3286
 8897SOL    HW238154   1.427   0.446  13.053  1.1788 -0.1927  0.8893
 8898SOL     OW38155   2.971   4.105   3.940  0.0078 -0.3555  0.4149
 8898SOL    HW138156   2.951   4.094   4.033 -2.1612  0.0096 -0.0143
 8898SOL    HW238157   3.029   4.030   3.928  2.9055  1.7037  1.5605
 8899SOL     OW38158   2.945   3.881  16.446  0.2215  0.1554  1.0227
 8899SOL    HW138159   2.900   3.840  16.519  1.9279 -2.1027  0.8153
 8899SOL    HW238160   3.009   3.944  16.480  0.9398 -0.1447  0.2651
 8900SOL     OW38161   3.534   3.627   7.479 -0.3760  0.8062 -0.6110
 8900SOL    HW138162   3.517   3.547   7.529  0.7156  0.0684 -1.4134
 8900SOL    HW238163   3.582   3.599   7.401 -1.4169 -0.4835 -0.7824
 8901SOL     OW38164   4.529   0.872  11.326  0.0543 -0.4382  0.0005
 8901SOL    HW138165   4.618   0.908  11.331 -0.1782  0.0756  0.3701
 8901SOL    HW238166   4.481   0.948  11.293  2.4892  0.6920 -0.9892
 8902SOL     OW38167   1.946   4.501   4.835  0.2104  0.5551  0.4156
 8902SOL    HW138168   1.873   4.563   4.833 -0.6577 -0.4936 -0.4607
 8902SOL    HW238169   1.936   4.457   4.920 -1.5053  0.1691  0.0105
 8903SOL     OW38170   1.515   1.925  12.066 -0.4752  0.2066  0.0865
 8903SOL    HW138171   1.497   1.974  12.146  1.0743  0.5665  0.2053
 8903SOL    HW238172   1.424   1.917  12.036  0.1581  1.0905 -2.0671
 8904SOL     OW38173   4.015   1.425  11.019 -0.3141  0.1446  0.0198
 8904SOL    HW138174   3.960   1.441  11.096 -1.1975  1.0448 -0.7950
 8904SOL    HW238175   4.047   1.335  11.023  0.2609  0.3491 -0.0008
 8905SOL     OW38176   2.343   1.479   8.262  0.0707 -0.0617 -0.0926
 8905SOL    HW138177   2.384   1.560   8.231  0.4682 -0.3600 -0.3428
 8905SOL    HW238178   2.338   1.496   8.356 -0.7273  0.6875 -0.2650
 8906SOL     OW38179   0.582   0.958  11.340  0.4986 -0.5538 -0.3400
 8906SOL    HW138180   0.515   0.898  11.307  0.3183  0.1854 -1.3048
 8906SOL    HW238181   0.621   0.984  11.257  0.6612  1.3794  0.3376
 8907SOL     OW38182   4.498   1.947   1.141  0.0019  0.1750 -0.0620
 8907SOL    HW138183   4.418   1.999   1.131 -0.4070 -0.9155 -2.4503
 8907SOL    HW238184   4.538   1.982   1.221  0.4105 -2.6384  0.9517
 8908SOL     OW38185   1.437   0.641  11.610  0.1470 -0.2564  0.0949
 8908SOL    HW138186   1.453   0.549  11.591  0.4321  0.0956 -1.3588
 8908SOL    HW238187   1.500   0.654  11.681 -0.8756  0.7397  0.8245
 8909SOL     OW38188   4.493   0.799   5.891 -0.2111 -0.0586 -0.4902
 8909SOL    HW138189   4.505   0.838   5.978 -1.1624  4.0912 -2.2031
 8909SOL    HW238190   4.528   0.715   5.920  3.3311  2.2853  2.0897
 8910SOL     OW38191   4.671   3.721  12.444  0.6364 -0.2194 -0.5093
 8910SOL    HW138192   0.008   3.657  12.412 -1.3756 -2.9303  0.9611
 8910SOL    HW238193   4.687   3.782  12.372  3.2402  0.0286  0.3098
 8911SOL     OW38194   0.805   2.039   6.955  0.0215 -0.4948  0.7944
 8911SOL    HW138195   0.851   2.074   6.878  3.4517 -0.4952  2.8345
 8911SOL    HW238196   0.854   1.957   6.964 -0.3622 -0.6967  1.0373
 8912SOL     OW38197   4.114   0.976  13.188  0.3470 -0.0439  0.1299
 8912SOL    HW138198   4.121   1.071  13.183  2.9443 -0.2719 -0.1544
 8912SOL    HW238199   4.115   0.948  13.097  0.5611  2.9284 -0.7623
 8913SOL     OW38200   2.980   4.101   0.982 -0.3598 -0.2846  0.4702
 8913SOL    HW138201   2.900   4.073   1.028  0.5894 -1.1129  1.6246
 8913SOL    HW238202   2.991   4.028   0.921  0.8015  0.7557 -0.5604
 8914SOL     OW38203   2.669   4.219   6.948 -0.1303 -0.2325  0.7128
 8914SOL    HW138204   2.599   4.246   6.889  0.9760 -0.7570 -0.8512
 8914SOL    HW238205   2.738   4.230   6.882 -1.1814  2.1131  0.0137
 8915SOL     OW38206   1.563   4.102   6.426  0.1520 -0.0059  0.3745
 8915SOL    HW138207   1.589   4.123   6.515  2.1138 -1.0967  0.0806
 8915SOL    HW238208   1.521   4.017   6.441  1.1642 -0.4540  0.6684
 8916SOL     OW38209   0.231   4.610   0.943 -0.3141 -0.1844 -0.0619
 8916SOL    HW138210   0.300   4.564   0.992 -0.8463  0.4226  1.2640
 8916SOL    HW238211   0.228   4.697   0.984  1.5554  0.6276 -1.6349
 8917SOL     OW38212   4.002   1.681  17.230 -0.4956  0.0708  0.5782
 8917SOL    HW138213   3.980   1.617  17.162 -0.3614  1.8249 -1.1111
 8917SOL    HW238214   4.055   1.745  17.184 -0.0699 -1.7825 -1.5550
 8918SOL     OW38215   1.426   2.333   0.402 -0.5584  0.2023 -0.6735
 8918SOL    HW138216   1.427   2.425   0.431  1.5832 -0.3074  0.9042
 8918SOL    HW238217   1.506   2.291   0.435 -1.2621  0.5691  1.4728
 8919SOL     OW38218   1.384   2.419   3.708 -0.2087  0.3515 -0.4178
 8919SOL    HW138219   1.332   2.377   3.639 -2.2484 -0.3489  1.5489
 8919SOL    HW238220   1.311   2.449   3.762 -0.3106  0.8502 -0.8307
 8920SOL     OW38221   0.064   0.650   2.378  0.2677  0.1972  0.0927
 8920SOL    HW138222   0.067   0.733   2.331 -1.3530 -0.7178 -1.6271
 8920SOL    HW238223   4.717   0.604   2.338  0.1464  0.9275 -0.5278
 8921SOL     OW38224   2.817   4.169   9.893 -0.4937  0.5815  0.0834
 8921SOL    HW138225   2.724   4.192   9.895  0.0995  3.0893 -1.6451
 8921SOL    HW238226   2.829   4.177   9.798 -1.9946  0.2743 -0.1443
 8922SOL     OW38227   3.937   2.647   5.897 -0.3742  0.0864  0.0986
 8922SOL    HW138228   3.860   2.631   5.844  0.6804  0.6849 -1.6201
 8922SOL    HW238229   3.920   2.726   5.948 -0.2236  2.0186 -2.8290
 8923SOL     OW38230   1.613   2.117   6.677  0.4685 -0.0017 -0.2711
 8923SOL    HW138231   1.524   2.146   6.699  1.4211  3.3194 -0.8124
 8923SOL    HW238232   1.606   2.103   6.583 -0.2897  1.6779 -0.4603
 8924SOL     OW38233   4.601   2.038   5.662  0.1923 -0.1684 -0.3777
 8924SOL    HW138234   4.537   2.084   5.717  0.8138  2.2187 -1.7155
 8924SOL    HW238235   4.663   2.109   5.649  1.1849 -0.5927  2.0304
 8925SOL     OW38236   2.929   4.364  13.388 -0.9105 -0.1697 -0.0671
 8925SOL    HW138237   2.987   4.322  13.451  0.6506  0.6466 -0.9499
 8925SOL    HW238238   2.975   4.354  13.304 -1.4995 -0.1354 -0.3907
 8926SOL     OW38239   4.320   4.553  15.798 -0.3507  0.2586 -0.4500
 8926SOL    HW138240   4.258   4.558  15.870  0.3095  1.7172  0.0088
 8926SOL    HW238241   4.266   4.588  15.726 -0.0477 -1.0113 -1.3120
 8927SOL     OW38242   3.480   3.734   4.920 -0.6504 -0.3926 -0.5707
 8927SOL    HW138243   3.508   3.772   4.837  0.1760 -2.4080 -1.2177
 8927SOL    HW238244   3.540   3.662   4.941 -1.6073 -0.7966  0.7927
 8928SOL     OW38245   3.991   3.936   2.693 -0.2063  0.3744  0.7292
 8928SOL    HW138246   4.082   3.914   2.711  0.0819 -0.2933 -1.5256
 8928SOL    HW238247   3.998   4.021   2.649  0.3739 -0.0352  0.0261
 8929SOL     OW38248   3.574   1.518   2.771  0.1433 -0.4775  0.7563
 8929SOL    HW138249   3.631   1.592   2.751  1.1420 -1.4898 -0.1153
 8929SOL    HW238250   3.526   1.521   2.689 -0.9912  0.8449  1.4694
 8930SOL     OW38251   2.140   1.252   6.665 -0.0783  0.2751  0.7296
 8930SOL    HW138252   2.122   1.178   6.607  0.3095 -0.2883  1.3202
 8930SOL    HW238253   2.066   1.304   6.634  0.6179  2.8164  3.2546
 8931SOL     OW38254   3.068   2.409  16.670  0.5761  0.3497 -0.2658
 8931SOL    HW138255   2.977   2.420  16.644  0.4408  0.2155  0.1643
 8931SOL    HW238256   3.105   2.416  16.582  0.4582  0.1272 -0.3327
 8932SOL     OW38257   3.863   3.772   9.428 -0.2051  0.3696 -0.0619
 8932SOL    HW138258   3.798   3.784   9.360 -0.9257  0.4255  0.6335
 8932SOL    HW238259   3.806   3.770   9.505 -0.1823  1.2401 -0.0224
 8933SOL     OW38260   1.978   2.656  14.858  0.5263 -0.7704  0.0090
 8933SOL    HW138261   1.960   2.570  14.821  0.3130 -0.4771 -0.5638
 8933SOL    HW238262   1.906   2.710  14.825  0.0645 -0.7602  1.0054
 8934SOL     OW38263   4.299   3.617   8.080 -0.5177 -0.4329  0.5939
 8934SOL    HW138264   4.305   3.713   8.074 -2.1365 -0.1988  2.6777
 8934SOL    HW238265   4.350   3.588   8.005 -2.3639  0.1180 -0.8828
 8935SOL     OW38266   2.729   2.696  13.111  0.5075 -0.6204  0.4766
 8935SOL    HW138267   2.749   2.787  13.132 -1.3064 -0.4339  1.4159
 8935SOL    HW238268   2.805   2.649  13.144  0.5383 -3.2116 -3.2592
 8936SOL     OW38269   3.935   3.304   2.336  0.3860 -0.4282  0.6501
 8936SOL    HW138270   3.901   3.281   2.249  2.1268  0.9422 -0.3840
 8936SOL    HW238271   3.972   3.386   2.305  0.6219 -1.0338 -0.6670
 8937SOL     OW38272   4.304   1.574  10.624  0.6546 -0.6369 -0.0929
 8937SOL    HW138273   4.365   1.580  10.551  2.6928  1.4519  1.7531
 8937SOL    HW238274   4.356   1.585  10.704 -0.9596 -1.8170  1.1118
 8938SOL     OW38275   4.238   3.184  17.430  0.1946 -0.3407 -0.6276
 8938SOL    HW138276   4.273   3.231  17.506 -0.2632  2.4641 -2.1324
 8938SOL    HW238277   4.183   3.123  17.479 -2.2140  2.2716 -0.0353
 8939SOL     OW38278   3.943   3.098  13.747  0.5059 -0.3323  0.4789
 8939SOL    HW138279   4.004   3.127  13.813  0.1370  0.2498  0.5595
 8939SOL    HW238280   3.921   3.006  13.764 -0.1430 -0.4773 -1.1000
 8940SOL     OW38281   0.359   2.289   0.952  0.0949 -0.5123  0.4197
 8940SOL    HW138282   0.320   2.268   0.867 -0.0226  0.7165  0.1724
 8940SOL    HW238283   0.401   2.205   0.970  1.8115  0.1744 -0.4346
 8941SOL     OW38284   2.274   4.343   9.658 -0.5197  0.1750  0.1061
 8941SOL    HW138285   2.226   4.421   9.630  0.5229  0.6267 -0.4222
 8941SOL    HW238286   2.274   4.352   9.753 -0.6968 -0.5269  0.1753
 8942SOL     OW38287   2.220   2.335   5.312 -0.3958 -0.2612 -0.4471
 8942SOL    HW138288   2.309   2.370   5.310 -0.1038 -0.9384  0.4080
 8942SOL    HW238289   2.236   2.245   5.340 -0.4717  0.0046  0.4629
 8943SOL     OW38290   2.403   1.836   0.171 -0.1773 -0.0639 -0.4812
 8943SOL    HW138291   2.460   1.783   0.115 -0.6785  0.7943 -1.8041
 8943SOL    HW238292   2.349   1.770   0.214 -0.7002  0.0262 -0.9945
 8944SOL     OW38293   3.460   4.442  17.699  1.0100  0.3518  0.2294
 8944SOL    HW138294   3.546   4.460  17.661  1.0360 -0.3965 -0.0562
 8944SOL    HW238295   3.422   4.388  17.630  2.1217 -1.1057  0.7728
 8945SOL     OW38296   3.719   3.331   3.068  0.1581 -0.8798  0.3137
 8945SOL    HW138297   3.630   3.314   3.037  0.1055 -0.5289  0.2796
 8945SOL    HW238298   3.708   3.422   3.094  0.6610 -0.7348  0.0201
 8946SOL     OW38299   2.910   0.561  12.419  0.1382  0.8983  0.1229
 8946SOL    HW138300   2.970   0.499  12.377 -0.6059  0.0061  0.3811
 8946SOL    HW238301   2.826   0.517  12.406  0.2557  0.2388  1.6680
 8947SOL     OW38302   0.629   2.149   4.493 -1.0565  0.1398 -0.8703
 8947SOL    HW138303   0.540   2.171   4.465 -0.7451  0.4712 -1.5842
 8947SOL    HW238304   0.623   2.056   4.512 -0.8611  0.3420  0.2001
 8948SOL     OW38305   4.275   1.260   6.738  0.6651 -0.0144  0.1525
 8948SOL    HW138306   4.288   1.338   6.792 -0.5353 -0.0508  0.5016
 8948SOL    HW238307   4.276   1.304   6.653  1.0773  0.9797  0.6671
 8949SOL     OW38308   1.641   0.635   5.877 -0.5788  0.0689 -0.0932
 8949SOL    HW138309   1.556   0.677   5.887 -1.1775 -1.2043  0.1254
 8949SOL    HW238310   1.675   0.665   5.961 -0.1675 -2.3316  0.6054
 8950SOL     OW38311   4.571   3.289   3.730 -0.2755 -0.3505 -0.6654
 8950SOL    HW138312   4.607   3.280   3.818 -2.2117  1.6272  0.3336
 8950SOL    HW238313   4.496   3.229   3.724 -0.4844 -0.3196  1.9336
 8951SOL     OW38314   1.972   0.098   7.918  0.2565 -0.2319 -0.2743
 8951SOL    HW138315   1.895   0.155   7.920  1.1144  0.8986  0.4947
 8951SOL    HW238316   1.947   0.044   7.992  0.7410 -0.2781 -0.1491
 8952SOL     OW38317   2.065   0.440  14.594 -0.3564 -0.2546  0.3988
 8952SOL    HW138318   2.006   0.460  14.521  1.1149  0.2014 -0.6771
 8952SOL    HW238319   2.025   0.357  14.619  1.0568 -0.4816  1.8803
 8953SOL     OW38320   1.328   1.230   1.477  0.0184  0.9241  0.2478
 8953SOL    HW138321   1.395   1.209   1.412 -0.6765  1.1260 -0.5371
 8953SOL    HW238322   1.370   1.231   1.563  1.4951 -3.0858 -0.3973
 8954SOL     OW38323   1.551   1.374   7.136  0.3500  0.1425 -0.0743
 8954SOL    HW138324   1.469   1.362   7.183 -0.1821  0.8084 -0.8242
 8954SOL    HW238325   1.613   1.348   7.204  0.6023 -1.5583 -0.9735
 8955SOL     OW38326   0.563   2.930   3.233  0.6801  0.1093 -0.2272
 8955SOL    HW138327   0.476   2.903   3.263  0.5205  2.1835  1.1549
 8955SOL    HW238328   0.568   2.906   3.140  2.6114  1.1327 -0.3839
 8956SOL     OW38329   3.603   3.467   7.259 -0.2401  0.0755 -0.3533
 8956SOL    HW138330   3.517   3.479   7.219 -1.0496 -0.9588  1.0782
 8956SOL    HW238331   3.598   3.375   7.284 -0.6996  0.0487 -0.5350
 8957SOL     OW38332   2.722   2.477   7.536 -0.1444  0.5713 -0.4359
 8957SOL    HW138333   2.702   2.440   7.622 -1.7970  0.7049 -0.7633
 8957SOL    HW238334   2.726   2.565   7.575  3.4929  0.7619 -1.2656
 8958SOL     OW38335   1.077   1.052   8.737  1.0916 -0.6712  0.4415
 8958SOL    HW138336   1.100   1.095   8.655  0.7667 -0.5855  0.3951
 8958SOL    HW238337   1.155   0.999   8.750  2.1876  1.4740  2.6872
 8959SOL     OW38338   2.583   3.478   9.486  0.2172 -0.0146 -0.1601
 8959SOL    HW138339   2.640   3.482   9.563  0.3773 -0.2587 -0.2623
 8959SOL    HW238340   2.554   3.569   9.487 -0.9233 -0.3683 -0.7240
 8960SOL     OW38341   3.109   0.992   4.981  0.6501  0.1841 -0.0633
 8960SOL    HW138342   3.037   0.945   5.022 -0.6178 -0.3908 -2.9754
 8960SOL    HW238343   3.131   1.053   5.052 -3.0996  1.8125 -0.3100
 8961SOL     OW38344   1.666   0.368  16.408  0.7973  0.6711 -0.2123
 8961SOL    HW138345   1.712   0.287  16.428 -0.9647 -0.8271 -2.3324
 8961SOL    HW238346   1.744   0.421  16.390 -0.3207  2.3787 -0.0090
 8962SOL     OW38347   1.325   2.807   5.779  0.3278 -0.1539  0.5515
 8962SOL    HW138348   1.289   2.770   5.699  0.3589 -0.0381  0.4843
 8962SOL    HW238349   1.258   2.792   5.845 -1.3752  0.1809 -1.1104
 8963SOL     OW38350   3.692   3.924   4.413 -0.3242 -0.1914  0.0341
 8963SOL    HW138351   3.604   3.936   4.376 -0.3647 -0.8730 -0.0869
 8963SOL    HW238352   3.746   3.914   4.335 -0.4225  2.3836 -0.3585
 8964SOL     OW38353   1.297   2.665  12.132  0.0420 -0.0352 -0.0016
 8964SOL    HW138354   1.239   2.665  12.208 -0.0608  2.0227 -0.0837
 8964SOL    HW238355   1.258   2.589  12.088 -0.1851  1.5805 -2.5923
 8965SOL     OW38356   1.372   3.345  16.133  0.3900  0.8663  0.1867
 8965SOL    HW138357   1.407   3.274  16.080  0.5074  0.9466  0.1561
 8965SOL    HW238358   1.454   3.394  16.126  0.9932 -0.3492 -1.1157
 8966SOL     OW38359   1.086   4.674   5.660 -0.5222  0.2361  0.4652
 8966SOL    HW138360   1.175   4.641   5.651 -0.6192  0.4029 -0.9774
 8966SOL    HW238361   1.045   4.644   5.579  0.3730 -1.9690  0.8337
 8967SOL     OW38362   2.314   2.247   2.261  0.0185 -0.0159  0.7529
 8967SOL    HW138363   2.377   2.187   2.221 -0.1293 -0.1827  0.7656
 8967SOL    HW238364   2.255   2.177   2.290  0.0620 -1.0297 -1.5998
 8968SOL     OW38365   1.339   0.736   6.806 -0.2516 -0.0238  0.1162
 8968SOL    HW138366   1.425   0.696   6.811  0.2153  1.2321  2.0394
 8968SOL    HW238367   1.295   0.694   6.880 -1.2787  4.7055  2.2054
 8969SOL     OW38368   2.565   4.690  10.924  0.0062  0.1572 -0.2543
 8969SOL    HW138369   2.511   0.041  10.909 -0.8224 -0.3331  0.2349
 8969SOL    HW238370   2.565   4.693  11.019 -3.8054 -1.1772 -0.2245
 8970SOL     OW38371   1.601   2.226   5.645 -0.2867  0.3454 -0.4907
 8970SOL    HW138372   1.653   2.284   5.700 -1.1457 -0.5721  1.2726
 8970SOL    HW238373   1.597   2.154   5.708  1.3538  1.1306  0.5165
 8971SOL     OW38374   0.395   4.029   6.235  0.1693 -0.1254  0.2687
 8971SOL    HW138375   0.344   4.034   6.154 -0.8162  0.2765  0.9065
 8971SOL    HW238376   0.472   4.073   6.201 -1.2814  2.6314  0.5047
 8972SOL     OW38377   2.218   0.107   5.221  0.0322  0.7028 -0.3244
 8972SOL    HW138378   2.260   0.024   5.201  1.9407  1.5561  0.1883
 8972SOL    HW238379   2.171   0.073   5.298  0.0338  0.3567 -0.4779
 8973SOL     OW38380   4.532   1.769   3.480 -1.0667 -0.1557  0.4040
 8973SOL    HW138381   4.468   1.782   3.550 -1.7420  1.6556 -0.5341
 8973SOL    HW238382   4.613   1.766   3.530 -1.3475  1.1025  0.9318
 8974SOL     OW38383   4.338   2.321   2.686 -0.2334 -0.4835  0.2331
 8974SOL    HW138384   4.253   2.358   2.665 -1.1464 -1.9296  1.3806
 8974SOL    HW238385   4.386   2.404   2.690  0.2101 -0.7861  1.2632
 8975SOL     OW38386   0.791   4.694   7.259  0.3307 -0.4651 -0.4816
 8975SOL    HW138387   0.867   4.659   7.213  0.9953  0.8474 -0.3817
 8975SOL    HW238388   0.773   0.046   7.206 -0.5608 -0.9602 -0.9192
 8976SOL     OW38389   4.590   2.990   1.356 -0.3470 -0.0811  0.6193
 8976SOL    HW138390   4.658   2.927   1.332 -0.7350 -0.3095  0.1197
 8976SOL    HW238391   4.620   3.025   1.440  2.6429  0.9655 -0.8989
 8977SOL     OW38392   3.199   3.162   4.744 -0.5782  0.3581 -0.5088
 8977SOL    HW138393   3.220   3.103   4.672  0.8845  0.0598  0.1799
 8977SOL    HW238394   3.284   3.183   4.782  0.3805  0.8403 -2.9109
 8978SOL     OW38395   2.200   3.803   3.079  0.0117 -0.1280  0.0493
 8978SOL    HW138396   2.176   3.866   3.011 -1.2651  2.4562  2.8730
 8978SOL    HW238397   2.181   3.720   3.036 -2.6250  0.1786  0.6315
 8979SOL     OW38398   4.245   1.843   0.892  0.0472  0.0098  0.3566
 8979SOL    HW138399   4.158   1.851   0.853 -0.3524 -1.3428  0.9447
 8979SOL    HW238400   4.231   1.828   0.986  1.4205  2.1057  0.8993
 8980SOL     OW38401   1.099   2.895   5.326 -0.1889 -0.1698 -0.8682
 8980SOL    HW138402   1.056   2.822   5.370  1.4981 -0.6670 -0.0318
 8980SOL    HW238403   1.186   2.900   5.365 -1.1686 -0.7256  1.4120
 8981SOL     OW38404   0.766   0.379   9.356 -0.5437  0.4064  0.5637
 8981SOL    HW138405   0.773   0.450   9.420 -1.0783 -0.4706  1.6036
 8981SOL    HW238406   0.837   0.323   9.389 -0.7830  0.7142  1.6004
 8982SOL     OW38407   2.564   1.890  13.464 -0.8914  0.3298  0.5546
 8982SOL    HW138408   2.577   1.835  13.387  0.6662  0.6448  0.5975
 8982SOL    HW238409   2.638   1.860  13.518 -0.6842 -2.1272 -1.0936
 8983SOL     OW38410   2.485   4.362  17.678 -0.4247 -0.4269  0.3478
 8983SOL    HW138411   2.548   4.390   0.038  0.5131 -0.1288 -0.6494
 8983SOL    HW238412   2.526   4.362  17.591 -2.0853 -0.9475 -0.4325
 8984SOL     OW38413   1.091   1.221   6.976  0.4343 -0.1465 -0.2568
 8984SOL    HW138414   1.057   1.172   7.051 -2.5623 -0.2096 -1.6287
 8984SOL    HW238415   1.043   1.194   6.898  0.9299 -1.3809 -0.1326
 8985SOL     OW38416   1.360   4.286   7.042 -0.1027  0.2396 -0.4381
 8985SOL    HW138417   1.408   4.366   7.065 -0.8504  1.2909 -2.4656
 8985SOL    HW238418   1.333   4.253   7.127  0.5491 -1.9071 -1.0619
 8986SOL     OW38419   3.730   1.903   8.724  0.5234 -0.3133  0.2546
 8986SOL    HW138420   3.821   1.875   8.722  1.5394  3.0370  1.0660
 8986SOL    HW238421   3.691   1.838   8.784  0.8578 -0.6274  0.1306
 8987SOL     OW38422   0.151   1.927  10.932  0.0792 -0.8265 -0.0349
 8987SOL    HW138423   0.217   1.969  10.877 -1.9154  0.7862 -1.1979
 8987SOL    HW238424   0.069   1.972  10.912  1.4896  1.5314 -0.4962
 8988SOL     OW38425   0.081   4.557   0.273 -0.2292 -0.3767 -0.3162
 8988SOL    HW138426   0.055   4.468   0.249  2.5469 -1.9854  2.4784
 8988SOL    HW238427   0.129   4.536   0.354 -1.1275 -0.0225  0.3069
 8989SOL     OW38428   0.378   2.033  12.438  0.2960 -0.0099 -0.0367
 8989SOL    HW138429   0.283   2.032  12.443  0.3768 -1.2813  1.1638
 8989SOL    HW238430   0.397   1.949  12.479 -2.2445 -0.6330 -0.1520
 8990SOL     OW38431   4.725   0.387   3.017 -0.3063  0.4942 -0.3389
 8990SOL    HW138432   0.086   0.408   3.047 -0.1263 -0.6527 -0.0472
 8990SOL    HW238433   4.723   0.292   3.028 -1.4074  0.4920 -0.5559
 8991SOL     OW38434   1.914   1.997   6.248  0.1873 -0.2690  0.2016
 8991SOL    HW138435   1.895   2.017   6.339  1.5297 -2.0501  0.8746
 8991SOL    HW238436   1.995   1.945   6.256 -0.7405 -1.8425 -0.5264
 8992SOL     OW38437   0.701   3.089   0.904 -0.1708 -0.5283 -0.4090
 8992SOL    HW138438   0.660   3.154   0.961  2.0589  0.4072  0.1307
 8992SOL    HW238439   0.735   3.027   0.969  0.4668  1.1064  0.8056
 8993SOL     OW38440   3.145   0.300   7.575 -0.0123 -1.0882  0.0033
 8993SOL    HW138441   3.083   0.339   7.513  0.9567  2.6958  1.4504
 8993SOL    HW238442   3.100   0.215   7.576 -3.2084  0.5847 -1.0293
 8994SOL     OW38443   0.840   0.767  17.076  0.5192 -0.4959 -0.1459
 8994SOL    HW138444   0.916   0.825  17.063 -0.1492  0.6880  1.2588
 8994SOL    HW238445   0.791   0.810  17.006 -1.0026 -1.5840  0.2710
 8995SOL     OW38446   4.350   3.778  17.235 -0.3760 -0.3751  0.5264
 8995SOL    HW138447   4.308   3.858  17.266 -1.7926 -1.2983  1.0159
 8995SOL    HW238448   4.421   3.767  17.298  2.8178 -0.5617 -3.1556
 8996SOL     OW38449   0.127   3.088   0.235 -0.5149  0.0078  0.3345
 8996SOL    HW138450   0.146   3.029   0.307 -1.8727 -0.9007 -0.0624
 8996SOL    HW238451   0.137   3.177   0.271 -0.9143 -0.7364  2.2646
 8997SOL     OW38452   2.355   1.340  15.013 -0.0408 -0.6877  0.3668
 8997SOL    HW138453   2.311   1.413  14.969 -0.1629 -1.4796 -0.8393
 8997SOL    HW238454   2.392   1.394  15.082 -0.0117  1.1293 -1.0598
 8998SOL     OW38455   0.760   2.718  12.124  0.4508  0.2877 -0.0601
 8998SOL    HW138456   0.797   2.630  12.118 -0.8761 -0.3082  0.4338
 8998SOL    HW238457   0.791   2.753  12.041 -1.8067  0.1855 -0.9382
 8999SOL     OW38458   4.298   3.888   8.036 -0.2270  0.1314  0.2542
 8999SOL    HW138459   4.220   3.929   8.073 -0.1681 -1.7366  2.4856
 8999SOL    HW238460   4.323   3.952   7.969 -0.9164  0.4992  0.3425
 9000SOL     OW38461   1.427   4.024   8.947 -0.2055 -0.0943 -0.2153
 9000SOL    HW138462   1.458   4.029   8.857 -0.7526 -0.2120 -0.4065
 9000SOL    HW238463   1.473   3.947   8.980 -0.8959  0.2911  1.6436
 9001SOL     OW38464   0.861   3.451   6.675 -0.1524  0.1908  0.9527
 9001SOL    HW138465   0.810   3.378   6.712 -0.6294  0.2901  0.4960
 9001SOL    HW238466   0.867   3.492   6.761  0.5757 -1.1133  1.5057
 9002SOL     OW38467   0.973   1.048   3.771  0.1133 -0.3478  0.5746
 9002SOL    HW138468   0.901   1.082   3.824 -1.4169  0.4043 -1.9780
 9002SOL    HW238469   1.016   0.980   3.822  1.2768  0.1920  0.3280
 9003SOL     OW38470   3.854   0.570   8.623  0.2924  0.4040 -0.0208
 9003SOL    HW138471   3.853   0.632   8.697 -2.0744  1.6189 -1.0684
 9003SOL    HW238472   3.947   0.550   8.620  0.0428 -0.6053 -0.7871
 9004SOL     OW38473   1.566   4.438   3.329 -0.8250 -0.3614  0.0193
 9004SOL    HW138474   1.650   4.478   3.352 -0.5416  0.2757 -2.1046
 9004SOL    HW238475   1.540   4.485   3.250 -0.5003 -1.4352 -0.7290
 9005SOL     OW38476   0.562   1.116   4.639  0.3365 -0.1734  0.2756
 9005SOL    HW138477   0.629   1.179   4.615  1.1585 -1.5814 -1.0958
 9005SOL    HW238478   0.530   1.099   4.551  0.4394 -2.5502  0.6969
 9006SOL     OW38479   3.632   1.774   7.895 -0.3455  0.0380 -0.4484
 9006SOL    HW138480   3.699   1.732   7.949 -0.7247 -0.4952 -0.3980
 9006SOL    HW238481   3.638   1.733   7.810 -1.3920  0.2911 -0.6529
 9007SOL     OW38482   3.581   0.452  12.985  0.2913  0.0436 -0.8207
 9007SOL    HW138483   3.594   0.389  12.915  0.0051  1.3813 -2.0734
 9007SOL    HW238484   3.551   0.528  12.935 -0.6180 -0.2160 -0.6748
 9008SOL     OW38485   0.402   4.060   8.770 -0.1043 -0.1712  0.0439
 9008SOL    HW138486   0.415   3.967   8.751  2.0033 -0.1013  1.1542
 9008SOL    HW238487   0.336   4.072   8.702 -0.7775 -0.3622  0.6720
 9009SOL     OW38488   1.730   3.376   8.203 -0.6207 -0.4659  0.0115
 9009SOL    HW138489   1.635   3.382   8.195 -0.4279  0.3913 -1.6377
 9009SOL    HW238490   1.747   3.367   8.297  2.2509  1.2311 -0.3268
 9010SOL     OW38491   0.884   2.861   1.830 -0.1434  0.1367  0.6968
 9010SOL    HW138492   0.818   2.929   1.848  0.8726  1.3270 -0.1019
 9010SOL    HW238493   0.921   2.849   1.917  0.3240 -1.9432  0.2047
 9011SOL     OW38494   0.481   0.178   4.504  0.1287 -0.2462  0.1832
 9011SOL    HW138495   0.539   0.246   4.538 -1.3441  0.8246  0.5575
 9011SOL    HW238496   0.435   0.141   4.580  0.3211 -1.2494 -0.1898
 9012SOL     OW38497   3.272   4.123   7.982 -0.2484  0.3231  0.0386
 9012SOL    HW138498   3.315   4.148   8.065 -0.1893 -0.7820  0.3440
 9012SOL    HW238499   3.228   4.045   8.015 -1.3630  1.7367  1.8947
 9013SOL     OW38500   4.458   0.756   8.714 -0.0196  0.1464  0.4867
 9013SOL    HW138501   4.483   0.842   8.748 -0.7026  0.8296 -0.7333
 9013SOL    HW238502   4.382   0.775   8.659  1.2279  2.4176 -0.4446
 9014SOL     OW38503   0.113   1.556   8.695 -0.2142 -0.4906  0.1138
 9014SOL    HW138504   0.133   1.593   8.610  0.1489  0.5724  0.6641
 9014SOL    HW238505   0.055   1.483   8.672 -0.2622 -0.1134 -0.9242
 9015SOL     OW38506   2.819   2.248   5.833 -0.2258 -0.0425  0.3125
 9015SOL    HW138507   2.884   2.191   5.873 -1.7478 -0.3006  2.4059
 9015SOL    HW238508   2.780   2.281   5.914 -0.6032 -0.7210  0.4140
 9016SOL     OW38509   0.827   3.159   9.530  0.1316 -0.3548  0.2610
 9016SOL    HW138510   0.746   3.150   9.481  0.7100  0.1435 -0.7850
 9016SOL    HW238511   0.892   3.147   9.461  0.6307  3.0273  0.1410
 9017SOL     OW38512   3.877   2.034  10.483  0.8302  0.1430  0.1229
 9017SOL    HW138513   3.806   1.992  10.435  0.2349  0.8778  0.3636
 9017SOL    HW238514   3.834   2.085  10.552 -1.2066  0.2672 -1.2232
 9018SOL     OW38515   2.410   2.604   8.003 -0.0974 -0.6781 -0.5794
 9018SOL    HW138516   2.364   2.652   7.934 -0.2888 -1.1826 -0.8064
 9018SOL    HW238517   2.352   2.535   8.033 -1.2200  0.3319 -0.4301
 9019SOL     OW38518   1.066   2.808  10.550 -0.1035 -0.5490  0.4351
 9019SOL    HW138519   1.017   2.878  10.508  2.6743 -0.5210 -2.7393
 9019SOL    HW238520   1.142   2.805  10.493  0.1726  0.6401  0.7349
 9020SOL     OW38521   4.561   4.209   4.973 -0.0285 -0.2063  0.3595
 9020SOL    HW138522   4.596   4.225   5.061  1.1197 -0.5699 -0.0269
 9020SOL    HW238523   4.469   4.232   4.987  0.3734  0.5776  1.7635
 9021SOL     OW38524   2.376   3.866   3.925  0.1785 -0.0974 -0.0799
 9021SOL    HW138525   2.407   3.925   3.994  0.0588  0.4033 -0.4580
 9021SOL    HW238526   2.453   3.851   3.869 -0.3614 -0.8925 -0.6047
 9022SOL     OW38527   2.341   4.045   1.545 -0.0654 -0.4164  0.3962
 9022SOL    HW138528   2.396   3.981   1.500  1.8236  1.7664 -0.3960
 9022SOL    HW238529   2.404   4.106   1.583  0.6846 -1.6656  1.1470
 9023SOL     OW38530   3.501   1.199   2.365 -0.3144 -0.2860 -0.7365
 9023SOL    HW138531   3.516   1.114   2.407  0.2003 -0.2790 -0.9111
 9023SOL    HW238532   3.591   1.230   2.361  1.0703 -4.2751 -0.4466
 9024SOL     OW38533   0.327   4.550   8.678 -0.0881 -0.0990  0.1095
 9024SOL    HW138534   0.392   4.490   8.642 -0.0355  0.2627 -0.4112
 9024SOL    HW238535   0.382   4.623   8.706  1.0764 -1.3420  1.0437
 9025SOL     OW38536   0.976   1.160  11.502  0.0480  0.2966 -0.1842
 9025SOL    HW138537   0.885   1.189  11.494  0.3981  0.9778 -1.7768
 9025SOL    HW238538   1.016   1.247  11.492  1.4864 -0.5455 -1.5675
 9026SOL     OW38539   3.721   2.036   6.238 -0.0682 -0.3032 -0.3271
 9026SOL    HW138540   3.721   2.019   6.144 -2.2353  0.9576 -0.5489
 9026SOL    HW238541   3.811   2.007   6.251 -0.5870 -1.3181  1.0245
 9027SOL     OW38542   0.948   3.302  13.207  0.1315  0.2280  0.5509
 9027SOL    HW138543   1.031   3.259  13.186 -0.8817 -0.9033 -1.0851
 9027SOL    HW238544   0.960   3.319  13.301 -1.8622  1.2156  0.6296
 9028SOL     OW38545   2.890   3.869   4.656  0.0475 -0.5273  0.4897
 9028SOL    HW138546   2.887   3.901   4.566 -0.2251 -0.5504  0.4893
 9028SOL    HW238547   2.892   3.774   4.647 -2.0547 -0.2718 -2.6043
 9029SOL     OW38548   4.261   1.775   7.981 -0.1872  0.1401  0.3092
 9029SOL    HW138549   4.239   1.866   8.001  0.5879  1.0651 -3.1033
 9029SOL    HW238550   4.294   1.792   7.893 -2.3441 -3.1304 -1.1124
 9030SOL     OW38551   0.541   2.511  16.786  0.4440  0.4747  0.1775
 9030SOL    HW138552   0.579   2.535  16.870  5.7313  0.4874 -2.1985
 9030SOL    HW238553   0.612   2.486  16.726 -0.1393 -0.4833 -0.1261
 9031SOL     OW38554   3.336   4.693   9.193  0.0444  0.0242  0.1891
 9031SOL    HW138555   3.390   4.622   9.156 -1.2679 -1.2684  0.7298
 9031SOL    HW238556   3.404   0.022   9.231  0.2425 -1.0180  1.3900
 9032SOL     OW38557   2.496   0.157   3.852 -0.0429 -0.1858  0.2709
 9032SOL    HW138558   2.493   0.177   3.759  0.4370 -1.0334  0.0680
 9032SOL    HW238559   2.490   0.062   3.842  0.4473 -0.0939 -0.8804
 9033SOL     OW38560   3.440   1.655   3.983  0.0677 -0.5810 -0.1271
 9033SOL    HW138561   3.351   1.632   3.955  0.5978 -1.2643 -1.2294
 9033SOL    HW238562   3.432   1.750   3.981  0.5297 -0.5191  0.7480
 9034SOL     OW38563   3.985   4.664  16.223  0.5872 -0.0595 -0.0722
 9034SOL    HW138564   4.056   4.634  16.280  1.1561 -0.4882 -0.9995
 9034SOL    HW238565   3.938   4.702  16.296 -0.1210 -2.2690  0.6301
 9035SOL     OW38566   4.235   2.194   0.136 -0.1908 -0.4267 -0.2050
 9035SOL    HW138567   4.189   2.208   0.053 -0.5669  0.2735  0.1323
 9035SOL    HW238568   4.171   2.160   0.198 -1.9215  0.8505 -1.2852
 9036SOL     OW38569   4.096   1.610   8.215  0.4054  0.3431  0.1871
 9036SOL    HW138570   4.119   1.654   8.297 -1.9329  2.9316 -0.5674
 9036SOL    HW238571   4.159   1.646   8.153  0.9307 -0.2172  0.3974
 9037SOL     OW38572   2.409   1.057   4.518 -0.1604  0.1244  0.1185
 9037SOL    HW138573   2.394   1.100   4.434  0.6954 -0.1404 -0.1670
 9037SOL    HW238574   2.427   0.970   4.482  2.2916 -0.5172  2.8800
 9038SOL     OW38575   4.341   3.850  16.974 -0.2613  0.7858  0.3134
 9038SOL    HW138576   4.341   3.812  17.062 -0.1728 -1.9041 -0.8416
 9038SOL    HW238577   4.422   3.823  16.932 -1.4314 -0.5619 -1.0834
 9039SOL     OW38578   0.190   3.410   9.049  0.7777  0.3009 -0.8310
 9039SOL    HW138579   0.181   3.315   9.043  1.1044  0.1733  0.8708
 9039SOL    HW238580   0.230   3.419   9.135  1.1565  0.0096 -0.9785
 9040SOL     OW38581   1.168   2.247  11.800 -0.1958 -0.0749 -0.2712
 9040SOL    HW138582   1.189   2.282  11.886 -2.3662  2.5294 -0.8076
 9040SOL    HW238583   1.108   2.176  11.822 -0.5656  0.5735  0.7714
 9041SOL     OW38584   3.221   1.996   4.801  0.4270  0.2552 -0.4490
 9041SOL    HW138585   3.133   2.026   4.823 -1.1762 -2.7828 -2.8322
 9041SOL    HW238586   3.204   1.938   4.727  1.2564  0.8968 -1.1433
 9042SOL     OW38587   3.536   1.107   1.834 -0.0193 -0.0157  0.4982
 9042SOL    HW138588   3.466   1.139   1.891 -0.0579  1.7201 -0.5215
 9042SOL    HW238589   3.572   1.040   1.892 -0.0513  2.1192  3.0349
 9043SOL     OW38590   1.038   1.026  17.680  0.4189  0.1435 -0.0895
 9043SOL    HW138591   1.103   0.956  17.673 -0.8909 -0.9053 -1.6697
 9043SOL    HW238592   0.999   1.043  17.594  0.2584 -0.9740 -0.2381
 9044SOL     OW38593   3.678   2.984  10.750 -0.1635 -0.6502 -0.4751
 9044SOL    HW138594   3.768   3.012  10.768 -0.9166  0.7839  1.0918
 9044SOL    HW238595   3.622   3.047  10.796  0.5569 -0.3366 -0.0165
 9045SOL     OW38596   3.142   0.113  11.150  0.4998  0.2286 -0.2388
 9045SOL    HW138597   3.229   0.127  11.187 -0.9304  1.1795  2.7234
 9045SOL    HW238598   3.089   0.153  11.219 -0.7817 -0.7804 -0.6465
 9046SOL     OW38599   0.621   3.389   4.155  0.6182  0.0305 -0.0623
 9046SOL    HW138600   0.681   3.317   4.133  0.5186 -0.2428  0.5469
 9046SOL    HW238601   0.631   3.392   4.250 -1.2391 -0.1206  0.1303
 9047SOL     OW38602   3.932   3.694   7.056  0.3499 -0.1246  0.2880
 9047SOL    HW138603   3.890   3.610   7.036 -2.8810  1.6649 -0.3495
 9047SOL    HW238604   3.949   3.690   7.150 -0.1193 -1.2345  0.3187
 9048SOL     OW38605   3.786   1.056  14.399  0.1410  0.0088  0.6121
 9048SOL    HW138606   3.700   1.029  14.368 -0.2186 -0.9201  2.3948
 9048SOL    HW238607   3.761   1.124  14.463  0.8200  0.8893 -0.0607
 9049SOL     OW38608   1.096   0.413   4.708  0.1836  0.4661  0.7553
 9049SOL    HW138609   1.138   0.499   4.718  0.8107  0.4264 -1.6659
 9049SOL    HW238610   1.051   0.431   4.626  0.7655  1.8878  0.7519
 9050SOL     OW38611   4.292   4.470   4.294 -0.6165  0.2750  0.4727
 9050SOL    HW138612   4.375   4.508   4.321 -1.1200  0.3039  2.0136
 9050SOL    HW238613   4.236   4.548   4.289 -0.4607  0.3173 -0.5586
 9051SOL     OW38614   3.678   3.497  11.686  0.6407 -0.6769 -0.6118
 9051SOL    HW138615   3.610   3.506  11.752  1.0330 -2.4914  0.0438
 9051SOL    HW238616   3.757   3.517  11.736  0.4094 -0.1088 -0.4766
 9052SOL     OW38617   0.945   1.898   4.096  0.4302 -0.0325 -0.3308
 9052SOL    HW138618   0.997   1.938   4.166  2.5794 -2.7395 -0.3716
 9052SOL    HW238619   0.905   1.824   4.142 -2.6956  2.2617  0.6425
 9053SOL     OW38620   2.930   4.045   6.384 -0.2748 -0.1193 -0.0004
 9053SOL    HW138621   2.920   3.999   6.300 -3.0454  0.0899  0.2324
 9053SOL    HW238622   2.989   3.980   6.422 -1.1142  0.4371  2.2046
 9054SOL     OW38623   3.145   2.713   7.552  0.6359  0.6876 -0.6958
 9054SOL    HW138624   3.119   2.691   7.462 -0.0176 -2.4521  0.2615
 9054SOL    HW238625   3.061   2.709   7.597  1.3059 -3.9902  0.1205
 9055SOL     OW38626   3.456   1.712  16.980 -0.0607  0.2781 -0.5916
 9055SOL    HW138627   3.389   1.700  17.047  0.4368  0.2508 -0.0933
 9055SOL    HW238628   3.448   1.634  16.926 -1.0919 -0.2554  0.3160
 9056SOL     OW38629   3.989   3.452   8.455  0.2201  0.4113 -0.0333
 9056SOL    HW138630   3.899   3.455   8.423 -0.0830 -0.6185  0.7228
 9056SOL    HW238631   4.049   3.421   8.386 -2.0877 -0.3772 -1.7004
 9057SOL     OW38632   2.373   2.608  12.449 -0.1807 -0.2736  0.2531
 9057SOL    HW138633   2.376   2.539  12.515  1.4408  1.0833  1.5807
 9057SOL    HW238634   2.428   2.574  12.379 -1.3514 -1.7907  0.0747
 9058SOL     OW38635   3.034   3.329   5.238 -0.2841  0.0902  0.0084
 9058SOL    HW138636   2.963   3.266   5.250  0.5151 -0.9297 -0.6046
 9058SOL    HW238637   3.043   3.346   5.332  0.3935  0.1843 -0.0740
 9059SOL     OW38638   1.177   4.535  17.098 -0.2837  0.5252 -0.5816
 9059SOL    HW138639   1.243   4.467  17.105  0.7246  1.2401 -3.2310
 9059SOL    HW238640   1.233   4.611  17.083  1.5754 -0.3959  1.7653
 9060SOL     OW38641   1.201   2.210   6.060 -0.3697 -0.2514  0.3932
 9060SOL    HW138642   1.115   2.244   6.085 -0.9622 -2.0488  0.8352
 9060SOL    HW238643   1.176   2.118   6.071 -2.6331  0.2589 -0.4445
 9061SOL     OW38644   4.405   4.463   9.970 -0.1360 -0.3358 -0.1145
 9061SOL    HW138645   4.463   4.394  10.003 -0.4835 -0.3891  0.3833
 9061SOL    HW238646   4.457   4.540   9.993 -0.5896 -0.2942  0.7813
 9062SOL     OW38647   1.577   4.388   6.357 -0.1787  0.0429  0.0216
 9062SOL    HW138648   1.501   4.411   6.303 -1.6075 -2.2324  1.0538
 9062SOL    HW238649   1.570   4.292   6.349  0.7927 -0.2921  3.2555
 9063SOL     OW38650   2.892   4.616   5.536  0.6316  0.4880 -0.1522
 9063SOL    HW138651   2.903   4.710   5.528 -0.2415  0.5588 -0.4041
 9063SOL    HW238652   2.877   4.613   5.631  0.9611 -0.9403 -0.1401
 9064SOL     OW38653   3.848   3.413   9.247 -0.2685  0.5077  0.1654
 9064SOL    HW138654   3.877   3.417   9.338  0.8053 -0.3909 -0.1482
 9064SOL    HW238655   3.921   3.375   9.199 -1.6825 -1.9695  0.0162
 9065SOL     OW38656   1.837   2.941   0.867 -0.2870  0.0348 -0.2834
 9065SOL    HW138657   1.841   3.030   0.832 -0.0819  0.6905  1.4571
 9065SOL    HW238658   1.804   2.952   0.956 -0.3652  0.2877 -0.3424
 9066SOL     OW38659   1.108   4.059  15.508 -0.0471  0.1783  0.3880
 9066SOL    HW138660   1.187   4.019  15.546  0.1726  0.9030  0.6992
 9066SOL    HW238661   1.107   4.151  15.535  0.1060  0.5525 -0.8478
 9067SOL     OW38662   2.233   4.569   3.625 -0.0679  0.0519 -0.5519
 9067SOL    HW138663   2.249   4.591   3.534 -1.0945 -0.3594 -0.8276
 9067SOL    HW238664   2.161   4.628   3.648 -1.1230 -1.6651  0.5990
 9068SOL     OW38665   2.885   2.765   2.124 -0.1326  0.1406 -0.0676
 9068SOL    HW138666   2.792   2.759   2.145 -0.8629  2.5682 -2.5788
 9068SOL    HW238667   2.886   2.740   2.031  1.0738 -1.9343  0.5044
 9069SOL     OW38668   4.318   4.256   5.092 -0.2292  0.1647 -0.1014
 9069SOL    HW138669   4.227   4.274   5.067 -0.2832 -0.5591 -0.4268
 9069SOL    HW238670   4.297   4.185   5.153 -1.6165  0.4194 -0.2699
 9070SOL     OW38671   3.478   3.388  14.201 -0.2586 -0.0785 -0.4467
 9070SOL    HW138672   3.425   3.427  14.271  2.0312  0.3776  1.0457
 9070SOL    HW238673   3.458   3.447  14.128 -2.1721  1.4339  1.3076
 9071SOL     OW38674   4.463   2.742  10.175 -0.3968  0.2991  0.2472
 9071SOL    HW138675   4.507   2.707  10.098 -3.2217  1.3553 -1.8610
 9071SOL    HW238676   4.421   2.663  10.210 -1.0972  0.7733  0.4753
 9072SOL     OW38677   3.777   0.017  11.177  0.0233 -0.1487 -0.0679
 9072SOL    HW138678   3.778   4.651  11.204 -0.1818 -0.4021 -0.9433
 9072SOL    HW238679   3.722   0.020  11.099 -0.3785  1.0215  0.2587
 9073SOL     OW38680   0.994   0.074   4.092  0.7353 -0.3348 -0.0222
 9073SOL    HW138681   1.084   0.064   4.122  1.6232  1.1844 -2.1759
 9073SOL    HW238682   1.010   0.076   3.998  0.1340 -0.5598 -0.1296
 9074SOL     OW38683   2.855   2.861   4.421 -0.0565  0.3487 -0.1892
 9074SOL    HW138684   2.774   2.812   4.433 -0.4328  0.1350 -3.6211
 9074SOL    HW238685   2.883   2.875   4.511 -0.9140  4.6356 -0.5805
 9075SOL     OW38686   2.157   4.068   9.912 -0.2087 -0.3170  0.2262
 9075SOL    HW138687   2.193   4.146   9.870  2.2232 -2.2057 -1.1742
 9075SOL    HW238688   2.219   4.034   9.976 -1.4054  1.3892  2.3037
 9076SOL     OW38689   2.740   3.333   5.636  0.4196 -0.1745  0.2358
 9076SOL    HW138690   2.646   3.317   5.635  0.5154 -0.6919 -0.2482
 9076SOL    HW238691   2.769   3.297   5.720  2.1811 -0.8090 -0.6505
 9077SOL     OW38692   4.176   1.477   6.231 -0.7757 -0.1131 -0.0716
 9077SOL    HW138693   4.162   1.568   6.256 -0.7534  0.0837 -0.7642
 9077SOL    HW238694   4.193   1.479   6.136  0.8453  0.4786  0.2231
 9078SOL     OW38695   1.323   3.577  15.454 -0.4793 -0.1803  0.2650
 9078SOL    HW138696   1.415   3.603  15.451 -0.1207 -1.5047 -0.2289
 9078SOL    HW238697   1.285   3.586  15.366  0.4605  0.5649 -0.0769
 9079SOL     OW38698   2.584   3.360   0.360 -0.3483  0.2808  0.5199
 9079SOL    HW138699   2.519   3.326   0.298 -0.6917 -1.0960  1.6478
 9079SOL    HW238700   2.547   3.326   0.441  3.8994  0.5713  2.5827
 9080SOL     OW38701   0.897   4.637   3.078 -0.2215 -0.6992  0.0742
 9080SOL    HW138702   0.835   4.573   3.044 -0.0291 -0.9909  0.2802
 9080SOL    HW238703   0.974   4.581   3.083 -1.0674 -1.7994  0.8767
 9081SOL     OW38704   1.264   3.262   6.699 -0.1857 -0.5646  0.0860
 9081SOL    HW138705   1.197   3.330   6.694  0.6395  0.1374 -1.4581
 9081SOL    HW238706   1.343   3.315   6.700 -1.4458  1.3325 -0.2737
 9082SOL     OW38707   3.160   4.573   4.361 -0.0519 -0.1461 -0.0347
 9082SOL    HW138708   3.206   4.642   4.408 -0.4829 -0.4706  0.8595
 9082SOL    HW238709   3.172   4.598   4.269  0.4450 -2.2379 -0.5404
 9083SOL     OW38710   2.934   4.195   7.142  0.1033  0.2894  0.3821
 9083SOL    HW138711   2.970   4.252   7.074 -1.2137  0.4678 -0.1785
 9083SOL    HW238712   2.986   4.220   7.218  1.3827 -0.2727 -0.3074
 9084SOL     OW38713   3.092   1.447   2.609  0.0117 -0.2680 -0.2012
 9084SOL    HW138714   3.064   1.505   2.679 -1.7148  0.6936 -1.7050
 9084SOL    HW238715   3.144   1.383   2.659  1.8701  1.6292  0.2799
 9085SOL     OW38716   0.523   3.503   3.698  0.6671 -0.2644 -0.0906
 9085SOL    HW138717   0.615   3.531   3.695  0.5746  0.0120 -0.3261
 9085SOL    HW238718   0.522   3.438   3.768  1.3040  0.0341  0.1953
 9086SOL     OW38719   3.034   0.659   9.715  0.3669  0.6300 -0.5390
 9086SOL    HW138720   3.088   0.711   9.774  3.8640 -1.0515 -2.2430
 9086SOL    HW238721   2.975   0.732   9.695  0.2298  0.3165 -1.2910
 9087SOL     OW38722   3.946   3.482  13.120  0.3395 -0.3866 -0.6721
 9087SOL    HW138723   3.862   3.510  13.082  0.9211  3.1541  0.6231
 9087SOL    HW238724   3.910   3.431  13.193 -1.0994  0.1790 -0.9779
 9088SOL     OW38725   3.932   0.728   4.934  0.5466  0.1683  0.4780
 9088SOL    HW138726   4.010   0.772   4.900 -0.8439  1.9302 -0.4056
 9088SOL    HW238727   3.967   0.677   5.008  0.6585  0.7829  0.8449
 9089SOL     OW38728   2.812   4.423   8.896  0.2397  0.4285 -0.1897
 9089SOL    HW138729   2.871   4.463   8.959 -1.6020 -0.9232  2.4079
 9089SOL    HW238730   2.742   4.384   8.948 -0.8218  4.0883  1.0820
 9090SOL     OW38731   0.258   1.494   4.473  0.3612 -0.3072  0.5596
 9090SOL    HW138732   0.261   1.588   4.455 -0.7533 -0.3778  0.0296
 9090SOL    HW238733   0.295   1.460   4.392  1.5917  0.5140  0.7785
 9091SOL     OW38734   3.341   2.259   3.066  0.3255  0.3949  0.9085
 9091SOL    HW138735   3.248   2.246   3.082  0.9491 -2.1144  2.5558
 9091SOL    HW238736   3.355   2.329   3.129  0.8237  2.3760 -1.4226
 9092SOL     OW38737   1.094   0.973   8.019  0.0984  0.5561 -0.3443
 9092SOL    HW138738   1.056   0.948   7.935  1.1206  1.5882 -1.1098
 9092SOL    HW238739   1.016   0.976   8.074 -1.1669  0.4884 -2.1358
 9093SOL     OW38740   4.114   4.134  12.223 -0.3137  0.0474  0.1623
 9093SOL    HW138741   4.071   4.048  12.224  2.3545 -1.3089 -2.9836
 9093SOL    HW238742   4.190   4.117  12.279  0.4271  0.1903 -0.8039
 9094SOL     OW38743   1.731   2.690   2.043  0.8589 -0.2304  0.0031
 9094SOL    HW138744   1.748   2.727   1.957 -0.0028  1.2252  0.4672
 9094SOL    HW238745   1.815   2.694   2.087  1.0561 -0.6274 -0.3379
 9095SOL     OW38746   2.827   3.559   4.294  0.3824 -0.2607 -0.7046
 9095SOL    HW138747   2.761   3.491   4.306  2.1093 -2.1904 -2.3760
 9095SOL    HW238748   2.837   3.592   4.384 -2.3581  0.5828 -0.6981
 9096SOL     OW38749   1.009   2.358   2.946  0.3512  0.1458  0.2423
 9096SOL    HW138750   0.971   2.316   2.869 -0.3963  0.8126  0.2420
 9096SOL    HW238751   1.042   2.442   2.912  0.4087  0.1887  0.4034
 9097SOL     OW38752   1.984   0.359   2.056 -0.2458  0.4828  0.0036
 9097SOL    HW138753   1.997   0.276   2.011 -0.1715  1.0386 -0.9969
 9097SOL    HW238754   1.969   0.326   2.144  2.0099 -0.1509  0.1448
 9098SOL     OW38755   0.352   4.092   5.896  0.5341  0.9039  0.3731
 9098SOL    HW138756   0.443   4.073   5.920  0.5125 -1.9920 -1.7875
 9098SOL    HW238757   0.357   4.187   5.889  0.5657  0.9313  0.7638
 9099SOL     OW38758   4.676   4.713  12.825  0.5712  0.0946  0.1695
 9099SOL    HW138759   0.012   4.643  12.845 -0.9961 -1.1083  0.7815
 9099SOL    HW238760   4.650   4.695  12.735  0.0325  0.1410  0.3144
 9100SOL     OW38761   3.096   4.652   9.346  0.3272  0.6412  0.4512
 9100SOL    HW138762   3.152   4.636   9.422  2.2942 -0.7874 -1.2806
 9100SOL    HW238763   3.163   4.682   9.284 -0.1395 -0.1508 -0.4488
 9101SOL     OW38764   2.144   1.088   1.409 -0.6950  0.5603  0.1069
 9101SOL    HW138765   2.117   1.179   1.398  0.3814  0.6415 -1.8241
 9101SOL    HW238766   2.083   1.065   1.479 -1.0964  0.3948 -0.3008
 9102SOL     OW38767   1.439   3.564  17.588  0.2444  0.2335  0.2747
 9102SOL    HW138768   1.456   3.608  17.671  3.5370 -0.6502  0.0961
 9102SOL    HW238769   1.532   3.553  17.568  0.6663  1.0179  1.7920
 9103SOL     OW38770   4.331   0.061  13.834 -0.5581  1.1839 -0.6236
 9103SOL    HW138771   4.312   0.090  13.923  2.0852 -1.5920  0.8333
 9103SOL    HW238772   4.334   4.693  13.845  0.8466  1.2931 -0.1243
 9104SOL     OW38773   4.128   0.757  14.371 -0.0777  0.4187  0.2520
 9104SOL    HW138774   4.186   0.684  14.353  0.2610  0.4492  1.1953
 9104SOL    HW238775   4.049   0.716  14.407 -0.9070 -0.5047 -2.6452
 9105SOL     OW38776   2.712   4.145   8.262 -0.0371  0.1669 -0.0508
 9105SOL    HW138777   2.745   4.234   8.260  0.4618 -0.0048  0.5355
 9105SOL    HW238778   2.618   4.163   8.260 -0.1877 -0.5348  0.5775
 9106SOL     OW38779   3.766   3.091   4.415 -0.3049 -0.1183  0.0110
 9106SOL    HW138780   3.847   3.087   4.365  0.3630  2.5322  0.9047
 9106SOL    HW238781   3.716   3.126   4.342 -0.0964  0.3476  0.0903
 9107SOL     OW38782   3.729   1.985   4.117  0.5332  0.2899 -0.3951
 9107SOL    HW138783   3.760   2.071   4.088  1.5482 -0.6414 -2.0432
 9107SOL    HW238784   3.636   1.997   4.098  0.5025  0.0482 -0.3977
 9108SOL     OW38785   1.206   2.916  15.834 -0.3512 -0.1893  0.5606
 9108SOL    HW138786   1.229   2.997  15.789  0.4817 -0.7455 -0.0269
 9108SOL    HW238787   1.128   2.942  15.884 -0.5869 -0.6468  0.4352
 9109SOL     OW38788   1.958   0.647   5.247  0.0260 -0.8376 -0.1620
 9109SOL    HW138789   1.954   0.676   5.338  0.4535  0.5134 -0.5679
 9109SOL    HW238790   1.950   0.552   5.252  1.3737 -0.9021  0.6114
 9110SOL     OW38791   1.105   1.328   5.504 -0.0425 -0.7321 -0.2403
 9110SOL    HW138792   1.189   1.355   5.542 -1.1388 -0.4499  1.9896
 9110SOL    HW238793   1.095   1.245   5.552  1.0195 -1.2253 -0.8569
 9111SOL     OW38794   0.968   2.799   6.614  0.6961 -0.0309  0.3341
 9111SOL    HW138795   0.964   2.895   6.615 -1.5881 -0.1389  2.2961
 9111SOL    HW238796   0.943   2.795   6.522 -0.4584 -3.6097  0.8007
 9112SOL     OW38797   1.000   4.399   8.453 -0.5619 -0.1761  0.4949
 9112SOL    HW138798   1.017   4.343   8.529 -1.4929 -1.7062 -0.4268
 9112SOL    HW238799   0.918   4.439   8.478  0.3675  0.7176  2.0796
 9113SOL     OW38800   2.188   0.900   3.044 -0.4822 -0.1751 -0.1299
 9113SOL    HW138801   2.184   0.820   2.992 -1.2329 -0.6712  0.7020
 9113SOL    HW238802   2.277   0.896   3.079 -0.4017 -1.8618 -0.5604
 9114SOL     OW38803   2.324   2.798   0.813 -0.2073 -0.1476 -0.8047
 9114SOL    HW138804   2.361   2.725   0.862 -3.3601 -0.7781  0.6551
 9114SOL    HW238805   2.326   2.757   0.727 -0.7466 -1.2035 -0.3207
 9115SOL     OW38806   0.882   4.653   7.964  0.7330  0.2851 -0.6161
 9115SOL    HW138807   0.974   4.656   7.990 -0.1884  0.9692  2.5537
 9115SOL    HW238808   0.893   4.711   7.888  1.6053  2.6484  1.3209
 9116SOL     OW38809   1.778   3.136   6.414 -0.0959 -0.0016 -0.3400
 9116SOL    HW138810   1.731   3.069   6.365  0.1231 -0.6049  0.2738
 9116SOL    HW238811   1.731   3.215   6.385  0.3883  0.8106  1.0480
 9117SOL     OW38812   1.683   3.110   8.081  0.2037 -0.1795 -0.1890
 9117SOL    HW138813   1.736   3.075   8.152 -0.3087  0.0040  0.2827
 9117SOL    HW238814   1.696   3.204   8.092 -2.1718  0.4700 -2.8282
 9118SOL     OW38815   0.553   1.993   5.129 -0.0111 -0.2323 -0.2670
 9118SOL    HW138816   0.603   1.917   5.099 -0.9591 -0.2189 -1.8692
 9118SOL    HW238817   0.618   2.020   5.194 -0.4119  2.2473 -0.8899
 9119SOL     OW38818   1.702   2.333  10.959  0.0033 -0.1629 -0.0500
 9119SOL    HW138819   1.668   2.400  11.018  0.0679  1.2431 -1.5881
 9119SOL    HW238820   1.778   2.298  11.006  1.0814  1.2378 -0.7343
 9120SOL     OW38821   0.191   2.103   7.250  0.1982  0.6385  0.8132
 9120SOL    HW138822   0.267   2.046   7.258 -1.1054 -1.0552  1.1043
 9120SOL    HW238823   0.175   2.135   7.339 -2.2528  1.2030  0.1701
 9121SOL     OW38824   1.819   3.066   6.678 -0.2937  0.1091  0.0652
 9121SOL    HW138825   1.812   3.072   6.583 -2.5575  0.7919  0.2764
 9121SOL    HW238826   1.757   3.136   6.699 -2.4178 -1.3242 -1.4372
 9122SOL     OW38827   4.359   3.209   7.140  0.2327  0.5568 -0.2685
 9122SOL    HW138828   4.284   3.269   7.146  0.2292  0.8434 -3.3993
 9122SOL    HW238829   4.369   3.176   7.229  1.6566  1.1611 -0.2079
 9123SOL     OW38830   4.377   4.193   7.546  0.1012 -0.2180  0.8018
 9123SOL    HW138831   4.402   4.283   7.524  0.0852 -1.1978 -3.1903
 9123SOL    HW238832   4.285   4.199   7.570  0.0612 -1.2343  0.8853
 9124SOL     OW38833   3.949   3.549   3.587  0.1035 -0.1472  0.7084
 9124SOL    HW138834   3.992   3.494   3.653  1.0562  0.2428  0.4097
 9124SOL    HW238835   3.937   3.628   3.639 -1.6720  0.3136 -0.4196
 9125SOL     OW38836   3.219   1.380   7.459  0.3809 -1.0842  0.2525
 9125SOL    HW138837   3.191   1.323   7.388  1.3594 -1.4441  0.1671
 9125SOL    HW238838   3.283   1.329   7.509  2.9735  1.9557  0.0127
 9126SOL     OW38839   4.585   1.019   4.124 -0.0611 -0.1042 -0.2651
 9126SOL    HW138840   4.494   0.989   4.127 -0.0445  0.1057  1.9580
 9126SOL    HW238841   4.631   0.937   4.141  0.2811  1.1711  4.9886
 9127SOL     OW38842   2.955   1.005   6.709  0.0885  0.7051 -0.4491
 9127SOL    HW138843   3.025   0.972   6.653  0.8637  0.3796  0.7202
 9127SOL    HW238844   2.880   0.966   6.664 -0.7067  1.2894  0.3771
 9128SOL     OW38845   0.294   2.243  14.408 -0.0891  0.0870 -0.2172
 9128SOL    HW138846   0.210   2.206  14.438  0.3711  0.2442  1.2384
 9128SOL    HW238847   0.320   2.187  14.335  0.0749 -1.0604  0.7260
 9129SOL     OW38848   4.501   1.069  13.033 -0.8236 -0.2654 -0.1600
 9129SOL    HW138849   4.577   1.063  13.092 -2.2448 -1.0065  1.6017
 9129SOL    HW238850   4.468   0.979  13.031 -0.1946 -0.5402  2.0256
 9130SOL     OW38851   3.066   4.020   1.602  0.4540  0.1757  0.1941
 9130SOL    HW138852   3.113   4.063   1.530 -0.1422 -2.1272 -1.5652
 9130SOL    HW238853   3.097   4.061   1.683  0.3744  3.3772 -1.3949
 9131SOL     OW38854   0.325   3.463   9.265 -0.3073  0.1535 -0.4764
 9131SOL    HW138855   0.399   3.522   9.253  0.2614 -0.1081  1.5943
 9131SOL    HW238856   0.377   3.387   9.292 -2.7320 -0.4055  2.7305
 9132SOL     OW38857   4.134   3.176  14.429  0.0776 -0.0467  0.3813
 9132SOL    HW138858   4.173   3.261  14.407  1.7686 -1.6202 -2.8091
 9132SOL    HW238859   4.187   3.154  14.505  1.7538  0.3882 -0.6468
 9133SOL     OW38860   1.419   0.916   2.973  0.0767  0.6584  0.0386
 9133SOL    HW138861   1.354   0.857   3.013  1.4468 -0.2817  0.8558
 9133SOL    HW238862   1.382   1.000   3.001 -2.0605 -1.1092  2.5071
 9134SOL     OW38863   2.074   2.715   4.640 -0.0014 -0.2846  0.0491
 9134SOL    HW138864   2.019   2.677   4.708  0.2925 -2.1105 -0.7247
 9134SOL    HW238865   2.024   2.788   4.604 -0.9637 -1.1116 -0.2826
 9135SOL     OW38866   4.421   2.597   7.292  0.9582 -0.2189 -0.2456
 9135SOL    HW138867   4.455   2.655   7.361 -1.5451  0.3681  0.5171
 9135SOL    HW238868   4.331   2.579   7.318 -0.2393  1.8278 -3.0054
 9136SOL     OW38869   1.139   4.536  16.064  0.2788 -0.1142 -0.4239
 9136SOL    HW138870   1.093   4.544  15.980 -1.1486 -0.2273  0.3485
 9136SOL    HW238871   1.082   4.469  16.103 -1.0845  0.8087 -0.8537
 9137SOL     OW38872   2.245   2.934   9.115 -0.4517  0.4206 -0.1782
 9137SOL    HW138873   2.243   2.972   9.203 -2.2122  0.1371 -0.0761
 9137SOL    HW238874   2.172   2.984   9.079 -1.1064 -1.1656 -1.0813
 9138SOL     OW38875   0.526   3.403  13.870 -0.3138 -0.3306 -0.0339
 9138SOL    HW138876   0.475   3.352  13.807 -0.7311 -0.1241  0.1400
 9138SOL    HW238877   0.488   3.368  13.950 -1.9482  1.8690  0.1129
 9139SOL     OW38878   3.582   1.730  14.446 -0.2762  0.1399  0.8856
 9139SOL    HW138879   3.609   1.814  14.484 -0.5092  2.4892 -4.1350
 9139SOL    HW238880   3.667   1.688  14.433 -0.5289  0.8463 -3.0402
 9140SOL     OW38881   3.423   3.409   8.648  0.3972  0.1077  0.2186
 9140SOL    HW138882   3.517   3.426   8.652  0.5490 -0.6398 -0.2891
 9140SOL    HW238883   3.387   3.497   8.656 -0.9306 -0.3305 -1.0176
 9141SOL     OW38884   1.114   1.597   3.748  0.5172 -0.1006  0.3414
 9141SOL    HW138885   1.159   1.662   3.803 -0.6239 -0.0804  1.2488
 9141SOL    HW238886   1.112   1.642   3.664 -0.9453 -1.2787 -0.2438
 9142SOL     OW38887   2.069   2.572   0.727 -0.2627 -0.2587  0.1634
 9142SOL    HW138888   2.141   2.631   0.751 -1.0216  0.5576  0.4524
 9142SOL    HW238889   2.044   2.608   0.642  0.9839  1.1033  0.3628
 9143SOL     OW38890   0.075   3.372   7.827 -0.5042  0.5230  0.4433
 9143SOL    HW138891   0.121   3.366   7.743  2.2393  0.0505  1.9835
 9143SOL    HW238892   0.059   3.466   7.840 -0.6563  0.2537  2.1581
 9144SOL     OW38893   0.717   1.209   3.651  0.2556  0.4361 -0.2681
 9144SOL    HW138894   0.637   1.260   3.655  0.2552  0.3255  1.3848
 9144SOL    HW238895   0.748   1.222   3.741  2.0756 -1.7800 -0.5546
 9145SOL     OW38896   0.063   0.439   0.624 -0.4101 -0.0425 -0.4676
 9145SOL    HW138897   0.034   0.469   0.710  2.1042  0.5926  0.1500
 9145SOL    HW238898   0.080   0.516   0.569 -0.2805 -1.4392 -2.3829
 9146SOL     OW38899   0.746   0.919   5.159 -0.1407 -0.2787 -0.0305
 9146SOL    HW138900   0.788   0.905   5.074  1.7210 -0.2943  0.8823
 9146SOL    HW238901   0.658   0.947   5.137  0.2257  1.5927  0.8911
 9147SOL     OW38902   3.829   3.118   6.819 -0.4405 -0.1712  0.5265
 9147SOL    HW138903   3.791   3.180   6.881  0.1713  0.0160  0.7116
 9147SOL    HW238904   3.917   3.150   6.800 -1.0327  1.1988  0.1302
 9148SOL     OW38905   1.888   0.374  13.647  0.5335 -0.8922 -0.9580
 9148SOL    HW138906   1.856   0.325  13.723 -0.0562  1.8998  0.6007
 9148SOL    HW238907   1.820   0.440  13.637  2.1367  1.0497  0.6197
 9149SOL     OW38908   3.944   0.241   5.109  0.8986  0.7280 -0.1263
 9149SOL    HW138909   3.921   0.227   5.017  0.3731  3.0055 -0.3544
 9149SOL    HW238910   3.875   0.186   5.147  0.7579  0.5537 -0.6213
 9150SOL     OW38911   3.491   3.358   1.605  0.1460 -0.4420  0.1302
 9150SOL    HW138912   3.497   3.337   1.698  0.3251  2.0485  0.6875
 9150SOL    HW238913   3.580   3.387   1.583  0.7902 -1.5673  1.2807
 9151SOL     OW38914   3.932   1.739   2.380 -0.1123  0.5784 -0.2766
 9151SOL    HW138915   3.923   1.830   2.354 -0.0012  0.9943  1.1678
 9151SOL    HW238916   3.849   1.715   2.422 -0.8454  2.1625 -0.8470
 9152SOL     OW38917   0.478   1.194   2.906  0.0734  0.4690 -0.0056
 9152SOL    HW138918   0.487   1.185   2.811  0.9749  1.0612  0.0175
 9152SOL    HW238919   0.385   1.171   2.910  0.4402 -1.3284 -2.0705
 9153SOL     OW38920   2.808   1.265   4.814 -0.0810  0.9665 -0.0738
 9153SOL    HW138921   2.843   1.200   4.753  1.1961  1.5249  0.0538
 9153SOL    HW238922   2.859   1.342   4.785 -0.0561  1.4307  1.1864
 9154SOL     OW38923   3.439   0.689  11.095  0.3439  0.2523 -0.4602
 9154SOL    HW138924   3.393   0.605  11.097  3.1542 -1.2547 -0.5410
 9154SOL    HW238925   3.529   0.663  11.110 -0.6142 -1.8935  1.5880
 9155SOL     OW38926   2.169   2.047   2.464 -0.5918 -0.1544 -0.0264
 9155SOL    HW138927   2.145   1.969   2.513  3.3957 -0.0846  1.9926
 9155SOL    HW238928   2.139   2.125   2.510  0.8606  0.5437 -0.2712
 9156SOL     OW38929   3.986   2.331   9.602 -0.4610  0.1313  0.1950
 9156SOL    HW138930   4.012   2.270   9.670 -2.1961  0.6738  1.3466
 9156SOL    HW238931   3.892   2.339   9.617 -0.5334 -0.4163  0.0280
 9157SOL     OW38932   0.595   2.542   2.505 -0.2368  0.6048 -0.0121
 9157SOL    HW138933   0.551   2.626   2.495  1.4446  1.4464 -0.4163
 9157SOL    HW238934   0.539   2.510   2.576 -1.3916 -2.0813 -2.1408
 9158SOL     OW38935   1.265   0.751   5.007 -0.1629 -0.3318  0.0158
 9158SOL    HW138936   1.308   0.720   5.087 -0.1351 -1.0829 -0.2924
 9158SOL    HW238937   1.264   0.666   4.962  1.4003 -0.0166 -0.6149
 9159SOL     OW38938   4.600   2.707   7.907 -0.3566 -0.6496  0.2478
 9159SOL    HW138939   4.574   2.665   7.825  0.6984 -0.5371 -0.1390
 9159SOL    HW238940   4.627   2.794   7.881 -0.2150 -0.6016  0.5518
 9160SOL     OW38941   0.524   4.650   9.909 -0.3194 -0.1857 -0.7994
 9160SOL    HW138942   0.519   4.717   9.977 -0.3809 -1.3629  0.3716
 9160SOL    HW238943   0.513   4.574   9.967 -0.7452  0.5479  0.0833
 9161SOL     OW38944   1.844   4.372   4.068 -0.7761 -0.2874  0.2941
 9161SOL    HW138945   1.808   4.386   4.155  0.4209  0.2085  0.6991
 9161SOL    HW238946   1.895   4.451   4.052 -1.2748  0.0446  0.3344
 9162SOL     OW38947   1.750   1.721  14.753 -0.1165  0.4765  0.4694
 9162SOL    HW138948   1.747   1.807  14.712  1.2194  0.0976 -0.4486
 9162SOL    HW238949   1.688   1.665  14.707  0.1116 -0.1405  0.9185
 9163SOL     OW38950   2.234   3.743   6.738  0.2370  0.0563 -0.6653
 9163SOL    HW138951   2.259   3.794   6.661 -0.8957 -2.3579 -2.6273
 9163SOL    HW238952   2.305   3.683   6.758  0.8438  1.2055  0.6558
 9164SOL     OW38953   2.693   0.538  12.166 -0.0597 -0.3210 -0.1218
 9164SOL    HW138954   2.701   0.474  12.237 -2.9552  0.5853  1.0498
 9164SOL    HW238955   2.677   0.626  12.199 -1.8891  0.1041 -2.1477
 9165SOL     OW38956   2.468   0.520   6.474  0.5572 -0.1764 -0.5002
 9165SOL    HW138957   2.423   0.571   6.407 -1.9885 -2.2334 -0.3561
 9165SOL    HW238958   2.553   0.513   6.431  0.7332 -1.0879 -0.0262
 9166SOL     OW38959   2.599   3.721   5.901 -0.2335  0.1215  0.2696
 9166SOL    HW138960   2.583   3.644   5.847 -1.1034 -0.6390  1.6041
 9166SOL    HW238961   2.513   3.756   5.926 -0.4404 -0.0267 -0.2299
 9167SOL     OW38962   4.010   4.314   5.489 -0.4352  0.0101  0.2034
 9167SOL    HW138963   3.968   4.237   5.450  0.6627 -0.8259  0.6431
 9167SOL    HW238964   3.936   4.371   5.507 -1.1205 -0.6417 -0.5634
 9168SOL     OW38965   0.985   4.023  15.250 -0.7131  0.0364  0.2507
 9168SOL    HW138966   1.026   4.017  15.336  0.4077  1.7938 -0.1576
 9168SOL    HW238967   0.896   4.049  15.276 -1.0299 -1.4674  0.6427
 9169SOL     OW38968   3.575   1.146   5.862 -0.3921  0.1590  0.4361
 9169SOL    HW138969   3.605   1.190   5.783 -0.1113 -1.4519 -0.3402
 9169SOL    HW238970   3.516   1.081   5.824  1.6732 -1.7791  0.5566
 9170SOL     OW38971   1.921   2.061   6.513  0.1342  0.7227  0.0579
 9170SOL    HW138972   1.911   2.005   6.590  0.2470 -0.7957 -1.0466
 9170SOL    HW238973   1.853   2.127   6.528 -0.8537 -0.7447  2.0508
 9171SOL     OW38974   3.806   1.841  12.297 -0.0112  0.2262  0.4779
 9171SOL    HW138975   3.861   1.797  12.233  0.9084 -1.0907  2.1502
 9171SOL    HW238976   3.768   1.766  12.343  1.0677  0.2708  1.4493
 9172SOL     OW38977   0.747   3.681  10.517 -1.3931  0.6256  0.1115
 9172SOL    HW138978   0.836   3.716  10.530 -0.8575 -0.5032 -0.5001
 9172SOL    HW238979   0.704   3.760  10.487 -0.5463  1.3718  0.8586
 9173SOL     OW38980   1.443   3.052   5.727 -0.2941  0.4785 -0.1993
 9173SOL    HW138981   1.409   2.965   5.707  0.0250  0.7579 -1.9644
 9173SOL    HW238982   1.538   3.041   5.726 -0.2428  0.8762  0.6444
 9174SOL     OW38983   0.143   1.700  10.416  0.0205  0.5040  0.6147
 9174SOL    HW138984   0.115   1.781  10.459 -0.3362  0.2145  0.9185
 9174SOL    HW238985   0.067   1.684  10.361  1.3138  2.4921 -1.7363
 9175SOL     OW38986   0.351   3.209   3.139 -0.4773 -0.1658 -0.2185
 9175SOL    HW138987   0.346   3.304   3.132  0.3529  0.1293  3.6013
 9175SOL    HW238988   0.427   3.201   3.196  0.5244 -0.3742 -1.5810
 9176SOL     OW38989   0.823   0.789   3.133  0.4708  0.3284 -0.0813
 9176SOL    HW138990   0.876   0.710   3.147 -2.8595 -2.1150 -1.1333
 9176SOL    HW238991   0.875   0.847   3.189 -1.7106  1.8413  0.3678
 9177SOL     OW38992   4.534   2.136   8.332  0.3466 -1.1724  0.4562
 9177SOL    HW138993   4.488   2.211   8.369  0.9563 -1.0468  0.9622
 9177SOL    HW238994   4.595   2.183   8.275 -0.6435  0.2815  0.6196
 9178SOL     OW38995   4.423   1.843   7.260 -0.2226 -0.0474 -0.0171
 9178SOL    HW138996   4.402   1.933   7.286 -0.6465  0.1473 -1.0420
 9178SOL    HW238997   4.409   1.861   7.167 -1.0591 -0.9999 -0.0721
 9179SOL     OW38998   1.949   2.829   7.519  0.3394  0.4894 -0.0211
 9179SOL    HW138999   1.958   2.739   7.489 -0.8209  1.1509 -2.3496
 9179SOL    HW239000   1.853   2.830   7.525  0.3113  0.4244 -0.4327
 9180SOL     OW39001   0.827   0.906  16.172  0.0210  0.4664  0.2211
 9180SOL    HW139002   0.752   0.949  16.212 -0.2084 -3.0874  3.6206
 9180SOL    HW239003   0.794   0.818  16.191  2.0303 -0.4334 -0.3495
 9181SOL     OW39004   4.034   3.204  12.059 -0.1284 -0.6870  0.4711
 9181SOL    HW139005   4.014   3.239  11.972 -1.5429  1.8612  1.8571
 9181SOL    HW239006   4.124   3.234  12.068 -0.7048  2.0764 -3.1529
 9182SOL     OW39007   0.711   4.642   1.809 -0.0723  0.3962  0.0522
 9182SOL    HW139008   0.634   4.640   1.753  0.4421  1.7406 -0.7033
 9182SOL    HW239009   0.678   4.685   1.888  1.2828 -1.4233  1.6119
 9183SOL     OW39010   4.497   3.629   9.112 -0.2807 -0.0281  0.6519
 9183SOL    HW139011   4.473   3.577   9.035  0.9913 -1.1397  1.0050
 9183SOL    HW239012   4.592   3.640   9.115 -0.3051  0.5642 -0.8810
 9184SOL     OW39013   4.605   0.214   2.809  0.1132  0.1468 -0.1434
 9184SOL    HW139014   4.558   0.168   2.740  0.6770 -0.5859 -0.0492
 9184SOL    HW239015   4.618   0.153   2.882 -2.1950  0.6903  0.7050
 9185SOL     OW39016   3.658   2.382  15.638 -0.6702 -0.1326 -0.1701
 9185SOL    HW139017   3.713   2.315  15.597 -0.4660 -0.0676  0.0031
 9185SOL    HW239018   3.722   2.401  15.707 -1.1558  0.6834  0.0538
 9186SOL     OW39019   3.140   2.941   9.158 -0.3682  0.0149 -0.0372
 9186SOL    HW139020   3.045   2.933   9.154 -0.5612  1.3170  2.0221
 9186SOL    HW239021   3.148   2.999   9.082  1.5129  0.6069  0.6284
 9187SOL     OW39022   3.798   0.728   8.826  0.1081  0.1384  0.2362
 9187SOL    HW139023   3.774   0.782   8.902 -1.3211 -0.5941  0.3047
 9187SOL    HW239024   3.716   0.679   8.819  0.8417 -1.2620  1.4163
 9188SOL     OW39025   1.859   0.958   6.311  0.1097 -0.3916 -0.1174
 9188SOL    HW139026   1.880   0.877   6.265 -1.1999 -0.8857  0.1914
 9188SOL    HW239027   1.770   0.981   6.284  0.5696  1.7426  0.1619
 9189SOL     OW39028   2.044   3.536   5.053 -0.4105  0.4176  0.1865
 9189SOL    HW139029   2.021   3.520   5.145 -0.5127 -0.5301 -0.0067
 9189SOL    HW239030   2.136   3.509   5.062 -0.6466 -0.9458 -1.6156
 9190SOL     OW39031   4.391   2.056   7.620 -0.3840  0.6869  0.2052
 9190SOL    HW139032   4.419   2.112   7.691 -0.6652  0.3924  0.5484
 9190SOL    HW239033   4.450   2.090   7.553  0.1688 -0.0261  0.3327
 9191SOL     OW39034   1.671   4.353   5.879  0.5886  0.3194  0.9905
 9191SOL    HW139035   1.762   4.323   5.875 -0.4051 -3.0092  2.7783
 9191SOL    HW239036   1.679   4.427   5.939  1.2637  1.8663 -1.0188
 9192SOL     OW39037   0.044   1.660   2.129  0.7336  0.4928  0.4823
 9192SOL    HW139038   0.130   1.647   2.089  0.1334 -0.8435 -0.3556
 9192SOL    HW239039   0.015   1.744   2.093 -1.9655 -1.0467 -0.9534
 9193SOL     OW39040   4.287   4.639  16.878 -0.0315  0.3368 -0.5737
 9193SOL    HW139041   4.221   4.661  16.812  1.8943  2.5603 -1.7514
 9193SOL    HW239042   4.265   4.705  16.943 -3.1946 -1.0694 -0.2071
 9194SOL     OW39043   3.015   3.302  17.441  0.2860 -0.0223 -0.3349
 9194SOL    HW139044   2.987   3.377  17.388  0.0401  0.8253  0.9740
 9194SOL    HW239045   2.943   3.239  17.441 -0.6229  1.0252 -2.2653
 9195SOL     OW39046   0.624   0.573   4.227 -0.1931  0.0460 -0.0474
 9195SOL    HW139047   0.680   0.515   4.278 -0.8035 -1.3750 -1.0244
 9195SOL    HW239048   0.560   0.597   4.294 -0.4156  0.3398 -0.3672
 9196SOL     OW39049   4.103   0.496   8.794  0.1348  0.2744  0.0417
 9196SOL    HW139050   4.169   0.539   8.849  1.5425 -0.6096 -0.9401
 9196SOL    HW239051   4.124   0.529   8.706  1.0377 -0.5285 -0.0544
 9197SOL     OW39052   3.432   1.906   2.501 -0.6274 -0.1772 -0.5196
 9197SOL    HW139053   3.372   1.864   2.562  0.4442  0.4435  0.9532
 9197SOL    HW239054   3.390   1.887   2.417 -0.6519  1.9501 -0.9939
 9198SOL     OW39055   3.746   0.088   2.927 -0.2537 -0.1305  0.1092
 9198SOL    HW139056   3.830   0.130   2.908  0.4006 -1.5429 -0.1138
 9198SOL    HW239057   3.748   0.084   3.022  0.4151 -0.2062  0.0914
 9199SOL     OW39058   0.023   0.874   3.056 -0.2795  0.0113 -0.3725
 9199SOL    HW139059   4.719   0.784   3.044 -2.3316  0.8845 -1.6350
 9199SOL    HW239060   0.070   0.871   3.139 -0.3045  0.6042 -0.3435
 9200SOL     OW39061   0.341   0.362   6.533 -0.0184 -0.1403  0.3703
 9200SOL    HW139062   0.340   0.342   6.627 -1.6373  1.4577  0.6717
 9200SOL    HW239063   0.393   0.291   6.496 -0.2450 -0.4642  0.6756
 9201SOL     OW39064   2.902   2.129   4.420  0.0753 -0.5163 -0.1548
 9201SOL    HW139065   2.944   2.164   4.498  0.1468  0.0414 -0.4488
 9201SOL    HW239066   2.881   2.041   4.452  1.7988 -0.0702  2.1580
 9202SOL     OW39067   1.457   1.451   3.896 -0.2457 -0.1050 -0.0591
 9202SOL    HW139068   1.384   1.428   3.953 -0.3158  3.2893  1.2025
 9202SOL    HW239069   1.422   1.418   3.812 -1.6994 -1.3640  1.0403
 9203SOL     OW39070   3.382   3.298   5.847  0.9618 -0.2622  0.0435
 9203SOL    HW139071   3.451   3.349   5.891 -0.3908  0.9903  0.7050
 9203SOL    HW239072   3.305   3.354   5.841  1.6696  0.8079  0.9402
 9204SOL     OW39073   1.129   1.070  15.708 -0.4018 -0.5762 -0.3746
 9204SOL    HW139074   1.209   1.109  15.742 -0.1949 -0.5020 -0.9374
 9204SOL    HW239075   1.113   0.991  15.760 -1.9069 -0.7729 -1.1165
 9205SOL     OW39076   4.425   2.138   5.886  0.0610 -0.3599 -0.3475
 9205SOL    HW139077   4.346   2.193   5.881 -0.1226 -0.6064 -0.1558
 9205SOL    HW239078   4.392   2.057   5.925  1.8719 -0.8759  0.0891
 9206SOL     OW39079   1.191   3.385   5.893  0.4229 -0.4454 -0.2141
 9206SOL    HW139080   1.224   3.450   5.955  1.6413 -1.1323 -0.1295
 9206SOL    HW239081   1.276   3.357   5.857  0.0518 -1.1003 -0.5864
 9207SOL     OW39082   1.185   2.087  14.156 -0.1891  0.1412  0.2581
 9207SOL    HW139083   1.196   2.136  14.075  0.0392 -0.6972 -0.2132
 9207SOL    HW239084   1.267   2.036  14.158 -0.5194 -0.4203 -0.7022
 9208SOL     OW39085   1.881   3.237   5.604  0.1648 -0.3821 -0.3871
 9208SOL    HW139086   1.880   3.333   5.599  1.7942 -0.3535 -0.0890
 9208SOL    HW239087   1.973   3.212   5.610  0.8552  2.4789  1.3397
 9209SOL     OW39088   0.972   3.830   8.735  0.3283  0.1991  0.0482
 9209SOL    HW139089   0.910   3.816   8.806  0.3076 -2.5452 -0.4891
 9209SOL    HW239090   1.048   3.779   8.762  1.0177  0.5343 -1.2586
 9210SOL     OW39091   2.094   1.624   6.329  0.1787 -0.0928  0.4424
 9210SOL    HW139092   2.103   1.707   6.283  1.2470 -1.2598 -1.4543
 9210SOL    HW239093   2.106   1.649   6.421 -3.3258  0.5304  0.7257
 9211SOL     OW39094   3.061   3.316   3.419  0.1024  0.6088 -0.2250
 9211SOL    HW139095   3.049   3.277   3.506  2.0755 -0.7426 -0.5683
 9211SOL    HW239096   3.106   3.398   3.439 -1.3933  1.3680  0.1006
 9212SOL     OW39097   0.061   3.061  17.682 -0.2078  0.1718 -0.2122
 9212SOL    HW139098   4.709   3.006  17.680 -0.2706  0.2531  0.0893
 9212SOL    HW239099   0.072   3.056   0.069  0.6018  4.8031 -0.0635
 9213SOL     OW39100   3.714   3.065   3.089 -0.1694  0.3122 -0.1828
 9213SOL    HW139101   3.696   3.159   3.088 -0.6898  0.1815 -2.8792
 9213SOL    HW239102   3.684   3.038   3.002  1.5553  2.6050 -1.4769
 9214SOL     OW39103   2.478   1.847  12.336 -0.1188  0.4425  0.9983
 9214SOL    HW139104   2.411   1.857  12.268  0.5439  1.4246  0.4878
 9214SOL    HW239105   2.474   1.930  12.383  1.3665  0.9011  0.2998
 9215SOL     OW39106   3.306   1.826   2.255 -0.0454 -0.1434  0.4101
 9215SOL    HW139107   3.238   1.762   2.234  0.5922 -0.6125 -0.2069
 9215SOL    HW239108   3.269   1.906   2.217  1.4413  0.4143  0.1596
 9216SOL     OW39109   3.975   3.003   2.974 -0.3569 -0.4189  0.4036
 9216SOL    HW139110   4.003   3.077   3.027 -1.1491 -1.8525  2.7833
 9216SOL    HW239111   3.881   3.002   2.991 -0.6317 -0.5878 -1.1119
 9217SOL     OW39112   4.383   0.394  10.167 -0.2924 -0.2093 -0.3999
 9217SOL    HW139113   4.351   0.428  10.083  1.2325 -0.6291 -1.1458
 9217SOL    HW239114   4.381   0.469  10.226  0.2557 -0.9260  0.5285
 9218SOL     OW39115   4.289   4.678  13.525  0.5237  0.0701 -0.5910
 9218SOL    HW139116   4.208   4.635  13.550 -0.7257  1.5021 -2.1524
 9218SOL    HW239117   4.321   4.723  13.603 -1.5911 -0.3214  0.4972
 9219SOL     OW39118   2.393   0.336   4.748  0.2291 -0.1243 -0.1405
 9219SOL    HW139119   2.441   0.257   4.775 -0.1209 -0.8106 -1.5051
 9219SOL    HW239120   2.330   0.343   4.820  2.1728  0.4577  1.5112
 9220SOL     OW39121   3.936   0.065   4.533 -0.8712 -0.3910  0.2973
 9220SOL    HW139122   3.879   0.130   4.574  0.9902  1.6888 -0.3716
 9220SOL    HW239123   3.869   0.008   4.496 -0.5428 -1.6798  1.6929
 9221SOL     OW39124   0.151   1.395   4.792 -0.1373 -0.3417  0.5851
 9221SOL    HW139125   0.095   1.338   4.843 -0.3647  0.2348  0.9747
 9221SOL    HW239126   0.215   1.339   4.748  0.3660 -0.4700  1.4976
 9222SOL     OW39127   4.056   4.207   5.048 -0.1411 -0.0111  0.1326
 9222SOL    HW139128   3.982   4.241   5.098  0.4566 -1.2312  1.8209
 9222SOL    HW239129   4.007   4.184   4.969  2.7703 -0.2882 -1.5873
 9223SOL     OW39130   3.558   2.892  15.846 -0.9115 -0.3211  0.3689
 9223SOL    HW139131   3.541   2.804  15.882  0.5033 -1.1404 -0.9500
 9223SOL    HW239132   3.510   2.951  15.904  0.7221  0.8754  0.5083
 9224SOL     OW39133   0.653   3.139  14.092 -0.4552  0.1444 -0.3137
 9224SOL    HW139134   0.709   3.192  14.149 -0.2764 -0.5144  0.1193
 9224SOL    HW239135   0.569   3.176  14.120 -1.1302 -1.3487 -0.3753
 9225SOL     OW39136   0.760   2.519   8.118  1.3239  0.0529 -0.2934
 9225SOL    HW139137   0.766   2.592   8.057  1.4228 -2.2317 -3.0549
 9225SOL    HW239138   0.822   2.549   8.184  0.2483  0.3853  0.5486
 9226SOL     OW39139   3.859   4.341   8.464  0.3281  0.4809  0.6216
 9226SOL    HW139140   3.864   4.433   8.491 -1.2882  1.0830 -1.1968
 9226SOL    HW239141   3.792   4.343   8.396  1.8138  0.2616 -0.8395
 9227SOL     OW39142   3.234   0.786   7.339 -0.4250  0.4850 -0.0237
 9227SOL    HW139143   3.145   0.780   7.373  1.1683  0.3075  4.0888
 9227SOL    HW239144   3.271   0.857   7.391 -0.2097  0.6906 -0.4631
 9228SOL     OW39145   2.918   0.325   7.808  0.5397  0.7356  0.1610
 9228SOL    HW139146   2.904   0.359   7.720  1.0648 -1.3043 -0.7189
 9228SOL    HW239147   2.877   0.395   7.858 -0.3019  0.5351 -0.2536
 9229SOL     OW39148   0.652   2.779   8.014 -0.3787 -0.5432  0.1501
 9229SOL    HW139149   0.645   2.785   8.110  0.3215  2.0316  0.0550
 9229SOL    HW239150   0.589   2.842   7.979  1.4101  1.1655 -0.0340
 9230SOL     OW39151   3.308   0.827   5.437  0.6308 -0.4782 -0.6706
 9230SOL    HW139152   3.359   0.844   5.358  2.1012 -0.5550  0.2676
 9230SOL    HW239153   3.260   0.752   5.402 -2.2078  0.8840  0.2792
 9231SOL     OW39154   0.917   2.186   7.565 -0.2102  0.0387 -0.4202
 9231SOL    HW139155   0.918   2.274   7.602  1.6896 -0.2898  0.3086
 9231SOL    HW239156   1.010   2.176   7.544 -0.3245 -1.9036  0.0805
 9232SOL     OW39157   4.087   2.188   6.565  0.1184 -0.0752  0.1408
 9232SOL    HW139158   4.177   2.212   6.544  0.1913 -1.5708 -1.2676
 9232SOL    HW239159   4.038   2.229   6.494  0.2793 -0.1668 -0.0233
 9233SOL     OW39160   1.587   0.870   0.048 -0.4239 -0.3239 -0.4540
 9233SOL    HW139161   1.670   0.854   0.004 -1.4913  0.5665 -2.8269
 9233SOL    HW239162   1.622   0.908   0.128 -0.6484  1.0311 -1.0038
 9234SOL     OW39163   1.179   2.322   7.551 -0.1646 -0.2348 -0.1679
 9234SOL    HW139164   1.096   2.369   7.557 -0.5796 -1.1658  1.4912
 9234SOL    HW239165   1.177   2.308   7.456 -0.0726  0.3750 -0.2613
 9235SOL     OW39166   2.436   0.261   5.083 -0.1439 -0.6619 -0.2273
 9235SOL    HW139167   2.380   0.233   5.155 -1.2156  2.0134 -0.0489
 9235SOL    HW239168   2.398   0.218   5.006  2.1890 -1.6910 -0.8314
 9236SOL     OW39169   1.713   1.035   5.106 -0.7051 -0.1412 -0.3099
 9236SOL    HW139170   1.641   1.097   5.093 -1.1131 -0.3867  0.8051
 9236SOL    HW239171   1.774   1.075   5.044 -0.1637 -1.6238 -0.7182
 9237SOL     OW39172   4.538   2.407   4.912 -0.0332  0.0540  0.0601
 9237SOL    HW139173   4.610   2.403   4.975 -0.9106  1.4928  1.1453
 9237SOL    HW239174   4.513   2.314   4.912 -0.4921  0.1765  0.6781
 9238SOL     OW39175   0.429   0.512  14.111  0.1961  0.6800  0.6581
 9238SOL    HW139176   0.414   0.606  14.102  0.3540  0.8552  2.1756
 9238SOL    HW239177   0.452   0.499  14.019 -5.1623  1.7911 -0.8319
 9239SOL     OW39178   0.900   1.520   5.560  0.2151 -0.0844  0.1148
 9239SOL    HW139179   0.832   1.472   5.607  1.5606 -0.0629  2.0575
 9239SOL    HW239180   0.964   1.453   5.537  2.2723  1.3501  1.6531
 9240SOL     OW39181   0.621   3.007   4.988 -0.7180 -0.1705  0.6322
 9240SOL    HW139182   0.601   3.099   4.970 -2.1686 -0.6900 -0.3834
 9240SOL    HW239183   0.552   2.986   5.050 -0.0637 -0.7724  1.1641
 9241SOL     OW39184   2.282   4.115   2.587 -0.6027  0.8866  0.6525
 9241SOL    HW139185   2.280   4.192   2.644  2.4318  1.6394 -0.2579
 9241SOL    HW239186   2.364   4.139   2.544  0.6041 -0.2367  2.3305
 9242SOL     OW39187   2.066   4.484   2.602 -0.0955 -0.6748  0.0101
 9242SOL    HW139188   2.043   4.434   2.523  1.1300  0.9643 -1.4003
 9242SOL    HW239189   2.046   4.571   2.567 -0.7994 -0.1094  1.8213
 9243SOL     OW39190   1.106   0.316  14.973  1.0580 -0.1332 -0.0314
 9243SOL    HW139191   1.120   0.224  14.951 -1.1406 -0.3514 -0.6012
 9243SOL    HW239192   1.193   0.354  14.959  0.5669  0.9445 -0.1884
 9244SOL     OW39193   3.151   4.594   9.959 -0.4047 -0.0996 -0.9062
 9244SOL    HW139194   3.149   4.684   9.925  2.3878 -0.1152 -1.1142
 9244SOL    HW239195   3.126   4.607  10.050  0.2482  0.7486 -0.8426
 9245SOL     OW39196   3.886   0.692   4.077  0.0506 -0.2490 -0.6204
 9245SOL    HW139197   3.832   0.668   4.152  1.2852 -0.8378  0.0728
 9245SOL    HW239198   3.820   0.739   4.025 -0.3434  0.7960  0.8238
 9246SOL     OW39199   1.004   3.575   7.232 -0.3678  0.3055  0.4342
 9246SOL    HW139200   1.086   3.587   7.281 -0.8873 -3.0389  2.1305
 9246SOL    HW239201   0.934   3.557   7.294  0.8001  1.6254  2.1338
 9247SOL     OW39202   4.109   0.444   6.219 -0.0380  0.3208 -0.3948
 9247SOL    HW139203   4.155   0.489   6.290 -2.6637  1.9031  0.3068
 9247SOL    HW239204   4.024   0.417   6.255 -0.4546 -0.2067 -1.7719
 9248SOL     OW39205   2.008   3.952   2.897 -0.0541  0.4894  0.0869
 9248SOL    HW139206   2.089   3.950   2.846 -0.4928 -1.4295 -0.5274
 9248SOL    HW239207   1.964   3.869   2.875  1.0593  0.4234 -1.8818
 9249SOL     OW39208   1.239   2.683   1.074  0.3607 -0.0591 -0.1315
 9249SOL    HW139209   1.269   2.772   1.058  0.2121 -0.0874 -0.5668
 9249SOL    HW239210   1.262   2.635   0.994 -2.0801 -2.1935  0.4277
 9250SOL     OW39211   4.540   3.202   7.748 -0.3234  0.5046  0.0559
 9250SOL    HW139212   4.600   3.131   7.729 -2.0234 -0.8520 -0.2260
 9250SOL    HW239213   4.587   3.238   7.824 -2.3835 -0.5779  1.8482
 9251SOL     OW39214   1.614   3.132   0.917 -0.4037 -0.0512  0.0143
 9251SOL    HW139215   1.523   3.150   0.938 -0.1017  0.5152  0.8471
 9251SOL    HW239216   1.607   3.090   0.832 -0.8927  0.2841 -0.1107
 9252SOL     OW39217   2.033   2.690  15.916 -0.9552  0.0927 -0.1579
 9252SOL    HW139218   2.085   2.708  15.838  1.9959 -0.4630  1.6355
 9252SOL    HW239219   2.073   2.759  15.969  2.0431  0.3561 -2.7691
 9253SOL     OW39220   3.680   0.211   8.991 -0.2735  0.2325 -0.0406
 9253SOL    HW139221   3.719   0.174   9.070  0.9221  0.1627 -0.6577
 9253SOL    HW239222   3.757   0.255   8.954  1.1330 -1.5229  0.8054
 9254SOL     OW39223   1.702   1.923   6.110 -0.2575  0.5756 -0.5423
 9254SOL    HW139224   1.670   2.012   6.093  1.7675  1.5965  1.0194
 9254SOL    HW239225   1.763   1.956   6.176  0.5974 -0.4442 -0.8135
 9255SOL     OW39226   3.219   1.416   2.939 -0.3503 -0.1126 -0.6864
 9255SOL    HW139227   3.240   1.345   2.879  0.1706  0.3601 -1.0653
 9255SOL    HW239228   3.308   1.435   2.970 -0.7483 -0.0269  0.4058
 9256SOL     OW39229   4.329   1.121   1.509  0.0694  0.4410 -0.0137
 9256SOL    HW139230   4.385   1.171   1.569  1.5645  0.7077 -1.5915
 9256SOL    HW239231   4.394   1.055   1.483 -0.6835 -1.3580  2.7485
 9257SOL     OW39232   3.765   3.195   7.095  0.4502 -0.5761 -0.1286
 9257SOL    HW139233   3.832   3.149   7.145  0.4876 -1.6664 -1.2061
 9257SOL    HW239234   3.699   3.127   7.089  0.3946 -0.4330 -1.0856
 9258SOL     OW39235   2.054   0.890   5.484 -0.4852 -0.4408 -0.1933
 9258SOL    HW139236   1.995   0.965   5.473  1.4995  1.0517 -0.8796
 9258SOL    HW239237   2.141   0.924   5.461 -0.3764 -1.0961 -0.7417
 9259SOL     OW39238   2.721   4.583   5.195 -0.6613  0.1188 -0.2963
 9259SOL    HW139239   2.723   4.678   5.185  1.3479 -0.0628 -1.6900
 9259SOL    HW239240   2.763   4.564   5.111  4.2242  0.4698  2.0307
 9260SOL     OW39241   1.973   3.695   5.595  0.7695 -0.5405  0.2042
 9260SOL    HW139242   1.900   3.647   5.634 -0.6072 -0.5259 -2.3532
 9260SOL    HW239243   1.928   3.740   5.523 -1.8926 -0.1224  2.1366
 9261SOL     OW39244   2.733   3.212   5.887 -0.7803 -0.4937 -0.6177
 9261SOL    HW139245   2.779   3.179   5.964 -1.3019  0.3726  0.0623
 9261SOL    HW239246   2.667   3.146   5.863 -2.7656  2.1737 -2.4061
 9262SOL     OW39247   1.278   0.833   9.153  0.0156 -0.3718 -0.3661
 9262SOL    HW139248   1.224   0.911   9.167  2.3817  1.9206 -3.9068
 9262SOL    HW239249   1.230   0.768   9.205  1.4158 -0.6046  0.6269
 9263SOL     OW39250   1.472   4.358   5.089 -0.2546 -0.1091 -0.1284
 9263SOL    HW139251   1.537   4.289   5.099  0.3561  0.4764  0.0168
 9263SOL    HW239252   1.386   4.322   5.111  0.7718 -2.9669 -0.8240
 9264SOL     OW39253   2.426   2.317  11.884 -0.2088  0.4299  0.3216
 9264SOL    HW139254   2.439   2.355  11.797 -1.3617 -0.9571 -0.4395
 9264SOL    HW239255   2.447   2.389  11.944 -1.9601 -0.5251  2.0793
 9265SOL     OW39256   0.013   1.371   5.263  0.0510 -0.0649  0.4788
 9265SOL    HW139257   4.646   1.358   5.280  0.3507 -2.1679  0.5085
 9265SOL    HW239258   0.041   1.382   5.354  0.8852  0.1261  0.1985
 9266SOL     OW39259   0.576   1.254   7.943  0.7280 -0.2423  0.5519
 9266SOL    HW139260   0.556   1.164   7.971 -1.4987  0.2213  0.4154
 9266SOL    HW239261   0.665   1.249   7.908  0.6474  1.4755  0.1164
 9267SOL     OW39262   3.787   0.854   2.944 -0.2588  0.4539  0.1218
 9267SOL    HW139263   3.837   0.890   2.872  0.3806 -1.3483 -0.3495
 9267SOL    HW239264   3.701   0.879   2.910  0.2887  0.8931 -0.9439
 9268SOL     OW39265   0.525   2.448   2.896 -0.4532 -0.6824  0.5483
 9268SOL    HW139266   0.493   2.402   2.818 -1.5646 -0.0464  0.6310
 9268SOL    HW239267   0.453   2.441   2.958  0.3114  2.2006  1.7678
 9269SOL     OW39268   0.714   2.233   2.258 -0.2867 -0.0274  0.1365
 9269SOL    HW139269   0.619   2.239   2.268 -0.4677 -0.2651 -1.3717
 9269SOL    HW239270   0.749   2.296   2.321 -1.2880  0.4728  0.1924
 9270SOL     OW39271   3.809   0.661   8.065 -0.4258 -0.0112  0.3292
 9270SOL    HW139272   3.844   0.637   8.151  1.9816  0.2090 -0.5997
 9270SOL    HW239273   3.801   0.577   8.020  2.2301 -0.0265 -0.1294
 9271SOL     OW39274   2.857   2.994   9.131  0.2093  0.1233  0.1189
 9271SOL    HW139275   2.814   2.913   9.158  0.2324  0.2277  0.4654
 9271SOL    HW239276   2.803   3.064   9.168  1.4188  0.5321  1.0966
 9272SOL     OW39277   1.676   1.471   9.028  0.5449  0.2606 -0.4725
 9272SOL    HW139278   1.614   1.403   9.056 -0.4075  1.4008  0.1821
 9272SOL    HW239279   1.647   1.550   9.074 -2.9616 -2.6937  2.4369
 9273SOL     OW39280   4.148   3.673  15.893  0.3572  0.0947 -0.1553
 9273SOL    HW139281   4.085   3.739  15.864  1.4689  0.9914 -0.5327
 9273SOL    HW239282   4.202   3.723  15.954  0.4390 -1.1233  0.7650
 9274SOL     OW39283   0.542   1.827   0.776 -0.6116 -0.4963  0.5537
 9274SOL    HW139284   0.569   1.750   0.826  0.0152  1.7053  3.5947
 9274SOL    HW239285   0.448   1.813   0.784 -1.0726  0.2700 -3.2187
 9275SOL     OW39286   3.667   4.726   1.683  0.3045  0.2924 -0.3696
 9275SOL    HW139287   3.753   0.037   1.667  0.5988 -1.0773 -2.0377
 9275SOL    HW239288   3.669   0.002   1.779  1.0183 -0.1126 -0.3766
 9276SOL     OW39289   1.670   3.849   7.056 -0.3291  0.1772  0.1755
 9276SOL    HW139290   1.601   3.866   7.120 -0.7442  0.2957 -0.2952
 9276SOL    HW239291   1.717   3.931   7.043  2.6632 -1.7020 -0.8435
 9277SOL     OW39292   2.613   1.325  14.368 -0.7378 -0.1574 -0.1460
 9277SOL    HW139293   2.562   1.317  14.449 -1.3213  0.5330 -0.4461
 9277SOL    HW239294   2.559   1.379  14.311  2.0141  1.1813 -1.5123
 9278SOL     OW39295   1.407   4.689   6.702  0.6443  0.1315 -0.1116
 9278SOL    HW139296   1.366   4.616   6.748  1.0383  0.4652  0.7732
 9278SOL    HW239297   1.341   0.022   6.666  0.7541  1.3342  1.6631
 9279SOL     OW39298   1.219   0.156   6.614  0.0046  0.0281  0.5903
 9279SOL    HW139299   1.219   0.112   6.529  0.1770  1.1958 -0.0082
 9279SOL    HW239300   1.250   0.242   6.586  2.4078 -0.9789  0.1541
 9280SOL     OW39301   2.036   2.870   8.593  0.2596 -0.0777 -0.6627
 9280SOL    HW139302   2.071   2.901   8.509 -0.0054  0.3369 -0.6176
 9280SOL    HW239303   2.000   2.947   8.637  0.1057  0.2497 -1.3614
 9281SOL     OW39304   4.179   0.294   7.992 -0.1118 -0.3564 -0.0063
 9281SOL    HW139305   4.183   0.386   7.966 -0.0518 -0.2536  0.3544
 9281SOL    HW239306   4.238   0.248   7.933 -1.3965 -1.8116 -0.1473
 9282SOL     OW39307   3.019   0.398   3.465 -0.1055  0.0082  0.4493
 9282SOL    HW139308   3.028   0.316   3.416  0.3101  1.0042 -1.1143
 9282SOL    HW239309   3.106   0.435   3.453 -0.4612  0.3246 -1.1924
 9283SOL     OW39310   1.681   3.626   4.766  0.5900 -0.8114  0.4789
 9283SOL    HW139311   1.673   3.538   4.805 -1.4572 -1.1338 -0.6389
 9283SOL    HW239312   1.590   3.643   4.742  2.4022  3.8623 -2.8849
 9284SOL     OW39313   2.597   2.292   4.320 -0.2611 -0.9025  0.5776
 9284SOL    HW139314   2.677   2.338   4.347  0.1256 -1.2879  0.0908
 9284SOL    HW239315   2.567   2.258   4.404 -1.1105  1.6440  1.3175
 9285SOL     OW39316   1.748   2.544   7.377 -0.0272  0.6884 -0.9645
 9285SOL    HW139317   1.667   2.551   7.427  0.2025 -1.0697 -0.3318
 9285SOL    HW239318   1.707   2.550   7.291  0.3324  1.3120 -1.0864
 9286SOL     OW39319   3.187   1.183  12.230  0.6056 -0.0313  0.4190
 9286SOL    HW139320   3.227   1.228  12.155 -1.1627  1.5093  0.3916
 9286SOL    HW239321   3.117   1.246  12.248 -2.3225 -2.0073 -4.1173
 9287SOL     OW39322   1.459   0.279   7.681 -0.0844  0.2520  0.0192
 9287SOL    HW139323   1.446   0.359   7.732  1.9315  0.0215  0.9002
 9287SOL    HW239324   1.528   0.299   7.618 -1.5435 -0.5666 -1.8329
 9288SOL     OW39325   0.193   1.513   2.355  0.3758  0.4447 -0.3724
 9288SOL    HW139326   0.189   1.586   2.293  1.6634 -1.4933 -2.7503
 9288SOL    HW239327   0.210   1.441   2.294  3.9317 -0.4014  1.6004
 9289SOL     OW39328   0.834   1.133  13.944 -0.0272 -0.1254 -0.4831
 9289SOL    HW139329   0.857   1.172  13.860 -2.7006  2.3952 -0.0594
 9289SOL    HW239330   0.921   1.110  13.975  0.8162 -0.3543 -3.0153
 9290SOL     OW39331   2.375   3.555   3.036 -0.4779 -0.2227  0.7428
 9290SOL    HW139332   2.392   3.607   2.958 -0.3076 -0.7999  0.3906
 9290SOL    HW239333   2.281   3.541   3.023 -0.9163  4.1567 -0.6863
 9291SOL     OW39334   2.944   2.964   2.297 -0.1668  0.1511  0.0525
 9291SOL    HW139335   3.035   2.992   2.297  0.3244 -1.4531 -0.8192
 9291SOL    HW239336   2.942   2.886   2.242 -3.1869 -0.2803  0.7624
 9292SOL     OW39337   1.810   3.261  11.462  0.4776  0.0573 -0.3574
 9292SOL    HW139338   1.872   3.233  11.530  1.0956  0.1341 -0.8828
 9292SOL    HW239339   1.837   3.205  11.388  0.2905 -0.6485  0.1106
 9293SOL     OW39340   3.357   2.897  10.969 -0.1361  0.4658 -0.3712
 9293SOL    HW139341   3.422   2.967  10.962  0.3924 -0.0593 -0.7502
 9293SOL    HW239342   3.309   2.935  11.043 -1.2994  1.2464 -1.5400
 9294SOL     OW39343   4.031   2.349   9.334 -1.1055  0.3100  0.4779
 9294SOL    HW139344   4.014   2.266   9.289  2.2311 -0.4389  0.5664
 9294SOL    HW239345   4.041   2.327   9.426 -2.0727  0.9780  0.7452
 9295SOL     OW39346   1.155   0.611   8.212  0.5295  0.1736 -0.1196
 9295SOL    HW139347   1.162   0.629   8.306 -0.7200  2.0914 -0.4087
 9295SOL    HW239348   1.104   0.687   8.183  0.0374 -0.4192 -0.7989
 9296SOL     OW39349   1.783   2.042  14.190  0.1791  0.1945 -0.4038
 9296SOL    HW139350   1.814   2.130  14.169  1.3043  0.5868  2.8469
 9296SOL    HW239351   1.821   1.993  14.117 -0.8198  0.1227 -0.8757
 9297SOL     OW39352   0.922   2.453  12.107  0.3798  0.0956 -1.0591
 9297SOL    HW139353   0.972   2.483  12.183 -0.4065 -0.6671 -0.2395
 9297SOL    HW239354   0.967   2.369  12.102  2.1887  1.0326 -0.4974
 9298SOL     OW39355   2.404   4.645   4.579  0.4986  0.3363  0.6934
 9298SOL    HW139356   2.444   4.560   4.599 -1.5479 -0.6004  0.8993
 9298SOL    HW239357   2.310   4.628   4.570  0.0989  1.4824  2.6136
 9299SOL     OW39358   4.063   0.623   6.840  0.1826  0.7185  0.3130
 9299SOL    HW139359   3.988   0.569   6.818 -0.0361  1.3664 -0.5296
 9299SOL    HW239360   4.131   0.573   6.886  0.4923 -0.6458 -1.6444
 9300SOL     OW39361   0.693   1.253   4.413 -0.1813 -0.7500  0.3254
 9300SOL    HW139362   0.671   1.185   4.350  0.5003  0.7634 -1.5373
 9300SOL    HW239363   0.788   1.267   4.409 -0.2351 -1.3069 -2.2867
 9301SOL     OW39364   4.225   4.278   0.924 -0.2760  0.3460 -0.1489
 9301SOL    HW139365   4.305   4.256   0.876 -0.5357  0.4299 -0.6268
 9301SOL    HW239366   4.194   4.358   0.881  1.2450  0.5963 -0.7681
 9302SOL     OW39367   4.263   0.879   6.496  0.3318  0.1806  0.1968
 9302SOL    HW139368   4.190   0.937   6.476 -1.3990 -2.9412 -2.6755
 9302SOL    HW239369   4.316   0.882   6.416 -0.4528  1.0111 -0.2902
 9303SOL     OW39370   1.075   1.527   7.195 -0.0249 -0.1058 -0.3278
 9303SOL    HW139371   1.082   1.622   7.201  3.6898 -0.5175  2.2352
 9303SOL    HW239372   0.982   1.516   7.179 -0.2782 -0.2037  1.2031
 9304SOL     OW39373   2.400   0.165  10.949  0.3932  0.0787 -0.5893
 9304SOL    HW139374   2.447   0.235  10.994  2.2212 -1.6546  0.2727
 9304SOL    HW239375   2.325   0.220  10.928  0.1517  0.0272  0.1483
 9305SOL     OW39376   3.520   2.854   8.544 -0.5609 -0.0448  0.0038
 9305SOL    HW139377   3.493   2.892   8.628 -1.5617 -1.2969  0.2595
 9305SOL    HW239378   3.436   2.849   8.498 -1.5300 -1.0342  1.8490
 9306SOL     OW39379   2.052   2.588  16.766 -0.1740 -0.1538 -0.6582
 9306SOL    HW139380   2.144   2.571  16.785 -0.2561  0.3389  0.1472
 9306SOL    HW239381   2.046   2.678  16.736 -0.6958  0.0393  0.0313
 9307SOL     OW39382   4.001   4.483   7.941 -0.5696 -0.5544  0.2562
 9307SOL    HW139383   3.949   4.548   7.893  0.0184 -0.4304 -0.2086
 9307SOL    HW239384   3.966   4.402   7.903 -2.4072 -0.6156  2.0723
 9308SOL     OW39385   1.493   4.473  14.877 -0.1329  0.0403 -0.0449
 9308SOL    HW139386   1.548   4.412  14.828  1.6025  1.1201  0.5650
 9308SOL    HW239387   1.432   4.407  14.910 -0.5512 -1.0700 -2.9932
 9309SOL     OW39388   3.392   2.117  16.583  0.0757  0.1241  0.1880
 9309SOL    HW139389   3.455   2.123  16.654  1.9233 -2.4513 -1.2548
 9309SOL    HW239390   3.376   2.023  16.579 -0.5929  0.3045 -1.5026
 9310SOL     OW39391   2.266   0.639   9.529 -0.1233  0.2133 -0.6178
 9310SOL    HW139392   2.252   0.733   9.524  0.7401  0.4382  1.1201
 9310SOL    HW239393   2.314   0.643   9.612  1.1822  1.5631 -1.4512
 9311SOL     OW39394   1.789   0.888  15.823  0.4453 -0.7067  0.1716
 9311SOL    HW139395   1.710   0.922  15.781  0.7684 -0.3267 -0.1300
 9311SOL    HW239396   1.777   0.794  15.813 -1.0015 -0.5022 -0.0454
 9312SOL     OW39397   3.949   1.987   1.212 -0.5972  0.7466 -0.0635
 9312SOL    HW139398   3.934   1.979   1.306 -3.3874  1.1115 -0.4682
 9312SOL    HW239399   3.882   2.053   1.194 -0.2416  0.9224 -0.7322
 9313SOL     OW39400   1.871   3.771   2.585  0.2447 -0.0390 -0.0743
 9313SOL    HW139401   1.784   3.808   2.599  1.2767  3.1080 -1.9690
 9313SOL    HW239402   1.922   3.844   2.550  1.9261 -0.1591  2.0610
 9314SOL     OW39403   1.047   1.410  11.445 -0.3542  0.3505  0.0107
 9314SOL    HW139404   1.019   1.469  11.514 -2.2537  0.5883 -0.9685
 9314SOL    HW239405   1.093   1.463  11.380  0.1064  0.7910  0.6947
 9315SOL     OW39406   2.046   1.329   1.062 -0.6022  0.1035 -0.9474
 9315SOL    HW139407   2.106   1.362   0.995  0.3239 -1.1251 -0.7260
 9315SOL    HW239408   2.094   1.356   1.141 -2.3751  0.1458  0.0965
 9316SOL     OW39409   2.004   0.447  13.032  0.1893  0.6145  0.7703
 9316SOL    HW139410   1.931   0.406  13.080  0.1972  1.9834  1.9406
 9316SOL    HW239411   2.040   0.381  12.972 -0.5739  1.6480 -0.8124
 9317SOL     OW39412   1.683   3.336   7.280  0.2572  0.4429 -0.2045
 9317SOL    HW139413   1.610   3.336   7.218  0.8628  2.3125 -0.9157
 9317SOL    HW239414   1.745   3.286   7.227  0.6909  0.2726  0.4707
 9318SOL     OW39415   1.716   3.022   5.626  0.4124 -0.0229 -0.2589
 9318SOL    HW139416   1.772   3.098   5.608  0.0428  0.1170 -0.8146
 9318SOL    HW239417   1.780   2.974   5.678  0.5650  0.6063  0.1399
 9319SOL     OW39418   4.722   2.193   9.371 -0.4428  0.7179 -0.2300
 9319SOL    HW139419   4.673   2.158   9.446 -2.9459  2.8772 -0.8862
 9319SOL    HW239420   0.084   2.157   9.376 -0.0160  1.8108  0.1045
 9320SOL     OW39421   0.200   4.393   6.566  0.0700  0.0819 -0.7141
 9320SOL    HW139422   0.163   4.453   6.631  0.7867 -0.3997  0.1263
 9320SOL    HW239423   0.124   4.365   6.514 -1.5876  0.3609  1.5966
 9321SOL     OW39424   1.750   0.625   4.300 -0.2635 -0.1953 -0.1807
 9321SOL    HW139425   1.696   0.589   4.370 -1.7754  1.3276 -0.5629
 9321SOL    HW239426   1.812   0.555   4.281 -0.3079  0.1003 -1.4769
 9322SOL     OW39427   1.207   1.567  11.310 -0.1669  0.3103  0.2147
 9322SOL    HW139428   1.289   1.599  11.348 -0.5518  0.2649  1.0745
 9322SOL    HW239429   1.211   1.601  11.221  0.0245  0.6673  0.3591
 9323SOL     OW39430   1.783   4.316   0.494  0.2644  0.0514 -0.0006
 9323SOL    HW139431   1.712   4.368   0.455 -0.5026 -1.8808 -1.2139
 9323SOL    HW239432   1.826   4.281   0.416  1.4089 -2.0571  1.5660
 9324SOL     OW39433   4.595   3.256   8.576  0.0147  0.0800  0.1805
 9324SOL    HW139434   4.630   3.218   8.495 -0.5294 -0.1781  0.0666
 9324SOL    HW239435   4.555   3.337   8.544 -0.4611 -0.1418  0.2137
 9325SOL     OW39436   4.021   2.540   5.484 -0.1668  0.4399 -0.3514
 9325SOL    HW139437   3.975   2.587   5.553 -0.9350  3.3505 -2.8554
 9325SOL    HW239438   3.960   2.480   5.442 -0.7891  1.5657 -1.0334
 9326SOL     OW39439   4.669   2.007   6.368 -0.3658 -0.8726 -0.0239
 9326SOL    HW139440   4.723   2.083   6.388 -0.0801 -1.2324  0.5681
 9326SOL    HW239441   4.601   2.009   6.436  0.7192  1.6884  0.9926
 9327SOL     OW39442   2.548   0.434   9.565 -0.1565  0.5020 -0.4820
 9327SOL    HW139443   2.546   0.422   9.660 -0.8880  0.1762 -0.5405
 9327SOL    HW239444   2.534   0.528   9.564 -0.4061  0.4767  1.4105
 9328SOL     OW39445   4.694   3.907   7.821  0.5476  0.0802 -0.1269
 9328SOL    HW139446   4.628   3.841   7.802  0.7755 -0.5116  1.1275
 9328SOL    HW239447   4.705   3.947   7.735  1.0825 -1.8943 -0.9787
 9329SOL     OW39448   0.593   0.711   5.531 -0.0865  0.5646 -0.2883
 9329SOL    HW139449   0.663   0.754   5.482  1.0010 -0.9938 -0.0887
 9329SOL    HW239450   0.522   0.775   5.520  1.1304  1.7943 -0.9471
 9330SOL     OW39451   1.270   0.092   2.550 -0.0261 -0.2490 -0.2023
 9330SOL    HW139452   1.235   0.008   2.519 -1.1418  0.0659  0.2279
 9330SOL    HW239453   1.204   0.107   2.617  1.2314  2.4576  0.4492
 9331SOL     OW39454   4.047   0.866  11.357  0.4408 -0.7233 -0.2118
 9331SOL    HW139455   4.108   0.827  11.294  1.0300  1.2393 -0.8685
 9331SOL    HW239456   4.100   0.877  11.436 -0.0876  1.7064 -0.1830
 9332SOL     OW39457   3.957   1.457   8.574 -0.1716 -0.3152 -0.3725
 9332SOL    HW139458   4.006   1.414   8.644  1.3541  1.2256 -0.5195
 9332SOL    HW239459   3.923   1.385   8.521  0.8773 -0.8833 -0.2670
 9333SOL     OW39460   3.805   0.144   3.801  0.3515 -0.7643  0.2072
 9333SOL    HW139461   3.878   0.090   3.769  0.6648  1.4125 -2.7544
 9333SOL    HW239462   3.826   0.156   3.893  1.5230 -1.8788  0.0927
 9334SOL     OW39463   2.487   4.362   4.533 -0.1603 -0.5851  0.1814
 9334SOL    HW139464   2.499   4.385   4.441  0.9306  0.3048  0.5435
 9334SOL    HW239465   2.566   4.309   4.546 -0.5126 -0.6769  1.9518
 9335SOL     OW39466   0.836   0.323  13.496  0.5065 -0.4133  0.2657
 9335SOL    HW139467   0.750   0.348  13.462 -0.0464  0.8779  2.5987
 9335SOL    HW239468   0.822   0.229  13.500 -0.3985 -0.2888  0.0148
 9336SOL     OW39469   4.501   1.491   2.848 -0.0526 -0.1175 -0.5740
 9336SOL    HW139470   4.456   1.576   2.846 -0.0344 -0.0952  0.1076
 9336SOL    HW239471   4.523   1.496   2.755  0.4663  1.2094 -0.3852
 9337SOL     OW39472   4.498   3.985  11.332 -0.0527 -0.3126 -0.1227
 9337SOL    HW139473   4.430   3.965  11.268 -3.1535  3.0020  2.1413
 9337SOL    HW239474   4.542   4.063  11.297 -1.4927  0.4197 -0.2985
 9338SOL     OW39475   1.921   1.387   9.129 -0.2445 -0.7996  0.6301
 9338SOL    HW139476   1.833   1.409   9.099 -0.8460  0.0916  2.9854
 9338SOL    HW239477   1.974   1.449   9.079  0.3262 -0.9692  1.0122
 9339SOL     OW39478   0.328   4.652  12.024 -0.5189 -0.0641  0.6995
 9339SOL    HW139479   0.345   4.641  12.117  2.0515  1.8399  0.4626
 9339SOL    HW239480   0.333   0.021  12.022  0.1273 -0.1403 -1.4096
 9340SOL     OW39481   3.421   0.313   6.399 -0.2357 -0.3703 -0.0371
 9340SOL    HW139482   3.381   0.341   6.481 -1.9049  0.0072 -0.9750
 9340SOL    HW239483   3.410   0.218   6.408  0.0882 -0.2124  1.9770
 9341SOL     OW39484   3.567   3.534  15.723 -0.0064 -0.3575  0.8010
 9341SOL    HW139485   3.509   3.597  15.764 -0.3400 -1.4496  1.9978
 9341SOL    HW239486   3.596   3.492  15.804 -0.0803 -1.3163  0.3326
 9342SOL     OW39487   2.466   3.632   2.770  0.3595  0.3423 -0.0166
 9342SOL    HW139488   2.477   3.537   2.761 -0.0892 -0.0099  3.0484
 9342SOL    HW239489   2.389   3.654   2.716 -0.3604 -2.3266 -0.0602
 9343SOL     OW39490   4.281   2.129   2.866  0.5035  0.5858  0.0212
 9343SOL    HW139491   4.212   2.179   2.912  1.0059  1.0222  0.3048
 9343SOL    HW239492   4.306   2.178   2.788  1.6739 -0.1292 -0.0404
 9344SOL     OW39493   1.455   2.556   5.528  0.2035  0.4142  0.6370
 9344SOL    HW139494   1.484   2.642   5.497  0.4556 -0.1250 -0.6348
 9344SOL    HW239495   1.543   2.519   5.533 -0.3000 -0.9542 -0.8370
 9345SOL     OW39496   1.883   1.262   8.068  0.7455 -0.4723  0.1460
 9345SOL    HW139497   1.921   1.342   8.102  3.7305 -1.8992  0.1376
 9345SOL    HW239498   1.833   1.305   7.999  0.0025 -0.0363  0.9511
 9346SOL     OW39499   1.976   2.706   8.025 -0.0392 -0.5548  0.8007
 9346SOL    HW139500   2.041   2.653   7.979  0.5596  0.8489  0.0664
 9346SOL    HW239501   2.025   2.787   8.038  0.3693 -0.3673 -2.0846
 9347SOL     OW39502   4.672   3.158   8.347  0.1276  0.6656  0.5353
 9347SOL    HW139503   4.610   3.219   8.308 -0.0355 -0.2798 -0.6702
 9347SOL    HW239504   4.671   3.080   8.292 -1.9527 -0.1685  1.7652
 9348SOL     OW39505   1.419   0.599   3.484  0.3056 -0.0505 -0.4997
 9348SOL    HW139506   1.410   0.684   3.527 -1.2690  1.1548 -3.2141
 9348SOL    HW239507   1.325   0.581   3.472 -0.1951  2.5197 -0.3701
 9349SOL     OW39508   0.920   1.493  11.670 -0.1834  0.4122  0.0983
 9349SOL    HW139509   0.961   1.436  11.735 -1.1037 -0.7570 -0.3505
 9349SOL    HW239510   0.869   1.427  11.624  0.0322 -1.6424  2.7794
 9350SOL     OW39511   1.063   1.839   7.110 -0.1076  0.5251 -0.2274
 9350SOL    HW139512   1.125   1.832   7.037  0.4960 -2.4969  0.5613
 9350SOL    HW239513   1.118   1.889   7.170  0.8820  2.6489 -2.8870
 9351SOL     OW39514   2.363   2.707  15.253 -0.0563  0.5843 -0.0763
 9351SOL    HW139515   2.385   2.636  15.193  0.1218  1.2436 -0.7916
 9351SOL    HW239516   2.442   2.700  15.307 -0.1861 -0.8495 -0.0566
 9352SOL     OW39517   3.686   4.708   5.712  0.4550 -0.4442  0.5339
 9352SOL    HW139518   3.597   0.016   5.712  0.0139 -1.5912 -1.3621
 9352SOL    HW239519   3.715   0.010   5.799  0.1178 -0.5055  0.6643
 9353SOL     OW39520   1.319   1.169   3.038  0.5774  0.2981  0.2438
 9353SOL    HW139521   1.278   1.120   3.108 -0.6264  1.5296  0.3907
 9353SOL    HW239522   1.247   1.185   2.977 -0.1788  0.2140  1.1214
 9354SOL     OW39523   4.286   3.671   5.449 -0.6196 -0.0225 -0.2167
 9354SOL    HW139524   4.369   3.717   5.444  0.0281 -1.1370  0.4716
 9354SOL    HW239525   4.281   3.623   5.366  0.3708  0.2074 -0.4103
 9355SOL     OW39526   2.267   1.410   4.615 -0.2574 -0.0329 -0.1852
 9355SOL    HW139527   2.191   1.456   4.580 -0.3672 -1.6016 -1.9710
 9355SOL    HW239528   2.227   1.333   4.657 -0.4262  0.5991  0.8252
 9356SOL     OW39529   0.291   3.378   1.025  0.0995 -0.0294 -0.3036
 9356SOL    HW139530   0.374   3.359   0.981 -0.4189  3.7934 -2.9502
 9356SOL    HW239531   0.247   3.409   0.945  0.2468  0.6397 -0.1220
 9357SOL     OW39532   3.870   3.865   2.978  0.1372 -0.4853  0.0209
 9357SOL    HW139533   3.919   3.885   2.898 -0.6600  1.9631  0.1515
 9357SOL    HW239534   3.817   3.944   2.988  1.1049  0.0744  0.6551
 9358SOL     OW39535   4.044   4.689   5.713 -0.3155 -0.0667  0.1793
 9358SOL    HW139536   4.032   4.646   5.629  1.4996 -0.9914  0.3943
 9358SOL    HW239537   4.011   0.050   5.694  0.0501  0.0141 -0.0821
 9359SOL     OW39538   0.138   2.227   7.801 -0.6529 -0.1675 -0.2859
 9359SOL    HW139539   0.147   2.309   7.850 -2.9185  0.4087 -0.8362
 9359SOL    HW239540   0.220   2.179   7.812  1.0822  2.6657 -1.0440
 9360SOL     OW39541   4.129   0.100   3.660  0.3077 -0.9728  0.0633
 9360SOL    HW139542   4.069   0.037   3.619  1.8359 -0.9905 -2.1181
 9360SOL    HW239543   4.178   0.034   3.709  0.7241  0.1964  1.2149
 9361SOL     OW39544   2.711   2.649  16.797  0.4705  0.1398 -0.5393
 9361SOL    HW139545   2.755   2.679  16.717  1.2868  0.6825  0.1117
 9361SOL    HW239546   2.635   2.610  16.755 -0.7379  3.0835 -1.1147
 9362SOL     OW39547   3.406   0.139   6.835  0.0687  0.7237 -0.3058
 9362SOL    HW139548   3.479   0.164   6.891 -0.7215  3.3990 -0.4466
 9362SOL    HW239549   3.337   0.110   6.896  1.4566 -1.9259 -0.0412
 9363SOL     OW39550   1.212   4.576   7.806 -0.6374 -0.6319  0.0745
 9363SOL    HW139551   1.173   4.559   7.720  3.7180 -1.9271 -1.6387
 9363SOL    HW239552   1.303   4.602   7.795 -0.3431 -1.7761 -0.1875
 9364SOL     OW39553   4.293   0.593   6.377  0.3781  0.4621 -0.6924
 9364SOL    HW139554   4.353   0.664   6.355  0.3803  0.8351  0.4967
 9364SOL    HW239555   4.303   0.603   6.472 -1.1570  2.9507 -0.7661
 9365SOL     OW39556   4.259   1.464  16.505 -0.1466 -0.7854  0.8757
 9365SOL    HW139557   4.174   1.485  16.543 -0.7790  0.8671 -1.4571
 9365SOL    HW239558   4.245   1.441  16.413 -2.1338  1.9339  0.4867
 9366SOL     OW39559   3.374   0.910  14.873  0.3201 -0.6052  0.5552
 9366SOL    HW139560   3.375   0.837  14.934 -1.5354 -1.9266 -1.0223
 9366SOL    HW239561   3.430   0.977  14.913  0.1945 -0.5762  0.6845
 9367SOL     OW39562   2.061   1.500  13.158 -0.0475  0.1534 -0.3151
 9367SOL    HW139563   2.024   1.443  13.091 -1.5149  2.3320 -1.3472
 9367SOL    HW239564   2.154   1.475  13.159 -0.5880 -1.8609  0.5082
 9368SOL     OW39565   2.006   2.820  12.543  0.3856 -0.2708  0.0105
 9368SOL    HW139566   1.918   2.833  12.579  0.4252 -0.2425  0.0958
 9368SOL    HW239567   2.061   2.792  12.616  0.9509 -0.7843 -0.6138
 9369SOL     OW39568   2.906   2.369   2.875 -0.2410 -0.4675  0.1801
 9369SOL    HW139569   2.827   2.316   2.866 -1.8390  1.7630  1.0369
 9369SOL    HW239570   2.880   2.460   2.891  1.8416  0.1376  0.0991
 9370SOL     OW39571   4.655   1.739   7.745 -0.0490  0.2454  0.1622
 9370SOL    HW139572   4.686   1.762   7.657 -2.2516  0.0792 -0.6442
 9370SOL    HW239573   4.662   1.644   7.750 -1.0945  0.2710  2.1329
 9371SOL     OW39574   4.605   0.149   7.683  0.2572 -0.0330 -0.5425
 9371SOL    HW139575   4.649   0.116   7.761 -1.1572 -0.4788  0.0590
 9371SOL    HW239576   4.669   0.215   7.658 -1.4495  2.4193  1.5719
 9372SOL     OW39577   3.736   4.360   2.815 -1.1964 -0.0889 -0.1816
 9372SOL    HW139578   3.738   4.455   2.820  2.5906 -0.3220  2.5979
 9372SOL    HW239579   3.756   4.339   2.724 -0.5717 -0.8838  0.1384
 9373SOL     OW39580   4.079   3.233   6.755 -0.2956 -0.2399  0.3887
 9373SOL    HW139581   4.094   3.310   6.808  0.5883 -0.1076 -0.0504
 9373SOL    HW239582   4.160   3.234   6.704 -0.6096  2.3425 -0.0554
 9374SOL     OW39583   2.969   0.714   6.408 -0.6183 -0.0213 -0.2532
 9374SOL    HW139584   3.019   0.753   6.479 -0.8022  0.2270 -0.2632
 9374SOL    HW239585   3.047   0.705   6.353  0.7517  2.4437  1.3003
 9375SOL     OW39586   4.165   4.602  16.017  0.2096 -0.2686  0.4129
 9375SOL    HW139587   4.156   4.517  16.060 -2.3888 -0.8412 -1.2597
 9375SOL    HW239588   4.097   4.648  16.066  0.3992 -0.0834  0.5017
 9376SOL     OW39589   0.282   3.017   8.053  0.0409 -0.3122 -0.2471
 9376SOL    HW139590   0.323   3.103   8.061  0.5027 -0.4744 -0.8936
 9376SOL    HW239591   0.242   3.009   8.140 -1.2537  0.4161 -0.7819
 9377SOL     OW39592   2.079   1.729   9.930  0.4901 -0.2447 -0.5130
 9377SOL    HW139593   2.122   1.664   9.985  1.6663 -0.2845 -1.4683
 9377SOL    HW239594   2.001   1.685   9.897 -0.3539 -0.1143  1.2936
 9378SOL     OW39595   4.692   1.780   5.914 -0.4269 -0.3571 -0.4406
 9378SOL    HW139596   4.692   1.695   5.958 -0.4327 -0.0841  0.0860
 9378SOL    HW239597   4.696   1.848   5.981 -4.2895 -0.5965  0.0385
 9379SOL     OW39598   1.406   2.536  13.817  0.4491 -0.2626 -0.0835
 9379SOL    HW139599   1.416   2.560  13.909 -0.2497  2.5777 -0.7524
 9379SOL    HW239600   1.412   2.623  13.778  0.5647 -0.9389 -1.5817
 9380SOL     OW39601   3.287   2.384  15.084 -0.2843  0.2034  0.5497
 9380SOL    HW139602   3.216   2.438  15.048  2.1215  3.1462  0.2159
 9380SOL    HW239603   3.234   2.314  15.121  0.6814 -0.4728  0.6382
 9381SOL     OW39604   1.660   3.725   3.528  0.3830 -0.4386  0.4196
 9381SOL    HW139605   1.679   3.633   3.507  0.4997 -0.5292  0.9279
 9381SOL    HW239606   1.611   3.754   3.451  0.2006  1.6973  1.3369
 9382SOL     OW39607   0.985   4.003   9.617 -0.2329  0.5792 -0.0436
 9382SOL    HW139608   0.903   3.992   9.569  0.0124 -2.0633  0.1071
 9382SOL    HW239609   1.009   4.091   9.587 -0.9748  1.3013  1.5108
 9383SOL     OW39610   2.327   1.833   2.277 -0.3090 -0.0842  0.0436
 9383SOL    HW139611   2.272   1.754   2.280  1.0961 -1.1552 -2.3664
 9383SOL    HW239612   2.278   1.894   2.332  1.2740  1.8511 -0.6934
 9384SOL     OW39613   2.132   0.518   0.951 -1.2892 -0.2613 -0.0586
 9384SOL    HW139614   2.130   0.576   1.026 -0.7143 -1.0023  0.5260
 9384SOL    HW239615   2.131   0.425   0.975  0.5984  0.4627  2.7759
 9385SOL     OW39616   4.520   2.171   8.727 -0.3042  0.2954 -0.4792
 9385SOL    HW139617   4.578   2.147   8.800 -0.3761 -0.3703 -0.6361
 9385SOL    HW239618   4.580   2.184   8.654 -0.6350  2.4816 -0.3581
 9386SOL     OW39619   2.410   2.614   6.305  0.2708  0.4902  0.5120
 9386SOL    HW139620   2.487   2.557   6.311  0.0513  0.0135 -1.1426
 9386SOL    HW239621   2.349   2.543   6.289 -0.4192  0.9516  1.0925
 9387SOL     OW39622   0.367   4.640  16.050 -0.3795  0.4379 -0.2606
 9387SOL    HW139623   0.442   4.600  16.092 -1.6352 -1.9796 -0.3066
 9387SOL    HW239624   0.296   4.594  16.095 -1.5140  1.3115 -1.1515
 9388SOL     OW39625   0.597   4.703   3.199 -0.0138  1.0751  0.0715
 9388SOL    HW139626   0.588   0.063   3.238  1.5792 -0.2410  3.3766
 9388SOL    HW239627   0.661   4.658   3.254  3.7578  2.0662 -3.4358
 9389SOL     OW39628   1.266   0.899   5.504  0.2160 -0.5017  0.1486
 9389SOL    HW139629   1.290   0.806   5.499 -0.1164 -0.6755  1.8217
 9389SOL    HW239630   1.222   0.889   5.588 -0.6296  0.8846 -0.1360
 9390SOL     OW39631   1.902   2.255   0.556 -0.0331  0.2988 -0.6065
 9390SOL    HW139632   1.906   2.286   0.646  0.7099  1.5583 -1.0714
 9390SOL    HW239633   1.956   2.313   0.502 -2.7940  2.3543 -1.1736
 9391SOL     OW39634   2.754   3.064   8.072 -0.1329  0.0935 -0.3541
 9391SOL    HW139635   2.702   2.984   8.060 -2.1704  1.6060 -1.7818
 9391SOL    HW239636   2.693   3.119   8.120 -0.5519 -0.6561 -0.0248
 9392SOL     OW39637   3.474   4.216  13.386  0.8016 -0.3192 -0.1394
 9392SOL    HW139638   3.562   4.194  13.353  0.7030 -0.6767 -0.1627
 9392SOL    HW239639   3.469   4.195  13.479 -0.7264  1.2007  0.1218
 9393SOL     OW39640   2.013   1.989   7.144 -0.1999  0.2653  0.0177
 9393SOL    HW139641   1.985   2.079   7.161  2.2545  1.2448 -1.0747
 9393SOL    HW239642   1.929   1.946   7.127  0.2012 -0.1991 -0.7963
 9394SOL     OW39643   3.147   1.510  12.598  0.4913 -0.1612 -0.6197
 9394SOL    HW139644   3.144   1.568  12.522 -0.7803  1.4280  0.6552
 9394SOL    HW239645   3.210   1.449  12.560 -0.3268 -1.2916 -0.1547
 9395SOL     OW39646   1.346   0.716  13.047  0.0531  0.0153  0.4705
 9395SOL    HW139647   1.310   0.804  13.045 -1.3036 -0.5002  1.7895
 9395SOL    HW239648   1.441   0.728  13.039 -0.1571  1.0549 -0.3895
 9396SOL     OW39649   1.639   2.407   4.373 -0.6597  0.4258 -0.2529
 9396SOL    HW139650   1.722   2.442   4.340 -0.1489 -0.8495 -0.3262
 9396SOL    HW239651   1.655   2.414   4.467  0.1906  1.6003 -0.4940
 9397SOL     OW39652   1.070   0.462   5.731 -0.3993 -0.2439  0.2742
 9397SOL    HW139653   1.093   0.375   5.763  1.9752  0.3380  0.1477
 9397SOL    HW239654   1.065   0.442   5.637  0.1441 -0.6786  0.3350
 9398SOL     OW39655   2.838   3.037  10.266 -0.2115  0.0403 -0.2380
 9398SOL    HW139656   2.752   3.061  10.231 -0.7733 -1.5199  0.0282
 9398SOL    HW239657   2.875   3.124  10.279 -1.4641  0.2901  1.6750
 9399SOL     OW39658   4.008   1.484   4.459 -0.1659  0.8739 -0.2420
 9399SOL    HW139659   3.975   1.424   4.526 -0.7751  3.7347  2.0420
 9399SOL    HW239660   3.967   1.566   4.488 -1.4248 -0.3377  1.4191
 9400SOL     OW39661   3.709   1.723  12.802 -0.6741 -0.1871  0.4341
 9400SOL    HW139662   3.783   1.743  12.859  0.7686 -1.3742 -1.0387
 9400SOL    HW239663   3.637   1.759  12.854 -0.5594  2.0416 -0.9696
 9401SOL     OW39664   2.600   4.428   7.972  0.2372  0.1267 -0.4403
 9401SOL    HW139665   2.510   4.396   7.978  0.1631  0.0478 -2.2195
 9401SOL    HW239666   2.591   4.522   7.956  2.1714  0.2857 -0.5517
 9402SOL     OW39667   2.503   0.814   5.209 -0.2119  0.0258  0.0471
 9402SOL    HW139668   2.426   0.825   5.152  0.1769 -1.8769 -0.8154
 9402SOL    HW239669   2.552   0.810   5.127  2.6668 -0.6092  1.8247
 9403SOL     OW39670   3.918   1.195   3.955 -0.1011  0.2392  0.1115
 9403SOL    HW139671   3.823   1.204   3.967 -0.1525  2.0059 -1.6844
 9403SOL    HW239672   3.921   1.115   3.902 -0.9576 -0.1766  0.7007
 9404SOL     OW39673   3.381   4.018   0.741 -0.5198 -0.3126 -0.0439
 9404SOL    HW139674   3.399   3.954   0.673 -1.0456  0.0263 -0.4991
 9404SOL    HW239675   3.466   4.048   0.773 -0.1685 -1.4327  0.0550
 9405SOL     OW39676   0.894   3.795   6.212 -0.3433  0.9113 -1.0080
 9405SOL    HW139677   0.980   3.826   6.242  0.1703 -2.9343  1.5189
 9405SOL    HW239678   0.890   3.815   6.119 -1.9804  3.6422 -0.3551
 9406SOL     OW39679   4.554   2.450   6.145 -0.7308  0.6563 -0.3210
 9406SOL    HW139680   4.585   2.507   6.075 -0.3988 -0.0266 -0.7307
 9406SOL    HW239681   4.584   2.365   6.113  1.4917  1.0939  0.5790
 9407SOL     OW39682   0.976   2.644   2.916 -0.5498  0.4225 -0.4525
 9407SOL    HW139683   1.000   2.616   2.828  0.1758 -0.2254 -0.0469
 9407SOL    HW239684   1.062   2.644   2.957  0.2094 -0.8603 -2.0544
 9408SOL     OW39685   3.354   2.182  10.280 -0.7073 -0.3486  0.4927
 9408SOL    HW139686   3.390   2.268  10.302 -0.7933 -0.9620  3.1169
 9408SOL    HW239687   3.263   2.185  10.311 -0.3281 -0.6699  1.6540
 9409SOL     OW39688   3.083   2.655  14.622  0.3146  0.1243  0.1082
 9409SOL    HW139689   3.022   2.727  14.642 -0.9801 -2.1322  4.2005
 9409SOL    HW239690   3.092   2.655  14.527  0.7479 -1.5782  0.1607
 9410SOL     OW39691   0.198   2.292  10.153  0.2240  0.3031 -0.0043
 9410SOL    HW139692   0.136   2.356  10.117  0.3998 -0.4283 -1.5920
 9410SOL    HW239693   0.230   2.243  10.077 -1.4802 -0.0519 -0.5007
 9411SOL     OW39694   2.599   0.475   5.173  0.0596 -0.0291 -0.4465
 9411SOL    HW139695   2.586   0.498   5.265 -1.2419 -0.9308 -0.3985
 9411SOL    HW239696   2.565   0.386   5.174 -0.7149  0.2929  1.1193
 9412SOL     OW39697   0.611   3.315   6.420  0.6474  0.7155  0.4962
 9412SOL    HW139698   0.594   3.408   6.436  2.5787  0.5815  3.3585
 9412SOL    HW239699   0.618   3.317   6.324  0.3548 -0.1918  0.4593
 9413SOL     OW39700   3.632   3.557  13.667  0.0746  0.1917 -0.4366
 9413SOL    HW139701   3.624   3.640  13.621 -0.3742 -0.9132 -2.3644
 9413SOL    HW239702   3.702   3.519  13.614  1.8009 -0.2871  2.1885
 9414SOL     OW39703   0.444   2.711   5.142 -0.0876  0.2436 -0.0255
 9414SOL    HW139704   0.482   2.699   5.055  0.6377 -0.2973  0.3653
 9414SOL    HW239705   0.445   2.621   5.175 -0.1646  0.1730 -0.2191
 9415SOL     OW39706   3.923   2.019  12.481 -0.2833  0.2093  0.2923
 9415SOL    HW139707   3.867   1.967  12.424  0.5442  1.1913 -1.4079
 9415SOL    HW239708   3.961   2.076  12.414  2.5979 -0.0532  1.7004
 9416SOL     OW39709   1.955   0.266   8.646 -0.5222  0.3164  0.6388
 9416SOL    HW139710   1.880   0.318   8.674 -0.5609 -1.2206  3.3783
 9416SOL    HW239711   1.973   0.219   8.728 -4.9622 -3.5048 -0.5644
 9417SOL     OW39712   3.754   0.775   6.002  0.2481  0.4695 -0.1989
 9417SOL    HW139713   3.845   0.787   6.028  0.1738  0.8804 -0.1272
 9417SOL    HW239714   3.739   0.851   5.946  2.5374  0.1598 -1.2385
 9418SOL     OW39715   1.293   3.932   2.739  0.0978 -0.4595 -0.3721
 9418SOL    HW139716   1.227   3.999   2.723  0.8934 -0.0305 -1.9017
 9418SOL    HW239717   1.273   3.862   2.677  2.5137 -0.5378 -1.0783
 9419SOL     OW39718   2.211   1.757   7.101 -0.1862 -0.2289 -0.3053
 9419SOL    HW139719   2.273   1.804   7.157 -0.5269  0.5104 -0.5396
 9419SOL    HW239720   2.142   1.824   7.096 -2.7051 -2.6740  2.2385
 9420SOL     OW39721   4.551   4.000   9.633 -0.4792  0.0222  0.1193
 9420SOL    HW139722   4.466   3.980   9.671 -0.3247  1.5886  1.3114
 9420SOL    HW239723   4.549   4.093   9.611 -3.6472 -0.0956 -0.1221
 9421SOL     OW39724   4.590   1.415  16.750 -0.1422 -0.3862  0.4149
 9421SOL    HW139725   4.590   1.321  16.730  1.8806  0.0387 -1.5766
 9421SOL    HW239726   4.619   1.433  16.839  0.5557  2.1815 -0.3543
 9422SOL     OW39727   1.873   2.142  11.791 -0.3025  0.2050 -0.5463
 9422SOL    HW139728   1.873   2.235  11.813  1.4464 -0.3961  2.0808
 9422SOL    HW239729   1.806   2.149  11.724 -1.1766 -1.5570  0.1261
 9423SOL     OW39730   1.927   0.935   8.194 -0.0959  0.2446  0.5204
 9423SOL    HW139731   2.003   0.928   8.251  0.7365 -2.0128 -0.8901
 9423SOL    HW239732   1.959   0.992   8.124 -0.0521 -1.1569 -0.5939
 9424SOL     OW39733   0.824   0.621  11.301 -0.2819  0.2670 -0.2550
 9424SOL    HW139734   0.817   0.526  11.298  1.7588  0.1585 -1.2147
 9424SOL    HW239735   0.744   0.646  11.255 -1.6404 -0.9197  1.4812
 9425SOL     OW39736   4.183   3.915   6.249 -0.7164 -0.2337 -0.5632
 9425SOL    HW139737   4.152   3.958   6.169 -2.8515 -1.6059 -0.4782
 9425SOL    HW239738   4.097   3.879   6.274 -0.7430 -1.5025 -2.4889
 9426SOL     OW39739   0.941   2.154   9.962 -0.1295 -0.4783 -0.1076
 9426SOL    HW139740   0.908   2.069   9.936  0.9236 -1.8413  3.0034
 9426SOL    HW239741   0.914   2.203   9.884  1.4596 -0.1312 -0.4444
 9427SOL     OW39742   1.005   3.103   6.058 -1.0815  0.2376  0.2985
 9427SOL    HW139743   1.019   3.109   6.153  3.1258  0.0668 -0.2857
 9427SOL    HW239744   1.093   3.077   6.029 -0.5978  2.6364 -0.3339
 9428SOL     OW39745   2.982   1.497   3.022  0.5027  0.5219  0.9064
 9428SOL    HW139746   3.070   1.467   3.000  0.7054  0.5594  1.6689
 9428SOL    HW239747   2.935   1.419   3.050 -1.6494  1.4454 -0.1520
 9429SOL     OW39748   4.103   3.232   7.408 -0.2191  0.4680  0.6973
 9429SOL    HW139749   4.042   3.293   7.449 -0.3378  0.3771  0.6561
 9429SOL    HW239750   4.166   3.231   7.480 -1.1631  1.5921  1.5226
 9430SOL     OW39751   1.974   2.033   9.241 -0.3777 -0.2793  0.1875
 9430SOL    HW139752   2.021   2.115   9.253 -0.9965 -0.0155  0.8093
 9430SOL    HW239753   2.045   1.970   9.258  0.6650  1.1279  1.0611
 9431SOL     OW39754   2.292   4.594   3.969  0.6759 -0.1140  0.2983
 9431SOL    HW139755   2.293   4.536   4.045 -0.3297 -0.0628  0.3548
 9431SOL    HW239756   2.382   4.588   3.937  0.3295  2.1677 -1.1337
 9432SOL     OW39757   1.569   0.270   3.259 -0.4307  0.0247  0.3470
 9432SOL    HW139758   1.523   0.187   3.255  2.8148 -1.7212 -1.0485
 9432SOL    HW239759   1.605   0.279   3.170 -2.3464 -1.0929 -0.5262
 9433SOL     OW39760   1.729   4.522  13.447  0.8553  0.0663  0.1484
 9433SOL    HW139761   1.655   4.577  13.474  0.6005  0.3477 -1.1409
 9433SOL    HW239762   1.777   4.501  13.528  0.6255  2.1534  0.8107
 9434SOL     OW39763   3.886   4.189   9.687 -0.1182 -0.2148 -0.4630
 9434SOL    HW139764   3.810   4.233   9.724 -0.3428 -0.6509 -0.4052
 9434SOL    HW239765   3.891   4.219   9.596 -1.1594 -0.6266 -0.6533
 9435SOL     OW39766   0.412   4.653   7.961  0.0340  0.1650 -0.3902
 9435SOL    HW139767   0.383   4.600   8.035  3.7786 -0.8607  0.3021
 9435SOL    HW239768   0.366   4.617   7.885 -1.0883  1.2205 -0.2349
 9436SOL     OW39769   0.730   2.728   4.661 -0.2693 -0.2703 -0.3826
 9436SOL    HW139770   0.677   2.745   4.739 -0.2323  0.0198 -0.4200
 9436SOL    HW239771   0.790   2.801   4.678 -2.2161  0.8619  1.6707
 9437SOL     OW39772   0.899   1.616   0.983  0.0934 -0.0985 -0.1125
 9437SOL    HW139773   0.940   1.576   1.060 -0.4956  0.7351  0.6426
 9437SOL    HW239774   0.964   1.612   0.913  1.1793  0.8479  0.8478
 9438SOL     OW39775   4.112   2.162  10.917 -0.4245 -0.2801 -0.3010
 9438SOL    HW139776   4.020   2.140  10.934 -0.5715  1.6175  1.3011
 9438SOL    HW239777   4.127   2.078  10.872 -0.1568 -0.3736 -0.0295
 9439SOL     OW39778   4.015   1.745  12.676  0.1321  0.4628 -0.3192
 9439SOL    HW139779   4.043   1.661  12.713 -1.3237  0.4326  0.7054
 9439SOL    HW239780   3.966   1.727  12.595 -0.7985  0.2263  0.3029
 9440SOL     OW39781   4.032   2.976   8.510  0.5225  0.5668  0.0429
 9440SOL    HW139782   4.091   2.901   8.501 -1.2500 -0.9157  0.8519
 9440SOL    HW239783   4.018   3.006   8.420 -0.2549  1.1298  0.3513
 9441SOL     OW39784   3.093   4.117   8.402 -0.2802 -0.2882 -0.2626
 9441SOL    HW139785   3.072   4.075   8.485  3.2076 -2.5125 -0.5099
 9441SOL    HW239786   3.077   4.057   8.329  0.0975 -1.2664  0.4505
 9442SOL     OW39787   1.864   1.809   6.612 -0.1897  0.7325  0.0825
 9442SOL    HW139788   1.792   1.788   6.672  0.5260 -2.3248 -0.1104
 9442SOL    HW239789   1.829   1.782   6.526 -0.4299 -2.6697  1.2451
 9443SOL     OW39790   4.272   3.416  11.862  0.0804  0.2223 -0.2902
 9443SOL    HW139791   4.209   3.488  11.863  1.0911  1.1038 -0.9470
 9443SOL    HW239792   4.210   3.343  11.865  0.2621  0.0675 -0.3198
 9444SOL     OW39793   4.622   3.782   2.275 -0.2097  0.1138 -0.1213
 9444SOL    HW139794   4.667   3.861   2.243 -0.0924 -0.2088 -0.7409
 9444SOL    HW239795   4.701   3.732   2.294  0.8678  1.2405 -1.6312
 9445SOL     OW39796   4.281   3.333   0.291  0.4907 -0.2798  0.1006
 9445SOL    HW139797   4.352   3.372   0.239 -0.1700 -1.2266 -1.5173
 9445SOL    HW239798   4.277   3.402   0.356 -1.0879 -0.1828 -0.1169
 9446SOL     OW39799   3.412   3.603  13.393 -0.3505 -0.1444 -0.6818
 9446SOL    HW139800   3.434   3.518  13.430 -2.3005 -1.0928 -1.7037
 9446SOL    HW239801   3.317   3.612  13.402 -0.3863  0.1271 -1.3367
 9447SOL     OW39802   0.096   1.728   8.156  0.7512  0.2359 -0.6530
 9447SOL    HW139803   0.003   1.724   8.180  0.9871  0.2011  0.2668
 9447SOL    HW239804   0.118   1.643   8.118 -2.3771 -0.8323 -0.1134
 9448SOL     OW39805   3.210   4.195  17.106 -0.0205 -0.6594  0.5095
 9448SOL    HW139806   3.300   4.163  17.113  0.4188  0.7784  1.4439
 9448SOL    HW239807   3.190   4.188  17.013  1.4076  0.0445  0.1529
 9449SOL     OW39808   2.800   2.204   8.034  0.0127  0.1235  0.3284
 9449SOL    HW139809   2.781   2.118   8.072  0.7215 -0.2687 -0.2017
 9449SOL    HW239810   2.752   2.256   8.099 -1.7893  0.5012 -1.3450
 9450SOL     OW39811   2.243   3.775   8.677 -0.4080  0.0050 -0.0651
 9450SOL    HW139812   2.338   3.786   8.671 -0.1081 -2.2937  0.3621
 9450SOL    HW239813   2.217   3.839   8.743 -0.6218  0.1287 -0.2694
 9451SOL     OW39814   2.873   0.179   3.800 -0.5830 -0.5308 -0.1990
 9451SOL    HW139815   2.925   0.165   3.720 -2.3041 -0.8608 -1.2530
 9451SOL    HW239816   2.904   0.112   3.860  1.6236 -0.1317 -0.8666
 9452SOL     OW39817   1.258   3.161   4.484  0.0581  0.1872  0.2173
 9452SOL    HW139818   1.280   3.210   4.563 -0.8419 -0.2918  0.7638
 9452SOL    HW239819   1.220   3.224   4.423 -0.6178 -1.9662 -1.5754
 9453SOL     OW39820   2.978   1.099   4.611 -0.0167 -0.0180 -0.5955
 9453SOL    HW139821   2.913   1.118   4.544 -0.4086 -0.5043 -0.3500
 9453SOL    HW239822   3.059   1.116   4.562  1.5432 -0.6596  1.7869
 9454SOL     OW39823   1.939   2.858  16.716  0.1980  0.1594 -0.1755
 9454SOL    HW139824   1.896   2.861  16.631  0.9803  1.7494 -0.5218
 9454SOL    HW239825   1.884   2.909  16.776 -0.5014 -1.2778  0.4007
 9455SOL     OW39826   2.515   1.385  11.730 -0.6738  0.1182  0.0169
 9455SOL    HW139827   2.544   1.454  11.790 -2.6312  0.6998  0.2878
 9455SOL    HW239828   2.600   1.351  11.702 -0.0216  2.3993 -0.8016
 9456SOL     OW39829   0.405   3.090   2.361 -0.3866 -0.2047 -0.6134
 9456SOL    HW139830   0.337   3.033   2.326 -0.9547 -0.9875  1.7981
 9456SOL    HW239831   0.459   3.098   2.282 -0.5515  1.3199 -0.5757
 9457SOL     OW39832   2.475   0.414  11.043 -0.0283  0.1402  0.1332
 9457SOL    HW139833   2.430   0.498  11.034  0.9821  0.7141  0.4431
 9457SOL    HW239834   2.567   0.433  11.058 -0.0234 -0.7737  1.2943
 9458SOL     OW39835   0.138   0.953   5.093  0.3205 -0.3731  0.6699
 9458SOL    HW139836   0.127   1.018   5.163 -0.8157 -0.7441  0.8363
 9458SOL    HW239837   0.049   0.919   5.082 -0.5249  1.8007  0.8790
 9459SOL     OW39838   4.630   2.068   0.719  0.6430 -0.0113 -0.0281
 9459SOL    HW139839   4.578   1.994   0.749 -0.3104  1.0196  0.8952
 9459SOL    HW239840   4.635   2.122   0.798 -1.7334 -0.9814  0.7706
 9460SOL     OW39841   3.357   3.521   0.083  0.1973  0.3661 -0.3240
 9460SOL    HW139842   3.443   3.485   0.106 -0.5635 -1.2455  0.0235
 9460SOL    HW239843   3.325   3.529   0.173 -1.1078  1.7226 -0.9257
 9461SOL     OW39844   0.633   4.613   5.380  0.4887  0.3720  0.0169
 9461SOL    HW139845   0.707   4.631   5.439  0.2189  0.4100  0.3438
 9461SOL    HW239846   0.589   4.532   5.405  2.9395 -0.8430  0.3251
 9462SOL     OW39847   2.921   0.091   1.533  0.0254  0.0845  0.4765
 9462SOL    HW139848   2.922   0.160   1.467  1.1030  0.6664  1.0934
 9462SOL    HW239849   2.882   0.022   1.480 -1.3410 -0.2837  1.9486
 9463SOL     OW39850   1.335   3.924  13.340  0.2357 -0.2298 -1.2592
 9463SOL    HW139851   1.279   3.849  13.319 -0.0369 -0.9775  2.2152
 9463SOL    HW239852   1.382   3.890  13.416 -0.4896  0.8356 -0.3428
 9464SOL     OW39853   4.498   0.134  10.961 -0.6157 -0.1608  0.1001
 9464SOL    HW139854   4.461   0.047  10.979 -0.6432 -0.8432 -3.1665
 9464SOL    HW239855   4.559   0.142  11.034  0.9788 -0.1026 -1.2176
 9465SOL     OW39856   4.481   1.405   2.059 -0.0811 -0.3211  0.4330
 9465SOL    HW139857   4.482   1.496   2.029  0.4782 -0.6497 -0.5701
 9465SOL    HW239858   4.389   1.380   2.046 -0.2987  2.1444 -2.9279
 9466SOL     OW39859   4.169   4.580   3.240  0.5578 -0.3934  0.3927
 9466SOL    HW139860   4.258   4.574   3.274  0.6482 -1.9853 -0.1324
 9466SOL    HW239861   4.162   4.672   3.217  0.2732 -1.1011 -2.3419
 9467SOL     OW39862   4.357   3.461  10.365  0.2808  0.7522  0.7475
 9467SOL    HW139863   4.397   3.512  10.295  0.1596 -0.0730  0.0782
 9467SOL    HW239864   4.275   3.510  10.374 -1.6936 -2.4604  0.2485
 9468SOL     OW39865   1.027   0.367   2.374  0.4335  0.5290 -0.0634
 9468SOL    HW139866   0.932   0.355   2.381  0.2194  1.0932 -2.2808
 9468SOL    HW239867   1.042   0.294   2.315  0.5266 -1.1120  1.9905
 9469SOL     OW39868   4.284   4.298   6.170  0.0937  0.3340 -0.0274
 9469SOL    HW139869   4.257   4.311   6.079 -0.4180 -1.2183 -0.1019
 9469SOL    HW239870   4.354   4.363   6.171  0.4933 -0.1074  1.3077
 9470SOL     OW39871   2.629   3.463  17.422 -0.2774 -0.2901 -1.1560
 9470SOL    HW139872   2.622   3.370  17.401 -1.3698 -1.1842  3.0673
 9470SOL    HW239873   2.607   3.456  17.515 -0.4953  1.2842 -1.0880
 9471SOL     OW39874   0.940   3.599   5.731  0.5504 -0.0740  0.1136
 9471SOL    HW139875   0.865   3.647   5.767  1.1681  1.9769 -1.3551
 9471SOL    HW239876   0.970   3.657   5.661  0.2269  0.3252  0.3065
 9472SOL     OW39877   0.669   3.036  13.840  0.0351 -0.0812  0.2551
 9472SOL    HW139878   0.674   3.079  13.925  1.3664  1.0946 -0.4062
 9472SOL    HW239879   0.600   2.972  13.859 -0.1276  0.2426  0.7203
 9473SOL     OW39880   4.229   4.115  14.259 -0.2592  0.1239 -1.1956
 9473SOL    HW139881   4.246   4.047  14.324 -2.3852 -0.0942 -0.8730
 9473SOL    HW239882   4.233   4.075  14.172 -2.0697  0.0742 -1.2485
 9474SOL     OW39883   2.754   1.113   2.789 -0.8135 -0.2818 -0.7256
 9474SOL    HW139884   2.752   1.208   2.800  0.2369  0.3515 -5.7048
 9474SOL    HW239885   2.677   1.084   2.839 -0.6287 -0.2277 -0.4102
 9475SOL     OW39886   2.019   0.708   3.897 -0.0251 -0.1036 -1.0632
 9475SOL    HW139887   2.082   0.693   3.826  0.3904  1.5749 -1.0513
 9475SOL    HW239888   2.024   0.803   3.906  0.4460 -0.3643  1.2304
 9476SOL     OW39889   4.549   0.810   9.614 -0.1181  0.0064  0.3500
 9476SOL    HW139890   4.568   0.728   9.658 -2.7080 -0.3024  0.9042
 9476SOL    HW239891   4.456   0.788   9.605 -0.3074  1.0889 -0.3571
 9477SOL     OW39892   0.970   3.518   4.247  0.4386  0.7905 -0.5769
 9477SOL    HW139893   0.882   3.514   4.286  0.3950  1.8610 -0.5910
 9477SOL    HW239894   0.988   3.611   4.255  1.1503  0.5549  0.5933
 9478SOL     OW39895   2.215   0.323  14.358 -0.1118 -0.1474 -0.2300
 9478SOL    HW139896   2.237   0.416  14.355 -0.5509  0.0430  2.7153
 9478SOL    HW239897   2.122   0.333  14.377  0.2444  1.1968  0.8185
 9479SOL     OW39898   3.509   4.717   3.207  0.2258  0.4901  0.4632
 9479SOL    HW139899   3.464   4.661   3.143  1.1458 -1.2050  1.3192
 9479SOL    HW239900   3.500   4.675   3.292 -0.9151  0.1948  0.2007
 9480SOL     OW39901   1.004   1.274   3.118 -0.9861 -0.3361 -0.4376
 9480SOL    HW139902   0.954   1.356   3.124  0.9002  0.6712  1.5547
 9480SOL    HW239903   1.078   1.312   3.165 -1.6542  0.2797  0.1237
 9481SOL     OW39904   2.105   0.737   4.261 -0.1183  0.3901 -0.3996
 9481SOL    HW139905   2.151   0.703   4.185  2.5007 -0.1965  1.4616
 9481SOL    HW239906   2.141   0.826   4.258  1.4783 -0.2446  0.1184
 9482SOL     OW39907   2.143   0.818  10.619  0.3471  0.4642  0.3882
 9482SOL    HW139908   2.057   0.806  10.578 -0.0341  1.7720  0.8100
 9482SOL    HW239909   2.141   0.914  10.622  2.1431  0.5021  0.4491
 9483SOL     OW39910   4.419   0.094  12.710 -0.3358 -0.3240  0.9198
 9483SOL    HW139911   4.476   0.081  12.786 -0.3375  2.0300  1.3239
 9483SOL    HW239912   4.345   0.038  12.732 -0.2688 -0.0190  1.9337
 9484SOL     OW39913   1.256   3.571   1.576  0.2600 -0.0938 -0.0887
 9484SOL    HW139914   1.320   3.642   1.573  0.0796  0.2016  2.9033
 9484SOL    HW239915   1.227   3.578   1.667 -0.7307 -0.5884 -0.3693
 9485SOL     OW39916   1.904   4.601   5.214 -0.2147 -0.1114  0.2437
 9485SOL    HW139917   1.943   4.519   5.184  0.6310  0.0117  1.0045
 9485SOL    HW239918   1.814   4.576   5.232 -0.4960  1.0515  0.4759
 9486SOL     OW39919   3.512   4.038   6.273  0.1930 -0.2394 -0.2743
 9486SOL    HW139920   3.601   4.069   6.289  1.6475 -3.1452 -2.6449
 9486SOL    HW239921   3.521   3.971   6.206 -0.8114 -1.3420  0.6978
 9487SOL     OW39922   2.119   2.830  14.093  0.3834  0.3829  0.4517
 9487SOL    HW139923   2.193   2.888  14.112  0.8015  0.0521 -0.1897
 9487SOL    HW239924   2.083   2.802  14.178  1.1378  2.0100  1.3159
 9488SOL     OW39925   4.564   1.125  16.666  0.1645  0.1509  0.2949
 9488SOL    HW139926   4.617   1.062  16.715 -1.3617 -0.2248  1.4879
 9488SOL    HW239927   4.477   1.106  16.703  0.1326 -2.1204 -0.9641
 9489SOL     OW39928   2.844   0.307   4.758  0.1655 -0.2322  0.0052
 9489SOL    HW139929   2.807   0.387   4.794 -0.1443 -1.7744  3.1404
 9489SOL    HW239930   2.935   0.321   4.786 -0.0003 -1.3366  1.1571
 9490SOL     OW39931   0.465   1.783  11.529 -0.2255  0.8092  0.2468
 9490SOL    HW139932   0.530   1.713  11.520 -1.6774 -0.5882  0.5050
 9490SOL    HW239933   0.441   1.807  11.439 -0.5958  2.1729  0.7109
 9491SOL     OW39934   3.437   1.166  12.362  0.2324  0.0264 -0.0083
 9491SOL    HW139935   3.486   1.097  12.317 -1.2964 -0.3401 -1.1184
 9491SOL    HW239936   3.355   1.149  12.315  0.7660 -0.9130 -0.5960
 9492SOL     OW39937   2.742   0.555  11.186 -0.2507  0.2855  0.2877
 9492SOL    HW139938   2.746   0.511  11.271 -1.8751 -0.0960  0.1497
 9492SOL    HW239939   2.832   0.540  11.157 -0.8836  0.4935 -1.7744
 9493SOL     OW39940   3.285   4.369   0.230 -0.1031  0.1045  0.2173
 9493SOL    HW139941   3.280   4.281   0.193 -1.2758  0.5346 -0.6506
 9493SOL    HW239942   3.221   4.369   0.301  0.8914  0.4713  1.1039
 9494SOL     OW39943   2.129   0.555   2.265  0.0067 -0.0276  0.2825
 9494SOL    HW139944   2.083   0.615   2.323  1.5172  0.9187  0.5049
 9494SOL    HW239945   2.124   0.469   2.308  0.4195  0.0105  0.4087
 9495SOL     OW39946   1.325   4.364   7.939  0.2247  1.1105 -0.2506
 9495SOL    HW139947   1.283   4.427   7.881  0.9682  2.1776  0.3947
 9495SOL    HW239948   1.360   4.302   7.874  0.8272  0.2115  0.9235
 9496SOL     OW39949   2.367   3.064   6.730 -0.1670  0.4688  0.3524
 9496SOL    HW139950   2.458   3.033   6.726  0.0090  1.3408 -2.6615
 9496SOL    HW239951   2.332   2.998   6.670 -0.4450  1.0900 -0.1700
 9497SOL     OW39952   1.688   0.655   5.052 -0.0926 -0.0951  0.5867
 9497SOL    HW139953   1.598   0.642   5.083  0.6762 -1.7246  2.1178
 9497SOL    HW239954   1.733   0.623   5.130  3.7612  1.5444 -1.0193
 9498SOL     OW39955   0.668   3.374   1.386 -0.3021 -0.0402  0.2151
 9498SOL    HW139956   0.735   3.315   1.419  0.5253 -0.7631 -2.8328
 9498SOL    HW239957   0.658   3.348   1.294  1.5429 -2.9997  0.8648
 9499SOL     OW39958   3.874   4.631   8.482  0.3012 -0.0653 -0.1585
 9499SOL    HW139959   3.827   4.677   8.552  3.0134  1.6932  0.5148
 9499SOL    HW239960   3.865   4.698   8.414 -0.2248  1.5901  1.5591
 9500SOL     OW39961   3.386   3.173   8.429 -0.2614  0.5496  0.8983
 9500SOL    HW139962   3.457   3.214   8.479  0.9556  0.8077 -1.0375
 9500SOL    HW239963   3.323   3.244   8.442 -0.2170  0.2376  2.9235
 9501SOL     OW39964   0.656   3.851   8.494 -1.1140  0.7029  0.6621
 9501SOL    HW139965   0.717   3.925   8.493 -0.0242 -0.2208 -1.9607
 9501SOL    HW239966   0.688   3.796   8.565 -0.6562 -1.6788 -1.3817
 9502SOL     OW39967   1.383   1.721   3.472 -0.3921  0.2972  0.0523
 9502SOL    HW139968   1.434   1.684   3.400  0.6526  1.1353  0.3687
 9502SOL    HW239969   1.290   1.716   3.448 -0.5823 -0.7900  0.9876
 9503SOL     OW39970   2.569   0.328  16.975  0.7830  0.2809 -0.2757
 9503SOL    HW139971   2.548   0.314  17.067 -1.3185 -2.7025 -1.2180
 9503SOL    HW239972   2.593   0.421  16.978 -1.9135  0.9897 -1.1157
 9504SOL     OW39973   1.460   4.578   7.337 -0.1809 -0.1895 -0.3423
 9504SOL    HW139974   1.428   4.488   7.340 -0.5370 -0.0052  1.2483
 9504SOL    HW239975   1.530   4.566   7.272 -0.9514  0.5653 -1.3059
 9505SOL     OW39976   0.535   0.016   3.591  0.3632  0.2345 -0.4332
 9505SOL    HW139977   0.464   0.005   3.528 -0.0553  1.0641 -0.0984
 9505SOL    HW239978   0.562   0.106   3.571 -0.6307  0.3517 -1.2132
 9506SOL     OW39979   2.280   0.861   7.058 -0.3167  0.5676 -0.3517
 9506SOL    HW139980   2.350   0.919   7.028 -0.5771  2.3926  2.5662
 9506SOL    HW239981   2.306   0.842   7.147  1.3180  0.1502 -0.9300
 9507SOL     OW39982   3.005   3.951   7.296  0.1220 -0.5320  0.0557
 9507SOL    HW139983   3.028   3.861   7.272  0.6224  0.9092 -4.8259
 9507SOL    HW239984   2.954   3.979   7.220  2.9209 -0.5335 -1.8447
 9508SOL     OW39985   2.228   2.448   8.151 -0.7895  0.3848 -0.6900
 9508SOL    HW139986   2.210   2.365   8.107 -0.8168  0.0171  0.0223
 9508SOL    HW239987   2.199   2.428   8.240 -0.1086  0.2622 -0.4944
 9509SOL     OW39988   3.307   1.761   4.933  0.2824  0.6118 -0.2615
 9509SOL    HW139989   3.276   1.807   5.011 -1.7636  1.6913 -1.7078
 9509SOL    HW239990   3.311   1.826   4.863 -1.9762  2.1883  1.0472
 9510SOL     OW39991   4.005   0.661   6.457  0.6160  0.5493  0.2306
 9510SOL    HW139992   4.065   0.654   6.531 -0.9505 -2.4779  1.2146
 9510SOL    HW239993   4.050   0.678   6.374  2.2585 -1.5513  0.6826
 9511SOL     OW39994   1.790   3.479   4.097 -0.0573  0.3966 -0.6004
 9511SOL    HW139995   1.860   3.415   4.085  0.5042  0.8686  0.1823
 9511SOL    HW239996   1.828   3.536   4.163  0.4076  3.1513 -3.2834
 9512SOL     OW39997   3.405   2.636  15.829 -0.4578  0.3030 -0.2191
 9512SOL    HW139998   3.415   2.595  15.742 -1.5292 -0.9492  0.2436
 9512SOL    HW239999   3.309   2.634  15.822 -0.3967  0.6720 -1.1619
 9513SOL     OW40000   3.093   0.392   4.885 -0.6094 -0.0411 -0.8511
 9513SOL    HW140001   3.180   0.398   4.846  0.0266 -0.1349  0.5246
 9513SOL    HW240002   3.124   0.427   4.969 -0.4884  0.9534 -1.3102
 9514SOL     OW40003   0.429   3.858  13.886  0.0274  0.5319  0.5044
 9514SOL    HW140004   0.513   3.823  13.858  1.2462  2.4629  1.6795
 9514SOL    HW240005   0.403   3.880  13.797  2.0686  1.0385  0.0272
 9515SOL     OW40006   1.245   2.808   7.908  0.2568  0.1129  0.1820
 9515SOL    HW140007   1.227   2.898   7.880 -0.4807  0.6413  2.3589
 9515SOL    HW240008   1.233   2.814   8.003 -0.1422  3.7926 -0.1299
 9516SOL     OW40009   3.109   3.719   2.686  0.1391 -0.1494 -0.8966
 9516SOL    HW140010   3.185   3.747   2.634  0.9660 -2.6204 -1.0208
 9516SOL    HW240011   3.048   3.680   2.623  1.1268 -0.2946 -1.7695
 9517SOL     OW40012   0.372   3.230   0.154  0.5587 -0.0094 -0.5333
 9517SOL    HW140013   0.314   3.305   0.145  0.4137 -0.0056  0.4560
 9517SOL    HW240014   0.314   3.157   0.131  1.7201 -0.9201 -0.5662
 9518SOL     OW40015   1.461   2.782   8.699 -0.0469 -0.1390  0.0931
 9518SOL    HW140016   1.398   2.796   8.769 -0.3120 -1.1203  0.0517
 9518SOL    HW240017   1.538   2.822   8.740  0.8388  0.5638 -2.2302
 9519SOL     OW40018   2.553   4.347   8.999 -0.1076  0.9160  0.2297
 9519SOL    HW140019   2.506   4.426   8.972  0.2823  1.5607  1.4343
 9519SOL    HW240020   2.493   4.303   9.059 -1.3020  1.4319 -0.5901
 9520SOL     OW40021   1.297   4.194   4.558  0.2445 -0.6074 -0.0832
 9520SOL    HW140022   1.309   4.103   4.531 -0.9343 -0.8778  0.2761
 9520SOL    HW240023   1.364   4.236   4.505  1.2569 -2.8838 -0.6290
 9521SOL     OW40024   2.182   1.592  10.987  0.3957 -0.1716 -0.1090
 9521SOL    HW140025   2.209   1.567  10.899  0.4078 -1.1131  0.1676
 9521SOL    HW240026   2.257   1.574  11.044 -1.6121 -2.4410  1.8060
 9522SOL     OW40027   2.284   1.529   6.146  0.0337  0.1974  0.3802
 9522SOL    HW140028   2.242   1.566   6.224 -3.0683 -1.5373 -0.4367
 9522SOL    HW240029   2.240   1.580   6.078  0.1887 -0.4188 -0.1889
 9523SOL     OW40030   4.697   1.196   0.932  0.0355  0.3392 -0.3677
 9523SOL    HW140031   4.666   1.237   0.852  1.0012  1.0532 -0.3728
 9523SOL    HW240032   4.630   1.233   0.990  3.6653  3.6734  1.7035
 9524SOL     OW40033   3.413   0.195  14.686  0.1715  0.1703  0.0273
 9524SOL    HW140034   3.400   0.204  14.780  1.2414  0.9963  0.0968
 9524SOL    HW240035   3.469   0.117  14.690  2.6521  1.7942 -2.8438
 9525SOL     OW40036   3.491   0.664  10.531 -0.2450 -0.1659  0.3444
 9525SOL    HW140037   3.399   0.678  10.553 -0.3689  1.2237 -1.0362
 9525SOL    HW240038   3.510   0.582  10.578 -2.5146 -0.7437  0.2519
 9526SOL     OW40039   4.529   2.481   5.673  0.0104 -0.2385 -0.2083
 9526SOL    HW140040   4.570   2.420   5.612  1.4431  0.6625 -0.1523
 9526SOL    HW240041   4.439   2.493   5.643 -0.7736  0.7582  2.5043
 9527SOL     OW40042   1.447   1.317  16.015  0.0120  0.6947  0.4214
 9527SOL    HW140043   1.497   1.331  16.095 -0.0626  2.0054  0.2444
 9527SOL    HW240044   1.468   1.396  15.965  0.4274  0.7864  0.7433
 9528SOL     OW40045   2.508   0.866   9.080 -0.3079  0.4232 -0.1817
 9528SOL    HW140046   2.548   0.781   9.100 -1.3617  0.2205  1.0330
 9528SOL    HW240047   2.587   0.918   9.061 -0.0403 -0.1052 -0.5384
 9529SOL     OW40048   1.996   4.234   8.818  0.1882  0.5095 -0.2090
 9529SOL    HW140049   2.028   4.264   8.733 -2.0884 -2.3031 -2.0837
 9529SOL    HW240050   1.902   4.249   8.802  0.1149  1.6937  1.3977
 9530SOL     OW40051   0.809   1.300   1.875 -0.3927 -0.5212 -0.4834
 9530SOL    HW140052   0.823   1.390   1.846  1.0136 -0.5860  0.0074
 9530SOL    HW240053   0.746   1.280   1.805  1.5644 -1.7266 -1.8839
 9531SOL     OW40054   0.592   0.642   5.215 -0.1191 -0.1232 -0.3970
 9531SOL    HW140055   0.537   0.711   5.250 -0.3847 -1.2431  1.3751
 9531SOL    HW240056   0.554   0.624   5.129 -2.1059 -0.6402  0.6018
 9532SOL     OW40057   3.736   0.864   4.731  0.1449 -0.2939 -0.4394
 9532SOL    HW140058   3.746   0.867   4.826 -1.9839 -0.9150 -0.1868
 9532SOL    HW240059   3.805   0.922   4.700 -0.0495  0.8441  1.2863
 9533SOL     OW40060   2.129   1.421   5.740 -0.0561 -0.1398 -0.6899
 9533SOL    HW140061   2.218   1.395   5.765  0.0000 -0.4862 -1.2470
 9533SOL    HW240062   2.095   1.332   5.727  0.2840 -0.2236 -1.0283
 9534SOL     OW40063   3.456   3.147  10.312 -0.1401  0.1128  0.0387
 9534SOL    HW140064   3.489   3.069  10.357  1.4838  0.0325 -1.2895
 9534SOL    HW240065   3.417   3.116  10.230  1.2144  0.9867 -0.9276
 9535SOL     OW40066   0.574   3.189   0.322 -0.4804 -0.2704  0.6729
 9535SOL    HW140067   0.640   3.240   0.275  1.4014 -1.7458  1.7195
 9535SOL    HW240068   0.507   3.195   0.255  0.6766 -3.0675 -0.7167
 9536SOL     OW40069   1.707   3.672  13.601  0.5796 -0.1519 -0.3650
 9536SOL    HW140070   1.652   3.609  13.555  1.3274 -0.5644 -0.6868
 9536SOL    HW240071   1.684   3.660  13.693  2.5673  1.3729  0.3337
 9537SOL     OW40072   3.679   2.011   5.934  0.3805 -0.0057 -0.3520
 9537SOL    HW140073   3.585   2.024   5.949  0.6668  0.5758  0.9447
 9537SOL    HW240074   3.678   1.940   5.870  0.3202 -0.7338  0.4573
 9538SOL     OW40075   4.593   0.136  13.644  0.1053  0.2404  0.4226
 9538SOL    HW140076   4.663   0.116  13.706 -0.2370  0.0620  0.7453
 9538SOL    HW240077   4.509   0.126  13.689 -1.0767 -0.9215 -2.0539
 9539SOL     OW40078   1.879   2.924  14.557 -0.1277 -0.0134  0.5155
 9539SOL    HW140079   1.801   2.976  14.576 -0.2486 -0.1013  0.2538
 9539SOL    HW240080   1.849   2.846  14.604  0.6613 -0.8121 -0.3000
 9540SOL     OW40081   2.628   2.424  12.759 -0.6801  0.0272 -0.0792
 9540SOL    HW140082   2.572   2.497  12.732 -1.5708 -0.7687 -0.3755
 9540SOL    HW240083   2.567   2.351  12.748  0.7200 -1.5853  2.7669
 9541SOL     OW40084   1.176   2.745   3.661  0.1231 -0.5426 -0.1125
 9541SOL    HW140085   1.143   2.694   3.735  0.2527 -0.4800 -0.0111
 9541SOL    HW240086   1.189   2.666   3.609  1.1061 -0.7423  0.4297
 9542SOL     OW40087   0.696   0.071   4.808  0.0078 -0.0956 -0.0335
 9542SOL    HW140088   0.778   0.119   4.808  0.5995 -1.1068 -0.6698
 9542SOL    HW240089   0.634   0.132   4.849 -2.1592 -0.6742 -2.4839
 9543SOL     OW40090   2.259   0.169   6.915 -0.3102 -0.3486 -0.2078
 9543SOL    HW140091   2.216   0.084   6.904 -0.3462 -0.3313 -0.2001
 9543SOL    HW240092   2.186   0.229   6.900  0.9612  0.7315 -1.9532
 9544SOL     OW40093   2.866   0.552  15.155 -0.4190 -0.0277 -0.3423
 9544SOL    HW140094   2.933   0.522  15.215 -0.8769 -0.6447 -0.1483
 9544SOL    HW240095   2.900   0.631  15.112  0.2475 -0.4606 -0.5983
 9545SOL     OW40096   2.950   2.590   0.301  0.0001 -0.0914 -0.5611
 9545SOL    HW140097   3.024   2.558   0.352 -0.4957  0.2307  0.3810
 9545SOL    HW240098   2.896   2.637   0.365 -0.5953 -1.8605  0.2399
 9546SOL     OW40099   3.544   3.472   3.245  0.2478  0.2646 -0.2087
 9546SOL    HW140100   3.497   3.555   3.247 -1.1762 -0.5242 -1.1655
 9546SOL    HW240101   3.506   3.432   3.167  1.7709 -0.0117 -0.8193
 9547SOL     OW40102   4.350   3.672   6.635 -0.0473  0.1491 -0.0736
 9547SOL    HW140103   4.440   3.640   6.643  0.3164  0.4707 -2.7443
 9547SOL    HW240104   4.334   3.670   6.541  1.0459  1.2017 -0.2885
 9548SOL     OW40105   0.933   2.676   5.422  0.3884  0.6478  0.1961
 9548SOL    HW140106   0.856   2.666   5.478 -0.1028  0.3344 -0.5177
 9548SOL    HW240107   0.904   2.711   5.337  2.2068  3.2834  0.6845
 9549SOL     OW40108   3.573   4.414   5.001  0.1465 -0.5031 -0.0151
 9549SOL    HW140109   3.545   4.479   4.937  1.4456 -0.6928 -0.7658
 9549SOL    HW240110   3.572   4.328   4.959 -1.3052  0.0299 -1.0716
 9550SOL     OW40111   1.492   0.059   6.150 -0.2825  0.2269  0.3768
 9550SOL    HW140112   1.523   0.011   6.227  0.3485 -2.0132 -1.2961
 9550SOL    HW240113   1.456   0.142   6.182  0.9719  1.3432 -1.1366
 9551SOL     OW40114   1.890   0.811  13.384 -0.4898 -0.4942  0.1754
 9551SOL    HW140115   1.969   0.813  13.330  0.1107 -0.7262  1.0374
 9551SOL    HW240116   1.842   0.869  13.327  0.7879 -0.6980 -1.1105
 9552SOL     OW40117   3.313   2.658  14.794 -0.2639  0.6229  0.0474
 9552SOL    HW140118   3.246   2.692  14.736  1.4959  4.7132  0.4059
 9552SOL    HW240119   3.264   2.638  14.874 -0.8504 -1.3855 -0.8207
 9553SOL     OW40120   1.673   0.076   9.041  0.0875 -0.0093  0.6094
 9553SOL    HW140121   1.752   0.109   8.999  0.5682 -1.3628  0.4692
 9553SOL    HW240122   1.717   0.017   9.102 -1.4848  0.0134  1.7879
 9554SOL     OW40123   2.910   3.714   2.178 -0.2383  0.1721 -0.3431
 9554SOL    HW140124   2.984   3.691   2.234  1.0238 -0.4367 -2.2623
 9554SOL    HW240125   2.923   3.808   2.169  1.1068 -0.0862 -1.0564
 9555SOL     OW40126   3.478   0.104   9.388 -0.8476  0.3768 -0.4901
 9555SOL    HW140127   3.501   0.032   9.447 -3.5657  1.7426  2.2130
 9555SOL    HW240128   3.428   0.164   9.444 -1.3796 -0.9990  0.5120
 9556SOL     OW40129   2.175   2.687  16.256 -0.1229 -0.3242  0.2039
 9556SOL    HW140130   2.237   2.627  16.216 -1.2360 -2.0327  1.0603
 9556SOL    HW240131   2.224   2.757  16.300 -1.3855  0.0394  1.0292
 9557SOL     OW40132   1.839   3.162   3.249  0.3186 -0.2399 -0.2057
 9557SOL    HW140133   1.905   3.232   3.255 -0.0488  0.1296 -0.4331
 9557SOL    HW240134   1.844   3.102   3.323  1.2757  0.8402  0.6247
 9558SOL     OW40135   3.004   1.153   5.764 -1.1261 -0.1360 -0.4448
 9558SOL    HW140136   3.073   1.109   5.813 -3.6963 -1.5747  1.8413
 9558SOL    HW240137   2.958   1.173   5.845  1.0921 -0.5294  0.9069
 9559SOL     OW40138   1.838   4.407  13.797  0.1167  0.1493  0.2353
 9559SOL    HW140139   1.754   4.396  13.841 -0.1161  0.0988 -0.2175
 9559SOL    HW240140   1.896   4.439  13.866 -0.4927 -2.0622  1.7621
 9560SOL     OW40141   1.460   0.880  17.106  0.2408  0.0040 -0.5207
 9560SOL    HW140142   1.536   0.932  17.131  0.0134 -0.3364  0.8893
 9560SOL    HW240143   1.502   0.794  17.100 -0.7848 -0.5061 -0.4507
 9561SOL     OW40144   3.541   0.595   8.935 -0.0257 -0.1199 -0.3772
 9561SOL    HW140145   3.557   0.522   8.874 -0.5858  0.5467 -1.3347
 9561SOL    HW240146   3.459   0.632   8.902 -0.5783 -2.3694 -1.5261
 9562SOL     OW40147   3.673   4.133  12.552 -0.1869 -0.0410 -0.4444
 9562SOL    HW140148   3.752   4.160  12.598 -1.7498 -0.0725  2.2682
 9562SOL    HW240149   3.682   4.037  12.554 -0.6765 -0.0928 -0.5862
 9563SOL     OW40150   2.882   2.517   3.468  0.1222  0.0342  0.6240
 9563SOL    HW140151   2.802   2.508   3.416  0.7040  0.6592 -0.3819
 9563SOL    HW240152   2.860   2.603   3.502  2.0328  1.0512 -0.6761
 9564SOL     OW40153   3.915   4.220   6.065  0.7854  0.2383 -0.4360
 9564SOL    HW140154   4.010   4.222   6.056  1.0521 -2.9012  1.9353
 9564SOL    HW240155   3.911   4.232   6.160  0.5906 -0.8073 -0.3090
 9565SOL     OW40156   3.551   3.191   0.575  0.8393 -0.1857  0.3554
 9565SOL    HW140157   3.624   3.148   0.621  0.5923 -0.8289  0.1512
 9565SOL    HW240158   3.577   3.171   0.485  0.3158 -1.2135  0.4266
 9566SOL     OW40159   1.136   4.577   7.557  0.1798 -0.2741  0.1564
 9566SOL    HW140160   1.145   4.664   7.519 -0.0854 -0.9394 -1.4563
 9566SOL    HW240161   1.061   4.549   7.504  0.4329  0.5841 -0.6481
 9567SOL     OW40162   1.358   4.196  13.250  0.2911  0.1097 -0.0816
 9567SOL    HW140163   1.273   4.169  13.217  0.4457 -0.8585  0.3194
 9567SOL    HW240164   1.380   4.123  13.308 -1.1932  0.3718  0.8064
 9568SOL     OW40165   4.131   1.898   2.908 -0.3389 -0.3998  0.1132
 9568SOL    HW140166   4.183   1.975   2.887  0.4573 -0.8286  0.4774
 9568SOL    HW240167   4.056   1.906   2.849  0.3024  0.8808 -0.5247
   4.72651   4.72651  17.70706
