Membrane in water
40167
    1TCq1    O1    1   3.591   0.712  11.440  0.2062 -0.0284  0.2205
    1TCq1    C1    2   3.500   0.619  11.471 -0.2417 -0.2327 -0.2959
    1TCq1    O2    3   3.506   0.529  11.552  0.2021 -0.2253  1.2162
    1TCq1    C2    4   3.374   0.638  11.396 -0.3588  0.2105  0.2117
    1TCq1    C3    5   3.389   0.615  11.260 -0.2665  0.4021 -0.1400
    1TCq1    C4    6   3.297   0.536  11.196  0.5509  0.0429  0.3021
    1TCq1    C5    7   3.188   0.489  11.269  0.2347 -0.3600 -0.0835
    1TCq1    C6    8   3.171   0.524  11.402 -0.2614  0.5134 -0.3188
    1TCq1    C7    9   3.272   0.595  11.468  0.0546  0.1546 -0.4847
    1TCq1    C8   10   3.055   0.488  11.477 -0.1936 -0.2971 -0.4559
    1TCq1    O4   11   2.948   0.489  11.417  0.2013 -0.2575 -0.3181
    1TCq1    C9   12   3.333   0.486  11.068 -0.4601 -0.6536 -0.1966
    1TCq1    O5   13   3.440   0.510  11.018 -0.5099  0.0157 -0.2631
    1TCq1    O6   14   3.233   0.435  11.003  0.6880  0.1349  0.1028
    1TCq1    H1   15   3.565   0.772  11.368 -0.9595 -0.9783 -0.1387
    1TCq1    H2   16   3.482   0.632  11.207 -0.1284  1.3474  0.4088
    1TCq1    H3   17   3.119   0.415  11.230  0.0624 -0.0326 -0.4087
    1TCq1    H4   18   3.263   0.628  11.571 -0.0139 -0.4604 -0.2964
    2MPD2     C   19   2.805   0.389  11.906 -0.3708  0.3549 -0.5780
    2MPD2    C1   20   2.757   0.396  11.777 -0.2414 -1.0925  1.0214
    2MPD2    C2   21   2.849   0.414  11.674 -0.3082 -0.1111 -0.0418
    2MPD2    C3   22   2.982   0.425  11.707 -0.3166 -0.4652 -0.6517
    2MPD2    C4   23   3.031   0.419  11.836  0.0861 -0.3155 -0.0861
    2MPD2    C5   24   2.937   0.393  11.932 -0.0493 -0.4221  0.2854
    2MPD2     H   25   2.813   0.449  11.578 -1.8401  0.6789  0.8210
    2MPD2    H1   26   3.139   0.417  11.849 -0.0524  0.4029  1.1127
    2MPD2    H2   27   2.731   0.384  11.985  0.3520 -0.3321  0.0676
    2MPD2    H3   28   2.972   0.380  12.034 -1.5556  0.1359  0.8831
    2MPD2     N   29   3.080   0.457  11.609  0.1312  1.0325 -0.2364
    2MPD2    H5   30   3.176   0.449  11.642  0.3781 -0.9601 -1.4247
    2MPD2    N1   31   2.615   0.397  11.739 -0.2055  0.4043 -0.2817
    2MPD2    H7   32   2.611   0.419  11.640  1.6395  0.8698 -0.2549
    3TCq1    O1   33   3.003   1.852   9.883 -0.0609  0.5147 -0.3176
    3TCq1    C1   34   2.891   1.802   9.944  1.0280 -0.0859  0.5744
    3TCq1    O2   35   2.777   1.840   9.926 -0.4851  0.3553  0.0261
    3TCq1    C2   36   2.935   1.733  10.071 -0.3215 -0.6600  0.0824
    3TCq1    C3   37   3.002   1.616  10.066 -0.2915 -0.2455  0.1597
    3TCq1    C4   38   2.994   1.531  10.173 -0.4662 -0.1108 -0.1597
    3TCq1    C5   39   2.944   1.568  10.293 -0.0416  0.4739  0.0782
    3TCq1    C6   40   2.876   1.686  10.287 -1.2225  0.0953  0.1057
    3TCq1    C7   41   2.861   1.765  10.177 -0.6200  0.2887 -0.0279
    3TCq1    C8   42   2.746   1.667  10.354 -0.3572 -0.2202  0.7642
    3TCq1    O4   43   2.710   1.553  10.381  0.5465  0.0551 -0.5758
    3TCq1    C9   44   3.047   1.393  10.152 -0.0141  0.5261 -0.2204
    3TCq1    O5   45   3.055   1.319  10.260 -0.1023 -0.0233  0.0139
    3TCq1    O6   46   3.104   1.365  10.042 -0.4274  0.0282  0.3300
    3TCq1    H1   47   3.090   1.812   9.906 -1.2430 -1.1083  1.2858
    3TCq1    H2   48   3.054   1.596   9.974 -2.1335  0.5634 -1.0541
    3TCq1    H3   49   2.938   1.500  10.378  0.1213  2.7361  1.9067
    3TCq1    H4   50   2.784   1.839  10.159  1.3780  1.8376 -2.3349
    4MPD2     C   51   2.272   1.829  10.480 -0.1479  1.0931  0.1585
    4MPD2    C1   52   2.354   1.932  10.461  0.0391 -0.6441  0.6477
    4MPD2    C2   53   2.486   1.919  10.427 -0.0290 -0.3208  0.8669
    4MPD2    C3   54   2.535   1.795  10.404 -0.1329  0.2030  0.8502
    4MPD2    C4   55   2.449   1.689  10.417  0.1757 -0.3920  0.0337
    4MPD2    C5   56   2.324   1.706  10.458 -0.2841 -0.7037 -0.0801
    4MPD2     H   57   2.547   2.008  10.415  0.9782 -0.9591  1.2251
    4MPD2    H1   58   2.479   1.587  10.395 -0.2336 -0.0541 -2.0681
    4MPD2    H2   59   2.174   1.834  10.524  0.0157 -0.3637  0.6802
    4MPD2    H3   60   2.266   1.617  10.479 -0.8863  0.2516  2.2603
    4MPD2     N   61   2.674   1.781  10.369 -0.4855 -0.3201 -0.8407
    4MPD2    H5   62   2.732   1.864  10.373  2.0672 -2.2304  1.5536
    4MPD2    N1   63   2.314   2.068  10.462  0.5400 -0.3632 -0.0671
    4MPD2    H7   64   2.385   2.140  10.453  1.0394 -1.0508 -1.6486
    5TCq1    O1   65   2.633   3.602  10.587 -0.0382 -0.0678  0.0822
    5TCq1    C1   66   2.531   3.664  10.657 -0.3150 -0.0008  0.7108
    5TCq1    O2   67   2.443   3.732  10.605 -0.5086  0.4956 -0.1893
    5TCq1    C2   68   2.542   3.640  10.798  1.0425  0.3255  0.6791
    5TCq1    C3   69   2.477   3.728  10.884 -0.2684  0.4696  0.1656
    5TCq1    C4   70   2.477   3.696  11.019 -0.1461  0.0393  0.0333
    5TCq1    C5   71   2.538   3.584  11.061 -0.3830 -0.7241 -0.3475
    5TCq1    C6   72   2.597   3.502  10.967  0.0390  0.2521  0.3688
    5TCq1    C7   73   2.603   3.523  10.832  0.1731  0.2988 -0.4099
    5TCq1    C8   74   2.644   3.372  11.015 -0.4186  1.4033 -0.1301
    5TCq1    O4   75   2.729   3.315  10.949 -0.1025  0.1638  0.1917
    5TCq1    C9   76   2.431   3.795  11.119 -0.3487 -0.5360  0.2281
    5TCq1    O5   77   2.463   3.783  11.239  0.1710  0.2209 -0.6022
    5TCq1    O6   78   2.359   3.884  11.074  0.3524 -0.1864  1.3507
    5TCq1    H1   79   2.708   3.576  10.644 -1.2714 -1.4534  1.0906
    5TCq1    H2   80   2.440   3.824  10.849 -0.2757  0.7404  0.9146
    5TCq1    H3   81   2.551   3.565  11.167  1.7726 -0.7608 -0.6125
    5TCq1    H4   82   2.639   3.447  10.763  0.3867 -2.2467  2.5253
    6MPD2     C   83   2.483   3.171  11.276 -0.3411 -0.3266 -0.0750
    6MPD2    C1   84   2.578   3.203  11.180  0.0835 -0.1814  0.6898
    6MPD2    C2   85   2.680   3.114  11.153 -0.2460 -0.0998  0.4167
    6MPD2    C3   86   2.679   2.989  11.219  0.0262 -0.7280  0.1739
    6MPD2    C4   87   2.576   2.950  11.302  1.0991  0.0481  0.7255
    6MPD2    C5   88   2.482   3.048  11.335 -0.7226  0.3123  0.2862
    6MPD2     H   89   2.762   3.138  11.086 -0.7511  1.7760  0.4679
    6MPD2    H1   90   2.582   2.865  11.369  0.8196 -0.3514  0.2415
    6MPD2    H2   91   2.417   3.242  11.325  1.5945 -0.7565  3.1302
    6MPD2    H3   92   2.422   3.036  11.424  0.0348  0.8125  0.8648
    6MPD2     N   93   2.782   2.895  11.194  0.4442  0.0569 -0.0846
    6MPD2    H5   94   2.863   2.936  11.149  0.2612  0.7240  0.1957
    6MPD2    N1   95   2.567   3.328  11.114 -0.1604  0.2896  0.3197
    6MPD2    H7   96   2.481   3.379  11.131 -0.0419  1.3686 -2.3501
    7TCq1    O1   97   1.535   2.940  13.337 -0.0356  0.2458  0.2329
    7TCq1    C1   98   1.430   2.981  13.415  0.0304  0.3093 -0.2214
    7TCq1    O2   99   1.416   2.947  13.536  0.3455  0.3177 -0.3412
    7TCq1    C2  100   1.329   3.004  13.320  0.7771  0.2054 -0.0069
    7TCq1    C3  101   1.358   3.088  13.227  0.3668  0.1702 -0.6618
    7TCq1    C4  102   1.255   3.135  13.150  0.4299 -0.7452  0.1397
    7TCq1    C5  103   1.124   3.090  13.160  0.3843 -0.4883  0.2258
    7TCq1    C6  104   1.097   3.005  13.266 -0.7142  0.2579  0.4946
    7TCq1    C7  105   1.200   2.965  13.351 -0.2400 -0.1306 -0.4968
    7TCq1    C8  106   0.973   2.946  13.295  0.1502  0.4806 -1.1945
    7TCq1    O4  107   0.966   2.880  13.397 -0.0170  0.2890 -0.5663
    7TCq1    C9  108   1.293   3.232  13.054 -0.0860  1.0240  0.7249
    7TCq1    O5  109   1.410   3.254  13.028  0.2607 -0.5898 -0.0332
    7TCq1    O6  110   1.200   3.295  12.995 -0.7449  0.1967 -0.0454
    7TCq1    H1  111   1.527   2.948  13.239  2.3808 -1.7191 -0.1203
    7TCq1    H2  112   1.459   3.125  13.212  0.3900 -0.0852 -1.1224
    7TCq1    H3  113   1.049   3.138  13.099  0.1720 -2.8120 -1.3197
    7TCq1    H4  114   1.183   2.908  13.442 -1.6262 -3.0119 -2.5553
    8MPD2     C  115   0.542   2.773  13.081  0.4970  0.0868 -0.0252
    8MPD2    C1  116   0.609   2.733  13.201 -0.7762  0.4426 -0.2969
    8MPD2    C2  117   0.716   2.808  13.249 -0.1398 -0.0031 -0.4043
    8MPD2    C3  118   0.766   2.914  13.175 -0.0822 -0.2855  0.3775
    8MPD2    C4  119   0.692   2.956  13.069 -0.2474  0.0910 -0.7366
    8MPD2    C5  120   0.583   2.890  13.023 -0.1960 -0.0012 -0.3971
    8MPD2     H  121   0.763   2.776  13.342  2.1324 -2.1140 -2.2818
    8MPD2    H1  122   0.723   3.047  13.019  0.7272 -0.8921 -1.9307
    8MPD2    H2  123   0.450   2.724  13.050 -0.3954  3.4546 -2.6859
    8MPD2    H3  124   0.523   2.930  12.943 -2.4394  1.7009  2.1504
    8MPD2     N  125   0.881   2.986  13.206  0.0650  0.1503 -0.0827
    8MPD2    H5  126   0.906   3.049  13.130 -0.3313  0.7183  0.2572
    8MPD2    N1  127   0.552   2.618  13.265  0.0259  0.3217 -0.3085
    8MPD2    H7  128   0.478   2.567  13.218 -1.0150 -0.0921  1.7906
    9TCq1    O1  129   3.609   0.656  10.522  0.1976 -0.1697  0.1131
    9TCq1    C1  130   3.570   0.762  10.453  0.6490 -0.5514  0.5937
    9TCq1    O2  131   3.630   0.823  10.363  0.1486 -0.2368  0.0174
    9TCq1    C2  132   3.443   0.812  10.495  0.4436  0.4119  0.5739
    9TCq1    C3  133   3.365   0.886  10.410  0.3832  0.2167  0.1054
    9TCq1    C4  134   3.245   0.929  10.459  0.3189 -0.8464 -0.6266
    9TCq1    C5  135   3.211   0.913  10.588  0.0649  0.0797  0.4802
    9TCq1    C6  136   3.296   0.853  10.677  0.5629  0.3695 -0.2882
    9TCq1    C7  137   3.413   0.799  10.632 -0.2859 -0.5264 -1.0414
    9TCq1    C8  138   3.240   0.797  10.799 -0.0752  0.0177 -0.2273
    9TCq1    O4  139   3.279   0.692  10.846 -0.3261  0.3643  0.0768
    9TCq1    C9  140   3.151   0.975  10.365 -0.0880  0.0741  0.5357
    9TCq1    O5  141   3.159   0.924  10.249 -0.1144  0.0409 -0.0343
    9TCq1    O6  142   3.077   1.070  10.393  0.3240 -0.0270 -0.0267
    9TCq1    H1  143   3.533   0.602  10.551 -0.2884  0.8685  0.7915
    9TCq1    H2  144   3.387   0.897  10.305 -0.1504 -0.3809 -0.0613
    9TCq1    H3  145   3.109   0.938  10.612 -0.3667 -0.6242 -0.5768
    9TCq1    H4  146   3.477   0.738  10.695 -0.1336 -0.3862 -1.0591
   10MPD2     C  147   3.064   0.729  11.030 -0.1140 -0.6540  0.0836
   10MPD2    C1  148   3.083   0.858  10.978 -0.3775 -0.6076 -0.4909
   10MPD2    C2  149   3.015   0.960  11.038 -0.1900  0.8132  0.1206
   10MPD2    C3  150   2.920   0.934  11.141 -0.3743  0.4323  0.2242
   10MPD2    C4  151   2.900   0.807  11.183 -0.6802 -0.3407  0.7725
   10MPD2    C5  152   2.979   0.712  11.135  1.1660  0.2828  0.2923
   10MPD2     H  153   3.037   1.058  10.997 -2.2061  1.1321 -0.1954
   10MPD2    H1  154   2.825   0.779  11.255 -0.9723  2.1102  1.4132
   10MPD2    H2  155   3.116   0.638  11.001  2.8092  1.5361 -1.6358
   10MPD2    H3  156   2.957   0.611  11.166 -2.2673  0.5551 -1.3019
   10MPD2     N  157   2.848   1.040  11.205  0.0494 -0.3437  0.1566
   10MPD2    H5  158   2.769   1.016  11.264  1.2621  0.3611  2.0474
   10MPD2    N1  159   3.169   0.891  10.872  0.2919 -0.4229 -0.4162
   10MPD2    H7  160   3.183   0.985  10.835  2.0592 -0.5627 -0.1016
   11TCq1    O1  161   2.984   2.162  14.441  0.1491  0.2560  0.0647
   11TCq1    C1  162   3.084   2.072  14.455  0.1777 -0.2782 -1.1396
   11TCq1    O2  163   3.153   2.071  14.555 -0.1272  0.5352  0.0082
   11TCq1    C2  164   3.109   1.991  14.331  0.6016 -0.1676  0.1367
   11TCq1    C3  165   3.231   1.935  14.307 -0.0124  0.0146  0.1392
   11TCq1    C4  166   3.249   1.857  14.194 -0.4028  0.2062 -0.5709
   11TCq1    C5  167   3.145   1.829  14.112 -0.2794  0.1338 -0.2369
   11TCq1    C6  168   3.022   1.880  14.139  0.5197 -0.0087  0.3554
   11TCq1    C7  169   3.000   1.975  14.245 -0.0546 -0.6901 -0.0863
   11TCq1    C8  170   2.901   1.821  14.079  0.1702  0.3578  0.1210
   11TCq1    O4  171   2.797   1.885  14.098 -0.4493  0.0243 -0.1138
   11TCq1    C9  172   3.368   1.782  14.168 -0.1089 -0.9840  0.2112
   11TCq1    O5  173   3.363   1.703  14.071  0.2961  0.5562 -0.7429
   11TCq1    O6  174   3.456   1.799  14.254  0.0342  0.2677  0.0407
   11TCq1    H1  175   2.941   2.178  14.354  0.7837  1.5177 -0.0161
   11TCq1    H2  176   3.312   1.944  14.378  1.3579 -1.4865 -1.2407
   11TCq1    H3  177   3.160   1.778  14.018  1.7607  1.8275 -0.8259
   11TCq1    H4  178   2.905   2.022  14.263  0.1702 -0.1296 -0.3468
   12MPD2     C  179   2.683   1.654  13.971  0.0194 -0.3225  0.1491
   12MPD2    C1  180   2.817   1.628  13.948 -0.4945  0.3305  0.5203
   12MPD2    C2  181   2.852   1.538  13.852  0.2482  0.0890  0.6709
   12MPD2    C3  182   2.756   1.474  13.767  0.6273  0.1649  1.2680
   12MPD2    C4  183   2.624   1.505  13.783 -0.4857 -1.0012 -0.4756
   12MPD2    C5  184   2.588   1.589  13.891 -0.1783  0.8697  0.6375
   12MPD2     H  185   2.956   1.511  13.841  0.5146  1.9076 -1.1601
   12MPD2    H1  186   2.547   1.454  13.726 -0.6540  0.8588 -1.8950
   12MPD2    H2  187   2.644   1.709  14.056  0.3022 -0.6805  0.5094
   12MPD2    H3  188   2.485   1.623  13.903 -0.2619  0.7382  0.2769
   12MPD2     N  189   2.807   1.387  13.673 -0.5465  0.3268  0.0468
   12MPD2    H5  190   2.908   1.373  13.667 -0.9942 -2.4571 -1.0542
   12MPD2    N1  191   2.922   1.708  14.009  0.2840  0.6279  0.4085
   12MPD2    H7  192   3.018   1.677  14.007 -0.3700 -1.4449  0.9323
   13TCq1    O1  193   3.187   0.747  10.074  0.1648 -0.4156  0.6393
   13TCq1    C1  194   3.246   0.634  10.123 -1.3224  0.5233  0.0509
   13TCq1    O2  195   3.280   0.540  10.052  0.3325 -0.1197  0.0328
   13TCq1    C2  196   3.182   0.623  10.260  0.1040 -0.2766  0.1636
   13TCq1    C3  197   3.257   0.562  10.358  0.2871 -0.1139 -0.2100
   13TCq1    C4  198   3.197   0.524  10.473 -0.3536 -0.1751 -0.0881
   13TCq1    C5  199   3.069   0.550  10.506 -0.6650 -0.2922 -0.6671
   13TCq1    C6  200   2.998   0.620  10.411  0.0310 -0.0756 -0.0573
   13TCq1    C7  201   3.046   0.649  10.282  0.3094 -0.4888  0.7845
   13TCq1    C8  202   2.877   0.701  10.445 -0.3215  0.3138  0.2018
   13TCq1    O4  203   2.890   0.762  10.547  0.3356  0.7999  0.1614
   13TCq1    C9  204   3.279   0.466  10.572 -0.5366 -0.1907  0.0294
   13TCq1    O5  205   3.399   0.510  10.580  0.5454 -0.1141  0.3474
   13TCq1    O6  206   3.222   0.427  10.680 -0.2488  0.6623  0.2296
   13TCq1    H1  207   3.156   0.810  10.142  0.4577  0.4166  0.0027
   13TCq1    H2  208   3.361   0.540  10.338 -0.0657 -2.5406  0.6464
   13TCq1    H3  209   3.027   0.510  10.598  0.0785 -0.8940 -0.5842
   13TCq1    H4  210   2.990   0.710  10.212 -1.8963 -0.7782  2.2939
   14MPD2     C  211   2.551   0.728  10.292 -0.1459 -0.2684  0.1008
   14MPD2    C1  212   2.647   0.739  10.382  0.1559  0.8882 -0.2159
   14MPD2    C2  213   2.607   0.774  10.506  0.2328 -0.2804  0.5030
   14MPD2    C3  214   2.475   0.804  10.537  0.5504 -0.9295  0.4543
   14MPD2    C4  215   2.378   0.798  10.439  0.5045 -0.3638  0.5321
   14MPD2    C5  216   2.422   0.760  10.318  0.3876  0.2315  0.0447
   14MPD2     H  217   2.682   0.787  10.583  0.3463 -0.3386  0.4038
   14MPD2    H1  218   2.278   0.840  10.445  0.5536 -0.1142 -0.3775
   14MPD2    H2  219   2.576   0.684  10.196 -0.7355 -1.7506  0.6176
   14MPD2    H3  220   2.351   0.743  10.238  2.2219 -1.5296 -1.2222
   14MPD2     N  221   2.454   0.846  10.673  0.3446  0.8634 -0.4899
   14MPD2    H5  222   2.531   0.840  10.739 -0.5869  1.1621  0.6430
   14MPD2    N1  223   2.779   0.695  10.347 -0.3522  0.8670  0.2365
   14MPD2    H7  224   2.793   0.654  10.256 -0.2278  1.5771 -0.0630
   15TCq1    O1  225   3.882   4.338   1.989 -0.0813 -0.4865  0.1248
   15TCq1    C1  226   3.858   4.446   2.069 -0.1075  0.1264  0.1976
   15TCq1    O2  227   3.872   4.463   2.188  0.4908 -0.1756  0.3993
   15TCq1    C2  228   3.796   4.553   1.998 -0.8900  0.2457 -0.2708
   15TCq1    C3  229   3.705   4.627   2.065 -0.0805 -0.3278  1.2663
   15TCq1    C4  230   3.648   0.009   2.005 -0.2140  0.8246 -0.1149
   15TCq1    C5  231   3.688   0.052   1.877  0.1458  1.1250 -0.0883
   15TCq1    C6  232   3.776   4.694   1.814  0.0811  0.2907  0.0094
   15TCq1    C7  233   3.837   4.587   1.875 -0.0240  0.5432  0.0347
   15TCq1    C8  234   3.807   4.706   1.674 -0.4139 -0.6793  0.1405
   15TCq1    O4  235   3.825   4.595   1.610  0.2823 -0.3071  0.1930
   15TCq1    C9  236   3.540   0.083   2.070 -0.0712 -0.4867 -0.5169
   15TCq1    O5  237   3.513   0.191   2.016  0.7083  0.1818 -0.1728
   15TCq1    O6  238   3.474   0.029   2.166 -0.0639  0.0841  0.1629
   15TCq1    H1  239   3.854   4.365   1.900 -1.7047  0.4832  0.9291
   15TCq1    H2  240   3.660   4.589   2.156 -0.7162  0.8789  1.4543
   15TCq1    H3  241   3.631   0.131   1.831  2.6087  2.2710 -1.1683
   15TCq1    H4  242   3.917   4.535   1.824  0.4540 -0.4283  1.8070
   16MPD2     C  243   3.790   0.284   1.465  0.2956 -0.4815  0.4628
   16MPD2    C1  244   3.820   0.157   1.500  0.7366 -0.1582 -0.3314
   16MPD2    C2  245   3.879   0.074   1.407 -0.4582  0.3001 -0.3620
   16MPD2    C3  246   3.923   0.128   1.282 -0.4272  0.5324 -0.0258
   16MPD2    C4  247   3.891   0.262   1.255 -0.3333  0.3092  0.1752
   16MPD2    C5  248   3.825   0.335   1.344 -0.6786 -0.2494  0.5935
   16MPD2     H  249   3.902   4.696   1.435 -1.1889 -0.2155 -1.6732
   16MPD2    H1  250   3.908   0.309   1.159 -0.4475  0.4063  0.2025
   16MPD2    H2  251   3.749   0.351   1.539  0.9253  0.9601 -0.4931
   16MPD2    H3  252   3.802   0.436   1.313  0.9222  0.3259  1.3139
   16MPD2     N  253   4.000   0.055   1.189  0.1166 -0.2659 -0.0948
   16MPD2    H5  254   4.036   4.689   1.218 -0.9250 -0.4986  0.4713
   16MPD2    N1  255   3.790   0.114   1.631  0.1037  0.1742 -0.2282
   16MPD2    H7  256   3.761   0.181   1.701  0.9136  0.1222  0.1546
   17TCq1    O1  257   2.095   0.312  10.937  0.2788  0.4397  0.0998
   17TCq1    C1  258   2.116   0.438  10.981 -0.2584  0.5205  0.4916
   17TCq1    O2  259   2.128   0.464  11.101 -0.2992  0.0488 -0.4985
   17TCq1    C2  260   2.212   0.492  10.893 -0.7549  0.0258  0.5372
   17TCq1    C3  261   2.341   0.512  10.946 -0.6290  0.4319  0.0586
   17TCq1    C4  262   2.443   0.522  10.859 -0.1552  0.4289 -0.4479
   17TCq1    C5  263   2.424   0.517  10.716 -0.4327  0.0704 -0.1977
   17TCq1    C6  264   2.296   0.487  10.673  0.3320  0.0421  0.2563
   17TCq1    C7  265   2.194   0.469  10.759  0.0498  0.3183 -0.3237
   17TCq1    C8  266   2.273   0.439  10.535 -0.4502 -0.5962 -0.0300
   17TCq1    O4  267   2.160   0.411  10.497 -0.0299 -0.2899 -0.4179
   17TCq1    C9  268   2.575   0.533  10.907  0.1543  0.1704  0.1713
   17TCq1    O5  269   2.591   0.521  11.033  0.0194  0.4805  0.1229
   17TCq1    O6  270   2.663   0.568  10.825  0.0655  0.9940  0.4092
   17TCq1    H1  271   2.076   0.306  10.841 -3.4968  0.1016  0.8522
   17TCq1    H2  272   2.371   0.520  11.050 -0.9541 -0.7709  0.2459
   17TCq1    H3  273   2.507   0.544  10.652  0.5273 -2.3637  0.0330
   17TCq1    H4  274   2.093   0.440  10.730 -0.2833  1.7263 -0.5600
   18MPD2     C  275   2.314   0.337  10.250 -0.1426  0.4230  0.2156
   18MPD2    C1  276   2.411   0.381  10.333  0.3269 -0.3779  0.1801
   18MPD2    C2  277   2.543   0.379  10.285 -0.3208 -0.0500  0.5604
   18MPD2    C3  278   2.586   0.315  10.168  0.1503 -0.6202  0.0682
   18MPD2    C4  279   2.485   0.285  10.080  0.1233  0.0019 -0.3388
   18MPD2    C5  280   2.353   0.310  10.119  0.7612  0.7689  0.5858
   18MPD2     H  281   2.613   0.418  10.358 -1.0330 -1.5497  2.0569
   18MPD2    H1  282   2.496   0.251   9.977 -1.9509  0.1241 -0.5976
   18MPD2    H2  283   2.208   0.335  10.272 -0.6733  2.4244 -2.0610
   18MPD2    H3  284   2.281   0.295  10.040 -0.0883 -0.7878  1.6727
   18MPD2     N  285   2.718   0.299  10.129 -0.4621 -0.1782  0.3013
   18MPD2    H5  286   2.736   0.239  10.050  0.0230 -0.8341  0.9084
   18MPD2    N1  287   2.389   0.431  10.464  0.0546  0.0500 -0.3830
   18MPD2    H7  288   2.475   0.464  10.506  0.5901 -1.4267 -0.3100
   19TMC2    C1  289   3.765   1.286  13.468  0.4278  0.4603 -0.7197
   19TMC2    C2  290   3.774   1.336  13.340 -0.3827  0.7089  0.4397
   19TMC2    C3  291   3.806   1.242  13.242  0.1529 -0.3010 -0.5138
   19TMC2    C4  292   3.757   1.148  13.490 -0.0791  0.0476  0.3735
   19TMC2    C5  293   3.778   1.063  13.388  0.4129  0.5280  0.5162
   19TMC2    C6  294   3.805   1.109  13.264  0.3591 -0.0464 -0.5176
   19TMC2     C  295   3.766   1.381  13.576 -0.4079 -0.1937 -0.1616
   19TMC2     O  296   3.676   1.465  13.584 -0.1264 -0.4283 -0.2410
   19TMC2     H  297   3.771   1.444  13.329  0.9836  0.7331  0.3097
   19TMC2    H1  298   3.765   1.106  13.590  0.7071 -1.0173 -0.1364
   19TMC2    H2  299   3.831   1.043  13.181 -0.2367 -2.6822  1.3798
   19TMC2    C7  300   3.768   0.921  13.415  0.8427  0.6199 -0.5487
   19TMC2    C8  301   3.826   1.281  13.112 -0.3263 -0.4480 -0.1363
   19TMC2    O1  302   3.740   0.886  13.528  0.7579  0.4106 -0.5352
   19TMC2    O2  303   3.772   1.220  13.019 -0.2028 -0.1919 -0.2554
   19TMC2    O5  304   3.907   1.388  13.103  0.3688  0.8524  0.0615
   19TMC2    H5  305   3.959   1.405  13.185 -1.1796  0.1763  1.1794
   20MPD2     C  306   3.805   1.500  13.852 -0.3444  0.1690  0.7451
   20MPD2    C1  307   3.892   1.416  13.789 -0.7760  0.0341  0.0947
   20MPD2    C2  308   4.012   1.382  13.845  0.1168 -0.1532  0.5060
   20MPD2    C3  309   4.050   1.436  13.961 -0.2845 -0.5977 -0.2397
   20MPD2    C4  310   3.964   1.527  14.025  0.3297  0.0511  0.0741
   20MPD2    C5  311   3.841   1.553  13.969  0.0230 -0.2690  0.0964
   20MPD2     H  312   4.074   1.314  13.788 -0.1177  0.1221 -0.0863
   20MPD2    H1  313   3.983   1.579  14.118  1.5007 -2.3339  1.1790
   20MPD2    H2  314   3.703   1.518  13.821  0.0967  1.7979  0.2098
   20MPD2    H3  315   3.766   1.619  14.010  0.3504  0.1043  0.0896
   20MPD2     N  316   4.170   1.403  14.032  0.8225  0.2770  0.1436
   20MPD2    H5  317   4.178   1.441  14.126 -0.2516 -0.6555  0.6053
   20MPD2    N1  318   3.863   1.345  13.666  0.8882  0.6679  0.0197
   20MPD2    H7  319   3.934   1.279  13.635  0.9384  1.1681 -0.9340
   21MPD2     C  320   2.500   1.745  14.321 -0.0377  0.0669 -0.7101
   21MPD2    C1  321   2.480   1.615  14.280 -0.2289  0.2307  0.2545
   21MPD2    C2  322   2.345   1.564  14.288 -0.3235  0.0531  0.1886
   21MPD2    C3  323   2.247   1.649  14.335 -0.4065  0.5877  0.5766
   21MPD2    C4  324   2.280   1.783  14.373 -0.0992 -0.4821  0.0174
   21MPD2    C5  325   2.405   1.830  14.364  0.0352  0.1780  0.0763
   21MPD2     H  326   2.322   1.463  14.257 -0.9587 -0.5691  2.6345
   21MPD2    H1  327   2.202   1.850  14.408  2.3749  3.0919 -1.2945
   21MPD2    H2  328   2.599   1.788  14.322 -0.9100  1.9957  2.2826
   21MPD2    H3  329   2.433   1.926  14.406  1.5744 -0.4141  0.4157
   21MPD2     N  330   2.112   1.600  14.362 -0.3504  0.0341  0.8679
   21MPD2    H5  331   2.047   1.661  14.412 -0.3560 -0.0777  0.9964
   21MPD2    N1  332   2.591   1.520  14.275 -0.1031 -0.0055  0.0307
   21MPD2    H7  333   2.567   1.430  14.234  1.2152 -0.6710  0.7171
   22TCq2    C1  334   2.069   1.469  14.346  0.2438  0.0650  0.8783
   22TCq2    O2  335   2.119   1.381  14.276  0.6053 -0.1932 -0.1431
   22TCq2    C2  336   1.945   1.446  14.413  0.4210 -0.7385 -0.3938
   22TCq2    C3  337   1.945   1.317  14.463  0.1708 -0.0715 -0.4786
   22TCq2    C4  338   1.863   1.279  14.564  0.3142 -0.3450  0.3669
   22TCq2    C5  339   1.782   1.374  14.616  0.3715  0.0296  0.3538
   22TCq2    C6  340   1.795   1.507  14.582 -0.1423 -0.0692  0.0884
   22TCq2    C7  341   1.876   1.544  14.474 -1.1085  0.8582 -0.1577
   22TCq2    C8  342   1.730   1.604  14.657  0.7532 -0.3045 -0.7584
   22TCq2    O4  343   1.707   1.576  14.776  0.3833  0.3317  0.3556
   22TCq2    C9  344   1.867   1.152  14.632 -0.3213  0.4630  0.2476
   22TCq2    O5  345   1.964   1.083  14.604  0.4725 -0.2229  0.1121
   22TCq2    O6  346   1.760   1.116  14.697  0.4643  0.1344 -0.4513
   22TCq2    H2  347   2.000   1.234  14.419  0.1134 -0.7608  0.7388
   22TCq2    H3  348   1.711   1.350  14.694 -0.5184 -0.7340 -0.7047
   22TCq2    H4  349   1.888   1.647  14.442 -0.4545  0.9919  0.5132
   23MPD2     C  350   3.612   2.797  14.474  0.1294 -0.1206 -1.0309
   23MPD2    C1  351   3.512   2.867  14.548  0.4588  0.0489 -0.1530
   23MPD2    C2  352   3.453   2.976  14.492  0.2526  0.5073  0.6537
   23MPD2    C3  353   3.492   3.019  14.364  0.1539  0.3112 -0.1494
   23MPD2    C4  354   3.590   2.951  14.297 -0.7725  0.4251  0.1816
   23MPD2    C5  355   3.638   2.835  14.347  0.4947  0.1344  0.0524
   23MPD2     H  356   3.383   3.032  14.553  1.2452  1.1280  1.2299
   23MPD2    H1  357   3.613   2.989  14.198 -1.1584 -1.0659 -0.4805
   23MPD2    H2  358   3.656   2.702  14.498 -0.3792  0.0345  0.5294
   23MPD2    H3  359   3.693   2.776  14.274 -1.6323 -1.0720 -0.5789
   23MPD2     N  360   3.450   3.145  14.313 -0.1162 -0.4095 -0.3504
   23MPD2    H5  361   3.497   3.174  14.228 -0.7761  1.3844 -0.1001
   23MPD2    N1  362   3.478   2.828  14.678 -0.1517 -0.3305  0.4841
   23MPD2    H7  363   3.415   2.886  14.733 -1.6251 -1.6952  0.2364
   24TCq2    C1  364   3.342   3.219  14.351  0.6094  0.1633 -0.3071
   24TCq2    O2  365   3.257   3.186  14.437  0.0654  0.0880 -0.1648
   24TCq2    C2  366   3.338   3.349  14.292  0.9848  0.7599 -0.2424
   24TCq2    C3  367   3.454   3.410  14.262  0.6226  0.1868  0.6422
   24TCq2    C4  368   3.438   3.539  14.212 -0.7290 -1.1177 -0.1579
   24TCq2    C5  369   3.316   3.591  14.178  0.3169 -0.4065 -0.0938
   24TCq2    C6  370   3.206   3.523  14.221 -0.0624 -1.0875 -0.2356
   24TCq2    C7  371   3.214   3.402  14.282 -0.4441 -0.2834 -0.4825
   24TCq2    C8  372   3.071   3.546  14.172  0.0342  0.0363  0.4404
   24TCq2    O4  373   2.978   3.489  14.219  0.6318 -0.2872 -0.3466
   24TCq2    C9  374   3.553   3.608  14.168  0.3372  0.5576 -0.0304
   24TCq2    O5  375   3.656   3.584  14.237  0.4123 -0.4280  0.3200
   24TCq2    O6  376   3.539   3.716  14.106 -0.1028  0.7046  0.4067
   24TCq2    H2  377   3.553   3.366  14.264  0.1370 -1.0941 -3.2034
   24TCq2    H3  378   3.310   3.691  14.138 -0.2382  0.6753  2.7287
   24TCq2    H4  379   3.129   3.343  14.315  1.1873 -2.8967 -0.9668
   25TMC2    C1  380   2.423   0.187  11.076  0.3555  0.6604 -0.4141
   25TMC2    C2  381   2.525   0.254  11.142 -0.5576 -0.0234 -0.1446
   25TMC2    C3  382   2.501   0.300  11.269 -0.4397  0.5314 -0.4298
   25TMC2    C4  383   2.298   0.166  11.134  0.2669 -0.2991 -0.6972
   25TMC2    C5  384   2.276   0.223  11.260 -0.4847  0.0042  0.4558
   25TMC2    C6  385   2.377   0.285  11.325 -0.4888  0.0052  0.0345
   25TMC2     C  386   2.437   0.159  10.934 -0.2075  0.0572  0.0340
   25TMC2     O  387   2.531   0.210  10.875 -0.2395  0.1571 -0.5472
   25TMC2     H  388   2.610   0.277  11.079  0.0381 -1.1600  0.2545
   25TMC2    H1  389   2.227   0.096  11.090  0.7903 -2.5873  2.0616
   25TMC2    H2  390   2.364   0.328  11.424  1.0436 -2.7837  1.4445
   25TMC2    C7  391   2.144   0.221  11.333 -0.2068  0.6386 -0.3167
   25TMC2    C8  392   2.609   0.350  11.344  0.2227 -0.7876  0.1975
   25TMC2    O1  393   2.157   0.232  11.454 -0.1857  0.1318 -0.1563
   25TMC2    O2  394   2.602   0.366  11.465  0.1657  0.2035  0.5817
   25TMC2    O5  395   2.654   0.458  11.269 -0.1417 -0.2997 -0.4765
   25TMC2    H5  396   2.633   0.453  11.174 -1.8136 -0.0537 -0.1235
   26MPD2     C  397   2.295   4.669  10.489 -0.3163  0.4092  0.1314
   26MPD2    C1  398   2.261   4.575  10.588  0.1470  0.1006 -0.0339
   26MPD2    C2  399   2.282   4.617  10.721 -0.2106 -0.2790 -0.0044
   26MPD2    C3  400   2.338   0.016  10.756  0.1849 -0.0311 -0.4604
   26MPD2    C4  401   2.376   0.099  10.656 -0.1276  0.1367 -0.1439
   26MPD2    C5  402   2.349   0.065  10.524  0.4595  0.3160 -0.0086
   26MPD2     H  403   2.253   4.553  10.803  0.6755 -3.0054 -1.8390
   26MPD2    H1  404   2.409   0.199  10.680  1.3530  0.1926 -2.3589
   26MPD2    H2  405   2.288   4.660  10.381 -1.3127  2.3527  0.0259
   26MPD2    H3  406   2.380   0.124  10.439  0.8651  0.9872  0.6086
   26MPD2     N  407   2.363   0.047  10.888  0.8338  0.2233  0.0497
   26MPD2    H5  408   2.326   4.716  10.965  0.1892 -0.2704 -0.6157
   26MPD2    N1  409   2.210   4.452  10.553 -0.0677  0.0944  0.2667
   26MPD2    H7  410   2.206   4.437  10.453 -0.2735 -0.2854  0.3288
   27TMC2    C1  411   0.728   2.596  12.128  0.3863 -0.2969  0.7402
   27TMC2    C2  412   0.686   2.536  12.013  0.7249  0.5065 -0.9579
   27TMC2    C3  413   0.720   2.595  11.896 -0.5904  0.4434  0.6996
   27TMC2    C4  414   0.817   2.700  12.130  0.3610  0.3240 -0.7354
   27TMC2    C5  415   0.854   2.750  12.008 -0.6502 -0.5697  0.1304
   27TMC2    C6  416   0.805   2.698  11.892 -0.1979  0.2547 -0.1832
   27TMC2     C  417   0.680   2.525  12.245 -0.3641  0.5280 -0.0697
   27TMC2     O  418   0.566   2.477  12.253 -0.0105 -0.4472 -0.1892
   27TMC2     H  419   0.633   2.441  12.011  1.8897 -0.1471 -0.5049
   27TMC2    H1  420   0.856   2.720  12.229  0.3295  0.8624 -0.8310
   27TMC2    H2  421   0.839   2.742  11.799  1.8447 -0.8441  0.0229
   27TMC2    C7  422   0.986   2.811  12.004  0.0331 -0.0619 -0.0645
   27TMC2    C8  423   0.615   2.578  11.794 -0.5520 -0.4737  0.0200
   27TMC2    O1  424   1.061   2.765  11.918  0.8719 -0.4605 -0.2647
   27TMC2    O2  425   0.502   2.549  11.824  0.8655 -0.2032 -0.3341
   27TMC2    O5  426   0.661   2.588  11.670 -0.0317 -0.4906 -0.8689
   27TMC2    H5  427   0.759   2.599  11.672 -0.1095  0.1831 -0.6682
   28MPD2     C  428   0.793   2.333  12.712  0.6600 -0.1241 -0.3021
   28MPD2    C1  429   0.675   2.317  12.637 -1.3020  0.0734  1.0807
   28MPD2    C2  430   0.676   2.362  12.507  0.0513 -0.2465  0.6052
   28MPD2    C3  431   0.782   2.434  12.454 -0.5858 -0.4926 -0.3384
   28MPD2    C4  432   0.898   2.444  12.529 -0.3087 -0.0911 -0.0185
   28MPD2    C5  433   0.900   2.392  12.651  0.0384  1.2151 -0.1493
   28MPD2     H  434   0.583   2.360  12.452 -1.1569 -0.6177  2.6667
   28MPD2    H1  435   0.990   2.492  12.497 -0.3049  0.2190  0.4565
   28MPD2    H2  436   0.813   2.292  12.810 -0.9715  0.6194  0.3483
   28MPD2    H3  437   0.994   2.418  12.698 -0.4153 -0.0405  1.4697
   28MPD2     N  438   0.783   2.502  12.329 -0.3455  0.1830 -0.2102
   28MPD2    H5  439   0.873   2.533  12.295 -0.4012  1.4471  0.7957
   28MPD2    N1  440   0.562   2.271  12.711 -0.4547 -0.1358 -0.3446
   28MPD2    H7  441   0.570   2.242  12.808 -2.1830 -0.6459 -0.3356
   29MPD2     C  442   0.319   0.037  14.202 -0.1372  0.3909  0.0315
   29MPD2    C1  443   0.329   4.689  14.324  0.1282  0.0026  0.7369
   29MPD2    C2  444   0.383   0.029  14.433 -0.1151 -0.1980 -0.6036
   29MPD2    C3  445   0.425   0.156  14.417 -0.0186  0.0812 -0.1833
   29MPD2    C4  446   0.414   0.224  14.297 -0.0822  0.3229  0.2762
   29MPD2    C5  447   0.351   0.168  14.191  0.3932 -0.1296  0.0270
   29MPD2     H  448   0.389   4.712  14.533  0.6938  0.3035 -0.4509
   29MPD2    H1  449   0.445   0.327  14.283  1.8845 -0.2083  0.7243
   29MPD2    H2  450   0.282   4.712  14.112  1.6320 -0.7516 -0.0816
   29MPD2    H3  451   0.350   0.220  14.096 -0.7790 -0.0555  0.0904
   29MPD2     N  452   0.509   0.217  14.508 -0.3747 -0.1650 -0.5841
   29MPD2    H5  453   0.546   0.302  14.467 -1.5882  0.6032 -0.1126
   29MPD2    N1  454   0.311   4.548  14.329 -0.2382  0.4388 -0.5783
   29MPD2    H7  455   0.310   4.499  14.417  0.9083  0.2014 -0.7053
   30TCq2    C1  456   0.527   0.187  14.640  0.2084 -0.0305  0.6253
   30TCq2    O2  457   0.474   0.110  14.720  0.2907  0.1631  0.3924
   30TCq2    C2  458   0.610   0.285  14.695 -0.6155  0.0946 -0.1021
   30TCq2    C3  459   0.569   0.343  14.812 -0.9052 -0.0246 -1.1468
   30TCq2    C4  460   0.610   0.476  14.838 -0.1996 -0.1451  0.8551
   30TCq2    C5  461   0.706   0.535  14.768  0.3158  0.1966 -0.4365
   30TCq2    C6  462   0.749   0.466  14.653  0.7324 -0.3318 -0.3764
   30TCq2    C7  463   0.697   0.347  14.613 -0.6479 -0.4487 -0.4226
   30TCq2    C8  464   0.800   0.547  14.547  0.5490 -0.1081  1.3195
   30TCq2    O4  465   0.767   0.524  14.434  0.4077 -0.1202  0.2379
   30TCq2    C9  466   0.557   0.541  14.950  0.5003  0.6176  0.4885
   30TCq2    O5  467   0.492   0.475  15.034  0.3345 -0.7271  0.0961
   30TCq2    O6  468   0.574   0.668  14.960 -0.2074 -0.2888  0.0573
   30TCq2    H2  469   0.490   0.294  14.869  0.5276 -1.1504 -0.1343
   30TCq2    H3  470   0.730   0.638  14.792 -0.0354  0.4197 -1.0571
   30TCq2    H4  471   0.726   0.299  14.520 -0.4376  0.4622 -0.8189
   31MPD2     C  472   2.935   3.335  14.618  0.3812 -0.2899  1.0962
   31MPD2    C1  473   2.831   3.430  14.619 -0.0635 -0.1230  0.0362
   31MPD2    C2  474   2.738   3.442  14.723  0.0058  0.4678  0.9513
   31MPD2    C3  475   2.749   3.361  14.839 -0.1647  0.2871  0.4517
   31MPD2    C4  476   2.863   3.283  14.846 -0.4444  0.7991 -0.4544
   31MPD2    C5  477   2.947   3.269  14.737  0.1742  0.7308 -0.2302
   31MPD2     H  478   2.658   3.515  14.719 -1.9634 -1.5554  3.1729
   31MPD2    H1  479   2.876   3.221  14.934 -1.2923 -0.0047 -0.8908
   31MPD2    H2  480   3.003   3.321  14.535 -1.0475  0.9140 -0.2966
   31MPD2    H3  481   3.030   3.200  14.745 -0.3520  0.0931 -0.2627
   31MPD2     N  482   2.670   3.370  14.956 -0.0855  0.6325  0.7063
   31MPD2    H5  483   2.695   3.316  15.038  0.7075  0.7549  0.5437
   31MPD2    N1  484   2.818   3.514  14.500 -0.2623  0.0276  0.2159
   31MPD2    H7  485   2.903   3.526  14.445 -1.5729  0.5608 -1.6928
   32TCq2    C1  486   2.556   3.447  14.958  0.1514 -0.0819  0.5077
   32TCq2    O2  487   2.505   3.515  14.872  0.0113  0.2774  0.1189
   32TCq2    C2  488   2.490   3.452  15.089  0.3228  0.4928 -0.0286
   32TCq2    C3  489   2.361   3.505  15.085  0.5783 -0.1976  0.3168
   32TCq2    C4  490   2.278   3.467  15.186  0.1266 -0.2959 -0.4653
   32TCq2    C5  491   2.314   3.379  15.289  0.3509 -0.6803 -0.1065
   32TCq2    C6  492   2.443   3.326  15.285  0.9109  0.5075 -0.1848
   32TCq2    C7  493   2.537   3.363  15.188  0.3398  0.3416  0.2610
   32TCq2    C8  494   2.522   3.318  15.414  0.4748  0.7121 -0.6168
   32TCq2    O4  495   2.641   3.303  15.405  0.5259  0.1037 -0.2225
   32TCq2    C9  496   2.148   3.524  15.182 -0.0844 -0.1292  0.2889
   32TCq2    O5  497   2.131   3.617  15.093 -0.6075 -0.0729  0.2882
   32TCq2    O6  498   2.075   3.486  15.273 -0.2725 -0.3511  0.3117
   32TCq2    H2  499   2.325   3.565  15.002  1.7281 -0.2065 -0.1933
   32TCq2    H3  500   2.242   3.365  15.368 -0.3609 -1.1813 -0.8363
   32TCq2    H4  501   2.636   3.320  15.183 -0.3090 -0.8186 -2.5502
   33MPD2     C  502   2.935   0.108   9.542 -0.6076  0.6643  0.3967
   33MPD2    C1  503   3.024   0.185   9.613 -1.0521 -0.2535  0.1955
   33MPD2    C2  504   3.104   0.272   9.552 -0.5249  0.5981 -0.9864
   33MPD2    C3  505   3.104   0.280   9.416  0.6779 -0.6254 -0.1063
   33MPD2    C4  506   3.025   0.198   9.344 -0.1560 -0.1183  0.4309
   33MPD2    C5  507   2.932   0.121   9.404 -0.3439 -0.1041  0.2089
   33MPD2     H  508   3.178   0.333   9.603  2.4621 -2.9044 -1.1290
   33MPD2    H1  509   3.024   0.195   9.236  1.3093  0.5194  0.3898
   33MPD2    H2  510   2.870   0.034   9.587 -0.7348  1.5688  1.6907
   33MPD2    H3  511   2.874   0.053   9.342 -2.8195 -0.6198  3.0585
   33MPD2     N  512   3.172   0.378   9.348  0.3954  0.0014 -0.1824
   33MPD2    H5  513   3.194   0.371   9.249 -1.1920  2.5132 -0.7134
   33MPD2    N1  514   3.009   0.176   9.754  0.2418 -0.3760  0.1185
   33MPD2    H7  515   2.928   0.126   9.792  1.1903 -0.9919  1.3229
   34TCq2    C1  516   3.215   0.493   9.408 -0.3253  0.0928 -0.8172
   34TCq2    O2  517   3.200   0.550   9.517 -0.1344  1.0908 -0.2617
   34TCq2    C2  518   3.309   0.568   9.321 -0.3998  0.0375 -0.9741
   34TCq2    C3  519   3.338   0.529   9.190  0.2069  0.1913  0.3553
   34TCq2    C4  520   3.428   0.607   9.114  0.4010 -0.6461  0.0391
   34TCq2    C5  521   3.476   0.724   9.162 -0.0833 -0.1507  0.5101
   34TCq2    C6  522   3.455   0.756   9.293 -0.5316 -0.2052 -0.0404
   34TCq2    C7  523   3.372   0.678   9.373 -0.5970 -0.4474 -0.8975
   34TCq2    C8  524   3.536   0.860   9.355  0.7674  0.2812 -0.3015
   34TCq2    O4  525   3.602   0.927   9.278  0.2587  0.3209  0.5642
   34TCq2    C9  526   3.467   0.555   8.985  0.1497 -0.0349 -0.3298
   34TCq2    O5  527   3.547   0.630   8.913  0.5677  0.5272  0.4026
   34TCq2    O6  528   3.375   0.479   8.934  0.0634 -0.1815 -0.1290
   34TCq2    H2  529   3.308   0.432   9.153  1.0146  0.4466 -0.9491
   34TCq2    H3  530   3.553   0.773   9.103 -0.4711  2.1222  1.8853
   34TCq2    H4  531   3.335   0.709   9.470 -0.0975 -0.6058 -0.6579
   35MPD2     C  532   0.742   2.158  11.835  0.5205 -0.4231 -0.0924
   35MPD2    C1  533   0.654   2.073  11.777  0.6067 -0.2779 -0.3322
   35MPD2    C2  534   0.618   2.088  11.644  0.1255  0.6772 -0.5269
   35MPD2    C3  535   0.663   2.190  11.570  0.1256 -0.3609  0.1137
   35MPD2    C4  536   0.757   2.277  11.626  0.2201  0.4290  0.8975
   35MPD2    C5  537   0.800   2.259  11.760 -0.2026  0.9194 -0.6449
   35MPD2     H  538   0.550   2.023  11.591  0.0617  1.1927 -1.0808
   35MPD2    H1  539   0.790   2.367  11.575 -0.0409 -0.0921 -0.1760
   35MPD2    H2  540   0.756   2.165  11.942  1.3420  0.6428 -0.2739
   35MPD2    H3  541   0.868   2.324  11.814  1.5948 -0.1435 -1.6231
   35MPD2     N  542   0.608   2.210  11.440  0.2072 -0.1563  0.2951
   35MPD2    H5  543   0.535   2.143  11.418  1.1099 -0.2899 -2.2548
   35MPD2    N1  544   0.584   1.988  11.863 -0.7260 -0.2843 -0.3138
   35MPD2    H7  545   0.592   2.011  11.961 -0.2998 -0.1676 -0.3734
   36TCq2    C1  546   0.657   2.294  11.343  0.1084  0.6564  0.6885
   36TCq2    O2  547   0.718   2.398  11.369  0.0547  0.1774 -0.0701
   36TCq2    C2  548   0.581   2.291  11.216  0.2857 -0.2381 -0.1093
   36TCq2    C3  549   0.576   2.408  11.138  0.4023  0.7555 -0.6861
   36TCq2    C4  550   0.508   2.403  11.018 -0.4409  0.5530  0.6847
   36TCq2    C5  551   0.439   2.291  10.980  0.9445 -0.2146  0.1962
   36TCq2    C6  552   0.445   2.176  11.065  0.1483  0.6504  0.2656
   36TCq2    C7  553   0.505   2.179  11.188 -0.2066 -0.1093  0.6504
   36TCq2    C8  554   0.382   2.054  11.015  0.3877 -0.6447  0.5431
   36TCq2    O4  555   0.280   2.068  10.948  0.5449  0.3995 -0.2718
   36TCq2    C9  556   0.518   2.510  10.924  0.0516  0.0920  0.7101
   36TCq2    O5  557   0.419   2.531  10.846  0.3244 -0.0882  0.4396
   36TCq2    O6  558   0.628   2.567  10.915  0.0389  0.2193  0.0114
   36TCq2    H2  559   0.627   2.503  11.152  1.0353  0.7544 -2.8874
   36TCq2    H3  560   0.368   2.283  10.899 -0.2783 -0.2133  1.2650
   36TCq2    H4  561   0.491   2.097  11.257 -1.0157 -1.0589 -0.6415
   37TMC2    C1  562   2.402   2.162  11.499  1.0528  0.1400 -0.2583
   37TMC2    C2  563   2.349   2.069  11.405  0.2770  0.1657 -0.0345
   37TMC2    C3  564   2.412   2.052  11.290 -0.7788 -0.6462 -0.1084
   37TMC2    C4  565   2.514   2.225  11.477  0.8946 -0.1829  0.5630
   37TMC2    C5  566   2.580   2.202  11.362  0.4202 -0.4967  0.3301
   37TMC2    C6  567   2.537   2.111  11.269 -0.0970 -0.6905 -0.0630
   37TMC2     C  568   2.329   2.183  11.621 -0.5967  0.3259  0.2039
   37TMC2     O  569   2.216   2.139  11.630  0.5395 -0.2603  0.0081
   37TMC2     H  570   2.252   2.021  11.414  0.3635  0.2859  1.5916
   37TMC2    H1  571   2.543   2.294  11.555  0.4898  0.4967  0.1026
   37TMC2    H2  572   2.598   2.091  11.182 -1.1270 -0.4604 -0.8313
   37TMC2    C7  573   2.703   2.276  11.364  0.2387  0.7018 -0.1596
   37TMC2    C8  574   2.356   1.961  11.198 -0.0823  0.5075 -1.1905
   37TMC2    O1  575   2.727   2.356  11.453 -0.4447  0.1961 -0.5603
   37TMC2    O2  576   2.325   1.855  11.247  0.1335 -0.2354  0.2009
   37TMC2    O5  577   2.405   1.974  11.077 -0.3296 -0.1924 -0.5745
   37TMC2    H5  578   2.440   2.064  11.058  1.1143 -0.9866 -1.7238
   38MPD2     C  579   2.272   2.474  12.054 -0.2519  0.3638 -0.2876
   38MPD2    C1  580   2.392   2.500  12.003 -0.3769  0.1058  0.6355
   38MPD2    C2  581   2.435   2.429  11.894 -0.0074 -0.4850 -0.1938
   38MPD2    C3  582   2.345   2.335  11.835 -0.4221 -0.8717 -0.2595
   38MPD2    C4  583   2.217   2.322  11.885  0.6594  0.0044  0.6749
   38MPD2    C5  584   2.181   2.394  11.994  0.4004 -0.0021 -0.1602
   38MPD2     H  585   2.532   2.436  11.846  0.3297 -2.6568  0.1567
   38MPD2    H1  586   2.149   2.257  11.831  0.5069  1.0034 -0.3289
   38MPD2    H2  587   2.241   2.518  12.148  0.1697 -0.0112  0.0314
   38MPD2    H3  588   2.088   2.377  12.047 -0.0126  1.1635 -0.5111
   38MPD2     N  589   2.391   2.263  11.717 -0.7395  0.2519 -0.2019
   38MPD2    H5  590   2.490   2.275  11.700 -1.0158  0.3461 -1.7386
   38MPD2    N1  591   2.470   2.596  12.060 -0.8096 -0.2836 -0.6082
   38MPD2    H7  592   2.562   2.603  12.016  0.4320 -1.1873  1.8171
   39MPD2     C  593   4.466   3.992   0.985 -0.2470  0.3780 -0.7209
   39MPD2    C1  594   4.348   3.970   1.059  0.0287 -0.4032  0.0221
   39MPD2    C2  595   4.235   4.050   1.029  0.2064  0.6123  0.0121
   39MPD2    C3  596   4.240   4.145   0.925 -0.1301  0.3870 -0.6641
   39MPD2    C4  597   4.358   4.159   0.853 -0.1086 -0.2748 -0.3123
   39MPD2    C5  598   4.471   4.086   0.884  0.2704  0.2545 -0.0207
   39MPD2     H  599   4.143   4.029   1.082  0.2140 -1.4676 -0.7885
   39MPD2    H1  600   4.371   4.223   0.767  1.3762  2.1246  1.6931
   39MPD2    H2  601   4.554   3.932   1.007 -0.8742 -0.2834 -0.0241
   39MPD2    H3  602   4.565   4.106   0.833  1.3448 -2.5623  0.8708
   39MPD2     N  603   4.134   4.235   0.885 -0.5028 -0.1015  0.3741
   39MPD2    H5  604   4.145   4.282   0.795 -1.3578 -0.2299  0.2084
   39MPD2    N1  605   4.357   3.872   1.159  0.2075 -0.1258  0.0100
   39MPD2    H7  606   4.444   3.821   1.172 -1.1193 -1.9001  1.9426
   40TCq2    C1  607   4.260   3.844   1.249 -0.5121 -0.5419  0.6099
   40TCq2    O2  608   4.146   3.890   1.255  0.6783  0.4370 -0.2063
   40TCq2    C2  609   4.294   3.720   1.319 -0.7441  0.5311  0.5585
   40TCq2    C3  610   4.195   3.629   1.336  0.1992  0.5020 -0.1878
   40TCq2    C4  611   4.221   3.522   1.420 -0.5389  0.4897  0.2447
   40TCq2    C5  612   4.341   3.521   1.486  0.4783  0.2802 -0.5556
   40TCq2    C6  613   4.438   3.616   1.467 -0.0389  0.4624  0.8069
   40TCq2    C7  614   4.409   3.723   1.391  0.0610  0.2721  0.3389
   40TCq2    C8  615   4.567   3.597   1.535 -0.4151 -0.0439  0.2208
   40TCq2    O4  616   4.564   3.516   1.626 -0.2700 -0.3074 -0.3807
   40TCq2    C9  617   4.121   3.416   1.443  0.1026 -0.0551  0.0741
   40TCq2    O5  618   4.009   3.437   1.392  0.0725  0.3851  0.0100
   40TCq2    O6  619   4.169   3.318   1.509 -1.0168  0.0864  0.6754
   40TCq2    H2  620   4.096   3.642   1.295  0.4342 -0.8905 -1.2020
   40TCq2    H3  621   4.349   3.438   1.555 -0.2092 -0.0874 -0.9173
   40TCq2    H4  622   4.479   3.805   1.376 -0.3158  0.1012 -2.4143
   41TMC2    C1  623   4.421   2.567  13.387  0.3347  0.3892 -0.0719
   41TMC2    C2  624   4.300   2.636  13.410  0.3722 -0.1655  0.0799
   41TMC2    C3  625   4.292   2.762  13.358 -0.1644 -0.3276 -0.4612
   41TMC2    C4  626   4.516   2.613  13.301  0.2893  0.3705 -0.0577
   41TMC2    C5  627   4.501   2.742  13.251 -0.6967  0.0994  0.2413
   41TMC2    C6  628   4.398   2.819  13.288 -0.6530  0.2019  0.4601
   41TMC2     C  629   4.431   2.436  13.430 -1.0156  0.0823 -0.3592
   41TMC2     O  630   4.477   2.352  13.356  0.0519 -0.0718 -0.0755
   41TMC2     H  631   4.217   2.600  13.469 -1.4690  1.4151 -1.5645
   41TMC2    H1  632   4.605   2.552  13.290  0.6320  0.9185 -0.3046
   41TMC2    H2  633   4.390   2.917  13.243  1.5371  0.3601  0.4436
   41TMC2    C7  634   4.604   2.805  13.171  0.0047 -0.7509 -0.9644
   41TMC2    C8  635   4.162   2.823  13.347 -0.8330  0.5858 -0.1481
   41TMC2    O1  636   4.600   2.927  13.153  0.0172 -0.3728 -0.3563
   41TMC2    O2  637   4.079   2.771  13.274  0.2326  0.4985 -0.1811
   41TMC2    O5  638   4.179   2.958  13.349  0.6581 -0.5277  0.1950
   41TMC2    H5  639   4.244   2.990  13.416 -0.1351  1.4061  0.0487
   42MPD2     C  640   4.417   2.171  13.576  0.7334 -0.7071  0.0904
   42MPD2    C1  641   4.369   2.291  13.624 -0.5475 -0.1844  0.3158
   42MPD2    C2  642   4.317   2.296  13.749 -0.0580 -0.0913 -0.7762
   42MPD2    C3  643   4.318   2.180  13.832 -0.5738  0.0824  0.0763
   42MPD2    C4  644   4.352   2.063  13.776 -0.2498  0.2169  0.0881
   42MPD2    C5  645   4.408   2.052  13.644  0.8794 -0.5099 -0.2313
   42MPD2     H  646   4.306   2.396  13.788  1.2899 -0.7379  1.3252
   42MPD2    H1  647   4.352   1.972  13.836 -0.0763  0.0928 -0.1028
   42MPD2    H2  648   4.449   2.163  13.473 -0.0422 -0.6934 -0.1534
   42MPD2    H3  649   4.449   1.959  13.605 -0.5896 -0.2096 -2.5590
   42MPD2     N  650   4.280   2.192  13.966 -0.3801  0.4800  0.2584
   42MPD2    H5  651   4.300   2.113  14.027 -2.1331 -1.6864 -1.9837
   42MPD2    N1  652   4.364   2.413  13.553  0.2783  0.1363 -0.0127
   42MPD2    H7  653   4.318   2.495  13.592 -2.5310 -0.4454 -2.1520
   43MPD2     C  654   0.715   0.476   0.610  0.6151  0.3450  0.0739
   43MPD2    C1  655   0.689   0.559   0.508 -0.5242 -0.4073 -0.8680
   43MPD2    C2  656   0.743   0.681   0.504 -1.2344  0.4226 -0.6508
   43MPD2    C3  657   0.833   0.717   0.602 -0.3064 -0.5623  0.0726
   43MPD2    C4  658   0.868   0.624   0.699 -0.5558  0.1694  0.5930
   43MPD2    C5  659   0.813   0.499   0.697 -0.4981  0.6343 -0.3610
   43MPD2     H  660   0.717   0.749   0.423  0.6835  0.6356 -1.0901
   43MPD2    H1  661   0.942   0.639   0.776 -2.5297  0.4420  2.4495
   43MPD2    H2  662   0.665   0.380   0.619  0.9974  0.1994  0.6252
   43MPD2    H3  663   0.856   0.426   0.765 -1.2696 -1.4160 -2.0918
   43MPD2     N  664   0.887   0.848   0.607  0.1299 -0.1995  0.2965
   43MPD2    H5  665   0.973   0.853   0.662  0.4097 -1.1808 -0.0418
   43MPD2    N1  666   0.599   0.532   0.403 -0.0959  0.0413 -0.4279
   43MPD2    H7  667   0.574   0.605   0.337  0.6608 -0.0129 -0.7767
   44TCq2    C1  668   0.919   1.426   0.493  1.1107  0.6651 -0.0977
   44TCq2    O2  669   0.885   1.416   0.378 -0.8961 -0.3248 -0.4868
   44TCq2    C2  670   0.966   1.305   0.556 -0.4959 -0.9056 -0.2907
   44TCq2    C3  671   1.037   1.315   0.673 -0.5411  0.3044 -0.3058
   44TCq2    C4  672   1.039   1.202   0.753  0.4166 -0.2754  0.1748
   44TCq2    C5  673   0.994   1.081   0.701  0.0143  0.5678 -0.3148
   44TCq2    C6  674   0.939   1.081   0.581 -0.3279 -0.1823  0.0617
   44TCq2    C7  675   0.926   1.187   0.501  0.6088  0.0288  0.1796
   44TCq2    C8  676   0.858   0.961   0.540  0.5895  0.1333  0.1258
   44TCq2    O4  677   0.753   0.981   0.478 -0.7712 -0.2448 -0.2748
   44TCq2    C9  678   1.081   1.205   0.893 -0.3394  0.4341 -0.5043
   44TCq2    O5  679   1.095   1.094   0.955  0.3937  0.1234  0.1760
   44TCq2    O6  680   1.079   1.325   0.941 -0.4879  0.4171  0.1915
   44TCq2    H2  681   1.079   1.408   0.709  1.6978 -1.4421  1.6164
   44TCq2    H3  682   0.990   0.997   0.769 -0.0217  1.4173  0.7183
   44TCq2    H4  683   0.873   1.178   0.407  0.1622 -0.5292  0.4831
   45TMC2    C1  684   1.746   2.159   9.285  0.4237 -0.0531 -0.5129
   45TMC2    C2  685   1.807   2.085   9.384  0.4445  0.1566  0.4107
   45TMC2    C3  686   1.900   2.148   9.459 -0.2502 -0.4572 -0.3616
   45TMC2    C4  687   1.775   2.290   9.260  0.4945 -0.2473  0.1958
   45TMC2    C5  688   1.865   2.348   9.346  0.5197  0.7711  0.1265
   45TMC2    C6  689   1.922   2.286   9.446 -0.6224 -0.4521  0.4073
   45TMC2     C  690   1.659   2.082   9.191 -0.5506  0.1219  0.3191
   45TMC2     O  691   1.680   1.962   9.185  0.1865 -0.3175  0.4571
   45TMC2     H  692   1.773   1.984   9.404  0.1058  0.0729 -0.5610
   45TMC2    H1  693   1.736   2.345   9.175  0.1096  2.7333  2.2761
   45TMC2    H2  694   1.994   2.339   9.507 -0.3660  1.1979 -1.3376
   45TMC2    C7  695   1.931   2.466   9.292 -0.1675  0.1502  0.4381
   45TMC2    C8  696   1.993   2.065   9.534 -0.5354  0.3457  0.3606
   45TMC2    O1  697   1.945   2.476   9.170 -0.1310 -0.0827  0.0877
   45TMC2    O2  698   2.054   1.978   9.474  0.3360 -0.4140  0.0562
   45TMC2    O5  699   2.059   2.139   9.626 -0.8360 -0.1535  0.8237
   45TMC2    H5  700   1.994   2.192   9.677  0.9339  0.7722  2.0936
   46MPD2     C  701   1.394   1.972   9.120 -0.4564 -0.5222  0.8686
   46MPD2    C1  702   1.423   2.106   9.117 -1.0396 -0.1384  0.2725
   46MPD2    C2  703   1.321   2.196   9.091 -0.6428 -0.1841 -0.1798
   46MPD2    C3  704   1.193   2.155   9.051  0.2403 -0.1560  0.0126
   46MPD2    C4  705   1.170   2.022   9.039  0.4245 -0.0401  0.2557
   46MPD2    C5  706   1.267   1.933   9.081 -0.2705 -0.5775 -0.4084
   46MPD2     H  707   1.334   2.302   9.107  1.2749 -0.8644  2.8418
   46MPD2    H1  708   1.073   1.984   9.007  0.7317 -1.1023  0.5827
   46MPD2    H2  709   1.460   1.894   9.156 -1.2561 -1.2093  0.8685
   46MPD2    H3  710   1.249   1.827   9.088 -1.3235 -0.3418  0.4705
   46MPD2     N  711   1.094   2.258   9.035 -0.1240  0.6217  0.8363
   46MPD2    H5  712   1.127   2.352   9.057 -0.5519  0.8928  0.3116
   46MPD2    N1  713   1.548   2.160   9.166  0.6703 -0.4126 -0.2747
   46MPD2    H7  714   1.551   2.262   9.166 -1.2104 -0.3725  0.6717
   47TMC2    C1  715   2.549   2.858   8.819 -0.6498 -0.6109  0.5403
   47TMC2    C2  716   2.574   2.742   8.753  0.1931 -0.3720 -0.5201
   47TMC2    C3  717   2.470   2.665   8.712  0.3064  0.3417 -0.0512
   47TMC2    C4  718   2.423   2.910   8.816  0.2479  0.0418 -0.9373
   47TMC2    C5  719   2.320   2.833   8.768 -0.2159 -0.5228  0.0019
   47TMC2    C6  720   2.340   2.703   8.726 -0.6104 -0.2402 -1.2479
   47TMC2     C  721   2.654   2.925   8.908  0.2823  0.7982 -0.1048
   47TMC2     O  722   2.623   3.039   8.945  0.0411  0.7207  0.1501
   47TMC2     H  723   2.678   2.720   8.730  0.5760  1.0198 -0.1236
   47TMC2    H1  724   2.406   2.996   8.880 -1.1888 -0.8206 -0.1542
   47TMC2    H2  725   2.259   2.639   8.692 -2.5260  1.9481 -0.8525
   47TMC2    C7  726   2.179   2.864   8.802  0.7423  0.7863 -0.0213
   47TMC2    C8  727   2.491   2.563   8.611 -0.0118 -0.4612  0.0514
   47TMC2    O1  728   2.098   2.780   8.766  0.4543  0.2653 -0.3265
   47TMC2    O2  729   2.420   2.554   8.509 -0.4506  0.9077 -0.0546
   47TMC2    O5  730   2.610   2.511   8.635  0.1300  0.0107  0.0224
   47TMC2    H5  731   2.624   2.501   8.732 -1.9581 -0.6645  0.2717
   48MPD2     C  732   2.813   2.958   9.163  0.1235  0.1153 -0.5903
   48MPD2    C1  733   2.848   2.877   9.056 -0.4331 -0.3056 -0.3775
   48MPD2    C2  734   2.970   2.803   9.065 -0.0053  0.8019  0.3242
   48MPD2    C3  735   3.052   2.815   9.171 -0.0959  0.1558 -0.6708
   48MPD2    C4  736   3.012   2.886   9.282 -0.4439 -0.6843 -0.4400
   48MPD2    C5  737   2.896   2.962   9.273  0.4067  0.0177 -0.9439
   48MPD2     H  738   3.003   2.742   8.981 -1.9935 -0.0068  0.1173
   48MPD2    H1  739   3.062   2.885   9.378 -1.2220  3.3386 -0.0254
   48MPD2    H2  740   2.718   3.009   9.168 -0.5392 -1.4051  2.2769
   48MPD2    H3  741   2.869   3.028   9.355 -2.9021 -2.5319  0.0175
   48MPD2     N  742   3.170   2.740   9.161 -0.4642 -0.3935 -0.2155
   48MPD2    H5  743   3.181   2.681   9.079 -0.0254  1.1521 -1.2688
   48MPD2    N1  744   2.766   2.857   8.944 -0.7085 -0.6588 -1.0245
   48MPD2    H7  745   2.801   2.780   8.887 -0.3837 -0.2718 -1.3545
   49MPD2     C  746   2.507   1.308  10.513  0.1679  0.3129  0.2393
   49MPD2    C1  747   2.438   1.209  10.459 -0.0886 -0.6611  0.4254
   49MPD2    C2  748   2.326   1.154  10.523 -0.3564  0.2900  0.5204
   49MPD2    C3  749   2.292   1.219  10.641 -0.8512 -1.2787 -0.8607
   49MPD2    C4  750   2.371   1.313  10.705  0.1023  0.1471  0.7139
   49MPD2    C5  751   2.475   1.362  10.632  0.7179 -0.5134  0.1715
   49MPD2     H  752   2.263   1.074  10.485 -0.5592 -0.0294  1.5176
   49MPD2    H1  753   2.350   1.352  10.804  0.4624  1.6344  0.2025
   49MPD2    H2  754   2.597   1.345  10.464 -0.6188 -1.5146 -2.5828
   49MPD2    H3  755   2.541   1.441  10.666  2.1816 -0.6714 -2.3161
   49MPD2     N  756   2.172   1.166  10.703  0.4811 -0.5761 -0.0911
   49MPD2    H5  757   2.129   1.085  10.661 -1.4418  2.1058 -3.2623
   49MPD2    N1  758   2.484   1.159  10.331 -0.2796  0.3448 -0.0445
   49MPD2    H7  759   2.562   1.211  10.293  0.7079  0.2880  1.8747
   50TCq2    C1  760   2.411   1.083  10.242  0.6176  0.1103 -0.5871
   50TCq2    O2  761   2.300   1.035  10.257 -0.5073 -0.2556  0.3019
   50TCq2    C2  762   2.495   1.042  10.130  0.5686  0.3122  0.4542
   50TCq2    C3  763   2.632   1.057  10.138  0.3294  0.1191 -0.2156
   50TCq2    C4  764   2.717   0.971  10.073  0.2355  0.5970  0.3563
   50TCq2    C5  765   2.660   0.873   9.985  0.0948  0.4249 -0.0753
   50TCq2    C6  766   2.525   0.864   9.987  0.9912  0.2955 -0.4086
   50TCq2    C7  767   2.443   0.947  10.049  0.2499  1.0893 -0.2344
   50TCq2    C8  768   2.456   0.749   9.926 -0.0511  0.3108  0.6044
   50TCq2    O4  769   2.336   0.743   9.932  0.1437  0.4551  0.1269
   50TCq2    C9  770   2.854   0.998  10.057 -0.2410 -0.0362  0.2432
   50TCq2    O5  771   2.914   0.918   9.987  0.2693  0.7924 -0.0287
   50TCq2    O6  772   2.907   1.095  10.123  0.4329  0.3631  0.0906
   50TCq2    H2  773   2.685   1.129  10.198 -1.4628  0.8783  0.4555
   50TCq2    H3  774   2.723   0.829   9.908 -0.7549  0.0318 -0.5487
   50TCq2    H4  775   2.336   0.931  10.049  0.4427 -0.2099 -1.5707
   51MPD2     C  776   2.457   4.067   1.303  0.3640  0.0705 -0.5049
   51MPD2    C1  777   2.521   3.974   1.389  0.5551  0.4589  0.0773
   51MPD2    C2  778   2.543   4.005   1.521 -0.2410 -0.2365  0.0286
   51MPD2    C3  779   2.497   4.122   1.579  0.0610  0.4356 -0.5333
   51MPD2    C4  780   2.422   4.201   1.496 -0.6605  0.6457  0.2469
   51MPD2    C5  781   2.388   4.165   1.367  0.8360 -0.5916 -0.1835
   51MPD2     H  782   2.605   3.937   1.578 -1.5332  0.3679  2.1358
   51MPD2    H1  783   2.376   4.294   1.527  1.1219  1.0505  1.6815
   51MPD2    H2  784   2.423   4.030   1.207 -0.9013 -0.8478  0.3024
   51MPD2    H3  785   2.306   4.208   1.311 -0.4273 -0.6015  1.6376
   51MPD2     N  786   2.523   4.164   1.706  0.0278  0.0860  0.2872
   51MPD2    H5  787   2.489   4.257   1.729  0.9702  0.7297 -0.9243
   51MPD2    N1  788   2.595   3.861   1.339 -0.0692 -0.1278  0.5544
   51MPD2    H7  789   2.654   3.823   1.412 -0.3522  0.5790  1.1504
   52TCq2    C1  790   2.606   4.097   1.797  0.2496  0.5142 -0.0507
   52TCq2    O2  791   2.638   3.977   1.811 -0.9163  0.4795 -0.4343
   52TCq2    C2  792   2.637   4.180   1.912  0.2103 -0.0052 -0.2436
   52TCq2    C3  793   2.668   4.118   2.030 -0.1843 -0.0980 -0.0766
   52TCq2    C4  794   2.701   4.198   2.139  0.2739 -0.6267  0.2567
   52TCq2    C5  795   2.671   4.330   2.134  0.6321  0.3182 -0.0052
   52TCq2    C6  796   2.629   4.386   2.020  0.2180 -0.1876 -0.0099
   52TCq2    C7  797   2.613   4.314   1.905  0.4982  0.5326  0.0713
   52TCq2    C8  798   2.612   4.529   2.011  1.2155 -0.0906 -0.2527
   52TCq2    O4  799   2.607   4.574   1.897 -0.7643  0.0504 -0.1709
   52TCq2    C9  800   2.762   4.131   2.254  0.0212  0.1787 -0.4025
   52TCq2    O5  801   2.780   4.009   2.245 -0.2015  0.7970 -0.1399
   52TCq2    O6  802   2.755   4.194   2.359  0.1263  0.4390 -0.0569
   52TCq2    H2  803   2.693   4.013   2.025  2.1095  0.5856 -2.6592
   52TCq2    H3  804   2.701   4.380   2.226 -1.3931  2.4901 -0.5303
   52TCq2    H4  805   2.584   4.360   1.811 -0.1404  0.1689  0.0947
   53TMC2    C1  806   3.311   2.629  11.556 -0.4407  1.0909 -0.0231
   53TMC2    C2  807   3.435   2.603  11.597 -0.3900  0.1584 -0.1566
   53TMC2    C3  808   3.446   2.634  11.733  0.5548  0.4177  0.0195
   53TMC2    C4  809   3.203   2.674  11.628  0.0186  0.2215 -0.1486
   53TMC2    C5  810   3.223   2.699  11.761 -0.3602  0.0813 -0.8969
   53TMC2    C6  811   3.346   2.683  11.814 -0.5107 -0.2080 -0.3466
   53TMC2     C  812   3.287   2.576  11.427  0.6356  0.2591  0.1098
   53TMC2     O  813   3.382   2.549  11.352 -0.3744  0.1800 -0.2609
   53TMC2     H  814   3.519   2.569  11.538 -1.1714 -0.7843 -0.7231
   53TMC2    H1  815   3.113   2.706  11.577  0.3390  1.1031 -0.1557
   53TMC2    H2  816   3.376   2.714  11.913 -2.4901 -0.5256  0.3583
   53TMC2    C7  817   3.110   2.764  11.838  0.2671  0.5996  0.4414
   53TMC2    C8  818   3.576   2.636  11.796 -0.5176 -0.5082  0.2979
   53TMC2    O1  819   3.009   2.781  11.777 -0.1105  0.2870 -0.0319
   53TMC2    O2  820   3.617   2.741  11.852 -0.2214 -0.2004 -0.0328
   53TMC2    O5  821   3.628   2.513  11.789  0.1778  0.1747  0.4375
   53TMC2    H5  822   3.557   2.454  11.756 -1.0662  3.1600 -2.2108
   54MPD2     C  823   3.169   2.413  11.191 -0.5415  0.0558  0.0652
   54MPD2    C1  824   3.109   2.445  11.313 -0.3927 -0.3673  0.2509
   54MPD2    C2  825   2.976   2.392  11.325  0.1313  0.1783 -0.1916
   54MPD2    C3  826   2.907   2.311  11.234  0.5903  0.0116  0.1103
   54MPD2    C4  827   2.967   2.287  11.114 -0.3438  0.2416 -0.2484
   54MPD2    C5  828   3.094   2.346  11.097  0.2728  0.3516  0.2386
   54MPD2     H  829   2.926   2.421  11.416  1.9317  2.0517  0.1889
   54MPD2    H1  830   2.920   2.228  11.037 -2.8364 -1.2396  2.4132
   54MPD2    H2  831   3.266   2.444  11.154 -0.1955 -0.8921  0.1875
   54MPD2    H3  832   3.140   2.311  11.005 -2.3149  2.2397 -1.7976
   54MPD2     N  833   2.777   2.259  11.252 -1.0233  0.0842  0.2514
   54MPD2    H5  834   2.737   2.198  11.182 -0.6473  0.3595 -0.1982
   54MPD2    N1  835   3.159   2.530  11.418 -0.1551 -0.2506 -0.0985
   54MPD2    H7  836   3.086   2.561  11.482  0.7582  0.6483  0.5159
   55MPD2     C  837   3.107   0.835  17.356  1.1546 -0.0868  0.4770
   55MPD2    C1  838   3.103   0.753  17.458  0.0130 -0.1675 -0.0827
   55MPD2    C2  839   3.146   0.802  17.578  0.7208  0.4816  0.3533
   55MPD2    C3  840   3.194   0.932  17.602  0.5978  0.5335 -0.0204
   55MPD2    C4  841   3.208   1.011  17.489  0.5335  0.2254  0.2786
   55MPD2    C5  842   3.163   0.960  17.372  0.1793 -0.1503  0.0727
   55MPD2     H  843   3.127   0.740  17.666  1.8376 -1.0872 -0.5131
   55MPD2    H1  844   3.255   1.108  17.493 -0.0362  0.5214 -0.3201
   55MPD2    H2  845   3.062   0.805  17.262  1.5582 -1.4611  0.7226
   55MPD2    H3  846   3.168   1.024  17.285 -0.1743 -1.5363 -0.9513
   55MPD2     N  847   3.231   0.962   0.039  0.0603  0.2489  0.5481
   55MPD2    H5  848   3.199   0.896   0.110 -3.4860  2.3600  0.8975
   55MPD2    N1  849   3.045   0.626  17.435 -0.1078  0.0129  0.0849
   55MPD2    H7  850   3.030   0.600  17.338  0.0170  0.1833  0.0197
   56TCq2    C1  851   3.025   0.532  17.536  0.7542  0.3572 -0.2053
   56TCq2    O2  852   3.029   0.541  17.658 -0.5138  0.1650 -0.2705
   56TCq2    C2  853   3.017   0.396  17.475 -0.4843  0.2797 -0.1292
   56TCq2    C3  854   2.993   0.383  17.342 -0.8868  0.0393 -0.6571
   56TCq2    C4  855   2.981   0.259  17.292  0.1498  0.3664 -0.0765
   56TCq2    C5  856   2.974   0.155  17.371 -0.3635 -0.2726  0.1204
   56TCq2    C6  857   2.983   0.169  17.505  0.1856 -0.4945  0.1346
   56TCq2    C7  858   3.006   0.297  17.563 -0.4259 -0.0444 -0.5318
   56TCq2    C8  859   3.051   0.055  17.575 -0.5414  0.1339 -0.3526
   56TCq2    O4  860   3.104   4.691  17.510 -0.4712  0.0605  0.2182
   56TCq2    C9  861   2.990   0.242  17.148 -0.1241  0.1323 -0.1108
   56TCq2    O5  862   2.933   0.144  17.107  0.2182 -0.1512 -0.1215
   56TCq2    O6  863   3.036   0.333  17.076  0.4479  0.1769 -0.6717
   56TCq2    H2  864   3.003   0.469  17.276 -0.3791  0.5198  0.0537
   56TCq2    H3  865   2.964   0.054  17.333 -2.2822  0.4547 -1.2534
   56TCq2    H4  866   2.993   0.324  17.667 -0.4326  1.3905 -0.9068
   57TMC2    C1  867   2.425   1.558  13.360 -0.0604 -0.1793 -0.1281
   57TMC2    C2  868   2.553   1.588  13.327  0.1987  0.2490 -0.1970
   57TMC2    C3  869   2.601   1.541  13.214 -0.2657  0.0924  0.3793
   57TMC2    C4  870   2.344   1.481  13.281 -0.2055 -0.5569 -0.4424
   57TMC2    C5  871   2.408   1.433  13.170  0.2339  0.1991 -0.3360
   57TMC2    C6  872   2.529   1.470  13.130 -0.2614 -0.1085 -0.3901
   57TMC2     C  873   2.391   1.571  13.500 -0.1126  0.1306 -0.7201
   57TMC2     O  874   2.408   1.679  13.552 -0.4538 -0.8640  0.1008
   57TMC2     H  875   2.600   1.648  13.405 -0.4169  1.1518 -0.5235
   57TMC2    H1  876   2.240   1.463  13.305 -0.9666  2.4367 -1.5116
   57TMC2    H2  877   2.576   1.428  13.041 -0.9763 -0.4060 -0.6279
   57TMC2    C7  878   2.317   1.355  13.084  0.8810 -0.2119  0.2638
   57TMC2    C8  879   2.746   1.535  13.198  1.1038  0.0684  0.0806
   57TMC2    O1  880   2.219   1.314  13.146  0.4041 -0.2295 -0.3523
   57TMC2    O2  881   2.803   1.439  13.146  0.1178  0.1227 -0.1291
   57TMC2    O5  882   2.796   1.619  13.286  0.2244  0.7680  0.3166
   57TMC2    H5  883   2.744   1.701  13.294 -0.3589  0.6158 -2.1043
   58MPD2     C  884   2.060   1.445  13.870  1.0986  0.2015  0.1303
   58MPD2    C1  885   2.134   1.555  13.863  0.6365 -0.0992 -0.6564
   58MPD2    C2  886   2.226   1.566  13.761  0.2587 -0.0023 -0.8791
   58MPD2    C3  887   2.236   1.463  13.664  0.0628  0.1575 -0.3716
   58MPD2    C4  888   2.157   1.351  13.683  0.0664  0.7243 -0.0864
   58MPD2    C5  889   2.067   1.344  13.785 -0.1036  0.0757  0.1821
   58MPD2     H  890   2.280   1.659  13.750  1.8387 -0.8663 -0.4544
   58MPD2    H1  891   2.140   1.279  13.604 -2.3292  0.0460  1.0330
   58MPD2    H2  892   1.976   1.441  13.939  1.4241  0.1672  0.5303
   58MPD2    H3  893   1.996   1.262  13.787 -0.4920  0.3699 -1.2403
   58MPD2     N  894   2.305   1.468  13.533  0.1573 -0.2634  0.0586
   58MPD2    H5  895   2.293   1.397  13.461 -1.1262 -0.1035  0.1154
   58MPD2    N1  896   2.120   1.666  13.953 -0.8436 -0.6165  0.6425
   58MPD2    H7  897   2.166   1.752  13.924 -0.4895 -1.2710 -0.7662
   59MPD2     C  898   0.557   1.989  13.625  0.1737 -0.2236  0.0307
   59MPD2    C1  899   0.614   2.015  13.503  0.5340 -0.3300 -0.2555
   59MPD2    C2  900   0.708   2.114  13.492 -1.1357  0.2610  0.2845
   59MPD2    C3  901   0.756   2.183  13.595 -0.2069 -0.0731 -0.1406
   59MPD2    C4  902   0.699   2.158  13.722  0.6265 -0.2739 -0.0543
   59MPD2    C5  903   0.600   2.064  13.729 -0.5965  0.5939 -0.7666
   59MPD2     H  904   0.748   2.121  13.392  0.7513  2.6633  1.2141
   59MPD2    H1  905   0.714   2.215  13.813  0.0311  2.8002 -1.8820
   59MPD2    H2  906   0.473   1.924  13.647  0.3034 -0.9569 -1.7061
   59MPD2    H3  907   0.555   2.041  13.825  1.0676 -4.7689 -1.2146
   59MPD2     N  908   0.853   2.287  13.586 -0.2433 -0.3344  0.9715
   59MPD2    H5  909   0.889   2.319  13.674  0.8144  1.5190 -0.1554
   59MPD2    N1  910   0.577   1.940  13.390  0.4596  0.2012 -0.5352
   59MPD2    H7  911   0.618   1.977  13.305 -3.1936 -0.9010 -2.7947
   60TCq2    C1  912   0.489   1.837  13.383 -0.1833 -0.2694 -0.3977
   60TCq2    O2  913   0.415   1.784  13.467 -0.9522 -0.5467 -0.4239
   60TCq2    C2  914   0.488   1.779  13.250  0.2745 -0.4877  0.1079
   60TCq2    C3  915   0.391   1.697  13.217 -0.7923  0.1902 -0.4035
   60TCq2    C4  916   0.386   1.635  13.088  0.0532 -0.2620  0.0089
   60TCq2    C5  917   0.470   1.681  12.984  0.0974 -0.1745 -0.0525
   60TCq2    C6  918   0.563   1.780  13.017 -0.6455 -0.2447 -0.1927
   60TCq2    C7  919   0.574   1.823  13.145 -0.3527  0.3093 -0.2427
   60TCq2    C8  920   0.638   1.837  12.906  0.0823 -0.1211 -0.7211
   60TCq2    O4  921   0.719   1.924  12.939  0.3045  0.0699  0.4535
   60TCq2    C9  922   0.292   1.538  13.054  0.8404  0.6328  0.5004
   60TCq2    O5  923   0.323   1.465  12.955  0.8205  0.2947 -0.1801
   60TCq2    O6  924   0.208   1.517  13.139  0.6559  0.5343 -0.1863
   60TCq2    H2  925   0.322   1.657  13.292 -2.5661  1.8002 -1.1725
   60TCq2    H3  926   0.454   1.631  12.889  0.6543  0.2216 -0.3558
   60TCq2    H4  927   0.649   1.894  13.176  0.8345 -1.6302  1.3545
   61MPD2     C  928   4.418   2.797  14.569 -0.1194  0.7228 -0.1489
   61MPD2    C1  929   4.466   2.924  14.571  0.2384 -0.1785 -0.0178
   61MPD2    C2  930   4.506   2.981  14.455 -0.1512  0.0211  0.3397
   61MPD2    C3  931   4.480   2.925  14.330  0.1233  0.1012 -0.6113
   61MPD2    C4  932   4.446   2.791  14.335  0.1754 -0.0226  0.2969
   61MPD2    C5  933   4.415   2.729  14.449 -0.2286 -0.2915  0.7892
   61MPD2     H  934   4.536   3.085  14.460  0.2033  0.0099 -1.3506
   61MPD2    H1  935   4.437   2.734  14.243  1.6777 -0.2157  0.2668
   61MPD2    H2  936   4.394   2.745  14.661 -1.4433 -1.6901 -1.8354
   61MPD2    H3  937   4.377   2.628  14.459  1.2715 -0.9753 -0.4459
   61MPD2     N  938   4.494   2.996  14.203 -0.6085  0.0550  0.1970
   61MPD2    H5  939   4.446   2.963  14.120 -0.8328  0.6402  0.0974
   61MPD2    N1  940   4.493   2.995  14.685 -0.5374 -0.5001 -0.3512
   61MPD2    H7  941   4.534   3.087  14.670 -3.7127  0.9682  0.0264
   62TCq2    C1  942   4.450   2.978  14.813 -0.7034  0.3065 -0.1933
   62TCq2    O2  943   4.383   2.885  14.856  0.3502  0.1333 -0.2282
   62TCq2    C2  944   4.470   3.101  14.892  0.2205 -0.3137  0.3195
   62TCq2    C3  945   4.452   3.094  15.029 -0.3890 -0.2120  0.7459
   62TCq2    C4  946   4.437   3.205  15.107 -0.4156 -0.3460  0.5245
   62TCq2    C5  947   4.430   3.323  15.043 -0.9170  0.4419  0.2029
   62TCq2    C6  948   4.453   3.335  14.906 -0.5516  0.0440  0.2706
   62TCq2    C7  949   4.481   3.223  14.828 -0.0399  0.2513  0.2158
   62TCq2    C8  950   4.412   3.464  14.846 -0.4250  0.6555  0.1955
   62TCq2    O4  951   4.426   3.562  14.914  0.3401 -0.6715  0.2339
   62TCq2    C9  952   4.398   3.186  15.241 -1.0193 -0.4600  0.0666
   62TCq2    O5  953   4.354   3.289  15.299  0.6556  0.3101 -0.4547
   62TCq2    O6  954   4.392   3.071  15.294  0.9746  0.3207 -0.2184
   62TCq2    H2  955   4.446   2.995  15.075 -0.2385 -0.2604  0.6625
   62TCq2    H3  956   4.415   3.403  15.114  0.4178  0.6162  0.2922
   62TCq2    H4  957   4.501   3.237  14.722 -4.5594  1.5467 -0.4771
   63TMC2    C1  958   4.333   2.718  10.547  0.4037  0.5211  0.2181
   63TMC2    C2  959   4.399   2.680  10.662  0.0913 -0.1723  0.4942
   63TMC2    C3  960   4.518   2.747  10.688  0.1727  0.0264  0.3105
   63TMC2    C4  961   4.383   2.809  10.459  0.2183 -0.2278 -0.2390
   63TMC2    C5  962   4.502   2.864  10.486  0.6539  0.1238 -0.1438
   63TMC2    C6  963   4.575   2.838  10.599  0.4230 -0.3381  0.5254
   63TMC2     C  964   4.213   2.646  10.491  0.2536  0.1939  0.2483
   63TMC2     O  965   4.189   2.537  10.536 -0.4331  0.0842 -0.4486
   63TMC2     H  966   4.364   2.593  10.715  1.5686  0.2203  2.1036
   63TMC2    H1  967   4.337   2.839  10.365 -0.0690 -0.7057 -0.2473
   63TMC2    H2  968   4.665   2.894  10.624 -0.5949  0.5227  2.2125
   63TMC2    C7  969   4.554   2.966  10.394 -0.2728  0.0103  1.1085
   63TMC2    C8  970   4.613   2.695  10.781  0.1220 -0.0680  0.4007
   63TMC2    O1  971   4.512   2.959  10.277  0.1922 -0.1557  0.1196
   63TMC2    O2  972   0.011   2.703  10.752  0.0922  0.3086 -0.4107
   63TMC2    O5  973   4.562   2.619  10.880 -0.8135 -0.5862 -0.2315
   63TMC2    H5  974   4.464   2.621  10.884 -0.9864 -2.7659 -3.1173
   64MPD2     C  975   3.829   2.597  10.155 -0.3637 -0.0445 -0.6774
   64MPD2    C1  976   3.920   2.500  10.205  0.8929 -0.0220  0.5070
   64MPD2    C2  977   4.014   2.546  10.299 -0.1918  0.4554 -0.1713
   64MPD2    C3  978   4.035   2.677  10.314  0.1974  0.5512 -0.2024
   64MPD2    C4  979   3.948   2.768  10.269  0.2689  0.4470 -0.2083
   64MPD2    C5  980   3.849   2.732  10.182  0.4319 -0.1851 -0.5953
   64MPD2     H  981   4.071   2.468  10.347  0.4850 -0.4852 -2.4925
   64MPD2    H1  982   3.960   2.873  10.291 -0.2281  0.5710 -0.5320
   64MPD2    H2  983   3.749   2.581  10.083 -0.3372 -2.0968 -0.2359
   64MPD2    H3  984   3.792   2.812  10.134  0.2765 -0.9601 -1.7064
   64MPD2     N  985   4.132   2.734  10.402  0.7499  0.2302 -0.5429
   64MPD2    H5  986   4.154   2.833  10.409 -1.5367  0.6389  0.8053
   64MPD2    N1  987   3.923   2.369  10.168 -0.5800  0.1010 -0.7151
   64MPD2    H7  988   3.992   2.309  10.212 -0.4972  1.2507  0.7259
   65MPD2     C  989   4.610   2.454  15.635  0.1531 -0.0789  0.3325
   65MPD2    C1  990   4.664   2.411  15.511 -0.6752 -0.1044  0.5105
   65MPD2    C2  991   4.627   2.285  15.467  0.7526 -0.3405  0.7022
   65MPD2    C3  992   4.550   2.203  15.547 -0.0627  0.4580 -0.1774
   65MPD2    C4  993   4.500   2.245  15.664  0.5857  0.6488 -0.2774
   65MPD2    C5  994   4.524   2.372  15.706  0.6320 -0.4720  0.0440
   65MPD2     H  995   4.659   2.248  15.370 -1.0358  1.7101 -0.6748
   65MPD2    H1  996   4.417   2.195  15.713  0.1868 -0.0812 -1.7004
   65MPD2    H2  997   4.626   2.554  15.674 -1.0613 -0.0193  0.6699
   65MPD2    H3  998   4.467   2.410  15.791 -0.4968  0.1829 -1.0179
   65MPD2     N  999   4.520   2.070  15.514 -0.1850  0.8175 -0.0335
   65MPD2    H5 1000   4.455   2.024  15.577  2.6381 -1.6633  1.0721
   65MPD2    N1 1001   0.018   2.486  15.426 -0.4642 -0.5751 -0.2035
   65MPD2    H7 1002   0.050   2.431  15.347 -1.0146  0.0505 -0.8537
   66TCq2    C1 1003   0.057   2.611  15.442 -0.3743  0.2557 -0.8125
   66TCq2    O2 1004   0.035   2.691  15.535  0.6788 -0.2619  0.2592
   66TCq2    C2 1005   0.111   2.654  15.310  0.7465  0.0852 -0.1854
   66TCq2    C3 1006   0.154   2.565  15.210 -0.4776 -0.3815  0.1326
   66TCq2    C4 1007   0.193   2.615  15.089 -0.1199 -0.1062 -0.2277
   66TCq2    C5 1008   0.199   2.749  15.065  0.0277 -0.5101 -0.2326
   66TCq2    C6 1009   0.169   2.829  15.170  1.2218 -0.1330  0.0197
   66TCq2    C7 1010   0.125   2.788  15.292 -0.2383  0.0633 -0.1251
   66TCq2    C8 1011   0.151   2.968  15.128  0.0094  0.6729 -0.1845
   66TCq2    O4 1012   0.198   3.005  15.021 -0.6072  0.6874  0.1113
   66TCq2    C9 1013   0.237   2.519  14.987  0.1647  0.1309  0.6388
   66TCq2    O5 1014   0.282   2.561  14.875  0.2063  0.3309  0.2360
   66TCq2    O6 1015   0.236   2.393  15.018 -0.0169  0.1526 -0.2839
   66TCq2    H2 1016   0.139   2.459  15.226 -1.9986 -0.4205 -1.6194
   66TCq2    H3 1017   0.242   2.788  14.973 -1.6891  1.2747 -0.2518
   66TCq2    H4 1018   0.116   2.854  15.377  2.1558 -0.6249  0.6528
   67MPD2     C 1019   4.686   1.676  14.016 -0.4925  0.2075 -0.3960
   67MPD2    C1 1020   4.642   1.758  14.120 -0.5981  0.5011 -0.5183
   67MPD2    C2 1021   4.502   1.788  14.132  0.1700 -0.4818  0.3584
   67MPD2    C3 1022   4.413   1.749  14.031 -0.6379 -0.2867 -0.1037
   67MPD2    C4 1023   4.464   1.677  13.929  0.5351 -0.6886  0.3080
   67MPD2    C5 1024   4.596   1.637  13.923 -1.1821 -0.9443  0.2460
   67MPD2     H 1025   4.474   1.860  14.209 -1.8287 -1.5960  0.6569
   67MPD2    H1 1026   4.400   1.652  13.845  0.8966  1.3703 -0.5935
   67MPD2    H2 1027   0.066   1.646  14.002 -0.9494 -1.4273 -0.2599
   67MPD2    H3 1028   4.617   1.574  13.837  0.5154  2.0010 -1.4664
   67MPD2     N 1029   4.275   1.785  14.026  0.5737  0.3531 -0.1555
   67MPD2    H5 1030   4.219   1.753  13.948  2.9527 -0.7845 -1.4046
   67MPD2    N1 1031   0.006   1.808  14.224  0.0373  0.6113  0.0209
   67MPD2    H7 1032   4.692   1.867  14.297 -4.6648 -0.4974 -1.4991
   68TCq2    C1 1033   0.137   1.813  14.218 -0.0067  0.3497 -0.5388
   68TCq2    O2 1034   0.220   1.770  14.141 -0.1878 -0.3636  0.5237
   68TCq2    C2 1035   0.183   1.910  14.317 -0.1989  0.1835  0.4321
   68TCq2    C3 1036   0.091   1.963  14.410 -0.2347 -0.9622 -0.5788
   68TCq2    C4 1037   0.149   2.034  14.513 -0.0056  0.1825 -0.1037
   68TCq2    C5 1038   0.278   2.072  14.521  0.0440 -0.0989  0.0086
   68TCq2    C6 1039   0.353   2.030  14.414 -0.5303  0.1439  0.7057
   68TCq2    C7 1040   0.317   1.936  14.317 -0.0908  0.2638 -0.4588
   68TCq2    C8 1041   0.494   2.038  14.450 -0.0268  0.1222 -0.5471
   68TCq2    O4 1042   0.579   2.025  14.363  0.0517 -0.1820 -0.7570
   68TCq2    C9 1043   0.069   2.084  14.617  0.2084 -0.9255  0.0480
   68TCq2    O5 1044   4.683   2.027  14.631  0.9051  0.0366  0.3200
   68TCq2    O6 1045   0.120   2.155  14.706 -0.5293  0.4464 -0.2170
   68TCq2    H2 1046   4.706   1.955  14.413 -0.4077  1.7978  0.0392
   68TCq2    H3 1047   0.302   2.155  14.586  1.4397  0.0730 -0.7156
   68TCq2    H4 1048   0.370   1.892  14.233 -0.7640  2.5323 -2.0628
   69TMC2    C1 1049   2.578   3.189  12.598 -0.6046  0.0321  0.6160
   69TMC2    C2 1050   2.499   3.303  12.617 -0.1362  0.7360  1.0992
   69TMC2    C3 1051   2.554   3.425  12.601  0.5882 -0.3547 -0.0963
   69TMC2    C4 1052   2.709   3.211  12.569 -0.4423  0.0403  0.1357
   69TMC2    C5 1053   2.760   3.331  12.549 -1.2850  0.1437  0.1005
   69TMC2    C6 1054   2.681   3.445  12.557 -0.0461  0.4982 -0.3608
   69TMC2     C 1055   2.538   3.059  12.616 -0.3474 -0.4518  0.1187
   69TMC2     O 1056   2.613   2.979  12.673  0.0656 -0.0916 -0.5335
   69TMC2     H 1057   2.396   3.281  12.642  0.0808 -0.2338  1.1063
   69TMC2    H1 1058   2.764   3.118  12.552  1.0543  0.8449  0.5527
   69TMC2    H2 1059   2.730   3.540  12.545 -1.3344  1.1357 -0.5646
   69TMC2    C7 1060   2.901   3.334  12.509 -0.5221 -0.1124  0.1225
   69TMC2    C8 1061   2.465   3.536  12.574  0.2503  0.7879  0.1058
   69TMC2    O1 1062   2.940   3.429  12.443  0.2308  0.0018  0.2147
   69TMC2    O2 1063   2.474   3.620  12.484  0.1186 -0.6749 -0.2894
   69TMC2    O5 1064   2.357   3.527  12.659  0.7053  0.5038  0.3012
   69TMC2    H5 1065   2.364   3.455  12.726  1.0262  1.1931  1.0022
   70MPD2     C 1066   2.197   2.906  12.558  0.2329  0.0809 -0.8743
   70MPD2    C1 1067   2.330   2.918  12.598 -0.0254 -1.0777 -0.3895
   70MPD2    C2 1068   2.379   2.810  12.667  0.0316 -0.2325 -0.9700
   70MPD2    C3 1069   2.311   2.699  12.689  0.2502 -0.3945 -0.0703
   70MPD2    C4 1070   2.185   2.688  12.657 -0.2794  0.3042  0.3215
   70MPD2    C5 1071   2.134   2.788  12.583  0.6761 -0.5287 -0.1390
   70MPD2     H 1072   2.477   2.819  12.712  0.1593  1.4890 -1.6049
   70MPD2    H1 1073   2.128   2.596  12.661 -2.0973  1.3535 -1.5199
   70MPD2    H2 1074   2.163   2.976  12.483  1.4147 -1.0076 -2.4361
   70MPD2    H3 1075   2.031   2.775  12.551  0.5785 -0.6559  0.2275
   70MPD2     N 1076   2.366   2.577  12.736 -0.7714 -0.0411  0.6665
   70MPD2    H5 1077   2.297   2.509  12.765 -0.1492 -0.3542  1.4171
   70MPD2    N1 1078   2.400   3.043  12.584 -0.4248 -0.2915  0.0460
   70MPD2    H7 1079   2.370   3.120  12.525 -2.0122 -2.5606 -2.0656
   71TMC2    C1 1080   4.322   3.494   1.044 -0.3084 -0.6008  0.2292
   71TMC2    C2 1081   4.437   3.481   1.124  0.0848 -0.4108  0.1049
   71TMC2    C3 1082   4.449   3.372   1.197  0.0864 -0.0405  0.0946
   71TMC2    C4 1083   4.218   3.411   1.048 -0.4583 -0.0708 -0.4928
   71TMC2    C5 1084   4.232   3.304   1.134  0.7223  0.0792 -0.0374
   71TMC2    C6 1085   4.349   3.277   1.203  0.0864  0.3512  0.2383
   71TMC2     C 1086   4.320   3.593   0.940  0.0625  0.0920 -0.6074
   71TMC2     O 1087   4.215   3.629   0.884 -0.5739 -0.2849 -0.0146
   71TMC2     H 1088   4.518   3.551   1.134  1.0825 -1.5894  0.2948
   71TMC2    H1 1089   4.126   3.421   0.993 -1.0861  1.4592  0.8381
   71TMC2    H2 1090   4.365   3.176   1.238  0.0315  0.1774 -0.2439
   71TMC2    C7 1091   4.150   3.187   1.104  1.3019 -0.0856 -0.2444
   71TMC2    C8 1092   4.572   3.360   1.271  0.1316  0.4225 -0.2187
   71TMC2    O1 1093   4.206   3.082   1.095 -0.0998 -0.4295  0.2722
   71TMC2    O2 1094   4.669   3.435   1.252  0.6499  0.0459  0.3527
   71TMC2    O5 1095   4.554   3.268   1.365  0.3212 -0.1943 -0.1751
   71TMC2    H5 1096   4.459   3.248   1.376  0.5232 -1.1759 -0.2252
   72MPD2     C 1097   4.574   3.835   0.566  0.4920 -0.0519  0.3308
   72MPD2    C1 1098   4.438   3.798   0.573  0.0197  0.0176  0.1352
   72MPD2    C2 1099   4.391   3.736   0.689 -0.4303 -0.1022 -0.4871
   72MPD2    C3 1100   4.485   3.697   0.786  0.7151  0.7333  0.1541
   72MPD2    C4 1101   4.617   3.737   0.781 -0.6147  0.8517 -0.0691
   72MPD2    C5 1102   4.656   3.802   0.669  0.1069  0.3268 -0.4568
   72MPD2     H 1103   4.285   3.716   0.696 -0.3488 -0.6396 -0.8164
   72MPD2    H1 1104   4.688   3.694   0.851  1.5199  2.9700 -0.9512
   72MPD2    H2 1105   4.618   3.877   0.476  2.4782 -1.5682  0.5922
   72MPD2    H3 1106   0.038   3.805   0.646 -0.0293  0.9716 -0.9861
   72MPD2     N 1107   4.447   3.620   0.901 -0.1835  0.6027 -0.3823
   72MPD2    H5 1108   4.525   3.590   0.959 -0.9384  2.5089  1.6400
   72MPD2    N1 1109   4.346   3.822   0.473 -0.2134  0.7025 -0.0783
   72MPD2    H7 1110   4.255   3.776   0.477 -0.2603  0.9958  2.4777
   73TMC2    C1 1111   4.089   0.443  13.496  0.2107 -0.4629 -1.4431
   73TMC2    C2 1112   3.965   0.426  13.560 -0.4432 -0.2523 -0.2846
   73TMC2    C3 1113   3.919   0.534  13.638 -0.3867 -0.8234 -0.1242
   73TMC2    C4 1114   4.161   0.553  13.516  0.6532 -0.1209  0.2174
   73TMC2    C5 1115   4.098   0.658  13.568  0.7277 -0.5939 -0.3372
   73TMC2    C6 1116   3.982   0.655  13.639  0.2992 -0.2469 -0.2985
   73TMC2     C 1117   4.102   0.394  13.364 -0.3958  0.1697  0.0377
   73TMC2     O 1118   4.188   0.451  13.297  0.5390 -0.2299  0.1412
   73TMC2     H 1119   3.914   0.330  13.561 -1.4777  0.3052 -0.0383
   73TMC2    H1 1120   4.262   0.566  13.479 -1.2414  1.7287 -4.2716
   73TMC2    H2 1121   3.952   0.733  13.708  3.5355  0.9197 -0.1903
   73TMC2    C7 1122   4.106   0.777  13.477  0.5222  0.7582 -0.2035
   73TMC2    C8 1123   3.800   0.529  13.726  0.3094 -0.4890 -0.4156
   73TMC2    O1 1124   4.084   0.885  13.528 -0.4091 -0.0008 -0.5191
   73TMC2    O2 1125   3.747   0.632  13.756  0.3267  0.0936 -0.1375
   73TMC2    O5 1126   3.770   0.404  13.770 -0.2323  0.0277 -0.2784
   73TMC2    H5 1127   3.832   0.329  13.759 -0.0053  0.1915 -0.1164
   74MPD2     C 1128   4.027   0.084  12.956 -0.7550 -0.4451  0.2562
   74MPD2    C1 1129   4.065   0.217  12.958  0.1265  0.7766 -0.9826
   74MPD2    C2 1130   4.080   0.276  13.083 -0.2293 -0.2339 -1.1550
   74MPD2    C3 1131   4.047   0.207  13.202  0.6997  0.2490 -0.4773
   74MPD2    C4 1132   4.003   0.078  13.196 -0.1792  0.0633  0.1762
   74MPD2    C5 1133   3.994   0.020  13.074 -0.0357 -0.0026 -0.7812
   74MPD2     H 1134   4.120   0.376  13.093 -2.1093  0.5943 -1.9107
   74MPD2    H1 1135   3.989   0.015  13.283  1.3725 -0.1617  0.2613
   74MPD2    H2 1136   4.019   0.027  12.865 -3.7403 -0.2795  0.4437
   74MPD2    H3 1137   3.975   4.638  13.072 -2.2578  0.4036 -0.3822
   74MPD2     N 1138   4.038   0.277  13.327  0.2526 -0.5088 -0.1722
   74MPD2    H5 1139   3.989   0.226  13.399  0.8794 -0.0562  0.5752
   74MPD2    N1 1140   4.080   0.290  12.837  0.7014  0.2764  0.3146
   74MPD2    H7 1141   4.053   0.250  12.747  0.5094 -2.2674  1.4979
   75TCq2    C1 1142   4.212   1.843  14.133  0.9823 -1.2212  0.4930
   75TCq2    O2 1143   4.252   1.849  14.250 -0.2824 -0.2707 -0.1258
   75TCq2    C2 1144   4.073   1.895  14.112  0.2278 -0.3160 -0.1058
   75TCq2    C3 1145   4.024   1.960  14.223 -0.6110 -0.1553 -0.5211
   75TCq2    C4 1146   3.933   2.062  14.208  0.1625  1.1704 -0.4969
   75TCq2    C5 1147   3.905   2.109  14.084  0.1643 -0.1598  0.2124
   75TCq2    C6 1148   3.961   2.042  13.975  0.2717  0.4472  0.3914
   75TCq2    C7 1149   4.040   1.938  13.985  0.3755 -0.4168 -0.2272
   75TCq2    C8 1150   3.935   2.091  13.845  0.2038  0.4637 -0.1584
   75TCq2    O4 1151   3.947   2.004  13.760  0.2624 -0.2845 -0.1784
   75TCq2    C9 1152   3.870   2.130  14.315  0.6275  0.0578  0.0448
   75TCq2    O5 1153   3.794   2.229  14.283 -0.0694 -0.4395 -0.1047
   75TCq2    O6 1154   3.892   2.104  14.438 -0.1990  0.4069  0.4097
   75TCq2    H2 1155   4.050   1.932  14.324 -0.0392  2.6639  0.0978
   75TCq2    H3 1156   3.833   2.188  14.069  1.5013  1.0826  0.3695
   75TCq2    H4 1157   4.082   1.891  13.897 -0.3311  0.4803 -1.0552
   76MPD2     C 1158   4.013   2.883  12.108  0.8020  0.1155  0.6639
   76MPD2    C1 1159   3.918   2.833  12.027  0.2202 -0.9200  0.5430
   76MPD2    C2 1160   3.933   2.702  11.973 -0.1355 -0.6509  0.2305
   76MPD2    C3 1161   4.052   2.632  11.986  0.0488 -0.3269 -0.3033
   76MPD2    C4 1162   4.144   2.685  12.074  0.2755  0.8212  0.5281
   76MPD2    C5 1163   4.122   2.808  12.135  0.2557 -0.2653  0.6188
   76MPD2     H 1164   3.857   2.662  11.907 -0.8290  0.8021  0.1567
   76MPD2    H1 1165   4.246   2.649  12.083  0.1854  0.4881  0.1911
   76MPD2    H2 1166   3.999   2.981  12.152 -2.1173  0.2678 -0.5593
   76MPD2    H3 1167   4.200   2.853  12.195 -0.3677  0.7057  0.6840
   76MPD2     N 1168   4.077   2.501  11.936  0.4758  0.2254 -0.3626
   76MPD2    H5 1169   4.159   2.455  11.973  0.2837 -0.9658 -1.4284
   76MPD2    N1 1170   3.793   2.895  12.010 -0.4957  0.4369 -0.4689
   76MPD2    H7 1171   3.720   2.837  11.970 -0.6194  0.1715  0.1400
   77TCq2    C1 1172   4.005   2.436  11.843  0.1108 -0.2528  0.4318
   77TCq2    O2 1173   3.917   2.480  11.771 -0.1364  0.1780 -0.4071
   77TCq2    C2 1174   4.074   2.306  11.811  0.3711 -0.6809 -0.9132
   77TCq2    C3 1175   4.051   2.258  11.684  0.3073 -0.0614  0.3710
   77TCq2    C4 1176   4.075   2.124  11.671  0.5647  1.3460  0.3085
   77TCq2    C5 1177   4.119   2.047  11.774 -0.0267  0.6963  0.2889
   77TCq2    C6 1178   4.152   2.104  11.892  0.1450  0.6360  0.4861
   77TCq2    C7 1179   4.132   2.237  11.915 -0.3754 -0.0345  0.3126
   77TCq2    C8 1180   4.237   2.033  11.981 -0.3588 -0.2612 -0.6647
   77TCq2    O4 1181   4.211   1.914  11.985  0.0665  0.4007  0.3415
   77TCq2    C9 1182   4.042   2.068  11.547  0.5259 -0.4964 -0.3683
   77TCq2    O5 1183   3.965   2.127  11.463 -0.4639  0.0695 -0.5965
   77TCq2    O6 1184   4.063   1.944  11.540  0.0493  0.0988 -0.1806
   77TCq2    H2 1185   4.017   2.321  11.603  0.1375 -2.1423 -1.1818
   77TCq2    H3 1186   4.141   1.941  11.765 -0.8188  0.5887 -0.3601
   77TCq2    H4 1187   4.140   2.274  12.016  0.1093  0.8463 -0.0499
   78MPD1     C 1188   1.353   2.979   1.822  0.3859  0.5216 -0.7471
   78MPD1    C1 1189   1.408   2.855   1.875 -0.2834 -0.3004 -0.3432
   78MPD1    C2 1190   1.523   2.873   1.955 -0.6899  0.4202  0.4745
   78MPD1    C3 1191   1.564   3.002   2.002 -0.8913 -0.9286 -0.4581
   78MPD1    C4 1192   1.511   3.112   1.949  0.0949  0.1753 -0.0895
   78MPD1    C5 1193   1.407   3.102   1.864  0.0488 -0.7806 -0.0531
   78MPD1     H 1194   1.578   2.791   1.999 -1.6200  0.1710  1.1995
   78MPD1    H1 1195   1.544   3.212   1.974  0.4663  0.1422 -0.4499
   78MPD1    H2 1196   1.258   2.982   1.770  0.1689 -0.8597 -0.4561
   78MPD1    H3 1197   1.364   3.190   1.817  1.1589  0.7875  1.8579
   78MPD1     N 1198   1.672   3.020   2.096  0.2810 -0.5150  0.0662
   78MPD1    H5 1199   1.699   3.116   2.115  0.5283 -0.4838 -0.4545
   78MPD1    N1 1200   1.368   2.739   1.811  0.4355  0.1262  0.8797
   78MPD1    H6 1201   1.404   2.657   1.858 -0.7164 -0.4536  0.7608
   78MPD1    H7 1202   1.266   2.733   1.815  0.3758  1.3236  1.2622
   79TCq2    C1 1203   1.737   2.927   2.178  0.0480 -0.2172 -0.0607
   79TCq2    O2 1204   1.729   2.807   2.182 -0.1225 -0.7973  0.0969
   79TCq2    C2 1205   1.843   2.984   2.262 -0.7306 -0.0106 -0.2319
   79TCq2    C3 1206   1.888   2.909   2.367 -0.2109  0.0765 -0.0429
   79TCq2    C4 1207   1.977   2.968   2.453 -0.3316  0.1318  0.0820
   79TCq2    C5 1208   2.036   3.087   2.430  0.3875  0.1203 -0.3487
   79TCq2    C6 1209   2.004   3.146   2.315 -0.2777 -0.5264 -0.4170
   79TCq2    C7 1210   1.913   3.095   2.224 -0.7955 -0.8608 -0.0912
   79TCq2    C8 1211   2.075   3.269   2.275 -0.1085 -0.0974  0.5530
   79TCq2    O4 1212   2.025   3.326   2.177  0.2515 -0.5091 -0.8882
   79TCq2    C9 1213   2.025   2.886   2.562  0.5459  0.1528  0.3131
   79TCq2    O5 1214   1.975   2.772   2.566  0.4596 -0.0156  0.0877
   79TCq2    O6 1215   2.113   2.932   2.640  0.2133 -0.6375 -0.0630
   79TCq2    H2 1216   1.850   2.810   2.389  0.5545 -0.3149 -0.4947
   79TCq2    H3 1217   2.115   3.123   2.495  1.2424  0.8860 -1.8169
   79TCq2    H4 1218   1.887   3.159   2.141 -2.6112  0.1901  1.2877
   80MPD2     C 1219   3.320   2.381  11.973  0.6187  0.2033  0.0776
   80MPD2    C1 1220   3.206   2.366  11.904 -0.5936  0.2610 -0.4449
   80MPD2    C2 1221   3.084   2.408  11.959 -0.6590 -0.2378  0.0338
   80MPD2    C3 1222   3.083   2.454  12.097 -0.0503  0.4207 -0.6714
   80MPD2    C4 1223   3.202   2.451  12.167  0.3747 -0.7815 -0.7090
   80MPD2    C5 1224   3.320   2.431  12.099  0.4185  0.0289  0.4030
   80MPD2     H 1225   2.994   2.398  11.899 -0.7137 -1.2807  0.3008
   80MPD2    H1 1226   3.205   2.482  12.271  0.7916 -1.3535 -0.5505
   80MPD2    H2 1227   3.417   2.340  11.947  1.3445  1.9390  0.0884
   80MPD2    H3 1228   3.414   2.432  12.153  1.5488 -2.4572 -1.5477
   80MPD2     N 1229   2.970   2.510  12.164 -0.4342  0.1801  0.3973
   80MPD2    H5 1230   2.991   2.538  12.259 -1.5395 -2.2761  1.3589
   80MPD2    N1 1231   3.205   2.313  11.771  0.1351  0.7655 -0.1831
   80MPD2    H7 1232   3.114   2.291  11.731 -0.5252 -0.7226  2.1881
   81TCq2    C1 1233   3.318   2.291  11.693 -0.3531  0.2063 -0.5374
   81TCq2    O2 1234   3.437   2.321  11.725  0.1650 -0.1444 -0.0169
   81TCq2    C2 1235   3.303   2.228  11.570 -0.2670  0.2441 -0.3248
   81TCq2    C3 1236   3.402   2.242  11.480  0.4881 -0.1421 -0.9288
   81TCq2    C4 1237   3.381   2.190  11.351  0.3314  0.2061 -0.0300
   81TCq2    C5 1238   3.280   2.106  11.327  0.1650  0.3302  0.2286
   81TCq2    C6 1239   3.184   2.080  11.422  0.2021  0.0561 -0.5128
   81TCq2    C7 1240   3.188   2.149  11.544 -0.0097 -0.7828  0.4797
   81TCq2    C8 1241   3.078   1.997  11.375  0.7248 -0.4660 -0.0004
   81TCq2    O4 1242   3.110   1.904  11.302 -0.1882 -0.5659 -0.5416
   81TCq2    C9 1243   3.480   2.215  11.247  0.4933  0.3404  0.0038
   81TCq2    O5 1244   3.591   2.264  11.281 -0.3023 -0.3272  0.0031
   81TCq2    O6 1245   3.461   2.182  11.129  0.1781  0.1602  0.1657
   81TCq2    H2 1246   3.480   2.313  11.505  1.1638 -1.2085  0.0369
   81TCq2    H3 1247   3.267   2.067  11.227  1.2737  0.5238  0.0039
   81TCq2    H4 1248   3.119   2.138  11.627 -0.3220  2.8491  0.7214
   82MPD2     C 1249   1.354   1.584  10.414 -0.0050  0.1944 -0.3967
   82MPD2    C1 1250   1.251   1.532  10.489 -0.3125 -0.1362 -0.7981
   82MPD2    C2 1251   1.264   1.523  10.628 -0.6228  0.4024  0.1664
   82MPD2    C3 1252   1.376   1.568  10.687  0.2674  0.7757  0.2763
   82MPD2    C4 1253   1.486   1.604  10.607 -0.0873 -0.2770  0.0259
   82MPD2    C5 1254   1.472   1.608  10.472  0.0851 -0.5819 -0.4103
   82MPD2     H 1255   1.178   1.485  10.682 -0.7791 -0.3781 -0.6253
   82MPD2    H1 1256   1.579   1.642  10.648  0.5661 -2.4607  0.5498
   82MPD2    H2 1257   1.346   1.597  10.307  2.2983 -0.7954 -0.6932
   82MPD2    H3 1258   1.557   1.638  10.411 -1.1456  0.8245 -1.4414
   82MPD2     N 1259   1.389   1.593  10.826  0.6901 -0.0486 -0.1480
   82MPD2    H5 1260   1.457   1.663  10.854 -0.4487  0.6634  0.8158
   82MPD2    N1 1261   1.123   1.516  10.426  0.5149  0.4401  0.6344
   82MPD2    H7 1262   1.107   1.566  10.340 -0.4783 -1.0112 -0.0378
   83TCq2    C1 1263   1.295   1.561  10.917 -0.1498 -0.9073 -0.4650
   83TCq2    O2 1264   1.204   1.479  10.905 -0.2495 -0.0594 -0.8003
   83TCq2    C2 1265   1.324   1.609  11.056 -0.1068  0.4140  0.5615
   83TCq2    C3 1266   1.456   1.645  11.078 -0.2303  0.3188  0.2643
   83TCq2    C4 1267   1.474   1.719  11.195  0.5252 -0.1530  0.3778
   83TCq2    C5 1268   1.376   1.742  11.288  0.0313 -1.0625 -0.1196
   83TCq2    C6 1269   1.251   1.705  11.256  0.0546  0.1905 -0.4147
   83TCq2    C7 1270   1.218   1.638  11.136  0.3231  0.0957 -0.6008
   83TCq2    C8 1271   1.144   1.690  11.359  0.2703  0.1030 -0.0562
   83TCq2    O4 1272   1.057   1.611  11.325  0.0629  0.2110  0.0326
   83TCq2    C9 1273   1.606   1.750  11.237  0.6637 -0.0619 -0.2071
   83TCq2    O5 1274   1.621   1.778  11.359 -1.0652 -0.1224 -0.0692
   83TCq2    O6 1275   1.700   1.719  11.165 -0.6321 -0.6068 -0.0840
   83TCq2    H2 1276   1.545   1.610  11.027 -0.5164  1.6669 -1.1467
   83TCq2    H3 1277   1.408   1.791  11.379  1.2159 -2.3476  0.1480
   83TCq2    H4 1278   1.123   1.600  11.102 -0.3411  0.6978  0.6131
   84TCq2    C1 1279   2.103   1.218  10.810 -0.1291  0.7759  0.2078
   84TCq2    O2 1280   2.129   1.323  10.872 -0.4491 -0.2649 -0.5539
   84TCq2    C2 1281   1.981   1.155  10.841 -0.1712  0.8321 -0.6391
   84TCq2    C3 1282   1.933   1.042  10.776  0.3489  0.1050  0.2564
   84TCq2    C4 1283   1.802   1.002  10.790 -0.9353 -0.3992  0.1830
   84TCq2    C5 1284   1.713   1.075  10.862  0.1773 -0.0040  1.0412
   84TCq2    C6 1285   1.761   1.182  10.932  0.4241 -0.1107  0.2567
   84TCq2    C7 1286   1.896   1.228  10.919  0.4383 -0.0206 -0.2645
   84TCq2    C8 1287   1.671   1.267  11.009 -0.5415  0.4706 -0.1477
   84TCq2    O4 1288   1.701   1.380  11.039 -0.0509 -0.6810 -0.3251
   84TCq2    C9 1289   1.753   0.891  10.711  0.0724  0.3308 -0.5389
   84TCq2    O5 1290   1.821   0.871  10.602 -0.3439 -0.2199 -0.5591
   84TCq2    O6 1291   1.647   0.834  10.750  0.2954 -0.1557 -0.1849
   84TCq2    H2 1292   1.991   0.970  10.720 -1.4720 -1.0006 -0.2298
   84TCq2    H3 1293   1.608   1.049  10.852  0.5142 -1.8213  2.4184
   84TCq2    H4 1294   1.918   1.317  10.977  1.9032  0.7692 -2.0221
   85MPD2     C 1295   2.312   3.530  16.300 -0.3569 -0.1324 -0.4042
   85MPD2    C1 1296   2.265   3.523  16.172 -0.6333 -0.3452  0.7100
   85MPD2    C2 1297   2.288   3.635  16.086  0.3163 -0.2204  0.3259
   85MPD2    C3 1298   2.377   3.736  16.124 -0.2040  0.5987 -0.1902
   85MPD2    C4 1299   2.431   3.726  16.248  0.7795  0.0682  0.2024
   85MPD2    C5 1300   2.401   3.621  16.331 -0.1635  0.1867  0.1998
   85MPD2     H 1301   2.242   3.638  15.988  0.7042 -1.9068  0.0888
   85MPD2    H1 1302   2.501   3.797  16.290 -0.1322  0.1489  1.5755
   85MPD2    H2 1303   2.303   3.458  16.380 -0.7352 -0.0088 -0.3322
   85MPD2    H3 1304   2.443   3.626  16.431  0.0103  0.7797  0.0997
   85MPD2     N 1305   2.396   3.842  16.038 -0.2098  0.8656 -0.6223
   85MPD2    H5 1306   2.333   3.859  15.960  0.3647 -0.7615 -1.4378
   85MPD2    N1 1307   2.179   3.423  16.128 -0.7551  0.2726 -0.3187
   85MPD2    H7 1308   2.146   3.427  16.032 -1.7272  0.0493  0.0082
   86TCq2    C1 1309   2.472   3.948  16.066  0.0430  0.2932  0.0745
   86TCq2    O2 1310   2.550   3.975  16.155 -0.1336  0.3088 -0.3514
   86TCq2    C2 1311   2.438   4.053  15.977 -0.3333  0.3146  0.2122
   86TCq2    C3 1312   2.456   4.186  16.015  0.2738  0.3043 -0.5477
   86TCq2    C4 1313   2.492   4.277  15.918 -0.2352 -0.5613 -0.1847
   86TCq2    C5 1314   2.513   4.245  15.787 -0.4001  0.2701 -0.3339
   86TCq2    C6 1315   2.501   4.112  15.752 -0.9558 -0.2370  0.5065
   86TCq2    C7 1316   2.452   4.025  15.839 -0.7258 -0.6349  1.1909
   86TCq2    C8 1317   2.558   4.057  15.632 -0.3896 -0.2094 -0.4547
   86TCq2    O4 1318   2.501   3.967  15.577 -0.0465  0.5099  0.1046
   86TCq2    C9 1319   2.514   4.412  15.958  0.4764  0.3982  0.4690
   86TCq2    O5 1320   2.526   4.444  16.081  1.1535  0.0165  0.3783
   86TCq2    O6 1321   2.547   4.494  15.863 -0.0369  0.3097 -0.0678
   86TCq2    H2 1322   2.457   4.216  16.119 -3.8669  3.1433 -1.3384
   86TCq2    H3 1323   2.549   4.311  15.710  0.4917 -0.2856 -0.4019
   86TCq2    H4 1324   2.453   3.922  15.807  0.6999  0.3503 -1.9467
   87MPD2     C 1325   4.671   2.883   1.337  0.0002  0.0477 -0.0935
   87MPD2    C1 1326   0.025   2.959   1.252 -0.3235  0.4513  0.5584
   87MPD2    C2 1327   4.694   3.008   1.134 -0.5990  0.7561  0.6463
   87MPD2    C3 1328   4.561   3.003   1.116 -0.7453  0.1949 -0.6446
   87MPD2    C4 1329   4.480   2.934   1.203 -0.4571 -0.5642 -0.9888
   87MPD2    C5 1330   4.538   2.867   1.310 -0.3885 -0.0676 -0.6233
   87MPD2     H 1331   0.037   3.059   1.066  0.1261 -0.2739  0.5709
   87MPD2    H1 1332   4.373   2.928   1.189 -0.6699  2.6051 -0.8258
   87MPD2    H2 1333   4.715   2.824   1.417  0.3148  0.0128 -0.2936
   87MPD2    H3 1334   4.469   2.809   1.369 -2.0064  1.7008 -0.7589
   87MPD2     N 1335   4.494   3.069   1.008  0.5045 -0.3960  0.2101
   87MPD2    H5 1336   4.393   3.060   1.006  0.3251  1.6597  0.3200
   87MPD2    N1 1337   0.162   2.985   1.274  0.0912  0.2079  0.6058
   87MPD2    H7 1338   0.215   3.014   1.192  2.2593  0.3059  2.0400
   88TCq2    C1 1339   0.240   2.949   1.383  0.7693  0.1278 -0.7327
   88TCq2    O2 1340   0.200   2.951   1.497  0.3356 -0.0997 -0.0679
   88TCq2    C2 1341   0.385   2.969   1.357 -0.1697  0.3440  0.0453
   88TCq2    C3 1342   0.467   3.031   1.455  0.2978 -0.4023 -0.1145
   88TCq2    C4 1343   0.596   3.055   1.424 -0.1606 -0.0957  0.2712
   88TCq2    C5 1344   0.650   3.028   1.304 -0.3976  0.0681 -0.1197
   88TCq2    C6 1345   0.569   2.983   1.204 -0.0867 -0.4992  0.2346
   88TCq2    C7 1346   0.438   2.937   1.233 -0.8009  0.7974 -0.0451
   88TCq2    C8 1347   0.622   2.963   1.071 -0.2107  0.1885 -0.1984
   88TCq2    O4 1348   0.745   2.953   1.065  0.3876 -0.1963  0.3267
   88TCq2    C9 1349   0.693   3.107   1.516 -0.5082  0.6424 -0.2010
   88TCq2    O5 1350   0.811   3.136   1.478  0.2078  0.1778  0.1510
   88TCq2    O6 1351   0.656   3.121   1.637  0.1958  0.2311  0.5037
   88TCq2    H2 1352   0.422   3.060   1.549  1.0155 -0.4259  0.2306
   88TCq2    H3 1353   0.754   3.046   1.280 -0.6535  0.1969 -1.1136
   88TCq2    H4 1354   0.375   2.905   1.152  2.9621 -2.5435 -1.6258
   89MPD2     C 1355   0.105   3.600   1.652  0.3450  0.2841 -0.2735
   89MPD2    C1 1356   0.070   3.693   1.554 -0.8301 -0.2354  0.5670
   89MPD2    C2 1357   0.151   3.790   1.511 -0.1153 -0.3310  0.0426
   89MPD2    C3 1358   0.278   3.797   1.572 -0.7519 -0.1918  0.2912
   89MPD2    C4 1359   0.312   3.703   1.672 -0.0486 -0.1978  0.3453
   89MPD2    C5 1360   0.223   3.610   1.713 -0.0681 -0.3194  0.2684
   89MPD2     H 1361   0.111   3.858   1.437 -2.0362 -0.9642  0.4855
   89MPD2    H1 1362   0.411   3.698   1.716  0.7052  3.3118 -0.9538
   89MPD2    H2 1363   0.049   3.516   1.691  0.9490  0.3412  0.7057
   89MPD2    H3 1364   0.259   3.542   1.790 -0.7360 -1.3717 -0.3614
   89MPD2     N 1365   0.363   3.899   1.527  0.2177  0.2048  0.5121
   89MPD2    H5 1366   0.329   3.967   1.459 -0.9889 -0.0672  0.8320
   89MPD2    N1 1367   4.666   3.693   1.502  0.3529  0.2529  0.3989
   89MPD2    H7 1368   4.636   3.768   1.440 -0.6876 -1.5465 -1.2886
   90TCq2    C1 1369   0.489   3.923   1.584 -0.4915  0.1544 -0.1092
   90TCq2    O2 1370   0.536   3.873   1.683 -0.0019 -0.2282  0.3385
   90TCq2    C2 1371   0.564   4.038   1.535  0.4428 -0.5284 -0.9467
   90TCq2    C3 1372   0.685   4.059   1.588 -0.1620  0.3333 -0.3640
   90TCq2    C4 1373   0.751   4.176   1.547  0.0572 -0.1524  0.7863
   90TCq2    C5 1374   0.691   4.267   1.467 -0.1528  0.2430  0.4953
   90TCq2    C6 1375   0.568   4.226   1.414  0.8409 -0.4073 -0.1712
   90TCq2    C7 1376   0.504   4.116   1.442 -0.1329 -0.5579 -0.1643
   90TCq2    C8 1377   0.506   4.319   1.319 -0.4163  0.1574  0.7124
   90TCq2    O4 1378   0.383   4.316   1.311 -0.3435 -0.5405  0.3856
   90TCq2    C9 1379   0.887   4.201   1.593  0.0560 -0.2411 -0.1118
   90TCq2    O5 1380   0.941   4.303   1.543 -0.0941  0.4125  0.3940
   90TCq2    O6 1381   0.924   4.139   1.691  0.2931  0.1881 -0.0411
   90TCq2    H2 1382   0.726   3.989   1.659 -0.7360 -0.7563 -1.1090
   90TCq2    H3 1383   0.752   4.355   1.454 -0.0451 -0.2023 -1.9097
   90TCq2    H4 1384   0.403   4.104   1.405 -0.6995  0.4489  1.0130
   91TMC2    C1 1385   2.394   0.231  16.611  0.4728 -0.3801 -0.0366
   91TMC2    C2 1386   2.414   0.312  16.720 -0.2759 -0.2027  0.2970
   91TMC2    C3 1387   2.323   0.308  16.826 -0.6769  0.4787  0.3639
   91TMC2    C4 1388   2.288   0.142  16.611 -0.1626 -0.6252  0.9784
   91TMC2    C5 1389   2.199   0.143  16.719  0.5074  0.2446 -0.0755
   91TMC2    C6 1390   2.225   0.214  16.831 -0.3320  0.1324  0.4712
   91TMC2     C 1391   2.464   0.253  16.482  0.2785  0.4429 -0.2823
   91TMC2     O 1392   2.431   0.173  16.394  0.6738  0.5709  0.5079
   91TMC2     H 1393   2.509   0.364  16.728 -0.2725 -0.4664  2.1250
   91TMC2    H1 1394   2.281   0.069  16.531 -1.3791  2.3373 -1.6251
   91TMC2    H2 1395   2.154   0.214  16.913  0.3113  0.4657  1.0286
   91TMC2    C7 1396   2.072   0.082  16.703 -0.3327 -1.3748 -0.4466
   91TMC2    C8 1397   2.347   0.380  16.946 -0.4899  0.1147  0.5382
   91TMC2    O1 1398   2.000   0.069  16.802 -0.4993 -0.2876  0.4517
   91TMC2    O2 1399   2.277   0.365  17.042 -0.3931 -0.6501 -0.0263
   91TMC2    O5 1400   2.418   0.484  16.920  0.4540 -0.2749 -0.1188
   91TMC2    H5 1401   2.449   0.500  16.828 -0.4639  1.4643 -0.1279
   92MPD2     C 1402   2.610   0.321  16.244 -0.4961 -0.1676 -0.2683
   92MPD2    C1 1403   2.630   0.389  16.365 -0.3859 -0.3214 -0.1415
   92MPD2    C2 1404   2.725   0.481  16.371 -0.0474 -0.0438 -0.6040
   92MPD2    C3 1405   2.800   0.516  16.266  0.0733 -0.3418 -0.2973
   92MPD2    C4 1406   2.788   0.452  16.145 -0.6667  0.2295 -0.3532
   92MPD2    C5 1407   2.700   0.353  16.139 -0.3453  0.0300 -0.3480
   92MPD2     H 1408   2.741   0.525  16.468 -1.2923  0.5428 -0.6592
   92MPD2    H1 1409   2.849   0.462  16.056  3.9154 -0.0092  2.7346
   92MPD2    H2 1410   2.546   0.236  16.224 -1.8220  1.0034 -1.0217
   92MPD2    H3 1411   2.705   0.302  16.043  0.7341 -2.2931  0.9379
   92MPD2     N 1412   2.897   0.610  16.289  0.1512  0.5412 -0.1017
   92MPD2    H5 1413   2.916   0.648  16.382  1.1530 -1.0339  0.3434
   92MPD2    N1 1414   2.556   0.356  16.482  0.0460 -0.3347  0.1905
   92MPD2    H7 1415   2.570   0.424  16.556  0.2101  0.1913 -0.3306
   93MPD2     C 1416   3.808   4.295  13.259 -0.3002 -0.3050  0.2069
   93MPD2    C1 1417   3.784   4.317  13.398  0.0121  0.1124  0.4189
   93MPD2    C2 1418   3.664   4.272  13.445 -0.0356  0.6654 -0.6022
   93MPD2    C3 1419   3.575   4.208  13.359 -0.0890  0.6430 -0.0061
   93MPD2    C4 1420   3.600   4.181  13.229 -0.2786  0.4102  0.1167
   93MPD2    C5 1421   3.716   4.236  13.175  0.3236 -1.4411 -0.2257
   93MPD2     H 1422   3.636   4.291  13.548 -0.8003 -0.8012 -0.5402
   93MPD2    H1 1423   3.531   4.136  13.159 -0.9411  0.1566  0.9311
   93MPD2    H2 1424   3.895   4.324  13.202  1.0488 -1.2146  1.7870
   93MPD2    H3 1425   3.733   4.232  13.068  0.1992  0.0244 -0.3069
   93MPD2     N 1426   3.446   4.168  13.397 -0.2910 -0.8518 -0.3997
   93MPD2    H5 1427   3.377   4.144  13.326 -1.2067  1.3404 -0.2597
   93MPD2    N1 1428   3.870   4.394  13.484  0.0182  0.9225  0.3649
   93MPD2    H7 1429   3.840   4.419  13.578 -0.4134 -2.7422  1.1858
   94TCq2    C1 1430   3.990   4.446  13.440 -0.1704 -0.2024 -1.0795
   94TCq2    O2 1431   4.050   4.429  13.333 -0.2076 -0.5453  0.1610
   94TCq2    C2 1432   4.035   4.546  13.532 -0.2967 -0.4541 -0.0817
   94TCq2    C3 1433   3.950   4.616  13.612 -0.0109  0.1773 -0.0112
   94TCq2    C4 1434   3.994   0.003  13.673 -0.1029  0.7024  0.0849
   94TCq2    C5 1435   4.113   0.062  13.648  1.0772  0.3087 -0.9621
   94TCq2    C6 1436   4.200   4.711  13.574  1.1573  0.3888 -0.9083
   94TCq2    C7 1437   4.167   4.589  13.519  0.5829 -1.1529  0.3300
   94TCq2    C8 1438   4.340   0.004  13.601  0.6688 -0.0787 -0.0476
   94TCq2    O4 1439   4.431   4.672  13.538  0.0853  0.2488 -0.2642
   94TCq2    C9 1440   3.901   0.082  13.751  0.0324 -0.4012 -0.3461
   94TCq2    O5 1441   3.796   0.028  13.795 -0.7035 -0.0886 -0.4278
   94TCq2    O6 1442   3.930   0.205  13.770  0.1675  0.5287 -0.4065
   94TCq2    H2 1443   3.850   4.573  13.621 -0.1406  0.6838  0.9185
   94TCq2    H3 1444   4.133   0.166  13.671  0.1325  0.6025 -1.4876
   94TCq2    H4 1445   4.236   4.550  13.445  1.0473  0.2327  0.0371
   95TMC2    C1 1446   3.753   1.599  15.942 -0.4716  0.1474  0.1375
   95TMC2    C2 1447   3.804   1.634  16.060 -0.3174  0.3449 -0.0714
   95TMC2    C3 1448   3.724   1.719  16.136  0.8913  0.2404  0.0694
   95TMC2    C4 1449   3.627   1.622  15.900  0.2518  0.1903  0.1463
   95TMC2    C5 1450   3.549   1.703  15.982 -0.5207  0.0590  0.7282
   95TMC2    C6 1451   3.595   1.757  16.104  0.0887 -0.0562  1.0055
   95TMC2     C 1452   3.847   1.562  15.836 -0.9207  0.0026 -0.6093
   95TMC2     O 1453   3.965   1.588  15.857  0.3571  0.4479  0.2865
   95TMC2     H 1454   3.903   1.600  16.086 -1.8673 -2.7420  1.7550
   95TMC2    H1 1455   3.577   1.596  15.807 -0.2439  0.7892  0.2524
   95TMC2    H2 1456   3.537   1.814  16.174 -0.0299  0.9904  0.0454
   95TMC2    C7 1457   3.420   1.750  15.943  0.0656 -0.3272  0.6785
   95TMC2    C8 1458   3.768   1.741  16.269 -0.1612  0.4652  0.0704
   95TMC2    O1 1459   3.352   1.776  16.042 -0.2058 -0.4463 -0.3412
   95TMC2    O2 1460   3.685   1.767  16.354  0.2006  0.3482 -0.2007
   95TMC2    O5 1461   3.895   1.780  16.261 -0.0799 -0.4545 -0.4095
   95TMC2    H5 1462   3.920   1.802  16.169 -1.3955 -2.2688 -1.2022
   96MPD2     C 1463   3.968   1.445  15.359 -0.0030 -0.2415 -0.6171
   96MPD2    C1 1464   4.034   1.529  15.445  0.1909 -0.5585 -0.3341
   96MPD2    C2 1465   3.968   1.559  15.568 -0.3947  0.3996  0.0390
   96MPD2    C3 1466   3.857   1.483  15.605  0.5460  0.5444  0.2294
   96MPD2    C4 1467   3.801   1.396  15.513 -0.9246  0.2367 -0.5918
   96MPD2    C5 1468   3.848   1.383  15.389  0.3487 -0.0037  0.2256
   96MPD2     H 1469   4.014   1.635  15.629 -1.4912 -1.5574  3.2729
   96MPD2    H1 1470   3.705   1.350  15.533  0.4495 -2.2307  0.3334
   96MPD2    H2 1471   4.015   1.434  15.262 -2.5160 -0.4330 -1.8129
   96MPD2    H3 1472   3.786   1.342  15.310 -0.9182  0.0793  1.1670
   96MPD2     N 1473   3.789   1.496  15.726 -0.1960  0.3483 -0.4171
   96MPD2    H5 1474   3.694   1.461  15.731  1.1255 -3.5092 -1.7963
   96MPD2    N1 1475   4.152   1.594  15.406  0.0097  0.1118 -0.2013
   96MPD2    H7 1476   4.171   1.584  15.306  1.3040  1.2702 -0.0630
   97MPD2     C 1477   1.115   4.426   0.632  0.5411  0.6220  0.6053
   97MPD2    C1 1478   1.249   4.470   0.608  0.6781 -0.2092  0.4665
   97MPD2    C2 1479   1.283   4.559   0.505 -0.5244 -0.0817 -1.0177
   97MPD2    C3 1480   1.177   4.601   0.418  0.8636  0.4634  0.0361
   97MPD2    C4 1481   1.048   4.551   0.441  0.5081 -0.3047 -0.4616
   97MPD2    C5 1482   1.015   4.473   0.547  0.3615  0.8240 -0.4025
   97MPD2     H 1483   1.387   4.586   0.490 -0.5776  0.8188  0.2268
   97MPD2    H1 1484   0.974   4.572   0.365 -0.6675  2.6592  1.4625
   97MPD2    H2 1485   1.088   4.360   0.713 -0.7874 -1.2831 -1.3811
   97MPD2    H3 1486   0.913   4.440   0.561 -0.0885  1.5095 -2.0370
   97MPD2     N 1487   1.189   4.690   0.310 -0.3224  0.1909 -0.2813
   97MPD2    H5 1488   1.109   4.724   0.257 -0.7238 -0.8646 -0.3415
   97MPD2    N1 1489   1.349   4.421   0.694  0.4136 -0.0195  0.0272
   97MPD2    H7 1490   1.321   4.358   0.769 -1.5885  2.5944  1.4626
   98TCq2    C1 1491   1.306   0.022   0.271  0.4450  0.5216 -0.0456
   98TCq2    O2 1492   1.418   0.017   0.312  0.0542  0.0670  0.2562
   98TCq2    C2 1493   1.297   0.098   0.144  0.1070  0.3684  0.1638
   98TCq2    C3 1494   1.189   0.079   0.057 -0.1194 -0.1690 -0.2341
   98TCq2    C4 1495   1.182   0.149  17.635 -0.4910 -0.4079 -0.3767
   98TCq2    C5 1496   1.266   0.254  17.618 -0.0315  0.3378  0.5508
   98TCq2    C6 1497   1.364   0.283   0.016 -0.1010 -0.0700  0.0290
   98TCq2    C7 1498   1.376   0.206   0.127 -1.2143 -0.3818 -0.0652
   98TCq2    C8 1499   1.477   0.369   0.002  0.2133 -0.6152 -0.1227
   98TCq2    O4 1500   1.583   0.312   0.030 -0.1091  0.2508 -0.0643
   98TCq2    C9 1501   1.089   0.113  17.535 -0.6002  0.4320  0.0923
   98TCq2    O5 1502   1.091   0.175  17.423 -0.1068 -0.1779 -1.0154
   98TCq2    O6 1503   1.011   0.015  17.556  0.1013  0.3005  0.0352
   98TCq2    H2 1504   1.123   4.719   0.077  1.0871 -1.0220  0.1431
   98TCq2    H3 1505   1.252   0.298  17.520 -1.8084  0.4622  0.8633
   98TCq2    H4 1506   1.452   0.236   0.198 -2.3333  0.6057  0.7168
   99MPD2     C 1507   0.734   1.910   0.523  0.2988  0.1227 -0.4471
   99MPD2    C1 1508   0.803   1.878   0.636  0.6679  0.2620 -1.0194
   99MPD2    C2 1509   0.865   1.753   0.650 -0.0346  0.8175  0.4305
   99MPD2    C3 1510   0.857   1.662   0.552 -0.1476 -0.3556 -0.2263
   99MPD2    C4 1511   0.797   1.694   0.436 -0.1704 -0.1146  0.6589
   99MPD2    C5 1512   0.719   1.810   0.425 -0.6748 -0.4235  0.2833
   99MPD2     H 1513   0.924   1.725   0.736  0.6006  0.5323 -0.0922
   99MPD2    H1 1514   0.793   1.642   0.340 -1.6303 -1.9250  1.6863
   99MPD2    H2 1515   0.673   2.000   0.519  0.1261 -0.0135 -0.9808
   99MPD2    H3 1516   0.655   1.827   0.339  1.4344  1.2703 -0.9268
   99MPD2     N 1517   0.910   1.534   0.579 -0.2143 -0.2794  0.0084
   99MPD2    H5 1518   0.934   1.520   0.676 -1.1369  0.6260  0.3661
   99MPD2    N1 1519   0.798   1.963   0.751  0.1399  0.1766  0.3619
   99MPD2    H7 1520   0.861   1.945   0.828  1.7562  1.3944 -0.6889
  100TCq2    C1 1521   0.698   2.059   0.776  0.3023  0.7448 -0.4863
  100TCq2    O2 1522   0.583   2.062   0.743  0.1659 -0.4740  0.2009
  100TCq2    C2 1523   0.734   2.149   0.887 -0.5310  0.0034 -0.2163
  100TCq2    C3 1524   0.864   2.197   0.904  0.1867 -0.4360 -0.1579
  100TCq2    C4 1525   0.889   2.274   1.015 -0.2312 -1.7457 -0.7091
  100TCq2    C5 1526   0.793   2.306   1.103 -0.4971 -0.5898  0.2250
  100TCq2    C6 1527   0.666   2.258   1.079  0.7815  0.5500 -0.4522
  100TCq2    C7 1528   0.631   2.188   0.969 -0.1800 -0.3433 -0.4137
  100TCq2    C8 1529   0.569   2.280   1.190 -0.1728  0.1874  0.0931
  100TCq2    O4 1530   0.610   2.353   1.284 -0.4016  0.5778  0.1574
  100TCq2    C9 1531   1.028   2.325   1.034  0.2650  0.8165  0.1126
  100TCq2    O5 1532   1.113   2.297   0.947  0.4356  0.0181  0.3734
  100TCq2    O6 1533   1.056   2.363   1.151  0.1154 -0.2000  0.0219
  100TCq2    H2 1534   0.945   2.165   0.839  0.2895  1.3538 -0.8881
  100TCq2    H3 1535   0.818   2.359   1.194 -1.2282 -1.3001  0.8433
  100TCq2    H4 1536   0.528   2.161   0.949 -0.4997  0.2955  0.3643
  101MPD2     C 1537   0.954   2.841  12.781 -1.2392 -0.1550  0.4117
  101MPD2    C1 1538   1.079   2.865  12.833  0.5350  0.1780  0.2574
  101MPD2    C2 1539   1.118   2.809  12.958  0.3460 -0.3049  0.5860
  101MPD2    C3 1540   1.031   2.721  13.016  0.4485  0.6741  0.5375
  101MPD2    C4 1541   0.911   2.690  12.959 -0.0161  0.4679 -0.3726
  101MPD2    C5 1542   0.872   2.756  12.846  0.5202 -0.0429  0.0246
  101MPD2     H 1543   1.206   2.841  13.013  0.3097 -2.1620  1.7683
  101MPD2    H1 1544   0.842   2.624  13.011 -0.9148  1.1959 -0.6558
  101MPD2    H2 1545   0.922   2.880  12.685  2.6389 -1.8011 -1.5327
  101MPD2    H3 1546   0.771   2.735  12.811  0.4658 -0.6013  0.4951
  101MPD2     N 1547   1.054   2.653  13.139  0.2697  0.2708 -0.8359
  101MPD2    H5 1548   0.975   2.595  13.167 -1.2944  1.8543 -1.9571
  101MPD2    N1 1549   1.172   2.939  12.759  0.7136 -0.2919  0.0640
  101MPD2    H7 1550   1.142   3.009  12.692  0.9203 -0.6146 -0.3632
  102TCq2    C1 1551   1.681   3.037  12.465 -0.0826  0.4338 -0.0431
  102TCq2    O2 1552   1.741   3.132  12.416  0.3404 -0.5738  0.4304
  102TCq2    C2 1553   1.553   3.066  12.531  0.0331  0.3214  0.5630
  102TCq2    C3 1554   1.522   3.200  12.537 -0.1404 -0.2540 -0.2765
  102TCq2    C4 1555   1.411   3.230  12.604 -0.1135  0.0328  0.3183
  102TCq2    C5 1556   1.332   3.139  12.673  0.4232 -0.8738 -0.1826
  102TCq2    C6 1557   1.378   3.006  12.678 -0.0101 -0.4000 -0.5363
  102TCq2    C7 1558   1.487   2.968  12.606 -0.6038  0.2111 -0.4718
  102TCq2    C8 1559   1.310   2.910  12.765 -0.1350  0.2063  1.3449
  102TCq2    O4 1560   1.366   2.810  12.806  0.2504 -0.1903 -0.3312
  102TCq2    C9 1561   1.376   3.375  12.621 -0.4816 -0.7237  0.0227
  102TCq2    O5 1562   1.452   3.457  12.563  0.0180 -0.4944  0.0949
  102TCq2    O6 1563   1.288   3.402  12.707 -0.0545 -0.4794 -0.0205
  102TCq2    H2 1564   1.569   3.278  12.479 -0.1152  0.8609  1.2220
  102TCq2    H3 1565   1.263   3.181  12.746  2.2951  1.4899  0.2280
  102TCq2    H4 1566   1.515   2.864  12.609  0.1518  0.3706 -2.1068
  103TMC2    C1 1567   0.129   2.400  12.336  0.6238  0.1594  1.0619
  103TMC2    C2 1568   0.185   2.499  12.263 -0.4639 -0.0878  0.2640
  103TMC2    C3 1569   0.269   2.593  12.325  0.2625 -0.4171 -0.0374
  103TMC2    C4 1570   0.137   2.407  12.472 -0.4549 -0.0406 -0.0427
  103TMC2    C5 1571   0.219   2.497  12.534 -0.3372  0.0509 -0.0886
  103TMC2    C6 1572   0.293   2.591  12.459  0.2775 -0.4636 -0.7528
  103TMC2     C 1573   0.008   2.346  12.280  0.1419  0.8138 -0.2210
  103TMC2     O 1574   4.670   2.410  12.198  0.4542  0.0888  0.0097
  103TMC2     H 1575   0.166   2.507  12.156  1.3530 -2.7504 -0.2572
  103TMC2    H1 1576   0.078   2.334  12.525 -0.6277  0.7484  0.8742
  103TMC2    H2 1577   0.345   2.673  12.506  1.0380  0.3403 -3.0148
  103TMC2    C7 1578   0.173   2.533  12.663 -0.1771  0.2471  0.2530
  103TMC2    C8 1579   0.344   2.693  12.251  0.4813  0.3441  0.0015
  103TMC2    O1 1580   0.069   2.482  12.704 -0.0782  0.0126  0.0273
  103TMC2    O2 1581   0.406   2.787  12.298 -0.1941 -0.1283  0.1597
  103TMC2    O5 1582   0.346   2.661  12.118 -0.4650 -0.6666 -0.2267
  103TMC2    H5 1583   0.343   2.564  12.104  2.3985 -0.8039  0.2039
  104MPD2     C 1584   4.618   2.005  12.316 -0.6049  0.5269 -0.7770
  104MPD2    C1 1585   4.605   2.134  12.280 -0.3010 -0.1007 -0.3549
  104MPD2    C2 1586   4.491   2.175  12.210 -0.1130 -0.6060 -0.5312
  104MPD2    C3 1587   4.410   2.081  12.153  0.6855 -0.0650  0.0151
  104MPD2    C4 1588   4.427   1.949  12.191  0.4617 -0.3260  0.9299
  104MPD2    C5 1589   4.526   1.910  12.278  0.5180  0.0253 -0.0726
  104MPD2     H 1590   4.473   2.281  12.197 -2.6031 -0.9963 -0.2578
  104MPD2    H1 1591   4.355   1.872  12.165 -0.6080  1.7274 -2.2093
  104MPD2    H2 1592   4.702   1.968  12.372  1.3187  1.7440 -2.8416
  104MPD2    H3 1593   4.537   1.810  12.316  2.6128  0.3381  0.1155
  104MPD2     N 1594   4.318   2.120  12.056  0.1800 -0.8302  0.0880
  104MPD2    H5 1595   4.311   2.219  12.036  1.3477 -1.0213 -1.2624
  104MPD2    N1 1596   4.706   2.214  12.326  0.4625  0.3524 -0.1729
  104MPD2    H7 1597   0.052   2.165  12.382 -0.3686 -0.4997  0.1057
  105MPD2     C 1598   1.040   2.181  17.552 -0.3429  0.1959 -0.2122
  105MPD2    C1 1599   0.985   2.306  17.536  0.1158  0.0069 -0.1304
  105MPD2    C2 1600   0.997   2.399  17.636  0.6036  0.6248 -0.2807
  105MPD2    C3 1601   1.073   2.380   0.055 -0.0990  0.1772 -0.0370
  105MPD2    C4 1602   1.128   2.250   0.067 -0.7189 -0.0330  0.5938
  105MPD2    C5 1603   1.117   2.158  17.666  0.1026  0.1860 -0.2482
  105MPD2     H 1604   0.951   2.495  17.620  2.1262  1.2234 -1.0630
  105MPD2    H1 1605   1.187   2.217   0.152  1.3087 -1.7091 -1.4521
  105MPD2    H2 1606   1.011   2.088  17.504  1.0524  0.1172 -0.9036
  105MPD2    H3 1607   1.162   2.062  17.687 -1.3048 -0.5261 -0.4731
  105MPD2     N 1608   1.073   2.468   0.163 -0.0303  0.4879  0.1902
  105MPD2    H5 1609   1.011   2.548   0.159  0.2564  0.7610  1.1656
  105MPD2    N1 1610   0.879   2.335  17.437  0.3425 -0.2184 -0.3972
  105MPD2    H7 1611   0.817   2.412  17.461  1.5273  0.7551 -0.4471
  106TCq2    C1 1612   1.150   2.449   0.275  0.0967  0.2788 -0.0009
  106TCq2    O2 1613   1.252   2.390   0.297  0.1641 -0.1637 -0.0864
  106TCq2    C2 1614   1.115   2.560   0.358  0.6154  0.1399 -0.5232
  106TCq2    C3 1615   1.209   2.591   0.456 -1.0376  0.3648 -0.1206
  106TCq2    C4 1616   1.179   2.693   0.540  0.1645  0.0181  0.2432
  106TCq2    C5 1617   1.057   2.755   0.543 -0.2858  0.0218 -0.1246
  106TCq2    C6 1618   0.971   2.728   0.445 -0.7751  0.7830  0.7582
  106TCq2    C7 1619   0.998   2.631   0.346 -0.4254 -0.3606  0.0858
  106TCq2    C8 1620   0.833   2.767   0.463 -0.1670  0.4138  0.1256
  106TCq2    O4 1621   0.762   2.752   0.364 -0.1085 -0.1524 -0.3427
  106TCq2    C9 1622   1.279   2.718   0.642  0.4175  0.2605 -0.3627
  106TCq2    O5 1623   1.386   2.649   0.639  0.1692 -0.2099 -0.4932
  106TCq2    O6 1624   1.247   2.787   0.741  0.0053 -0.4047  0.6337
  106TCq2    H2 1625   1.311   2.553   0.452 -0.4653  1.8980 -0.0099
  106TCq2    H3 1626   1.046   2.837   0.613 -0.8997 -0.4169  0.2914
  106TCq2    H4 1627   0.916   2.610   0.278 -1.1782  2.6058  0.0936
  107TMC2    C1 1628   1.449   1.533  11.871 -0.2304  0.2365  0.0399
  107TMC2    C2 1629   1.532   1.635  11.841 -0.3288  0.4100  0.3456
  107TMC2    C3 1630   1.541   1.684  11.710  0.5225 -0.2430  0.4615
  107TMC2    C4 1631   1.372   1.482  11.773 -0.1491  0.9839  0.1736
  107TMC2    C5 1632   1.391   1.520  11.646  0.4126 -0.2366 -0.0893
  107TMC2    C6 1633   1.480   1.617  11.608 -0.1233  0.9598 -0.4761
  107TMC2     C 1634   1.414   1.507  12.005 -0.5284  0.1611 -0.0321
  107TMC2     O 1635   1.312   1.438  12.026  0.1201  0.1630 -0.1629
  107TMC2     H 1636   1.578   1.687  11.924  1.0895  0.7087 -0.6277
  107TMC2    H1 1637   1.309   1.394  11.780  2.7628 -1.2254 -0.8585
  107TMC2    H2 1638   1.470   1.670  11.514  0.7200 -0.8972 -1.6063
  107TMC2    C7 1639   1.328   1.455  11.534  0.2304  0.5792  0.3025
  107TMC2    C8 1640   1.577   1.822  11.711  0.0660 -0.6392  0.1234
  107TMC2    O1 1641   1.216   1.410  11.563 -0.0201  0.6583 -0.0344
  107TMC2    O2 1642   1.554   1.879  11.818  0.3568  1.0477 -0.4838
  107TMC2    O5 1643   1.581   1.879  11.585  0.3462  0.1780  0.3987
  107TMC2    H5 1644   1.605   1.823  11.508  1.1690  1.1540 -0.0557
  108MPD2     C 1645   1.626   1.472  12.312 -0.5026 -0.2622 -0.1031
  108MPD2    C1 1646   1.511   1.487  12.235 -0.0742  0.1528  0.9472
  108MPD2    C2 1647   1.390   1.487  12.305  0.1036  0.2193 -1.0527
  108MPD2    C3 1648   1.382   1.479  12.444 -0.2993  0.4490 -0.0080
  108MPD2    C4 1649   1.496   1.465  12.511 -0.5465  0.3238  0.5653
  108MPD2    C5 1650   1.614   1.462  12.445  0.5794  0.9207 -0.5145
  108MPD2     H 1651   1.300   1.505  12.247 -0.2613  0.9042 -0.2764
  108MPD2    H1 1652   1.498   1.450  12.619 -1.9333 -0.1681  0.5270
  108MPD2    H2 1653   1.726   1.473  12.270 -1.0919  0.6943 -1.4936
  108MPD2    H3 1654   1.709   1.464  12.497 -0.2315 -1.4914  1.0391
  108MPD2     N 1655   1.258   1.477  12.517 -0.0302 -0.7129 -0.1435
  108MPD2    H5 1656   1.274   1.461  12.616 -2.1294 -0.0558  0.3043
  108MPD2    N1 1657   1.519   1.514  12.095  0.2986 -0.2491  0.2136
  108MPD2    H7 1658   1.609   1.531  12.053  0.5370  0.5346  1.0343
  109MPD2     C 1659   2.330   4.422   2.221  0.4584  0.6585  0.0625
  109MPD2    C1 1660   2.266   4.386   2.100 -0.4794 -0.1520 -0.7731
  109MPD2    C2 1661   2.193   4.483   2.032  0.0006  0.1516  0.1160
  109MPD2    C3 1662   2.203   4.614   2.067  0.4270  0.0937 -0.5127
  109MPD2    C4 1663   2.266   4.651   2.188  0.0443  0.5575 -0.0916
  109MPD2    C5 1664   2.325   4.551   2.267 -0.4419 -0.5808  0.1492
  109MPD2     H 1665   2.157   4.470   1.931 -1.9482  1.5461  0.6321
  109MPD2    H1 1666   2.264   0.029   2.223  0.1796  0.2424  0.8360
  109MPD2    H2 1667   2.386   4.346   2.275 -0.5737  0.2436  0.5619
  109MPD2    H3 1668   2.369   4.570   2.364 -0.4878 -1.5709  0.3633
  109MPD2     N 1669   2.137   4.694   1.971 -0.7413  0.4071  0.1745
  109MPD2    H5 1670   2.091   4.642   1.897 -1.7518  2.6413 -0.7724
  109MPD2    N1 1671   2.284   4.264   2.032  0.4520  0.0335 -0.0685
  109MPD2    H7 1672   2.246   4.264   1.938 -0.3944  1.0735  0.2637
  110TCq2    C1 1673   2.133   0.107   1.978 -0.6968  0.0121  0.3447
  110TCq2    O2 1674   2.187   0.185   2.056  0.4583  0.0999  0.7780
  110TCq2    C2 1675   2.069   0.165   1.860  0.3413  0.2379 -0.3105
  110TCq2    C3 1676   2.065   0.302   1.863 -0.0073 -0.1846  0.0655
  110TCq2    C4 1677   2.018   0.364   1.750  0.0065  0.3024  0.3357
  110TCq2    C5 1678   2.004   0.289   1.638 -0.3251  0.1913 -0.1037
  110TCq2    C6 1679   2.020   0.151   1.638 -0.2469 -0.1223 -0.4691
  110TCq2    C7 1680   2.044   0.085   1.748  0.4744  0.0311 -0.8882
  110TCq2    C8 1681   1.988   0.075   1.520  0.5204  0.2366  0.7570
  110TCq2    O4 1682   1.955   4.681   1.524 -0.6035  0.0699  0.1902
  110TCq2    C9 1683   2.000   0.504   1.748 -0.9296  0.9799 -0.0366
  110TCq2    O5 1684   1.982   0.564   1.855 -0.2690 -0.6521  0.4895
  110TCq2    O6 1685   2.003   0.550   1.631 -0.1699 -0.5140 -0.0180
  110TCq2    H2 1686   2.090   0.353   1.955 -0.4203  0.6172 -0.2681
  110TCq2    H3 1687   1.973   0.332   1.543 -1.9120  2.0379  1.2480
  110TCq2    H4 1688   2.042   4.701   1.739 -0.4549  0.1285 -1.8239
  111TMC2    C1 1689   2.073   3.831  11.313 -0.0594 -0.3442 -0.6082
  111TMC2    C2 1690   1.989   3.913  11.385  0.6572  0.0089 -0.4079
  111TMC2    C3 1691   2.010   3.928  11.519 -0.2625 -0.3448  0.0901
  111TMC2    C4 1692   2.186   3.788  11.365  0.0817 -0.2633  0.2782
  111TMC2    C5 1693   2.198   3.805  11.499  0.4382 -0.3702 -0.1816
  111TMC2    C6 1694   2.115   3.872  11.583  0.1709  0.3139  0.1691
  111TMC2     C 1695   2.013   3.744  11.212 -0.1982 -0.3794  0.2965
  111TMC2     O 1696   1.898   3.701  11.219 -0.0384 -0.0432 -0.3691
  111TMC2     H 1697   1.888   3.925  11.349  0.1338 -3.3070 -0.0833
  111TMC2    H1 1698   2.251   3.738  11.294 -1.3825  0.6881 -1.7339
  111TMC2    H2 1699   2.132   3.873  11.690 -1.0233 -0.4433  0.3780
  111TMC2    C7 1700   2.289   3.708  11.567 -0.5193 -1.1504 -0.4910
  111TMC2    C8 1701   1.915   3.993  11.599  0.3354  0.1259 -0.0882
  111TMC2    O1 1702   2.269   3.683  11.685  0.1407  0.0592  0.5985
  111TMC2    O2 1703   1.863   4.100  11.572  0.6160  0.2088  0.5831
  111TMC2    O5 1704   1.863   3.902  11.687 -0.5158  0.4120 -0.1854
  111TMC2    H5 1705   1.894   3.809  11.693 -1.1115  0.1152 -1.6703
  112MPD2     C 1706   2.013   3.596  10.731 -0.2547 -0.6303 -0.1960
  112MPD2    C1 1707   1.952   3.542  10.835  0.2428  0.1024  0.1186
  112MPD2    C2 1708   1.977   3.590  10.961 -0.4082  0.1473  0.4045
  112MPD2    C3 1709   2.065   3.694  10.972 -0.3303 -0.1545 -0.0442
  112MPD2    C4 1710   2.128   3.748  10.861  0.9557  0.1649 -0.8159
  112MPD2    C5 1711   2.104   3.701  10.741  0.5740 -0.2890  0.3323
  112MPD2     H 1712   1.920   3.565  11.050 -2.9093  1.1089 -0.9497
  112MPD2    H1 1713   2.180   3.843  10.864  1.7621 -0.2647 -1.2852
  112MPD2    H2 1714   2.011   3.564  10.628 -2.9908 -0.6016 -0.1496
  112MPD2    H3 1715   2.136   3.755  10.653  1.8619 -1.8054 -0.1166
  112MPD2     N 1716   2.093   3.757  11.094  0.1174 -0.1995  0.1889
  112MPD2    H5 1717   2.184   3.802  11.098  0.1632 -0.2740 -0.0172
  112MPD2    N1 1718   1.855   3.434  10.820 -0.4882 -0.1618 -0.7260
  112MPD2    H7 1719   1.834   3.381  10.904 -1.4220  0.5538 -0.5170
  113MPD2     C 1720   4.484   2.029   0.805  0.0177  0.7215 -0.3655
  113MPD2    C1 1721   4.382   2.053   0.892  0.2875 -0.8526  0.3628
  113MPD2    C2 1722   4.276   1.961   0.904 -0.4656  0.1241  0.3185
  113MPD2    C3 1723   4.287   1.846   0.829 -1.0293 -0.8975  0.4355
  113MPD2    C4 1724   4.383   1.828   0.731  0.3287 -0.9373 -0.1528
  113MPD2    C5 1725   4.479   1.925   0.722  0.5037 -0.3505  0.5159
  113MPD2     H 1726   4.185   1.989   0.955 -0.8636 -2.2220  0.9008
  113MPD2    H1 1727   4.387   1.735   0.675  1.7180 -0.2944 -1.0898
  113MPD2    H2 1728   4.569   2.095   0.798  1.3719 -0.8549  1.3111
  113MPD2    H3 1729   4.557   1.913   0.648 -1.6183 -0.1120 -1.7695
  113MPD2     N 1730   4.188   1.753   0.837  0.6908  0.0857  0.9321
  113MPD2    H5 1731   4.188   1.671   0.777  0.7176  0.7629 -0.0000
  113MPD2    N1 1732   4.367   2.174   0.969 -0.3674 -0.4096 -0.2006
  113MPD2    H7 1733   4.273   2.193   1.003 -0.8578 -0.5745 -1.4305
  114TCq2    C1 1734   4.093   1.745   0.942 -0.5429 -0.3562  0.1511
  114TCq2    O2 1735   4.067   1.817   1.039 -0.3334 -0.1286  0.7182
  114TCq2    C2 1736   4.013   1.627   0.916 -0.1674 -0.2129  0.1590
  114TCq2    C3 1737   3.995   1.587   0.787 -0.4454 -0.1629 -0.2046
  114TCq2    C4 1738   3.952   1.460   0.765 -0.5361  0.2575  0.3477
  114TCq2    C5 1739   3.959   1.360   0.865  0.4027  0.1647 -1.0465
  114TCq2    C6 1740   3.989   1.404   0.988 -0.6208 -0.7531 -0.4158
  114TCq2    C7 1741   4.013   1.536   1.015 -0.1309 -0.3776  0.2948
  114TCq2    C8 1742   4.004   1.304   1.095  0.2281 -0.0471  0.1490
  114TCq2    O4 1743   4.047   1.342   1.203 -0.1280  0.5727 -0.2149
  114TCq2    C9 1744   3.921   1.431   0.624 -0.3890 -1.1744  0.3699
  114TCq2    O5 1745   3.943   1.312   0.590  0.2324  0.9522 -0.1947
  114TCq2    O6 1746   3.895   1.521   0.543 -0.1656 -0.4213  0.6798
  114TCq2    H2 1747   4.009   1.651   0.700 -3.0410  2.2186  1.1116
  114TCq2    H3 1748   3.959   1.256   0.836  1.9834  0.0960 -0.7962
  114TCq2    H4 1749   4.038   1.569   1.115  2.0848  0.4205 -0.5300
  115TMC2    C1 1750   0.063   4.189  17.191  0.5098 -0.3975 -0.4023
  115TMC2    C2 1751   0.180   4.135  17.240 -0.8011 -0.2961  0.4434
  115TMC2    C3 1752   0.285   4.210  17.272 -0.3337 -0.5218  0.4019
  115TMC2    C4 1753   0.058   4.322  17.156 -0.6235 -0.0625  0.0953
  115TMC2    C5 1754   0.171   4.392  17.176  0.5035  0.4346 -0.4029
  115TMC2    C6 1755   0.285   4.344  17.238 -0.4202  0.7309  0.2121
  115TMC2     C 1756   4.682   4.093  17.160  0.0886  0.4095  0.3977
  115TMC2     O 1757   4.714   3.980  17.148 -0.3608  0.9669  0.2557
  115TMC2     H 1758   0.185   4.028  17.254  0.3786 -0.2625  0.2315
  115TMC2    H1 1759   4.704   4.364  17.093  0.3118  0.5670 -0.6274
  115TMC2    H2 1760   0.372   4.407  17.248 -0.4775  0.7798  0.4111
  115TMC2    C7 1761   0.180   4.519  17.108 -0.1961 -0.2362  0.4333
  115TMC2    C8 1762   0.409   4.151  17.315  0.0485 -0.5716  0.7211
  115TMC2    O1 1763   0.075   4.583  17.088 -0.2951  0.3789 -0.4103
  115TMC2    O2 1764   0.517   4.201  17.281 -0.0426  0.0552 -0.0264
  115TMC2    O5 1765   0.390   4.078  17.425  0.0105  0.1013  0.9584
  115TMC2    H5 1766   0.296   4.067  17.450 -0.7338  2.2263 -0.8594
  116MPD2     C 1767   4.192   3.965  17.138  0.1057  0.0399 -0.4955
  116MPD2    C1 1768   4.302   3.888  17.115 -0.2920 -0.4928  0.5938
  116MPD2    C2 1769   4.425   3.946  17.122  0.9537 -0.1979  0.4061
  116MPD2    C3 1770   4.439   4.081  17.150  0.0752  0.1118  0.5628
  116MPD2    C4 1771   4.325   4.154  17.163 -0.1153  0.6082  0.2196
  116MPD2    C5 1772   4.199   4.098  17.157  0.0411  0.1147  0.2972
  116MPD2     H 1773   4.507   3.882  17.091 -0.3229 -1.8721  0.4855
  116MPD2    H1 1774   4.320   4.257  17.195 -2.0417  0.1328  1.3864
  116MPD2    H2 1775   4.091   3.925  17.135  0.5176 -0.8365 -2.3616
  116MPD2    H3 1776   4.108   4.155  17.168  0.7681  1.7850 -2.4482
  116MPD2     N 1777   4.557   4.151  17.155  0.6505 -0.3603 -0.6631
  116MPD2    H5 1778   4.550   4.252  17.159 -2.4608 -0.5210 -1.5227
  116MPD2    N1 1779   4.273   3.744  17.092 -0.4365  0.3456 -0.2790
  116MPD2    H7 1780   4.183   3.719  17.052  0.1231  1.4455 -2.2507
  117TMC2    C1 1781   3.322   0.198  13.580 -0.5421  0.3973 -0.3159
  117TMC2    C2 1782   3.351   0.102  13.666 -0.6880 -0.4961  0.1719
  117TMC2    C3 1783   3.477   0.046  13.670 -0.2933  0.3862  0.0495
  117TMC2    C4 1784   3.421   0.259  13.510 -0.2305 -0.9514  0.0201
  117TMC2    C5 1785   3.541   0.198  13.509  0.4394 -0.2868  0.5628
  117TMC2    C6 1786   3.583   0.092  13.589  0.7076  0.5653  0.6888
  117TMC2     C 1787   3.205   0.273  13.619 -0.4554 -0.4447  0.1631
  117TMC2     O 1788   3.111   0.210  13.664  0.1699 -0.3809 -0.3125
  117TMC2     H 1789   3.270   0.060  13.724 -0.6730 -0.6426  0.0857
  117TMC2    H1 1790   3.407   0.337  13.435 -0.0055  1.9477  2.9896
  117TMC2    H2 1791   3.686   0.057  13.588  0.3073 -0.6209 -0.0100
  117TMC2    C7 1792   3.653   0.280  13.448 -0.6668 -0.2258 -1.0432
  117TMC2    C8 1793   3.484   4.636  13.719 -1.2287 -0.2346  0.4126
  117TMC2    O1 1794   3.759   0.219  13.427 -0.1377 -0.0045  0.3349
  117TMC2    O2 1795   3.390   4.561  13.716  0.3641 -0.6395  0.6041
  117TMC2    O5 1796   3.616   4.597  13.723 -0.0161  0.1047 -0.2481
  117TMC2    H5 1797   3.680   4.667  13.749  1.4850 -0.6974 -1.7671
  118MPD2     C 1798   3.761   0.448  13.238  0.5506  0.3262 -0.5283
  118MPD2    C1 1799   3.699   0.495  13.347 -0.1079  0.0737  0.3473
  118MPD2    C2 1800   3.697   0.633  13.368  0.5101  0.1826 -0.2360
  118MPD2    C3 1801   3.781   0.712  13.288  0.2022  0.2370  0.2795
  118MPD2    C4 1802   3.829   0.662  13.171 -0.0540 -0.3694 -0.2711
  118MPD2    C5 1803   3.823   0.532  13.157  1.0424 -0.1778 -0.1367
  118MPD2     H 1804   3.647   0.685  13.449  1.3607  0.2952  0.2165
  118MPD2    H1 1805   3.884   0.715  13.093 -0.0704  2.6205  1.7458
  118MPD2    H2 1806   3.772   0.341  13.220 -1.2341 -0.4130  2.6821
  118MPD2    H3 1807   3.867   0.487  13.069 -0.3897  0.6347 -1.2662
  118MPD2     N 1808   3.786   0.850  13.298 -0.2393  0.0916  0.3369
  118MPD2    H5 1809   3.818   0.902  13.217 -0.3507  0.2567  0.3984
  118MPD2    N1 1810   3.632   0.416  13.439 -0.5502 -0.0424 -0.0892
  118MPD2    H7 1811   3.560   0.458  13.497 -0.9596 -0.1345 -0.5333
  119MPD2     C 1812   2.535   2.010  14.011 -1.1181 -0.3577 -0.2766
  119MPD2    C1 1813   2.399   2.032  14.021 -0.0674  0.1846 -1.3245
  119MPD2    C2 1814   2.324   2.010  13.903 -0.7051  0.1408 -1.0985
  119MPD2    C3 1815   2.377   1.953  13.791 -0.5041 -0.2928 -0.5143
  119MPD2    C4 1816   2.505   1.914  13.790 -0.8789 -0.5106  0.4316
  119MPD2    C5 1817   2.584   1.951  13.891 -0.2214  0.3225 -0.0773
  119MPD2     H 1818   2.224   2.053  13.899 -1.0995 -1.0043 -4.0871
  119MPD2    H1 1819   2.544   1.856  13.708 -1.6017  0.0694 -0.3193
  119MPD2    H2 1820   2.602   2.014  14.095  0.0636  2.7038 -1.3662
  119MPD2    H3 1821   2.682   1.905  13.881  1.0622  3.0502 -0.1158
  119MPD2     N 1822   2.299   1.909  13.679  0.3425  0.7559 -0.1573
  119MPD2    H5 1823   2.343   1.853  13.606 -1.2502 -0.5306 -0.1288
  119MPD2    N1 1824   2.347   2.082  14.141 -0.1873 -0.5972  0.3707
  119MPD2    H7 1825   2.412   2.102  14.216 -0.4380 -2.3948  1.0532
  120TCq2    C1 1826   2.163   1.909  13.673 -0.6347  0.2178  0.3734
  120TCq2    O2 1827   2.084   1.919  13.767 -0.0430  1.0104  0.2889
  120TCq2    C2 1828   2.113   1.861  13.539  0.8990 -0.1702 -0.2562
  120TCq2    C3 1829   2.193   1.875  13.435  0.4550 -0.3300  0.7420
  120TCq2    C4 1830   2.134   1.843  13.315  0.2466 -1.1351  0.8212
  120TCq2    C5 1831   2.007   1.810  13.298  0.2924 -0.3433 -0.2556
  120TCq2    C6 1832   1.939   1.783  13.411  0.1876  0.3016  0.0935
  120TCq2    C7 1833   1.990   1.813  13.535 -1.2978  0.2215 -0.0717
  120TCq2    C8 1834   1.800   1.767  13.392 -0.0476  0.5076  0.0636
  120TCq2    O4 1835   1.756   1.781  13.281 -0.2858  1.3755  0.2354
  120TCq2    C9 1836   2.219   1.858  13.194  0.5257 -0.1216  0.0718
  120TCq2    O5 1837   2.347   1.860  13.213  0.4309 -0.0586 -0.0083
  120TCq2    O6 1838   2.160   1.882  13.083  0.2234  0.7120  0.0094
  120TCq2    H2 1839   2.290   1.922  13.442  0.8666 -1.1351  0.4151
  120TCq2    H3 1840   1.972   1.789  13.198 -0.3333 -2.0210  0.3268
  120TCq2    H4 1841   1.932   1.811  13.627 -0.8938  0.7190  0.1912
  121TMC2    C1 1842   3.455   3.635  13.606 -0.5243  0.7512  0.4419
  121TMC2    C2 1843   3.578   3.601  13.660 -0.8378 -0.3221  0.5319
  121TMC2    C3 1844   3.581   3.492  13.742 -0.1421 -0.2623  0.6720
  121TMC2    C4 1845   3.338   3.580  13.646  0.1958  0.8555  0.2011
  121TMC2    C5 1846   3.353   3.471  13.730 -0.1844 -0.7867  0.0005
  121TMC2    C6 1847   3.473   3.432  13.779 -0.8032 -0.3507 -0.2091
  121TMC2     C 1848   3.444   3.726  13.491  0.0151 -0.1319 -0.3987
  121TMC2     O 1849   3.344   3.791  13.476 -0.0113 -0.3689  0.3959
  121TMC2     H 1850   3.667   3.652  13.624  0.6418 -0.6313  3.7214
  121TMC2    H1 1851   3.245   3.603  13.595 -0.3554  3.0383  2.1899
  121TMC2    H2 1852   3.485   3.340  13.836 -1.9751 -0.6943 -0.5183
  121TMC2    C7 1853   3.234   3.405  13.780  0.3414  1.0880 -0.2902
  121TMC2    C8 1854   3.703   3.459  13.809  0.5013  0.0706  0.4861
  121TMC2    O1 1855   3.257   3.350  13.889  0.2160  0.0416 -0.4239
  121TMC2    O2 1856   3.708   3.368  13.887 -0.2387 -0.6437  0.0866
  121TMC2    O5 1857   3.807   3.490  13.723 -0.5143  0.0217 -0.1634
  121TMC2    H5 1858   3.776   3.527  13.637 -0.0867 -1.1345 -0.8133
  122MPD2     C 1859   3.483   3.859  13.232  0.7242 -0.2863  0.5315
  122MPD2    C1 1860   3.554   3.749  13.274  0.0810  0.8609 -0.1073
  122MPD2    C2 1861   3.628   3.680  13.181 -0.4455  0.3626 -0.4950
  122MPD2    C3 1862   3.625   3.712  13.047  1.7429 -0.0985 -0.1406
  122MPD2    C4 1863   3.537   3.813  12.997 -0.7863  0.4349  0.2655
  122MPD2    C5 1864   3.472   3.879  13.094 -0.0619 -0.5105 -0.1796
  122MPD2     H 1865   3.688   3.601  13.226  1.3726  2.1406  0.2053
  122MPD2    H1 1866   3.522   3.833  12.892 -0.5930  1.7173  0.4848
  122MPD2    H2 1867   3.426   3.917  13.303 -0.3682  0.2683 -0.8026
  122MPD2    H3 1868   3.391   3.939  13.054  1.4247  1.9755  0.5772
  122MPD2     N 1869   3.705   3.659  12.943  0.1043 -0.3530  0.3342
  122MPD2    H5 1870   3.684   3.685  12.848 -0.2060 -1.0642  0.2100
  122MPD2    N1 1871   3.551   3.706  13.406  0.4244 -0.7824 -0.5918
  122MPD2    H7 1872   3.623   3.639  13.431  2.8033  1.1330 -2.2455
  123MPD2     C 1873   2.253   0.565   9.303  0.0486 -0.0563  1.2121
  123MPD2    C1 1874   2.190   0.686   9.323 -0.6706  0.2701  0.7276
  123MPD2    C2 1875   2.258   0.779   9.397 -0.9133 -0.2845  0.9924
  123MPD2    C3 1876   2.380   0.752   9.460  0.5660 -0.2328  0.0146
  123MPD2    C4 1877   2.433   0.626   9.447  0.7379 -0.3814  0.4526
  123MPD2    C5 1878   2.370   0.535   9.363 -0.2027  0.5398 -0.9123
  123MPD2     H 1879   2.213   0.871   9.433  0.1066  0.3535  0.6279
  123MPD2    H1 1880   2.527   0.593   9.491  0.2228 -0.5460  1.4302
  123MPD2    H2 1881   2.209   0.481   9.252 -0.4581  1.9116 -1.5685
  123MPD2    H3 1882   2.424   0.442   9.348  0.2132  0.6370  0.0128
  123MPD2     N 1883   2.437   0.857   9.532  0.4842  0.4342  0.1775
  123MPD2    H5 1884   2.377   0.939   9.533  2.2311  1.7215 -1.2667
  123MPD2    N1 1885   2.064   0.715   9.264  0.0244  0.5406 -0.3887
  123MPD2    H7 1886   2.034   0.634   9.210  0.8187  0.8170 -1.2266
  124TCq2    C1 1887   2.555   0.865   9.602  0.4644  0.1313 -0.3957
  124TCq2    O2 1888   2.643   0.782   9.601  0.3355 -0.7319  0.1326
  124TCq2    C2 1889   2.556   0.992   9.671 -0.2269 -0.2752  0.0084
  124TCq2    C3 1890   2.679   1.050   9.682  0.5191 -0.6479 -0.3701
  124TCq2    C4 1891   2.686   1.173   9.742 -0.3051  0.1485 -0.0283
  124TCq2    C5 1892   2.573   1.244   9.785 -0.7867 -0.0413 -0.5386
  124TCq2    C6 1893   2.446   1.183   9.763  0.5897  0.4927 -0.0733
  124TCq2    C7 1894   2.440   1.055   9.707  0.5788 -1.2658  0.1082
  124TCq2    C8 1895   2.343   1.265   9.814  0.4746 -0.6878  0.5427
  124TCq2    O4 1896   2.371   1.371   9.865 -0.4434  0.4417  0.0052
  124TCq2    C9 1897   2.812   1.224   9.769 -0.2870 -0.6545 -0.5717
  124TCq2    O5 1898   2.910   1.159   9.716 -0.3132  0.8925  0.2190
  124TCq2    O6 1899   2.836   1.328   9.830  0.1568  0.0908  0.0918
  124TCq2    H2 1900   2.767   0.992   9.656 -1.1383 -3.0904 -0.5132
  124TCq2    H3 1901   2.580   1.341   9.833 -1.3534  0.1764 -0.8866
  124TCq2    H4 1902   2.347   1.006   9.685 -0.3178  1.2785 -1.8089
  125TMC2    C1 1903   1.391   2.674   9.055  0.6545 -0.6385 -0.8810
  125TMC2    C2 1904   1.282   2.705   9.129  0.0468  0.2261 -0.3776
  125TMC2    C3 1905   1.282   2.828   9.186 -0.5408  0.0726 -0.3846
  125TMC2    C4 1906   1.497   2.767   9.024 -0.0203 -0.0620  0.8081
  125TMC2    C5 1907   1.494   2.882   9.102  0.5811  0.0988 -0.6743
  125TMC2    C6 1908   1.388   2.918   9.183 -0.4294 -0.1172 -0.7240
  125TMC2     C 1909   1.374   2.552   8.979  0.8722 -0.0338 -0.4477
  125TMC2     O 1910   1.262   2.503   8.966 -0.3736  0.0396  0.1835
  125TMC2     H 1911   1.198   2.639   9.142  1.1199 -1.0732  0.0143
  125TMC2    H1 1912   1.573   2.739   8.952  0.6006 -0.0738  1.4636
  125TMC2    H2 1913   1.396   2.986   9.267  0.1637  0.6113 -1.3607
  125TMC2    C7 1914   1.609   2.971   9.098  0.2878  0.0873 -0.2777
  125TMC2    C8 1915   1.196   2.840   9.302  0.0556 -0.5817  0.7361
  125TMC2    O1 1916   1.587   3.069   9.169 -0.4498  0.2396 -0.7517
  125TMC2    O2 1917   1.133   2.747   9.356  0.3494 -0.9442  0.2612
  125TMC2    O5 1918   1.148   2.964   9.275  0.5300 -0.6501  0.3123
  125TMC2    H5 1919   1.191   2.992   9.192  0.8705 -1.5919  0.1644
  126MPD1     C 1920   1.580   2.154   8.731  0.4517  0.3704  0.1154
  126MPD1    C1 1921   1.690   2.206   8.806  0.3520  0.0386 -0.2677
  126MPD1    C2 1922   1.663   2.325   8.871 -0.1702 -0.5787 -0.5063
  126MPD1    C3 1923   1.530   2.375   8.879  0.0238 -0.0186  0.4148
  126MPD1    C4 1924   1.423   2.315   8.817  0.0624  0.0410 -0.7382
  126MPD1    C5 1925   1.451   2.197   8.749 -0.2251 -0.1288 -0.9034
  126MPD1     H 1926   1.744   2.379   8.919 -1.1030 -1.3048  1.8891
  126MPD1    H1 1927   1.322   2.352   8.813  0.8860  2.3906  0.5463
  126MPD1    H2 1928   1.588   2.065   8.669  1.0813 -0.2731  1.1252
  126MPD1    H3 1929   1.371   2.149   8.694 -0.0728  1.8791 -2.8650
  126MPD1     N 1930   1.500   2.494   8.951  0.4837 -0.1665 -0.2316
  126MPD1    H5 1931   1.583   2.545   8.982 -1.5634  3.4468 -0.7228
  126MPD1    N1 1932   1.823   2.176   8.774  0.8471  1.0096 -0.2387
  126MPD1    H6 1933   1.887   2.201   8.849  1.6345  1.6560 -1.1266
  126MPD1    H7 1934   1.825   2.076   8.760 -1.4128  0.8368  0.7025
  127MPD2     C 1935   3.470   1.813   9.138 -0.3972  0.0424  0.7444
  127MPD2    C1 1936   3.575   1.865   9.215 -0.1156 -0.5224 -0.3804
  127MPD2    C2 1937   3.598   2.001   9.205  1.1456 -0.4648 -0.4864
  127MPD2    C3 1938   3.498   2.079   9.143  0.0457 -0.5379 -0.1067
  127MPD2    C4 1939   3.390   2.021   9.083  0.0549  0.3546 -0.3825
  127MPD2    C5 1940   3.374   1.887   9.072  1.0373  0.0884  0.2428
  127MPD2     H 1941   3.678   2.055   9.254 -0.6062  0.1796  1.6424
  127MPD2    H1 1942   3.322   2.087   9.030 -1.5444  0.2393  1.5662
  127MPD2    H2 1943   3.450   1.706   9.144  1.7899 -0.3648  0.8367
  127MPD2    H3 1944   3.282   1.849   9.029  1.9378  0.0608 -1.6397
  127MPD2     N 1945   3.520   2.217   9.155  0.6281 -0.1169 -0.0371
  127MPD2    H5 1946   3.599   2.248   9.210 -0.5918  0.2262  1.5248
  127MPD2    N1 1947   3.655   1.770   9.276 -0.1741  0.9248  0.7235
  127MPD2    H7 1948   3.634   1.672   9.259 -0.4699  0.9272  1.0861
  128TCq2    C1 1949   3.765   1.799   9.352 -0.0682  0.4248  0.4934
  128TCq2    O2 1950   3.834   1.902   9.363 -0.4990  0.5321 -0.1551
  128TCq2    C2 1951   3.822   1.684   9.419 -0.0425  0.3990  0.5810
  128TCq2    C3 1952   3.953   1.697   9.459  0.2753  0.3220 -0.7394
  128TCq2    C4 1953   4.014   1.587   9.510 -0.2641  0.2872  0.4231
  128TCq2    C5 1954   3.951   1.466   9.502 -0.1202 -0.2666 -0.1805
  128TCq2    C6 1955   3.821   1.460   9.469 -0.1812  0.1788  0.8840
  128TCq2    C7 1956   3.746   1.571   9.424  0.1479  0.2522  0.0119
  128TCq2    C8 1957   3.750   1.338   9.480 -0.1672  0.3338 -0.3707
  128TCq2    O4 1958   3.650   1.323   9.412 -0.3600  0.1393  0.0265
  128TCq2    C9 1959   4.156   1.593   9.542  0.4006 -0.4818  0.9793
  128TCq2    O5 1960   4.223   1.489   9.558 -0.0148  0.0253 -0.2848
  128TCq2    O6 1961   4.197   1.715   9.546  0.2246  0.0582  0.1393
  128TCq2    H2 1962   4.004   1.792   9.454  1.6268 -0.3914 -0.6786
  128TCq2    H3 1963   4.003   1.377   9.534  1.4501  0.7894  0.2132
  128TCq2    H4 1964   3.638   1.568   9.416  0.3077 -0.7363 -1.8050
  129MPD2     C 1965   3.054   3.199   1.684 -0.0450  0.0990  0.2433
  129MPD2    C1 1966   2.925   3.247   1.706  0.1243  0.3783  0.7462
  129MPD2    C2 1967   2.865   3.333   1.610 -0.1481  0.2765  0.8810
  129MPD2    C3 1968   2.922   3.342   1.488 -0.0031  0.5471 -0.0576
  129MPD2    C4 1969   3.038   3.276   1.461  0.7980 -0.3535 -0.4351
  129MPD2    C5 1970   3.113   3.212   1.559 -0.0592  0.5286  0.1652
  129MPD2     H 1971   2.775   3.391   1.630 -1.0243 -1.3411  1.6993
  129MPD2    H1 1972   3.081   3.277   1.362  1.5137 -1.6059 -0.1344
  129MPD2    H2 1973   3.114   3.131   1.745  1.1913  0.4812 -0.5362
  129MPD2    H3 1974   3.207   3.163   1.540  1.4227  3.5833 -0.3685
  129MPD2     N 1975   2.852   3.411   1.383  0.0162  0.5271 -0.1504
  129MPD2    H5 1976   2.775   3.467   1.416 -0.1246 -0.2157  0.7890
  129MPD2    N1 1977   2.862   3.236   1.836  0.1655  0.0627  0.2612
  129MPD2    H7 1978   2.781   3.297   1.845  1.0736  1.2426  0.3345
  130TCq2    C1 1979   2.907   3.163   1.944  0.0939  0.1946 -0.0939
  130TCq2    O2 1980   3.009   3.095   1.955 -0.0703  0.2775  0.3861
  130TCq2    C2 1981   2.823   3.161   2.054  0.6950 -0.5469  0.3149
  130TCq2    C3 1982   2.881   3.128   2.173  0.1382  0.0582  0.0452
  130TCq2    C4 1983   2.808   3.127   2.294 -0.6143 -0.8181  0.2267
  130TCq2    C5 1984   2.674   3.121   2.277 -0.9341  0.7433 -0.1951
  130TCq2    C6 1985   2.616   3.128   2.150 -0.2410  0.3260  0.3901
  130TCq2    C7 1986   2.690   3.155   2.039 -0.1281  0.2926  0.1007
  130TCq2    C8 1987   2.484   3.075   2.128 -0.2219 -0.4071 -0.1199
  130TCq2    O4 1988   2.434   3.113   2.021 -0.3445  0.3005 -0.6377
  130TCq2    C9 1989   2.877   3.111   2.416 -0.7649  0.1132  0.7003
  130TCq2    O5 1990   2.997   3.071   2.409 -0.2135 -0.1984  0.1028
  130TCq2    O6 1991   2.801   3.101   2.516 -0.1008  0.4207 -0.6186
  130TCq2    H2 1992   2.989   3.127   2.166  0.2345 -1.2140  1.6262
  130TCq2    H3 1993   2.613   3.113   2.366 -2.9271 -1.7656 -1.7937
  130TCq2    H4 1994   2.647   3.166   1.940  1.4256 -0.8240 -0.7039
  131MPD2     C 1995   1.491   1.549   9.302 -0.3548 -0.4052 -0.7426
  131MPD2    C1 1996   1.602   1.510   9.367 -0.0440 -1.2699 -0.3034
  131MPD2    C2 1997   1.646   1.379   9.358  0.3521  0.2175  0.1183
  131MPD2    C3 1998   1.588   1.293   9.265 -0.0423  0.0194 -0.0512
  131MPD2    C4 1999   1.478   1.337   9.195  0.0347 -0.8639  0.4752
  131MPD2    C5 2000   1.433   1.461   9.217 -0.5370 -0.3569  0.1279
  131MPD2     H 2001   1.719   1.338   9.427 -1.4865  0.3373  2.1058
  131MPD2    H1 2002   1.421   1.271   9.129  0.8535  0.9198 -2.0089
  131MPD2    H2 2003   1.438   1.642   9.318 -1.0724 -0.8852 -0.3568
  131MPD2    H3 2004   1.349   1.497   9.158 -0.3045  1.4933  0.9426
  131MPD2     N 2005   1.639   1.160   9.258 -0.0607  0.1761 -0.0877
  131MPD2    H5 2006   1.734   1.150   9.292  0.8788 -1.3996 -3.1242
  131MPD2    N1 2007   1.656   1.608   9.459  0.1010 -0.2000 -0.7896
  131MPD2    H7 2008   1.600   1.692   9.465  0.6590  0.1039  0.1450
  132TCq2    C1 2009   2.073   1.839   9.820 -0.3176 -0.0521  0.0008
  132TCq2    O2 2010   2.157   1.757   9.779 -0.5011  0.4534  0.3191
  132TCq2    C2 2011   1.935   1.827   9.759 -0.3435 -0.2370 -0.0060
  132TCq2    C3 2012   1.837   1.905   9.800 -0.5399  0.6878  0.2649
  132TCq2    C4 2013   1.714   1.889   9.752 -0.5422 -0.5415 -0.1205
  132TCq2    C5 2014   1.684   1.786   9.667  0.3706 -0.0205 -0.3070
  132TCq2    C6 2015   1.789   1.700   9.626  0.2001  0.4327  0.3251
  132TCq2    C7 2016   1.914   1.721   9.675  1.1072  0.2988 -0.4630
  132TCq2    C8 2017   1.772   1.596   9.528  0.0425 -0.2616 -0.0958
  132TCq2    O4 2018   1.854   1.506   9.517 -0.2004  0.1791  0.0432
  132TCq2    C9 2019   1.618   1.982   9.809  0.4006 -0.4546  0.6711
  132TCq2    O5 2020   1.502   1.946   9.798 -0.5123 -0.1623  0.3960
  132TCq2    O6 2021   1.659   2.101   9.832  0.0004  0.2514  0.9103
  132TCq2    H2 2022   1.856   1.986   9.869  0.9218  1.3233 -0.8699
  132TCq2    H3 2023   1.585   1.788   9.623  0.0655  1.4447  0.4585
  132TCq2    H4 2024   1.997   1.661   9.642  0.6193  0.1499 -1.4288
  133MPD2     C 2025   1.398   2.884   8.703 -1.1357 -0.4398  0.5312
  133MPD2    C1 2026   1.320   2.946   8.804 -0.3858  0.2048 -0.2359
  133MPD2    C2 2027   1.202   2.894   8.851  0.4031 -0.2681  0.5225
  133MPD2    C3 2028   1.162   2.774   8.796  0.3624  0.7797 -0.8846
  133MPD2    C4 2029   1.225   2.719   8.691  0.7780  0.3970 -0.4371
  133MPD2    C5 2030   1.345   2.774   8.646 -0.1883 -0.3694  0.1347
  133MPD2     H 2031   1.145   2.949   8.926  0.1882  0.7378 -0.3735
  133MPD2    H1 2032   1.182   2.632   8.642  0.4537 -0.5070  1.4544
  133MPD2    H2 2033   1.499   2.913   8.678 -1.3959 -2.2445 -2.5586
  133MPD2    H3 2034   1.392   2.730   8.559  0.3766 -0.6524  0.5780
  133MPD2     N 2035   1.052   2.700   8.843  0.1432  0.1263  0.4518
  133MPD2    H5 2036   1.032   2.614   8.794  0.5471  0.1549  0.2383
  133MPD2    N1 2037   1.372   3.069   8.860  0.0635  0.2162  0.3617
  133MPD2    H7 2038   1.446   3.104   8.801  1.8726  0.8622  2.9780
  134TCq2    C1 2039   1.318   3.139   8.970  0.3883 -1.4159 -0.7120
  134TCq2    O2 2040   1.229   3.106   9.048 -0.4081 -0.0935 -0.2271
  134TCq2    C2 2041   1.380   3.271   9.004  0.1612  0.0098 -0.1470
  134TCq2    C3 2042   1.466   3.333   8.918  0.0297 -0.1259  0.1133
  134TCq2    C4 2043   1.522   3.458   8.944  0.0875  0.5397 -0.0393
  134TCq2    C5 2044   1.507   3.506   9.069 -0.8217  0.6691  0.0943
  134TCq2    C6 2045   1.431   3.438   9.161 -0.7207 -0.4798  0.5920
  134TCq2    C7 2046   1.363   3.324   9.128  0.2338  0.1859 -0.3382
  134TCq2    C8 2047   1.462   3.465   9.303  0.7961 -0.1812 -0.2692
  134TCq2    O4 2048   1.396   3.405   9.388 -0.1368 -0.0447  0.4205
  134TCq2    C9 2049   1.625   3.512   8.857 -0.6639  0.1298 -0.7722
  134TCq2    O5 2050   1.632   3.465   8.738  0.0695 -0.3493 -0.4079
  134TCq2    O6 2051   1.705   3.588   8.909 -0.0245  0.1050 -0.2593
  134TCq2    H2 2052   1.471   3.292   8.818  0.7187 -1.1834  0.5877
  134TCq2    H3 2053   1.542   3.607   9.089 -1.2073  0.2465  2.9223
  134TCq2    H4 2054   1.311   3.277   9.211  1.6756 -1.5593 -0.4193
  135MPD2     C 2055   3.589   3.094   9.208  0.3036 -0.4381 -0.5604
  135MPD2    C1 2056   3.464   3.160   9.202  0.5847  0.7173 -0.1025
  135MPD2    C2 2057   3.368   3.100   9.128  0.4543 -0.1796  0.3099
  135MPD2    C3 2058   3.396   2.990   9.043 -0.1484 -0.3977 -0.4618
  135MPD2    C4 2059   3.527   2.934   9.048 -0.1761 -0.1182  0.0639
  135MPD2    C5 2060   3.616   2.982   9.142  0.0079  0.5034  0.0094
  135MPD2     H 2061   3.262   3.123   9.131  0.3677 -0.7532  1.8168
  135MPD2    H1 2062   3.550   2.851   8.983 -0.6892  0.1421 -0.4553
  135MPD2    H2 2063   3.666   3.128   9.276  1.3697  2.0522 -2.9783
  135MPD2    H3 2064   3.715   2.941   9.157  0.5203  1.6378 -0.3106
  135MPD2     N 2065   3.315   2.947   8.934 -0.1589 -1.0499  0.0386
  135MPD2    H5 2066   3.332   2.856   8.892  0.7974 -0.9325  0.1726
  135MPD2    N1 2067   3.438   3.274   9.280 -0.0431  0.1974  0.2499
  135MPD2    H7 2068   3.346   3.316   9.275  0.8210  2.2047  1.4067
  136TCq2    C1 2069   3.530   3.349   9.338  0.0432 -0.0864 -0.5964
  136TCq2    O2 2070   3.652   3.331   9.363 -0.2552 -0.1381  0.7445
  136TCq2    C2 2071   3.472   3.452   9.420 -0.1658 -0.9815 -0.2429
  136TCq2    C3 2072   3.561   3.532   9.495  0.3316 -0.0950 -0.0502
  136TCq2    C4 2073   3.515   3.616   9.594 -0.1634  0.2284 -0.6819
  136TCq2    C5 2074   3.387   3.619   9.623 -0.5032 -0.5758 -0.9223
  136TCq2    C6 2075   3.301   3.534   9.557 -0.3749 -0.9683 -0.5983
  136TCq2    C7 2076   3.339   3.446   9.458 -0.3191  0.2084  0.0002
  136TCq2    C8 2077   3.169   3.502   9.604  0.3806  0.0303  0.0427
  136TCq2    O4 2078   3.075   3.483   9.527 -0.0684  0.2830  0.4193
  136TCq2    C9 2079   3.608   3.688   9.679  0.4125  0.2488  0.2565
  136TCq2    O5 2080   3.726   3.645   9.677  0.1189  0.2229  0.7587
  136TCq2    O6 2081   3.549   3.723   9.784 -0.0363  0.3795  0.4178
  136TCq2    H2 2082   3.667   3.531   9.476  0.5622 -1.3063  1.2715
  136TCq2    H3 2083   3.337   3.686   9.692  1.0244 -0.8725  0.4922
  136TCq2    H4 2084   3.281   3.361   9.425 -0.7579  0.6806 -0.4500
  137MPD2     C 2085   3.220   2.251   9.357  0.0467 -0.0098 -0.0770
  137MPD2    C1 2086   3.165   2.373   9.400  0.3790 -0.0372  0.3161
  137MPD2    C2 2087   3.231   2.457   9.489 -0.3574  0.5427 -0.6091
  137MPD2    C3 2088   3.349   2.424   9.545  0.4699  0.4259 -0.1795
  137MPD2    C4 2089   3.398   2.304   9.514 -0.1938 -0.2492 -0.1882
  137MPD2    C5 2090   3.338   2.223   9.422 -0.8018 -0.3106 -0.4916
  137MPD2     H 2091   3.186   2.553   9.511  2.0866  1.7253 -0.8154
  137MPD2    H1 2092   3.490   2.273   9.563  0.5743  0.5367 -1.1349
  137MPD2    H2 2093   3.184   2.187   9.278 -0.8383 -0.2873  0.5550
  137MPD2    H3 2094   3.399   2.135   9.401 -1.4020 -1.0514  0.8209
  137MPD2     N 2095   3.418   2.526   9.620  0.3869  0.0612  0.3680
  137MPD2    H5 2096   3.374   2.616   9.636 -0.4563 -0.2708 -0.1186
  137MPD2    N1 2097   3.037   2.398   9.348  0.2912 -0.3581 -0.0611
  137MPD2    H7 2098   2.994   2.329   9.287 -0.7627  0.4408 -0.2246
  138TCq2    C1 2099   2.963   2.505   9.381  0.2472  0.3067  0.2218
  138TCq2    O2 2100   2.971   2.578   9.480 -0.1834 -0.0924 -0.3792
  138TCq2    C2 2101   2.860   2.543   9.289  0.1529 -0.1682 -0.7865
  138TCq2    C3 2102   2.847   2.487   9.166 -0.0427 -1.3342 -0.2574
  138TCq2    C4 2103   2.748   2.524   9.074  0.7450  0.7717 -0.0140
  138TCq2    C5 2104   2.658   2.615   9.112 -0.4109 -0.7240 -0.6575
  138TCq2    C6 2105   2.663   2.658   9.241 -0.2467 -0.2129  0.0642
  138TCq2    C7 2106   2.763   2.629   9.330 -0.0637 -0.1250  0.2044
  138TCq2    C8 2107   2.559   2.756   9.279 -0.2407 -0.4667 -0.3920
  138TCq2    O4 2108   2.500   2.829   9.202  0.3175  0.2751  0.1622
  138TCq2    C9 2109   2.737   2.449   8.950  0.2168  0.3727  0.3587
  138TCq2    O5 2110   2.632   2.470   8.884 -0.4902 -0.8951 -0.2985
  138TCq2    O6 2111   2.841   2.388   8.918 -0.1615  0.2172 -0.2149
  138TCq2    H2 2112   2.922   2.414   9.137  1.0060  0.2437 -1.4908
  138TCq2    H3 2113   2.579   2.659   9.053 -0.9902 -1.0571 -0.1339
  138TCq2    H4 2114   2.778   2.679   9.425  2.0395 -3.2363  1.5217
  139TMC2    C1 2115   3.456   1.470  13.256 -0.4062  0.3019 -0.3087
  139TMC2    C2 2116   3.555   1.537  13.183  1.0060  0.6420  0.0416
  139TMC2    C3 2117   3.586   1.667  13.210 -0.3152  0.1292  0.2955
  139TMC2    C4 2118   3.398   1.535  13.360  0.2544 -1.0016 -0.3768
  139TMC2    C5 2119   3.437   1.663  13.386  0.6006 -0.0597 -0.8088
  139TMC2    C6 2120   3.541   1.728  13.326 -0.0528 -0.2056  0.7334
  139TMC2     C 2121   3.439   1.324  13.232 -0.4781 -0.0745 -0.7213
  139TMC2     O 2122   3.471   1.280  13.123  0.1612  0.3045  0.1029
  139TMC2     H 2123   3.594   1.487  13.096  1.6166 -1.3857  1.4774
  139TMC2    H1 2124   3.321   1.489  13.421  0.2694  0.2642  0.5907
  139TMC2    H2 2125   3.567   1.831  13.345 -0.9669  0.5827 -2.2681
  139TMC2    C7 2126   3.360   1.737  13.480 -0.1061  0.1256  0.0543
  139TMC2    C8 2127   3.718   1.712  13.160 -0.5676  0.1908  0.8173
  139TMC2    O1 2128   3.239   1.729  13.491 -0.3286 -0.0357 -0.0938
  139TMC2    O2 2129   3.764   1.813  13.207 -0.0845 -0.5134 -0.5381
  139TMC2    O5 2130   3.725   1.671  13.031 -0.5957 -0.2452 -0.3935
  139TMC2    H5 2131   3.641   1.628  13.005 -0.4616 -2.2489  2.4819
  140MPD2     C 2132   3.361   1.080  13.487 -0.2752 -0.9959  0.1476
  140MPD2    C1 2133   3.377   1.129  13.362  0.4263 -0.2747 -0.0829
  140MPD2    C2 2134   3.368   1.041  13.257 -0.0691 -0.4441 -0.1311
  140MPD2    C3 2135   3.360   0.902  13.272  0.2024  0.6213 -0.2985
  140MPD2    C4 2136   3.365   0.860  13.399 -0.5639  0.2107 -0.4323
  140MPD2    C5 2137   3.355   0.942  13.507  1.4004 -0.5839  0.3032
  140MPD2     H 2138   3.362   1.079  13.156  2.1653  1.2105  0.3699
  140MPD2    H1 2139   3.365   0.756  13.427  0.8420  0.7176  1.4632
  140MPD2    H2 2140   3.353   1.147  13.572 -0.0225 -0.6834 -0.0770
  140MPD2    H3 2141   3.354   0.906  13.609 -1.4307 -1.7430 -0.1450
  140MPD2     N 2142   3.359   0.810  13.166  0.4169 -0.7410  0.5006
  140MPD2    H5 2143   3.374   0.857  13.078 -0.5836  2.4026  1.9952
  140MPD2    N1 2144   3.395   1.263  13.346 -0.8212  0.4106  0.1738
  140MPD2    H7 2145   3.384   1.324  13.427 -1.7913  0.7951 -0.2430
  141TCq2    C1 2146   4.206   2.300  14.020 -0.0706  0.3881  0.1336
  141TCq2    O2 2147   4.157   2.394  13.963 -0.0415  0.0590  0.6342
  141TCq2    C2 2148   4.203   2.306  14.166 -0.9964  0.2187  0.2286
  141TCq2    C3 2149   4.274   2.220  14.241  0.1389  0.1198 -0.0081
  141TCq2    C4 2150   4.262   2.235  14.376  0.3797 -0.1732 -0.0211
  141TCq2    C5 2151   4.165   2.313  14.430 -0.2587  0.0000 -0.4101
  141TCq2    C6 2152   4.080   2.389  14.354 -0.0932  0.3740  0.4823
  141TCq2    C7 2153   4.106   2.391  14.220 -0.4458  0.5917  0.7457
  141TCq2    C8 2154   4.036   2.506  14.421 -0.0938 -0.8980  0.8239
  141TCq2    O4 2155   3.984   2.494  14.530 -0.1167 -0.3102 -0.0330
  141TCq2    C9 2156   4.364   2.178  14.457 -0.2079  0.0392  0.2571
  141TCq2    O5 2157   4.328   2.143  14.574  0.0296 -0.1648  0.3898
  141TCq2    O6 2158   4.466   2.133  14.397  0.4636 -0.4673 -0.1540
  141TCq2    H2 2159   4.349   2.157  14.196  0.5029  1.7311 -1.6663
  141TCq2    H3 2160   4.169   2.338  14.536 -2.5041  2.9669 -1.0247
  141TCq2    H4 2161   4.041   2.456  14.164 -0.6468 -1.3947 -1.3520
  142MPD2     C 2162   1.506   0.242   9.674  1.2080  0.0845  0.4462
  142MPD2    C1 2163   1.441   0.299   9.566 -0.8906  0.5910 -0.0727
  142MPD2    C2 2164   1.443   0.436   9.543  0.3796 -0.3220 -0.0789
  142MPD2    C3 2165   1.503   0.522   9.635 -0.2449 -0.7310  0.2231
  142MPD2    C4 2166   1.570   0.473   9.744  0.8511  0.0786  0.5281
  142MPD2    C5 2167   1.570   0.331   9.765 -1.1588  0.1788  0.0663
  142MPD2     H 2168   1.409   0.469   9.446  1.9536  0.4529 -0.3622
  142MPD2    H1 2169   1.621   0.532   9.820  0.6238  0.5275  0.3366
  142MPD2    H2 2170   1.502   0.136   9.700 -3.7151 -0.2050 -1.5362
  142MPD2    H3 2171   1.617   0.286   9.852  0.0843 -1.4116 -1.4172
  142MPD2     N 2172   1.503   0.658   9.612  0.4689 -0.4080 -0.5096
  142MPD2    H5 2173   1.534   0.713   9.692  1.2092 -1.5998  0.0172
  142MPD2    N1 2174   1.366   0.210   9.488  0.2802  0.1463 -0.7409
  142MPD2    H7 2175   1.369   0.113   9.519 -0.4051 -0.3282 -2.1489
  143TCq2    C1 2176   1.449   0.725   9.502 -0.4526 -0.0952  0.2495
  143TCq2    O2 2177   1.375   0.686   9.410 -1.0198 -0.4400 -0.1239
  143TCq2    C2 2178   1.482   0.862   9.496  0.0301  0.1785 -0.2578
  143TCq2    C3 2179   1.375   0.948   9.483  0.0408 -0.5239 -0.3455
  143TCq2    C4 2180   1.392   1.073   9.524  0.2712 -0.2781 -0.4235
  143TCq2    C5 2181   1.508   1.112   9.583  0.3778  0.7279 -0.4344
  143TCq2    C6 2182   1.613   1.025   9.593  1.0041 -0.2787  0.0098
  143TCq2    C7 2183   1.606   0.899   9.554 -0.4019 -0.1116  0.0541
  143TCq2    C8 2184   1.738   1.063   9.653  0.7975  0.7821 -0.0628
  143TCq2    O4 2185   1.820   0.974   9.661 -0.5861 -0.2555  0.2045
  143TCq2    C9 2186   1.283   1.162   9.516  0.5301 -0.0568  0.3047
  143TCq2    O5 2187   1.189   1.131   9.437 -0.1761  0.1177 -0.2747
  143TCq2    O6 2188   1.282   1.257   9.600 -0.7894 -0.0198 -0.1449
  143TCq2    H2 2189   1.276   0.907   9.464 -0.0187 -0.4498 -0.1954
  143TCq2    H3 2190   1.501   1.215   9.618  0.7471 -0.0141  1.8505
  143TCq2    H4 2191   1.687   0.827   9.562  0.0739  0.4086 -0.1182
  144MPD2     C 2192   3.564   0.795   0.144 -0.4053  0.2788  0.1304
  144MPD2    C1 2193   3.612   0.687   0.210  0.2560  0.3079  0.8034
  144MPD2    C2 2194   3.703   0.699   0.305 -0.0068 -0.3266 -0.2096
  144MPD2    C3 2195   3.747   0.827   0.340 -1.0007  0.5564  0.5196
  144MPD2    C4 2196   3.703   0.933   0.273  0.5117  0.2586  1.1426
  144MPD2    C5 2197   3.610   0.919   0.178  0.1189  0.1501 -0.4626
  144MPD2     H 2198   3.737   0.610   0.356 -1.5530 -1.2291 -0.7378
  144MPD2    H1 2199   3.732   1.035   0.294 -3.8440  1.6921  0.4030
  144MPD2    H2 2200   3.483   0.788   0.072  0.1720  0.8712 -0.5743
  144MPD2    H3 2201   3.566   1.003   0.126  0.2713 -0.1882 -1.1388
  144MPD2     N 2202   3.837   0.858   0.447 -0.0268 -0.6238  0.1751
  144MPD2    H5 2203   3.844   0.958   0.464  0.5567 -0.3249 -1.7987
  144MPD2    N1 2204   3.575   0.553   0.185 -0.3816  0.0694  0.4250
  144MPD2    H7 2205   3.624   0.481   0.237  1.8965  0.2474 -1.4590
  145TCq2    C1 2206   3.898   0.768   0.535 -0.7473  0.0013 -0.1780
  145TCq2    O2 2207   3.889   0.644   0.531 -0.2588 -0.0290 -0.5202
  145TCq2    C2 2208   3.986   0.824   0.634  0.1728  0.0392 -0.1396
  145TCq2    C3 2209   4.003   0.745   0.746  0.9300 -0.2911 -0.3664
  145TCq2    C4 2210   4.100   0.789   0.836 -0.4498 -0.4443 -0.6004
  145TCq2    C5 2211   4.174   0.902   0.825 -0.0372 -0.1068  0.4883
  145TCq2    C6 2212   4.141   0.978   0.713 -0.5455  0.6135 -0.1120
  145TCq2    C7 2213   4.047   0.943   0.618  0.8055 -1.4405  0.2414
  145TCq2    C8 2214   4.234   1.084   0.671 -0.0715  0.2836 -0.2239
  145TCq2    O4 2215   4.253   1.082   0.550 -0.5855  0.0303  0.4365
  145TCq2    C9 2216   4.137   0.709   0.947 -0.3239  0.1262 -0.4986
  145TCq2    O5 2217   4.067   0.607   0.983  0.2054 -0.2165  0.5554
  145TCq2    O6 2218   4.249   0.730   0.990  0.6154  0.2510  0.1607
  145TCq2    H2 2219   3.949   0.651   0.756 -1.0287  0.8776 -0.0723
  145TCq2    H3 2220   4.242   0.938   0.901  1.6391 -0.9786 -0.6029
  145TCq2    H4 2221   4.039   1.008   0.532  1.6317  0.2929  1.4719
  146TMC2    C1 2222   1.117   4.157  12.368 -0.0377  0.6732 -0.7710
  146TMC2    C2 2223   1.021   4.202  12.287  0.7993  1.3061  0.4735
  146TMC2    C3 2224   1.060   4.224  12.158  0.5154  0.2807 -0.3625
  146TMC2    C4 2225   1.239   4.111  12.326  0.6119  1.3314 -0.0763
  146TMC2    C5 2226   1.252   4.099  12.193  1.1835 -0.6875  0.3180
  146TMC2    C6 2227   1.169   4.160  12.105  0.1378 -0.2006  0.4146
  146TMC2     C 2228   1.093   4.192  12.508 -0.3382 -0.5685 -0.1442
  146TMC2     O 2229   1.020   4.289  12.525  0.1867  0.4621 -0.2567
  146TMC2     H 2230   0.929   4.243  12.327 -1.2881 -1.4674 -1.5140
  146TMC2    H1 2231   1.315   4.083  12.398 -0.3700  0.0473  0.4605
  146TMC2    H2 2232   1.191   4.161  11.999  1.4543 -0.6535  0.6764
  146TMC2    C7 2233   1.375   4.059  12.129 -0.4499  0.2978 -0.8118
  146TMC2    C8 2234   0.957   4.245  12.064  0.0226 -0.1431 -0.0157
  146TMC2    O1 2235   1.411   4.111  12.019 -0.1631  0.2338 -0.1857
  146TMC2    O2 2236   0.950   4.356  12.017 -0.3440 -0.4539  0.5180
  146TMC2    O5 2237   0.857   4.166  12.114  0.0801 -0.1424 -0.5347
  146TMC2    H5 2238   0.898   4.080  12.139  0.8633 -0.1885 -1.9969
  147MPD2     C 2239   1.765   3.737  12.052  0.6590  0.3641  1.1760
  147MPD2    C1 2240   1.730   3.720  12.180  0.0119 -0.3772  0.6791
  147MPD2    C2 2241   1.621   3.795  12.232 -0.3090 -0.2629  0.2615
  147MPD2    C3 2242   1.545   3.872  12.150  0.6972  0.2799  0.1554
  147MPD2    C4 2243   1.586   3.883  12.016  0.1274 -0.4474 -0.0462
  147MPD2    C5 2244   1.686   3.811  11.968 -0.1189 -0.5667 -0.3582
  147MPD2     H 2245   1.581   3.797  12.333  1.4464 -0.5972  0.9592
  147MPD2    H1 2246   1.529   3.940  11.944  1.6743  0.2421 -0.7307
  147MPD2    H2 2247   1.856   3.698  12.008 -1.1840 -0.5864 -1.8510
  147MPD2    H3 2248   1.717   3.822  11.864  0.7493 -0.1035 -0.0543
  147MPD2     N 2249   1.432   3.952  12.203 -0.1335  0.4951  0.0946
  147MPD2    H5 2250   1.397   3.927  12.295 -1.3767 -1.4837 -0.9341
  147MPD2    N1 2251   1.794   3.621  12.254 -0.1136 -0.5576 -0.6925
  147MPD2    H7 2252   1.866   3.571  12.202 -1.7889 -1.8420 -1.8074
  148MPD2     C 2253   1.316   2.517   9.872 -0.4711 -0.3703 -0.2055
  148MPD2    C1 2254   1.366   2.389   9.878 -0.0646  0.6625  0.4825
  148MPD2    C2 2255   1.286   2.282   9.836  0.0207 -0.3243  0.4601
  148MPD2    C3 2256   1.152   2.302   9.790  0.1687 -0.5940  0.7508
  148MPD2    C4 2257   1.105   2.431   9.796  0.2527  0.1548  0.4131
  148MPD2    C5 2258   1.191   2.539   9.826  0.4542 -0.3411 -0.2565
  148MPD2     H 2259   1.313   2.178   9.852 -1.5543 -0.9557 -1.0307
  148MPD2    H1 2260   1.005   2.454   9.761  0.0781  1.0742  1.5006
  148MPD2    H2 2261   1.357   2.607   9.916  0.8599  0.5699 -3.3522
  148MPD2    H3 2262   1.148   2.639   9.825  0.3715 -0.3759  0.0222
  148MPD2     N 2263   1.061   2.195   9.757  0.0356 -0.1951 -0.0493
  148MPD2    H5 2264   0.965   2.225   9.751  0.0856 -0.0227  0.0193
  148MPD2    N1 2265   1.491   2.350   9.939  0.3668  0.5298 -0.5763
  148MPD2    H7 2266   1.508   2.250   9.952  2.2392  0.9300  0.0096
  149TCq2    C1 2267   1.571   2.439  10.000  0.2072  0.1174 -0.3885
  149TCq2    O2 2268   1.589   2.561   9.989  0.2356  0.1631  0.0281
  149TCq2    C2 2269   1.669   2.367  10.075  0.2568  0.5418 -0.0202
  149TCq2    C3 2270   1.776   2.437  10.118  0.1463  0.6108  0.8620
  149TCq2    C4 2271   1.866   2.374  10.201 -0.7376 -0.6868 -0.3435
  149TCq2    C5 2272   1.874   2.237  10.207 -0.1061  0.1353 -0.4727
  149TCq2    C6 2273   1.758   2.173  10.172 -0.6420  0.0791  0.2417
  149TCq2    C7 2274   1.653   2.230  10.099  0.0799  0.2807  0.2022
  149TCq2    C8 2275   1.749   2.023  10.191  0.1535  0.4823  0.5961
  149TCq2    O4 2276   1.640   1.969  10.179 -0.4144 -0.0111 -0.0389
  149TCq2    C9 2277   1.994   2.441  10.205 -0.1256 -0.2690  0.5568
  149TCq2    O5 2278   2.076   2.385  10.131  0.0585 -0.2533  0.2789
  149TCq2    O6 2279   1.992   2.562  10.235 -0.0365  0.4593  0.2143
  149TCq2    H2 2280   1.791   2.539  10.085 -2.3114  1.8603  3.5959
  149TCq2    H3 2281   1.967   2.192  10.240  1.0853  1.9217 -1.3476
  149TCq2    H4 2282   1.557   2.181  10.090 -0.5698  1.8367 -1.3772
  150MPD2     C 2283   2.800   1.673  11.806 -0.7354 -0.8560 -0.5881
  150MPD2    C1 2284   2.873   1.650  11.690  0.0343 -0.2777 -0.4573
  150MPD2    C2 2285   2.992   1.720  11.665  0.1010  0.0027  0.2594
  150MPD2    C3 2286   3.045   1.799  11.762 -0.5326 -0.0018  0.2537
  150MPD2    C4 2287   2.973   1.813  11.876 -0.3000  0.6916  0.2095
  150MPD2    C5 2288   2.853   1.755  11.894 -0.5463  0.3524 -0.1943
  150MPD2     H 2289   3.038   1.713  11.567 -0.3431  1.7189 -0.0664
  150MPD2    H1 2290   3.005   1.884  11.952  0.8276 -0.3281  0.6883
  150MPD2    H2 2291   2.706   1.620  11.812 -1.6807  0.8707  0.1433
  150MPD2    H3 2292   2.806   1.770  11.990 -1.7400  0.6991 -0.8288
  150MPD2     N 2293   3.180   1.847  11.740  0.3738  0.4270 -0.0215
  150MPD2    H5 2294   3.240   1.812  11.667  0.6213 -0.1655  0.4675
  150MPD2    N1 2295   2.807   1.570  11.591  0.6120  0.0344 -0.0953
  150MPD2    H7 2296   2.725   1.526  11.631  1.6130 -1.7118  0.0657
  151TCq2    C1 2297   3.245   1.932  11.826 -0.0450 -0.7429  0.0193
  151TCq2    O2 2298   3.217   1.999  11.920 -0.2021 -0.3045 -0.0384
  151TCq2    C2 2299   3.381   1.956  11.783 -0.5196 -0.0899  0.3151
  151TCq2    C3 2300   3.421   1.925  11.655  0.2772 -0.1594  1.1014
  151TCq2    C4 2301   3.554   1.945  11.615  0.2814 -0.0545 -0.5852
  151TCq2    C5 2302   3.634   2.012  11.702  0.4752 -0.2183  0.8200
  151TCq2    C6 2303   3.585   2.053  11.821  0.1836  0.1252  0.3571
  151TCq2    C7 2304   3.463   2.027  11.870 -0.5941 -0.3389 -0.0547
  151TCq2    C8 2305   3.682   2.103  11.913  0.1044 -0.2425  0.3012
  151TCq2    O4 2306   3.770   2.184  11.879 -0.7200 -1.2068  0.3164
  151TCq2    C9 2307   3.605   1.911  11.483 -0.3333  0.0886  0.4115
  151TCq2    O5 2308   3.705   1.979  11.440  0.6599 -0.1887  0.3618
  151TCq2    O6 2309   3.543   1.821  11.425 -0.3881  0.1610  0.0190
  151TCq2    H2 2310   3.365   1.855  11.593  0.5004  1.0215 -0.4211
  151TCq2    H3 2311   3.735   2.036  11.670  1.3596 -2.2077  2.1222
  151TCq2    H4 2312   3.429   2.048  11.971  3.8580 -0.8430  1.5489
  152MPD2     C 2313   2.766   1.315  12.154 -0.6082  0.5785  0.8020
  152MPD2    C1 2314   2.744   1.418  12.239 -0.3645 -0.4696 -0.5920
  152MPD2    C2 2315   2.631   1.493  12.221  0.0883  0.5235  0.1849
  152MPD2    C3 2316   2.550   1.472  12.106 -0.3453  0.2154 -0.5712
  152MPD2    C4 2317   2.560   1.355  12.036  0.0152  0.6117 -0.2232
  152MPD2    C5 2318   2.668   1.279  12.061 -0.6553 -0.0673  0.0738
  152MPD2     H 2319   2.623   1.571  12.296 -0.2135  2.8159 -2.2337
  152MPD2    H1 2320   2.483   1.319  11.968 -0.3206 -1.0636  1.0353
  152MPD2    H2 2321   2.857   1.256  12.159 -0.8212  0.2620  0.8873
  152MPD2    H3 2322   2.685   1.187  12.005  1.5467  0.2345  0.2519
  152MPD2     N 2323   2.447   1.565  12.070  0.0093  0.0724 -0.9216
  152MPD2    H5 2324   2.458   1.654  12.118  3.4951 -0.3011 -1.0301
  152MPD2    N1 2325   2.836   1.435  12.335 -0.4972  0.4303 -0.0893
  152MPD2    H7 2326   2.917   1.374  12.326 -0.2252  0.7422  0.2210
  153TCq2    C1 2327   2.824   1.520  12.447 -0.3898 -0.1027 -0.4036
  153TCq2    O2 2328   2.720   1.555  12.497 -0.5178 -0.2109  0.0342
  153TCq2    C2 2329   2.950   1.557  12.503 -0.2992  0.3639 -0.0622
  153TCq2    C3 2330   3.060   1.528  12.427 -0.3123  0.4035 -0.6819
  153TCq2    C4 2331   3.177   1.536  12.498 -0.5301 -0.1407 -0.4632
  153TCq2    C5 2332   3.183   1.575  12.629 -0.4162 -0.7455  0.5262
  153TCq2    C6 2333   3.067   1.593  12.699 -0.5785  0.2633  0.6079
  153TCq2    C7 2334   2.945   1.581  12.637  0.0792  0.8757 -0.0855
  153TCq2    C8 2335   3.068   1.641  12.838  1.0233  0.4502  0.0498
  153TCq2    O4 2336   2.968   1.636  12.910  0.2525 -0.5654  0.7017
  153TCq2    C9 2337   3.301   1.505  12.424 -0.0683 -0.2536 -0.3981
  153TCq2    O5 2338   3.297   1.473  12.301  0.7792  0.5353 -0.2255
  153TCq2    O6 2339   3.404   1.530  12.491  0.9576  0.1721  0.2982
  153TCq2    H2 2340   3.068   1.499  12.323  0.1328 -0.9008 -0.2794
  153TCq2    H3 2341   3.277   1.599  12.679 -0.4974  1.5102 -0.4542
  153TCq2    H4 2342   2.851   1.587  12.690  0.2117  0.7409  0.1621
  154MPD2     C 2343   4.327   2.202   0.086  0.5571  0.6591  0.1331
  154MPD2    C1 2344   4.317   2.336   0.129  0.0080  0.3761 -0.2291
  154MPD2    C2 2345   4.200   2.378   0.188 -1.0257  0.0706  0.0132
  154MPD2    C3 2346   4.092   2.294   0.207  0.2816 -0.3560 -0.1114
  154MPD2    C4 2347   4.101   2.155   0.164 -0.2777  0.5358 -0.1011
  154MPD2    C5 2348   4.218   2.117   0.098  0.5592 -0.1038 -0.6555
  154MPD2     H 2349   4.182   2.482   0.214  1.9059  1.1391 -2.2225
  154MPD2    H1 2350   4.025   2.078   0.175  1.8972 -1.4807  0.7052
  154MPD2    H2 2351   4.425   2.164   0.061 -0.0279 -0.3792 -0.6207
  154MPD2    H3 2352   4.236   2.015   0.066 -2.0164 -1.5417  2.4267
  154MPD2     N 2353   3.981   2.352   0.262  0.6412 -0.1265 -0.0085
  154MPD2    H5 2354   3.997   2.448   0.289  1.2833 -0.0614 -0.6224
  154MPD2    N1 2355   4.430   2.417   0.110  1.0204  0.6975 -0.1968
  154MPD2    H7 2356   4.515   2.376   0.073  1.1852 -0.1653  1.1390
  155TCq2    C1 2357   4.434   2.557   0.124 -0.0767  0.4367  0.1470
  155TCq2    O2 2358   4.359   2.640   0.175  0.6337  0.5268  0.4456
  155TCq2    C2 2359   4.557   2.616   0.069 -0.1755  0.8469 -0.1351
  155TCq2    C3 2360   4.570   2.754   0.076  0.8705 -0.2053 -0.4357
  155TCq2    C4 2361   4.698   2.811   0.045  0.1603  0.7272 -0.4934
  155TCq2    C5 2362   0.085   2.731   0.025 -0.9204  0.2560  0.8530
  155TCq2    C6 2363   0.056   2.595   0.013 -0.1625  0.3171 -0.2214
  155TCq2    C7 2364   4.660   2.532   0.043  0.3510  0.2497 -0.0922
  155TCq2    C8 2365   0.169   2.508  17.670  1.0119  0.1136 -0.3382
  155TCq2    O4 2366   0.281   2.543   0.001 -0.0153  0.4277  0.2594
  155TCq2    C9 2367   4.723   2.955   0.038 -0.1530 -0.9113 -0.2601
  155TCq2    O5 2368   4.630   3.029   0.069 -0.4187 -0.1301 -0.4250
  155TCq2    O6 2369   0.114   3.003   0.049 -0.0541  0.2107 -0.0503
  155TCq2    H2 2370   4.493   2.825   0.103  0.3593 -1.4759  1.4527
  155TCq2    H3 2371   0.178   2.771  17.685 -0.8139 -1.4810 -0.7739
  155TCq2    H4 2372   4.658   2.424   0.047  1.3048  0.2919  1.4652
  156MPD2     C 2373   3.585   4.482  12.848 -0.3967  0.3237 -0.3098
  156MPD2    C1 2374   3.576   4.484  12.709 -0.0642 -0.1139  0.5658
  156MPD2    C2 2375   3.474   4.557  12.654  0.5183  0.2871 -0.0749
  156MPD2    C3 2376   3.385   4.632  12.730 -0.2183 -0.5430  0.0928
  156MPD2    C4 2377   3.397   4.633  12.863  0.3455 -0.0511 -0.3476
  156MPD2    C5 2378   3.492   4.553  12.925  0.1952 -0.0957 -0.4971
  156MPD2     H 2379   3.461   4.554  12.546  0.6737  0.3273 -0.0959
  156MPD2    H1 2380   3.329   4.679  12.934  0.0005 -1.7749  0.4293
  156MPD2    H2 2381   3.659   4.430  12.907 -1.0228  1.9675  1.9278
  156MPD2    H3 2382   3.486   4.561  13.033  0.0876 -0.7929 -0.4513
  156MPD2     N 2383   3.271   4.700  12.675 -0.3454 -1.1464  0.6676
  156MPD2    H5 2384   3.207   0.023  12.738  0.0656  0.8684 -0.4166
  156MPD2    N1 2385   3.666   4.400  12.645 -0.4937 -0.2235 -0.0606
  156MPD2    H7 2386   3.722   4.339  12.704 -1.1638  0.0709  0.8709
  157TCq2    C1 2387   3.679   4.396  12.508  0.6416 -0.0329 -0.9568
  157TCq2    O2 2388   3.647   4.469  12.422 -0.0781 -0.1291 -0.0590
  157TCq2    C2 2389   3.763   4.280  12.461  0.5941 -0.0692  0.1880
  157TCq2    C3 2390   3.747   4.165  12.538  0.4769 -0.5745 -0.8059
  157TCq2    C4 2391   3.768   4.042  12.477 -0.3002  0.3220 -0.5449
  157TCq2    C5 2392   3.789   4.030  12.346 -0.8429 -0.4459 -0.1394
  157TCq2    C6 2393   3.796   4.147  12.267  0.2457 -0.2637  0.0096
  157TCq2    C7 2394   3.774   4.272  12.328 -0.3995 -0.1781  1.0254
  157TCq2    C8 2395   3.761   4.141  12.125  0.4844 -0.1762  0.1554
  157TCq2    O4 2396   3.768   4.246  12.058  0.0811 -0.1564  0.3873
  157TCq2    C9 2397   3.744   3.924  12.555 -0.3973  0.5513 -0.1615
  157TCq2    O5 2398   3.690   3.929  12.666  0.3328 -0.0913  0.4883
  157TCq2    O6 2399   3.770   3.815  12.497  0.5370  0.7289  0.2692
  157TCq2    H2 2400   3.721   4.161  12.643 -0.0412  1.5778 -0.8423
  157TCq2    H3 2401   3.831   3.935  12.316 -1.3464 -0.6917 -0.0586
  157TCq2    H4 2402   3.781   4.367  12.275 -0.3853 -1.1515 -0.7329
  158TMC2    C1 2403   3.057   2.900  13.021  0.5483 -0.9290 -0.1620
  158TMC2    C2 2404   3.056   2.896  12.883 -0.4956  0.4412  0.5357
  158TMC2    C3 2405   2.946   2.844  12.820  0.1088  0.2890 -0.4025
  158TMC2    C4 2406   2.955   2.868  13.101  0.3789 -0.2524  0.3332
  158TMC2    C5 2407   2.844   2.824  13.030  0.0607  0.7936  0.1807
  158TMC2    C6 2408   2.835   2.803  12.895 -0.6414  0.0789 -0.4796
  158TMC2     C 2409   3.177   2.972  13.079  0.0621 -0.6811 -0.1346
  158TMC2     O 2410   3.256   3.030  13.005  0.0063 -0.7230  0.1687
  158TMC2     H 2411   3.138   2.940  12.828 -1.7650  0.1427 -1.6362
  158TMC2    H1 2412   2.958   2.886  13.208 -0.2619 -0.8056  0.4460
  158TMC2    H2 2413   2.747   2.751  12.859  1.2545 -2.4179 -1.5256
  158TMC2    C7 2414   2.728   2.763  13.096  0.1065  0.3927  0.4610
  158TMC2    C8 2415   2.954   2.805  12.680  0.0731  1.0831 -0.0682
  158TMC2    O1 2416   2.623   2.759  13.035  0.6860 -0.3349  0.4418
  158TMC2    O2 2417   3.057   2.797  12.619 -0.1829  0.0425  0.1245
  158TMC2    O5 2418   2.834   2.798  12.624 -0.3921 -0.3493  0.0043
  158TMC2    H5 2419   2.772   2.843  12.686 -1.1135  1.8819 -2.3575
  159MPD2     C 2420   3.456   3.101  13.493 -0.6867  0.7555  0.0648
  159MPD2    C1 2421   3.336   3.045  13.535 -0.6230  0.0598 -0.5282
  159MPD2    C2 2422   3.245   2.997  13.438  0.2791  1.1081  0.5238
  159MPD2    C3 2423   3.273   3.010  13.303  0.2713 -0.4268  0.5464
  159MPD2    C4 2424   3.389   3.067  13.262  0.3754 -0.3189  0.4828
  159MPD2    C5 2425   3.486   3.099  13.358  0.2372 -0.1120  0.1628
  159MPD2     H 2426   3.151   2.947  13.460  0.1211  0.5723 -1.3920
  159MPD2    H1 2427   3.418   3.102  13.164  1.0543 -2.0617  0.0510
  159MPD2    H2 2428   3.530   3.143  13.559 -1.3317  0.3604  1.0427
  159MPD2    H3 2429   3.582   3.134  13.324  0.6123  0.1658  1.5079
  159MPD2     N 2430   3.180   2.953  13.215 -0.1756  0.0885 -0.1894
  159MPD2    H5 2431   3.109   2.900  13.264  1.3551 -1.2691  0.5634
  159MPD2    N1 2432   3.300   3.056  13.670  0.0537  0.1951  0.6370
  159MPD2    H7 2433   3.374   3.092  13.729 -0.4196  0.2214  1.2104
  160TMC2    C1 2434   3.643   1.235   1.543  0.2678  0.1728 -0.1644
  160TMC2    C2 2435   3.606   1.103   1.550  0.8144 -0.0033 -0.2303
  160TMC2    C3 2436   3.558   1.058   1.430 -0.4299 -0.1794  0.0351
  160TMC2    C4 2437   3.642   1.312   1.432 -0.1212  0.3274 -0.7505
  160TMC2    C5 2438   3.600   1.253   1.315  0.6990  0.5355 -0.0654
  160TMC2    C6 2439   3.558   1.126   1.312  0.3161  0.4876 -0.0533
  160TMC2     C 2440   3.663   1.307   1.676  0.4246  0.4252 -0.4442
  160TMC2     O 2441   3.712   1.238   1.765  0.5264 -0.5089 -0.1611
  160TMC2     H 2442   3.599   1.045   1.641 -0.8534  0.1311 -0.2616
  160TMC2    H1 2443   3.690   1.409   1.438  1.4871 -0.5233  0.2545
  160TMC2    H2 2444   3.519   1.096   1.216 -1.4930  2.2179  0.1496
  160TMC2    C7 2445   3.603   1.329   1.190 -0.3780  1.4999  0.5808
  160TMC2    C8 2446   3.510   0.922   1.441  0.7117 -0.0250 -0.7125
  160TMC2    O1 2447   3.584   1.267   1.092 -0.3948  0.1914 -0.3961
  160TMC2    O2 2448   3.546   0.847   1.531  0.5961 -0.1322 -0.1864
  160TMC2    O5 2449   3.408   0.908   1.358  0.2557 -0.1824  0.3691
  160TMC2    H5 2450   3.390   0.986   1.301  2.5338 -0.2957 -0.5047
  161MPD2     C 2451   3.598   1.469   1.928  0.3591  0.5341 -0.1247
  161MPD2    C1 2452   3.540   1.490   1.802  0.5315  0.0512 -0.3477
  161MPD2    C2 2453   3.435   1.584   1.798  0.1229  0.3183  0.5142
  161MPD2    C3 2454   3.398   1.661   1.903  0.1100  0.0165  0.8104
  161MPD2    C4 2455   3.466   1.645   2.017 -0.8770  0.0921  0.7652
  161MPD2    C5 2456   3.558   1.548   2.031 -0.7833 -0.5099  0.4256
  161MPD2     H 2457   3.379   1.589   1.705 -1.5148 -1.2199  1.4070
  161MPD2    H1 2458   3.445   1.714   2.097  2.6606  0.9440  0.9450
  161MPD2    H2 2459   3.683   1.404   1.938 -0.4644 -0.2415  1.8149
  161MPD2    H3 2460   3.610   1.534   2.126 -2.5137 -0.7464  1.3423
  161MPD2     N 2461   3.294   1.753   1.894 -0.1023  0.2806 -0.6992
  161MPD2    H5 2462   3.257   1.787   1.983  0.1412  1.6792 -1.1281
  161MPD2    N1 2463   3.576   1.417   1.685  0.3838  0.4762  0.0317
  161MPD2    H7 2464   3.528   1.447   1.601 -0.0631 -0.2475  0.0239
  162TMC2    C1 2465   1.876   3.709   1.078  0.4456 -0.2106  0.0571
  162TMC2    C2 2466   1.802   3.820   1.043 -0.0237  0.5235  0.1912
  162TMC2    C3 2467   1.736   3.896   1.136  1.2241 -0.0464 -0.2101
  162TMC2    C4 2468   1.878   3.665   1.211  0.2688  0.1342  0.4314
  162TMC2    C5 2469   1.814   3.744   1.310  0.9599  0.2666  0.3382
  162TMC2    C6 2470   1.744   3.854   1.273 -0.2841  0.1415  0.4450
  162TMC2     C 2471   1.930   3.632   0.968 -0.6178  0.5233 -0.4474
  162TMC2     O 2472   1.953   3.518   0.999  0.3035  0.4744 -0.3488
  162TMC2     H 2473   1.787   3.850   0.940  1.6432 -0.8287 -0.4386
  162TMC2    H1 2474   1.946   3.588   1.243 -0.6749 -0.2983  1.3806
  162TMC2    H2 2475   1.696   3.907   1.354  0.2457  0.2480  0.6866
  162TMC2    C7 2476   1.801   3.703   1.446 -0.4032 -0.3608  0.9379
  162TMC2    C8 2477   1.671   4.025   1.112 -0.2180  0.6817  0.3584
  162TMC2    O1 2478   1.769   3.787   1.532  0.3186  0.2927  0.4242
  162TMC2    O2 2479   1.695   4.081   1.010  0.0164  0.1094  0.0685
  162TMC2    O5 2480   1.548   4.018   1.161  0.1949  0.3561 -0.3228
  162TMC2    H5 2481   1.536   3.956   1.236 -1.0263  2.4058  1.1738
  163MPD2     C 2482   2.007   3.550   0.473  0.0697 -0.1055  0.3599
  163MPD2    C1 2483   2.002   3.459   0.573  0.2311  0.0811  0.8465
  163MPD2    C2 2484   1.981   3.509   0.702 -0.0621 -0.2183 -0.0197
  163MPD2    C3 2485   1.974   3.652   0.718 -0.2592  0.4645 -0.1386
  163MPD2    C4 2486   1.979   3.737   0.614  0.1341  0.1724  0.5362
  163MPD2    C5 2487   1.989   3.683   0.494  0.0974  0.0556  0.6124
  163MPD2     H 2488   1.966   3.440   0.784  1.5972 -0.4029  0.1244
  163MPD2    H1 2489   1.962   3.844   0.624  0.2284  0.1221  1.2024
  163MPD2    H2 2490   2.017   3.519   0.370 -0.6360 -0.4488  0.3977
  163MPD2    H3 2491   1.991   3.749   0.408  0.1072 -0.6169  0.0955
  163MPD2     N 2492   1.942   3.704   0.847  0.4489 -0.1050 -0.7440
  163MPD2    H5 2493   1.938   3.804   0.858  1.4589 -0.1922  0.4216
  163MPD2    N1 2494   2.028   3.323   0.548 -0.0625 -0.6068 -0.4685
  163MPD2    H7 2495   2.044   3.311   0.448  0.3217 -0.2113 -0.4574
  164TCq2    C1 2496   2.190   2.111  10.459 -0.3001 -0.0203  0.3934
  164TCq2    O2 2497   2.084   2.054  10.439 -0.5150  0.1024 -0.0891
  164TCq2    C2 2498   2.179   2.256  10.486  0.4605  0.6745  0.4902
  164TCq2    C3 2499   2.295   2.323  10.521 -1.3916 -0.3115  0.5113
  164TCq2    C4 2500   2.279   2.439  10.588 -0.7787 -0.3361 -0.2202
  164TCq2    C5 2501   2.162   2.490  10.632 -0.0455 -0.0389 -0.0879
  164TCq2    C6 2502   2.056   2.418  10.595  1.1121 -0.0809  0.0051
  164TCq2    C7 2503   2.058   2.295  10.533  0.5212 -0.2862 -0.4663
  164TCq2    C8 2504   1.931   2.476  10.618  0.1568 -0.0561  0.0232
  164TCq2    O4 2505   1.834   2.424  10.562 -0.2144 -0.6046  0.0512
  164TCq2    C9 2506   2.399   2.506  10.640  0.1582  0.2816 -0.5029
  164TCq2    O5 2507   2.387   2.595  10.729  0.2268 -0.1773 -0.0337
  164TCq2    O6 2508   2.512   2.452  10.612  1.0928  0.5189  0.0432
  164TCq2    H2 2509   2.396   2.286  10.510 -1.7817 -0.9876 -0.7691
  164TCq2    H3 2510   2.162   2.588  10.678  0.1739 -1.1950  2.3738
  164TCq2    H4 2511   1.967   2.241  10.511 -0.8801  2.5582 -1.7409
  165MPD2     C 2512   2.617   0.057   2.274 -0.0721 -0.6194  0.0407
  165MPD2    C1 2513   2.605   0.014   2.146 -0.1648 -0.4292  0.3326
  165MPD2    C2 2514   2.576   0.111   2.046 -0.5843 -0.2528  0.0068
  165MPD2    C3 2515   2.545   0.242   2.071  0.3803 -0.3744  0.1578
  165MPD2    C4 2516   2.563   0.289   2.199  0.6615  0.1213  0.0428
  165MPD2    C5 2517   2.593   0.190   2.299  0.2982  0.1144  0.1039
  165MPD2     H 2518   2.570   0.081   1.942  2.0396  2.3794 -0.9348
  165MPD2    H1 2519   2.567   0.393   2.229  0.6859  0.4684 -1.1913
  165MPD2    H2 2520   2.634   4.716   2.360 -1.7363 -2.5139 -1.0500
  165MPD2    H3 2521   2.614   0.222   2.400 -0.6123 -1.6753  0.8586
  165MPD2     N 2522   2.503   0.340   1.969 -0.0318 -0.4734 -0.0312
  165MPD2    H5 2523   2.515   0.439   1.985  0.0775 -0.8307  2.0429
  165MPD2    N1 2524   2.621   4.601   2.127  0.1596  0.0331  0.2537
  165MPD2    H7 2525   2.654   4.550   2.208  0.1829 -0.6411 -0.1779
  166TCq2    C1 2526   2.481   0.307   1.836 -0.4714  0.3903  0.0522
  166TCq2    O2 2527   2.464   0.197   1.788 -0.4206 -0.6660  0.1543
  166TCq2    C2 2528   2.454   0.432   1.762 -0.1808 -0.2114 -0.4074
  166TCq2    C3 2529   2.369   0.533   1.803  0.3841 -0.4695  0.2405
  166TCq2    C4 2530   2.356   0.645   1.719 -0.6465 -0.9865 -0.6796
  166TCq2    C5 2531   2.425   0.658   1.602 -0.8427 -0.0268 -0.1840
  166TCq2    C6 2532   2.520   0.564   1.583  0.6775 -0.3977  0.6670
  166TCq2    C7 2533   2.540   0.450   1.661  0.3366  0.1569  0.0637
  166TCq2    C8 2534   2.625   0.583   1.488  0.3996 -0.3793  0.3070
  166TCq2    O4 2535   2.735   0.534   1.520 -0.2302 -0.0367  0.3476
  166TCq2    C9 2536   2.271   0.746   1.760 -0.1973  0.3925  0.1111
  166TCq2    O5 2537   2.247   0.748   1.884  1.0047  0.1591  0.6459
  166TCq2    O6 2538   2.254   0.838   1.677 -0.0012  0.0527  0.2624
  166TCq2    H2 2539   2.305   0.517   1.889  0.2845 -0.4402  0.1711
  166TCq2    H3 2540   2.423   0.754   1.551 -1.9476  0.4863  0.8116
  166TCq2    H4 2541   2.605   0.367   1.636 -0.0805  0.1646 -1.0579
  167TMC2    C1 2542   1.730   2.859  12.008  0.2128  0.2443  0.0449
  167TMC2    C2 2543   1.835   2.920  11.948 -0.1461  0.4384 -0.3504
  167TMC2    C3 2544   1.926   2.828  11.905  0.0448  0.6030 -0.7948
  167TMC2    C4 2545   1.710   2.726  12.031  0.1553  0.7143  0.2024
  167TMC2    C5 2546   1.802   2.637  11.982 -0.1662 -0.2562 -0.3479
  167TMC2    C6 2547   1.914   2.690  11.918  1.2607  0.0113  0.1468
  167TMC2     C 2548   1.629   2.943  12.077 -0.8495  0.2694  0.6236
  167TMC2     O 2549   1.664   3.057  12.101 -0.2359  0.2503  0.1227
  167TMC2     H 2550   1.834   3.027  11.931 -0.2794  0.2195 -1.7497
  167TMC2    H1 2551   1.640   2.693  12.107 -0.6219 -1.3999 -1.4259
  167TMC2    H2 2552   2.002   2.627  11.913  1.5161  0.4838 -1.2717
  167TMC2    C7 2553   1.808   2.506  12.039  0.8865 -0.1414  0.4563
  167TMC2    C8 2554   2.046   2.884  11.842  0.1882  0.2620 -0.6979
  167TMC2    O1 2555   1.760   2.483  12.146 -0.3841  0.1246 -0.0598
  167TMC2    O2 2556   2.150   2.823  11.815  0.0190  0.4490  1.2438
  167TMC2    O5 2557   2.004   2.980  11.757  0.2944 -0.2168  0.1679
  167TMC2    H5 2558   1.910   3.008  11.755  0.4039  0.2871  1.7478
  168MPD2     C 2559   1.390   3.053  12.228  0.2206 -0.1186 -0.4212
  168MPD2    C1 2560   1.386   2.956  12.129  0.1149  0.2115  0.0154
  168MPD2    C2 2561   1.258   2.899  12.089  0.2639  0.4706 -0.5045
  168MPD2    C3 2562   1.145   2.945  12.147 -0.9000 -0.4559 -0.5246
  168MPD2    C4 2563   1.147   3.047  12.240 -0.2002  0.1297 -0.0028
  168MPD2    C5 2564   1.269   3.095  12.285  1.1184  0.0869  0.0018
  168MPD2     H 2565   1.253   2.819  12.016 -1.3694 -0.3607  0.5352
  168MPD2    H1 2566   1.059   3.081  12.292  0.4201  1.2485  0.3326
  168MPD2    H2 2567   1.485   3.096  12.259 -1.0560  0.0392  3.2690
  168MPD2    H3 2568   1.280   3.171  12.362  0.4619 -0.8723  1.0398
  168MPD2     N 2569   1.020   2.895  12.114 -0.2661 -0.6882 -0.7389
  168MPD2    H5 2570   0.940   2.938  12.158  0.5717 -0.3766  0.4541
  168MPD2    N1 2571   1.502   2.896  12.074 -0.5248  0.2381  0.3998
  168MPD2    H7 2572   1.490   2.815  12.015  0.7509 -1.0011  1.8467
  169MPD1     C 2573   3.723   2.472   8.899 -0.0649  0.3190  0.9911
  169MPD1    C1 2574   3.663   2.353   8.857 -0.3115  0.2938 -0.3172
  169MPD1    C2 2575   3.716   2.232   8.904 -0.0525  0.1975  0.5923
  169MPD1    C3 2576   3.836   2.232   8.979 -0.0037 -0.0207  0.4934
  169MPD1    C4 2577   3.905   2.351   8.996  0.0171 -0.2319  0.5028
  169MPD1    C5 2578   3.848   2.475   8.960  0.3015 -0.3234  0.6058
  169MPD1     H 2579   3.658   2.141   8.897 -0.8265  0.9640 -2.6091
  169MPD1    H1 2580   3.986   2.355   9.067  0.9827 -0.2524 -0.5937
  169MPD1    H2 2581   3.691   2.574   8.884  1.6724  0.4614 -1.8230
  169MPD1    H3 2582   3.893   2.569   8.989  0.2616  0.1203 -0.7754
  169MPD1     N 2583   3.881   2.107   9.029 -0.5044 -0.0058  0.2383
  169MPD1    H5 2584   3.817   2.029   9.020  0.5626 -0.8142 -0.4201
  169MPD1    N1 2585   3.541   2.352   8.791 -0.0968  0.6317 -0.7610
  169MPD1    H6 2586   3.520   2.271   8.732  0.3777  0.1244 -0.2254
  169MPD1    H7 2587   3.526   2.432   8.729 -1.9291  0.1860 -0.9071
  170MPD1     C 2588   1.570   4.615  12.506  0.3873  0.8177  0.0463
  170MPD1    C1 2589   1.501   0.010  12.513  0.7140  0.9077  0.2847
  170MPD1    C2 2590   1.508   0.068  12.634  0.0090  0.2959 -0.0773
  170MPD1    C3 2591   1.568   0.009  12.744  0.4138 -0.4756 -0.1049
  170MPD1    C4 2592   1.633   4.611  12.726 -0.7245 -0.2467  0.3332
  170MPD1    C5 2593   1.629   4.546  12.606  0.2238 -0.2628 -0.6529
  170MPD1     H 2594   1.459   0.165  12.644  1.9827  1.1386  1.5353
  170MPD1    H1 2595   1.692   4.558  12.800 -0.0013 -1.7203 -1.2730
  170MPD1    H2 2596   1.581   4.570  12.408  1.6570 -0.3244  0.7115
  170MPD1    H3 2597   1.689   4.458  12.584  3.3659  1.6611  0.3045
  170MPD1     N 2598   1.568   0.065  12.875 -0.0526  0.2470  0.0743
  170MPD1    H5 2599   1.520   0.154  12.876 -1.8678 -0.7114 -1.4404
  170MPD1    N1 2600   1.459   0.084  12.396 -0.1404 -0.3744  0.6722
  170MPD1    H6 2601   1.399   0.163  12.419 -1.3334 -0.7955 -1.0002
  170MPD1    H7 2602   1.405   0.031  12.328 -0.1607  2.2365 -1.3060
  171MPD1     C 2603   0.327   1.435  14.930 -0.1949 -0.4892  0.3460
  171MPD1    C1 2604   0.439   1.373  14.885  0.3661  0.0532  0.2417
  171MPD1    C2 2605   0.513   1.295  14.976 -0.5364  0.3017  0.9886
  171MPD1    C3 2606   0.474   1.284  15.108 -0.3782 -0.6258  0.4486
  171MPD1    C4 2607   0.358   1.353  15.150 -0.2504  0.2698  1.1148
  171MPD1    C5 2608   0.291   1.428  15.057  0.0108  0.3335 -0.5910
  171MPD1     H 2609   0.596   1.237  14.937 -1.4109 -0.0119 -0.4398
  171MPD1    H1 2610   0.322   1.361  15.252  0.4315  0.9816  1.2969
  171MPD1    H2 2611   0.263   1.501  14.873  1.9646  0.6730 -0.7222
  171MPD1    H3 2612   0.207   1.488  15.089  0.7990  1.4755 -0.6846
  171MPD1     N 2613   0.544   1.201  15.199 -0.3820 -0.3418  0.6622
  171MPD1    H5 2614   0.509   1.200  15.294 -2.6159  3.3365 -0.1356
  171MPD1    N1 2615   0.459   1.354  14.748  0.5327 -0.1250 -0.2571
  171MPD1    H6 2616   0.416   1.421  14.684  1.8512  0.0499 -0.9541
  171MPD1    H7 2617   0.559   1.351  14.728  0.3660  0.6471 -1.2247
  172MPD1     C 2618   3.518   0.230   0.416 -0.0540 -0.1716 -0.6996
  172MPD1    C1 2619   3.589   0.165   0.320 -0.0333 -0.0884 -0.4414
  172MPD1    C2 2620   3.717   0.198   0.288 -0.1100 -0.1100 -0.9886
  172MPD1    C3 2621   3.782   0.294   0.367 -0.0815 -0.2288  0.2784
  172MPD1    C4 2622   3.721   0.343   0.479  0.3738 -0.0383  0.3934
  172MPD1    C5 2623   3.595   0.305   0.505 -0.1025  0.2388 -0.2414
  172MPD1     H 2624   3.778   0.144   0.218 -1.8577 -1.2087 -1.6550
  172MPD1    H1 2625   3.780   0.412   0.538  1.7030 -1.4814  0.7483
  172MPD1    H2 2626   3.414   0.207   0.435 -0.2003  0.8131 -0.3289
  172MPD1    H3 2627   3.564   0.346   0.600 -0.8687 -1.6718  0.3174
  172MPD1     N 2628   3.908   0.357   0.338 -0.4136 -0.3145  0.0447
  172MPD1    H5 2629   3.924   0.438   0.395  1.1914 -2.3098  2.4144
  172MPD1    N1 2630   3.530   0.051   0.259 -0.1981 -0.0459  0.2413
  172MPD1    H6 2631   3.585   0.012   0.182  0.5621 -1.6860  1.6236
  172MPD1    H7 2632   3.429   0.062   0.250 -0.1095  0.8854  0.3507
  173MPD1     C 2633   0.833   0.288  13.726  0.4049 -0.4771 -0.5899
  173MPD1    C1 2634   0.749   0.323  13.829 -1.0616  0.0813 -0.3458
  173MPD1    C2 2635   0.760   0.247  13.947  0.8343 -0.1890  0.2915
  173MPD1    C3 2636   0.844   0.134  13.958  0.6805 -0.1286  0.1876
  173MPD1    C4 2637   0.923   0.105  13.849  1.0199 -0.4248  0.5002
  173MPD1    C5 2638   0.910   0.180  13.736 -0.4492 -0.3339 -0.0204
  173MPD1     H 2639   0.693   0.267  14.030 -1.2929  2.5145 -2.1107
  173MPD1    H1 2640   0.983   0.016  13.838  1.7846  0.3277 -1.3696
  173MPD1    H2 2641   0.812   0.323  13.626  1.7602  1.4679 -0.2084
  173MPD1    H3 2642   0.960   0.150  13.645  1.6162  1.7851  0.4150
  173MPD1     N 2643   0.843   0.042  14.072  0.1765 -0.1976  0.5684
  173MPD1    H5 2644   0.910   4.690  14.064  1.3271  1.0929 -2.1243
  173MPD1    N1 2645   0.642   0.420  13.812 -0.2863  0.5676  0.8147
  173MPD1    H6 2646   0.606   0.461  13.898 -2.2760  1.2857 -0.3778
  173MPD1    H7 2647   0.651   0.488  13.736  1.3278  1.5646  1.8875
  174MPD1     C 2648   0.985   3.837  14.092  0.6534  0.4821 -0.0506
  174MPD1    C1 2649   0.890   3.901  14.022  0.5763  0.0496  0.2337
  174MPD1    C2 2650   0.856   4.031  14.062 -0.4727  0.1828 -0.4103
  174MPD1    C3 2651   0.903   4.081  14.181 -0.3356 -0.1876 -0.3637
  174MPD1    C4 2652   0.983   4.004  14.266  0.3011  0.1198 -0.5842
  174MPD1    C5 2653   1.029   3.887  14.211  0.3196  0.1158  0.3603
  174MPD1     H 2654   0.780   4.078  14.001 -0.4201  2.0497  0.9536
  174MPD1    H1 2655   1.018   4.030  14.365  1.2993 -1.0648 -0.6374
  174MPD1    H2 2656   1.012   3.735  14.064  2.0069  1.0119 -0.6824
  174MPD1    H3 2657   1.103   3.827  14.263 -0.3611 -0.0262  1.1572
  174MPD1     N 2658   0.854   4.201  14.240  0.3691 -0.3231 -0.1155
  174MPD1    H5 2659   0.877   4.224  14.336  2.0116  0.3246 -0.6653
  174MPD1    N1 2660   0.866   3.865  13.891 -0.3721 -0.5983 -0.5985
  174MPD1    H6 2661   0.768   3.884  13.871 -0.4238 -0.5994 -0.3462
  174MPD1    H7 2662   0.875   3.764  13.875 -0.7886 -0.7539  0.1224
  175MPD1     C 2663   4.517   1.255  15.185  0.2354 -0.4045  0.0215
  175MPD1    C1 2664   4.394   1.202  15.166  0.0429 -0.2806 -0.3143
  175MPD1    C2 2665   4.313   1.193  15.281 -0.2030  0.0367 -0.8017
  175MPD1    C3 2666   4.353   1.249  15.401  0.5763  0.3111 -0.3724
  175MPD1    C4 2667   4.471   1.320  15.408  0.3895  0.1790  0.1370
  175MPD1    C5 2668   4.552   1.318  15.298 -0.1567  1.1741  0.3477
  175MPD1     H 2669   4.220   1.139  15.271 -0.8673  1.6701 -3.5935
  175MPD1    H1 2670   4.508   1.366  15.499  1.3991 -0.5649  0.0981
  175MPD1    H2 2671   4.596   1.248  15.111 -0.5053 -1.7789 -0.6301
  175MPD1    H3 2672   4.651   1.363  15.296  0.6756 -0.7087 -0.6529
  175MPD1     N 2673   4.276   1.221  15.522 -0.4071  0.4326  0.5844
  175MPD1    H5 2674   4.309   1.267  15.607 -0.8084 -0.4269  1.2033
  175MPD1    N1 2675   4.361   1.133  15.047  0.7880  0.0855 -0.5262
  175MPD1    H6 2676   4.261   1.119  15.036  0.5853  0.1895  1.1749
  175MPD1    H7 2677   4.402   1.187  14.971  1.8918  0.0443  0.0382
  176MPD1     C 2678   0.177   4.011   0.662  0.1470 -0.3880 -0.0781
  176MPD1    C1 2679   0.151   4.106   0.567 -0.2453 -0.2140  0.2211
  176MPD1    C2 2680   0.247   4.128   0.469  0.3827 -0.4334 -0.5087
  176MPD1    C3 2681   0.361   4.047   0.458  0.7001  0.0787  0.1824
  176MPD1    C4 2682   0.384   3.954   0.551  0.1758  0.9020 -0.1243
  176MPD1    C5 2683   0.285   3.936   0.646 -0.1416  0.0303  0.6245
  176MPD1     H 2684   0.244   4.205   0.392  0.3043 -1.1050 -1.1807
  176MPD1    H1 2685   0.476   3.897   0.549 -0.1445  0.3713  0.2683
  176MPD1    H2 2686   0.113   4.001   0.749  1.6841  0.6482  1.1766
  176MPD1    H3 2687   0.289   3.854   0.718  0.0278 -2.2970 -2.0103
  176MPD1     N 2688   0.451   4.085   0.355  0.2859  0.2791 -0.1241
  176MPD1    H5 2689   0.404   4.125   0.275 -0.7708  0.8327  0.7712
  176MPD1    N1 2690   0.041   4.201   0.584 -1.2909  0.2900 -0.0100
  176MPD1    H6 2691   0.006   4.253   0.504  1.0748  2.4466  0.3340
  176MPD1    H7 2692   4.686   4.157   0.631 -0.5962 -0.6505  0.2659
  177MPD1     C 2693   4.210   2.572   9.527 -0.0518 -0.4570  1.1145
  177MPD1    C1 2694   4.159   2.452   9.477  0.4211  0.1834 -0.3823
  177MPD1    C2 2695   4.034   2.444   9.419  0.4324 -0.8574 -0.7318
  177MPD1    C3 2696   3.960   2.556   9.413 -0.3949  0.0312 -0.1678
  177MPD1    C4 2697   4.005   2.678   9.457 -0.1063 -0.1089 -0.5956
  177MPD1    C5 2698   4.131   2.680   9.508 -0.1539  0.3347 -0.8980
  177MPD1     H 2699   3.984   2.350   9.397  0.4410 -1.2524  0.8931
  177MPD1    H1 2700   3.946   2.769   9.450  0.5027  0.4952  2.0708
  177MPD1    H2 2701   4.308   2.569   9.572  0.8296 -1.8069 -0.9017
  177MPD1    H3 2702   4.172   2.776   9.538  0.7295 -1.1555  2.6147
  177MPD1     N 2703   3.822   2.542   9.366  0.5634 -0.2617 -0.2606
  177MPD1    H5 2704   3.796   2.446   9.350  1.2361 -0.1364 -2.1615
  177MPD1    N1 2705   4.228   2.332   9.498 -0.2080  0.4909 -1.1583
  177MPD1    H6 2706   4.330   2.337   9.487  0.0424 -0.8671  0.7095
  177MPD1    H7 2707   4.196   2.272   9.422 -1.7637 -3.6926  2.8279
  178MPD1     C 2708   1.556   3.809   0.099  0.5572  0.2921 -0.6024
  178MPD1    C1 2709   1.684   3.838   0.111  0.0636 -0.3658 -0.0669
  178MPD1    C2 2710   1.756   3.894   0.009 -0.0123 -0.5963  0.4250
  178MPD1    C3 2711   1.689   3.925  17.590  0.3809 -0.0450  0.3646
  178MPD1    C4 2712   1.557   3.907  17.590  0.7394  0.3491  0.5435
  178MPD1    C5 2713   1.485   3.843  17.684 -0.5994 -0.0090  0.6317
  178MPD1     H 2714   1.862   3.909   0.023  0.3793 -2.1323 -0.8280
  178MPD1    H1 2715   1.499   3.940  17.504 -0.6481  1.4752  1.9107
  178MPD1    H2 2716   1.495   3.757   0.172  1.1514  0.0759 -0.2700
  178MPD1    H3 2717   1.380   3.817  17.680 -0.4879 -0.5080  0.9833
  178MPD1     N 2718   1.748   3.965  17.465 -0.0544 -0.1422  0.3477
  178MPD1    H5 2719   1.686   3.965  17.384 -2.4413 -1.4857  2.1831
  178MPD1    N1 2720   1.748   3.807   0.231 -0.3948 -0.0712 -0.0092
  178MPD1    H6 2721   1.674   3.802   0.301  0.1062  0.8387  0.5981
  178MPD1    H7 2722   1.826   3.867   0.256 -0.9413  1.5772 -2.3274
  179MPD1     C 2723   1.175   2.575  15.234 -0.0901 -0.0541 -0.3573
  179MPD1    C1 2724   1.263   2.571  15.336  0.1113 -0.1100 -0.1518
  179MPD1    C2 2725   1.315   2.446  15.375  0.0296  0.5740  0.7893
  179MPD1    C3 2726   1.266   2.328  15.314 -0.3842 -0.6314  0.0622
  179MPD1    C4 2727   1.177   2.336  15.213 -0.0727 -0.1844  0.3991
  179MPD1    C5 2728   1.136   2.459  15.170 -0.0191 -0.7706 -0.2972
  179MPD1     H 2729   1.384   2.430  15.457 -1.0583  3.1861  2.1967
  179MPD1    H1 2730   1.131   2.251  15.164  0.1299  0.3137 -0.6569
  179MPD1    H2 2731   1.123   2.664  15.198 -0.1650 -0.5432 -1.4372
  179MPD1    H3 2732   1.064   2.469  15.090 -1.6020  0.8008  1.3249
  179MPD1     N 2733   1.306   2.195  15.352 -1.0381  0.2612 -0.4645
  179MPD1    H5 2734   1.273   2.125  15.287  1.0867 -1.4152  0.2566
  179MPD1    N1 2735   1.315   2.696  15.378 -0.1333 -0.1012 -0.1729
  179MPD1    H6 2736   1.247   2.771  15.373 -0.3651 -0.4612 -2.4481
  179MPD1    H7 2737   1.356   2.689  15.471  1.2550 -0.2752 -0.7939
  180MPD1     C 2738   1.972   3.428  14.873  0.4213 -0.5302 -0.2603
  180MPD1    C1 2739   1.875   3.345  14.820 -0.6328  0.4345 -0.4236
  180MPD1    C2 2740   1.778   3.397  14.725  0.4102 -0.8623  0.1399
  180MPD1    C3 2741   1.786   3.531  14.685  0.3891  0.4427  0.9572
  180MPD1    C4 2742   1.891   3.602  14.731  0.2483  0.7364  0.0413
  180MPD1    C5 2743   1.983   3.550  14.823  0.1518 -0.3444  0.0180
  180MPD1     H 2744   1.700   3.333  14.686  0.9539 -2.1402  1.1435
  180MPD1    H1 2745   1.908   3.702  14.693 -2.7970  0.5190 -1.9465
  180MPD1    H2 2746   2.048   3.396  14.943 -0.1119 -1.2733 -0.0232
  180MPD1    H3 2747   2.061   3.614  14.862 -1.1018 -0.2115  2.3217
  180MPD1     N 2748   1.695   3.574  14.585 -0.2805  0.3934 -0.0574
  180MPD1    H5 2749   1.617   3.517  14.553 -0.2795  0.6587 -0.5342
  180MPD1    N1 2750   1.886   3.209  14.857  0.7029 -0.5585 -0.3148
  180MPD1    H6 2751   1.922   3.207  14.952 -0.0823  2.2805  0.0519
  180MPD1    H7 2752   1.796   3.161  14.852  0.0704  0.5588  0.3758
  181MPD1     C 2753   3.273   4.031  10.226 -0.0557 -0.2600  0.0536
  181MPD1    C1 2754   3.335   4.149  10.182 -0.5450 -0.2584  0.5640
  181MPD1    C2 2755   3.384   4.152  10.049 -0.5102 -0.7763 -0.3072
  181MPD1    C3 2756   3.394   4.039   9.972 -0.3314 -0.2789 -0.3292
  181MPD1    C4 2757   3.345   3.920  10.024  0.2409 -1.1269  0.1442
  181MPD1    C5 2758   3.279   3.917  10.145 -0.0011 -0.3423  0.2416
  181MPD1     H 2759   3.415   4.245  10.001  0.4242  0.0824  1.9645
  181MPD1    H1 2760   3.352   3.826   9.971  1.3076 -0.9974  0.0480
  181MPD1    H2 2761   3.206   4.032  10.311 -1.9309 -1.6944 -1.3887
  181MPD1    H3 2762   3.236   3.821  10.173 -2.6962  1.0511  0.8665
  181MPD1     N 2763   3.460   4.034   9.846 -0.3249  0.3300 -0.2214
  181MPD1    H5 2764   3.468   3.950   9.791  0.1033 -0.0542  0.4364
  181MPD1    N1 2765   3.318   4.270  10.260 -0.3778  0.3110  1.0280
  181MPD1    H6 2766   3.323   4.255  10.361  1.2176 -2.7323  0.4809
  181MPD1    H7 2767   3.373   4.349  10.227 -3.3569  1.5547 -1.0367
  182MPD1     C 2768   3.706   3.443   0.703 -0.2422  0.1938 -0.5155
  182MPD1    C1 2769   3.762   3.563   0.744  0.4182  0.0054  0.1826
  182MPD1    C2 2770   3.714   3.680   0.694 -0.5939 -0.1387 -0.1850
  182MPD1    C3 2771   3.606   3.680   0.609  0.2670 -0.3273 -0.0073
  182MPD1    C4 2772   3.561   3.557   0.561 -0.4141  0.2295  0.0225
  182MPD1    C5 2773   3.612   3.434   0.603  0.0669  0.5388 -0.3472
  182MPD1     H 2774   3.746   3.774   0.739  1.4130 -0.4896 -0.9183
  182MPD1    H1 2775   3.483   3.557   0.485 -0.7549 -0.3254  0.3671
  182MPD1    H2 2776   3.735   3.349   0.750 -0.7279 -0.2110 -1.0229
  182MPD1    H3 2777   3.574   3.338   0.569  2.6370 -0.6938  0.2744
  182MPD1     N 2778   3.545   3.797   0.549 -0.1854  0.2438  0.3867
  182MPD1    H5 2779   3.457   3.785   0.500  2.0422 -0.0134 -3.5351
  182MPD1    N1 2780   3.852   3.556   0.853  0.0453 -0.0633  0.0262
  182MPD1    H6 2781   3.809   3.522   0.938  2.3469 -1.1251  0.7545
  182MPD1    H7 2782   3.888   3.650   0.868  1.1357  0.1193 -3.5357
  183MPD1     C 2783   4.478   1.195   9.100 -0.0425  0.0337  0.4504
  183MPD1    C1 2784   4.383   1.119   9.159  0.2590 -0.2240 -0.5682
  183MPD1    C2 2785   4.418   1.002   9.215 -0.3810  0.9021  0.0747
  183MPD1    C3 2786   4.549   0.955   9.203 -0.5602 -0.0008  0.0427
  183MPD1    C4 2787   4.641   1.034   9.138  0.3385  0.3194  0.1452
  183MPD1    C5 2788   4.608   1.156   9.090  0.4692 -0.5978 -0.4755
  183MPD1     H 2789   4.342   0.941   9.263  1.0957 -0.1701  1.0646
  183MPD1    H1 2790   0.019   1.004   9.118 -0.1518 -0.3224 -1.4167
  183MPD1    H2 2791   4.458   1.296   9.065 -1.3697 -0.8075 -1.1904
  183MPD1    H3 2792   4.682   1.207   9.030  0.9694 -1.7105 -0.8142
  183MPD1     N 2793   4.587   0.829   9.260  0.2053 -0.4155  0.7950
  183MPD1    H5 2794   4.511   0.783   9.309 -2.1954  2.1472 -0.5440
  183MPD1    N1 2795   4.258   1.174   9.186  0.0929  0.0895  0.8423
  183MPD1    H6 2796   4.236   1.244   9.116  1.0732 -0.3533  0.0946
  183MPD1    H7 2797   4.186   1.109   9.216 -0.8731  0.5191 -0.5404
  184MPD1     C 2798   0.868   2.367   8.673 -0.5917 -0.4779 -0.0340
  184MPD1    C1 2799   0.838   2.501   8.645 -0.3560  0.0538 -0.7246
  184MPD1    C2 2800   0.732   2.559   8.708  0.2909 -0.3639 -0.3217
  184MPD1    C3 2801   0.639   2.486   8.783  0.1727 -0.3224  0.0178
  184MPD1    C4 2802   0.654   2.347   8.777 -0.2754  0.0561  0.1627
  184MPD1    C5 2803   0.766   2.287   8.722 -0.4800  0.3144  0.8071
  184MPD1     H 2804   0.719   2.667   8.700 -0.9743 -0.5003 -0.1569
  184MPD1    H1 2805   0.570   2.298   8.825  0.1361  0.8248  1.6794
  184MPD1    H2 2806   0.960   2.325   8.633 -0.0872  0.2261  0.3692
  184MPD1    H3 2807   0.766   2.179   8.716  2.6411  0.3689 -0.2195
  184MPD1     N 2808   0.537   2.550   8.857 -0.3232  0.1166 -0.2148
  184MPD1    H5 2809   0.482   2.495   8.922  0.2644 -1.7008 -1.2567
  184MPD1    N1 2810   0.941   2.574   8.580 -0.0335 -0.2881  0.3411
  184MPD1    H6 2811   0.911   2.663   8.541 -0.4375 -0.6891 -0.2621
  184MPD1    H7 2812   1.001   2.523   8.515 -0.1932 -0.8773  0.6532
  185MPD1     C 2813   4.314   2.438   9.099  0.5262  0.4439 -0.0630
  185MPD1    C1 2814   4.415   2.354   9.064  0.1883  0.1099 -0.2590
  185MPD1    C2 2815   4.546   2.404   9.068 -0.0284  0.5283 -0.0585
  185MPD1    C3 2816   4.573   2.533   9.110  0.0328  0.6128 -0.3856
  185MPD1    C4 2817   4.471   2.620   9.150  0.3968 -0.4703  0.2168
  185MPD1    C5 2818   4.340   2.570   9.135 -0.4171  0.1713 -0.7674
  185MPD1     H 2819   4.625   2.334   9.041  0.8509  1.4074  0.2342
  185MPD1    H1 2820   4.478   2.718   9.194 -0.7737  0.2495 -1.2261
  185MPD1    H2 2821   4.213   2.398   9.103  1.0952 -0.8460  1.6073
  185MPD1    H3 2822   4.262   2.640   9.161 -0.4820  0.0618 -0.6635
  185MPD1     N 2823   4.700   2.587   9.114 -0.6860 -0.4772 -0.2939
  185MPD1    H5 2824   4.695   2.687   9.133  0.6176 -0.4395 -0.1431
  185MPD1    N1 2825   4.392   2.230   9.001 -0.2059  0.0952 -0.8409
  185MPD1    H6 2826   4.303   2.197   9.037 -0.0687 -0.0686 -0.6531
  185MPD1    H7 2827   4.461   2.157   9.017  0.4436  1.3583  2.3234
  186MPD1     C 2828   1.882   1.722  16.040 -0.3006 -0.4054  0.2951
  186MPD1    C1 2829   1.969   1.823  16.010  0.8462  0.1933 -0.2375
  186MPD1    C2 2830   1.937   1.946  16.061  0.2960  0.4912  0.6979
  186MPD1    C3 2831   1.849   1.960  16.166  0.4050 -0.5398 -0.1486
  186MPD1    C4 2832   1.770   1.852  16.204  0.0395 -0.0589 -0.7937
  186MPD1    C5 2833   1.785   1.735  16.138 -0.3217 -0.2866 -0.3611
  186MPD1     H 2834   2.005   2.027  16.041  0.4823  0.0629 -0.3909
  186MPD1    H1 2835   1.704   1.857  16.291 -0.3465 -1.2070 -1.0234
  186MPD1    H2 2836   1.900   1.622  16.003 -1.5092  0.2856 -2.1764
  186MPD1    H3 2837   1.736   1.644  16.170 -0.6918 -0.0754 -0.3291
  186MPD1     N 2838   1.827   2.086  16.228  0.2702 -0.1770  0.1261
  186MPD1    H5 2839   1.757   2.093  16.301 -0.0421  0.2226 -0.2115
  186MPD1    N1 2840   2.055   1.811  15.903 -0.1515 -0.5129 -0.0729
  186MPD1    H6 2841   2.092   1.717  15.908  3.5886  1.0250  0.8991
  186MPD1    H7 2842   2.136   1.872  15.906 -0.4305 -0.1537  0.1947
  187MPD1     C 2843   1.122   4.260   0.202  0.8249 -0.7623  0.4452
  187MPD1    C1 2844   1.049   4.153   0.145 -0.8635  0.0682 -0.4865
  187MPD1    C2 2845   1.014   4.166   0.010  0.3031  1.0538 -0.7705
  187MPD1    C3 2846   1.035   4.282  17.636  0.0502 -0.2258 -0.3171
  187MPD1    C4 2847   1.088   4.389   0.004  0.1973  0.2569  0.1924
  187MPD1    C5 2848   1.139   4.375   0.129  0.7528  0.8203 -0.2637
  187MPD1     H 2849   0.972   4.083  17.651  0.2022  0.6775 -0.1278
  187MPD1    H1 2850   1.106   4.481  17.646 -0.6346  0.8889  0.9744
  187MPD1    H2 2851   1.164   4.254   0.302 -0.8605 -0.7060  1.1667
  187MPD1    H3 2852   1.207   4.455   0.157  0.0315  1.2828  0.1556
  187MPD1     N 2853   0.999   4.296  17.498  0.2829 -0.4042 -0.9737
  187MPD1    H5 2854   1.011   4.389  17.459 -2.7467 -0.2876 -1.6288
  187MPD1    N1 2855   1.034   4.031   0.210  0.2625  0.0093  0.2312
  187MPD1    H6 2856   0.955   3.975   0.177 -0.0974  0.9066 -0.4188
  187MPD1    H7 2857   1.051   4.015   0.309 -0.3930 -3.0963 -0.1605
  188MPD1     C 2858   1.424   3.533  10.526  0.2337  0.7143  0.1515
  188MPD1    C1 2859   1.508   3.554  10.419 -0.0823  0.0152  0.0167
  188MPD1    C2 2860   1.489   3.484  10.302 -0.5073  0.2394 -0.6534
  188MPD1    C3 2861   1.379   3.391  10.301 -0.3183 -0.0581  0.3406
  188MPD1    C4 2862   1.286   3.383  10.404  0.2195  0.0271  0.2135
  188MPD1    C5 2863   1.322   3.440  10.521  0.8136 -0.8988 -0.0103
  188MPD1     H 2864   1.558   3.498  10.220 -0.2323 -0.6325 -0.5800
  188MPD1    H1 2865   1.213   3.303  10.404  0.7471 -0.4579  2.2189
  188MPD1    H2 2866   1.439   3.563  10.629 -0.0866 -1.9329  0.9600
  188MPD1    H3 2867   1.263   3.422  10.610 -2.5945  1.7800 -1.7302
  188MPD1     N 2868   1.360   3.310  10.191 -0.0061  0.9103 -0.3994
  188MPD1    H5 2869   1.284   3.244  10.204  0.5366  0.2713 -0.4469
  188MPD1    N1 2870   1.626   3.626  10.427  0.5607  0.3515 -0.5212
  188MPD1    H6 2871   1.636   3.699  10.498  0.2337 -0.1474  0.0353
  188MPD1    H7 2872   1.647   3.674  10.340  0.5788 -3.3285 -2.5598
  189MPD1     C 2873   2.536   4.675   0.307 -0.4859 -0.0041  0.5401
  189MPD1    C1 2874   2.407   4.667   0.260 -0.8439  0.0570 -0.0308
  189MPD1    C2 2875   2.341   0.062   0.255 -0.3673 -0.8524  0.1606
  189MPD1    C3 2876   2.388   0.182   0.304  0.2305 -0.5871  0.1436
  189MPD1    C4 2877   2.510   0.181   0.369 -0.0143  0.3247 -0.2541
  189MPD1    C5 2878   2.576   0.060   0.371 -0.1197  0.9756  0.2749
  189MPD1     H 2879   2.238   0.056   0.222  0.4725 -0.7377 -2.4716
  189MPD1    H1 2880   2.561   0.264   0.417 -1.9384  1.5180 -0.2803
  189MPD1    H2 2881   2.598   4.587   0.310 -0.2063  0.2774  2.7680
  189MPD1    H3 2882   2.674   0.059   0.417  0.5852 -0.2199 -1.2589
  189MPD1     N 2883   2.306   0.299   0.281  0.0387  0.2219 -0.6066
  189MPD1    H5 2884   2.217   0.281   0.237 -1.0741 -1.2674  2.2694
  189MPD1    N1 2885   2.353   4.558   0.188  0.5707 -0.1164 -0.2641
  189MPD1    H6 2886   2.253   4.546   0.207 -0.1337  0.9645 -3.2755
  189MPD1    H7 2887   2.399   4.474   0.222  0.3600 -1.4166 -3.1314
  190MPD1     C 2888   1.392   3.818  15.396 -0.4910 -0.3972 -0.1523
  190MPD1    C1 2889   1.520   3.786  15.351 -0.2197  0.2457  0.2208
  190MPD1    C2 2890   1.592   3.679  15.402  0.8185  0.0011 -0.3668
  190MPD1    C3 2891   1.529   3.593  15.494  0.1716 -0.0706  0.3669
  190MPD1    C4 2892   1.404   3.623  15.543 -0.1496  0.6170 -0.1215
  190MPD1    C5 2893   1.338   3.730  15.487 -0.5516  0.3366  0.7466
  190MPD1     H 2894   1.690   3.659  15.359 -0.1710  1.8313 -3.4371
  190MPD1    H1 2895   1.353   3.559  15.614  0.9283  1.4452  1.4031
  190MPD1    H2 2896   1.335   3.899  15.353 -0.9153  0.4065  1.9081
  190MPD1    H3 2897   1.234   3.741  15.513 -0.4606  2.7304  0.0445
  190MPD1     N 2898   1.598   3.479  15.528  0.0859 -0.2777  0.3470
  190MPD1    H5 2899   1.692   3.466  15.493  0.2923 -0.4411  0.9690
  190MPD1    N1 2900   1.578   3.873  15.255 -0.0656 -0.3709  0.4105
  190MPD1    H6 2901   1.519   3.904  15.179  0.2864 -1.6225 -0.3775
  190MPD1    H7 2902   1.673   3.854  15.221  0.4348  0.7636  1.1940
  191MPD1     C 2903   0.858   0.360  12.636  0.2205 -0.3057 -0.3532
  191MPD1    C1 2904   0.944   0.460  12.655  0.6919  0.1460  0.2162
  191MPD1    C2 2905   0.898   0.590  12.623 -0.5942 -0.0933 -0.1226
  191MPD1    C3 2906   0.773   0.609  12.576  0.8855  0.5394  0.1694
  191MPD1    C4 2907   0.686   0.505  12.553 -0.0219 -0.4505 -0.1891
  191MPD1    C5 2908   0.729   0.382  12.594  0.2551 -0.2055  0.4199
  191MPD1     H 2909   0.964   0.674  12.641  1.2489 -1.7515  0.7267
  191MPD1    H1 2910   0.584   0.512  12.516 -0.1117 -0.8788 -0.0261
  191MPD1    H2 2911   0.876   0.254  12.649 -1.0411 -0.2796  1.5478
  191MPD1    H3 2912   0.658   0.300  12.586  0.6560 -0.0929 -3.7866
  191MPD1     N 2913   0.730   0.742  12.548  0.0730 -0.7517 -0.3438
  191MPD1    H5 2914   0.798   0.817  12.547 -1.3878  0.6021  2.0648
  191MPD1    N1 2915   1.062   0.440  12.730  0.1351 -0.2472 -0.0343
  191MPD1    H6 2916   1.094   0.346  12.706 -1.7322 -0.3907 -1.9218
  191MPD1    H7 2917   1.140   0.500  12.702 -0.3273 -0.1861 -1.1873
  192MPD1     C 2918   4.610   1.284  12.715 -0.0406  1.1073  0.6545
  192MPD1    C1 2919   4.660   1.312  12.590  0.1320  0.2123 -0.0782
  192MPD1    C2 2920   0.066   1.284  12.550  0.2299  0.1649 -0.0632
  192MPD1    C3 2921   0.156   1.223  12.646  0.0399  0.3748 -0.3047
  192MPD1    C4 2922   0.113   1.208  12.771  0.9146 -0.1688  0.5083
  192MPD1    C5 2923   4.701   1.223  12.805  0.1887  0.1116 -0.1842
  192MPD1     H 2924   0.105   1.319  12.455 -1.3567  1.0666 -0.3681
  192MPD1    H1 2925   0.181   1.164  12.843 -0.4787 -0.0288  1.9167
  192MPD1    H2 2926   4.510   1.310  12.749 -0.4173 -1.0174  1.1786
  192MPD1    H3 2927   4.676   1.218  12.910 -0.1994  1.4034 -0.2191
  192MPD1     N 2928   0.283   1.173  12.616 -0.2953 -0.1348  0.3499
  192MPD1    H5 2929   0.336   1.138  12.696 -1.6741 -2.6591  0.1539
  192MPD1    N1 2930   4.570   1.394  12.519 -0.0166 -0.1472  0.5694
  192MPD1    H6 2931   4.473   1.366  12.530  0.1527 -2.1590 -3.1185
  192MPD1    H7 2932   4.581   1.382  12.419 -0.3940  1.0610  0.3836
  193MPD1     C 2933   0.403   1.059  16.262  0.5856 -0.2940  0.0012
  193MPD1    C1 2934   0.317   1.132  16.348  0.1146 -0.1220 -0.2576
  193MPD1    C2 2935   0.379   1.175  16.459 -0.2469 -0.2303 -0.2410
  193MPD1    C3 2936   0.514   1.169  16.475  0.0257  0.0274  0.9889
  193MPD1    C4 2937   0.595   1.125  16.373 -0.3062  0.1571 -0.1309
  193MPD1    C5 2938   0.538   1.055  16.271  0.3055  0.6965 -0.4468
  193MPD1     H 2939   0.309   1.216  16.532 -1.4052 -1.2482 -0.7756
  193MPD1    H1 2940   0.701   1.126  16.392 -0.7404  0.2057  2.3419
  193MPD1    H2 2941   0.358   0.999  16.184 -2.2382 -2.6763  3.4759
  193MPD1    H3 2942   0.599   1.008  16.195 -1.8699  0.8966 -2.3444
  193MPD1     N 2943   0.572   1.196  16.607 -0.1518 -0.1296 -0.4771
  193MPD1    H5 2944   0.673   1.202  16.611 -0.1472 -0.5269  0.1336
  193MPD1    N1 2945   0.175   1.113  16.340 -0.7073 -0.1445  0.5780
  193MPD1    H6 2946   0.142   1.104  16.245 -2.7267  0.3889  1.2219
  193MPD1    H7 2947   0.129   1.195  16.380  1.5632  0.9268  1.0390
  194MPD1     C 2948   2.690   3.059  16.408 -0.4504  0.6193 -0.2362
  194MPD1    C1 2949   2.761   3.074  16.525 -0.3088  0.0791 -0.3393
  194MPD1    C2 2950   2.825   2.963  16.573  0.0452  0.8950 -0.6599
  194MPD1    C3 2951   2.814   2.839  16.512  0.3441 -0.1940 -0.0477
  194MPD1    C4 2952   2.742   2.828  16.392  0.5750 -0.1121 -0.2673
  194MPD1    C5 2953   2.680   2.937  16.345  0.2935  0.3995 -1.4252
  194MPD1     H 2954   2.882   2.972  16.665  2.6758  1.2555 -2.3370
  194MPD1    H1 2955   2.748   2.738  16.332  3.6602  0.6057 -1.0600
  194MPD1    H2 2956   2.644   3.148  16.365  0.5470  0.2962 -1.9775
  194MPD1    H3 2957   2.640   2.929  16.244 -0.4185  0.0229 -1.1135
  194MPD1     N 2958   2.901   2.730  16.551  0.0185 -0.3491  0.2591
  194MPD1    H5 2959   2.925   2.653  16.489 -0.0468  0.2366 -0.4833
  194MPD1    N1 2960   2.785   3.203  16.578  0.1463 -0.1360  0.3940
  194MPD1    H6 2961   2.770   3.203  16.678 -0.9076  0.7637  0.2382
  194MPD1    H7 2962   2.718   3.273  16.546 -1.2762 -0.7141  2.1400
  195MPD1     C 2963   4.473   0.523   0.391  0.6498 -0.7612 -0.4477
  195MPD1    C1 2964   4.521   0.596   0.284  0.1044 -0.2514 -0.1681
  195MPD1    C2 2965   4.558   0.520   0.172  0.0322  0.3075 -0.1091
  195MPD1    C3 2966   4.535   0.385   0.160 -0.0879 -0.1230 -0.3394
  195MPD1    C4 2967   4.475   0.319   0.266  0.3579  0.5790  0.5761
  195MPD1    C5 2968   4.448   0.390   0.379  0.1881 -0.5095 -0.6305
  195MPD1     H 2969   4.604   0.569   0.087 -0.5695 -0.5349 -0.9297
  195MPD1    H1 2970   4.455   0.213   0.254 -1.9472  1.1141 -0.2894
  195MPD1    H2 2971   4.439   0.576   0.480 -1.6662 -1.1613 -1.0863
  195MPD1    H3 2972   4.395   0.343   0.461 -0.0243  2.6657  1.0415
  195MPD1     N 2973   4.581   0.313   0.049 -0.2669 -0.0314  0.2774
  195MPD1    H5 2974   4.566   0.213   0.054  0.4737 -0.0593  1.8458
  195MPD1    N1 2975   4.550   0.734   0.300 -0.1925 -0.1800  0.5357
  195MPD1    H6 2976   4.554   0.778   0.208 -0.9060  0.4999  0.8323
  195MPD1    H7 2977   4.493   0.776   0.373 -1.0959 -1.1454  0.3964
  196MPD1     C 2978   3.891   3.217   0.057  0.1217  0.0336  0.4989
  196MPD1    C1 2979   3.866   3.312  17.658 -0.2780  0.1201 -0.2873
  196MPD1    C2 2980   3.918   3.443  17.676  0.2232 -0.1552  0.0436
  196MPD1    C3 2981   4.000   3.467   0.092 -0.2819  0.1454  0.3244
  196MPD1    C4 2982   4.011   3.367   0.188 -0.4167 -0.3534 -0.9923
  196MPD1    C5 2983   3.965   3.243   0.166  0.6153 -0.2699 -0.1859
  196MPD1     H 2984   3.887   3.519  17.606  0.7795  1.4049  1.4924
  196MPD1    H1 2985   4.062   3.388   0.281  0.4483  0.2120 -1.5939
  196MPD1    H2 2986   3.846   3.118   0.055 -0.2463  0.2130 -0.1938
  196MPD1    H3 2987   3.979   3.172   0.247 -1.4373 -1.2329 -0.6531
  196MPD1     N 2988   4.044   3.601   0.126  0.1484  0.1966 -0.4384
  196MPD1    H5 2989   4.090   3.616   0.216  0.5978 -1.3308 -0.4088
  196MPD1    N1 2990   3.771   3.287  17.557 -0.3337  0.1254 -0.4896
  196MPD1    H6 2991   3.765   3.187  17.542  1.1756 -0.2679  1.4930
  196MPD1    H7 2992   3.791   3.342  17.474 -0.6874 -1.0342 -1.3375
  197MPD1     C 2993   3.793   0.798  17.162  0.1167  0.2536  0.3602
  197MPD1    C1 2994   3.899   0.868  17.222 -0.1934  0.2287  0.0903
  197MPD1    C2 2995   3.927   0.989  17.156  0.4949 -0.4409 -0.3083
  197MPD1    C3 2996   3.879   1.028  17.028  0.2608  0.0917 -0.3026
  197MPD1    C4 2997   3.790   0.944  16.970 -0.0459 -0.5876 -0.3093
  197MPD1    C5 2998   3.734   0.842  17.039  0.4294 -0.0587  0.7177
  197MPD1     H 2999   3.995   1.058  17.203 -1.0468 -0.2260  1.6041
  197MPD1    H1 3000   3.760   0.972  16.870 -0.9339 -1.9215 -0.4257
  197MPD1    H2 3001   3.752   0.715  17.219 -0.8310  0.0161 -0.6524
  197MPD1    H3 3002   3.642   0.794  17.006  0.9610 -1.7593  1.7440
  197MPD1     N 3003   3.917   1.148  16.970 -0.3400 -0.0487  0.1423
  197MPD1    H5 3004   3.887   1.164  16.874 -1.8252 -2.0334  0.2584
  197MPD1    N1 3005   3.936   0.843  17.354 -0.5315 -0.8837  0.0432
  197MPD1    H6 3006   4.024   0.881  17.389 -0.3227  0.4532 -1.9106
  197MPD1    H7 3007   3.939   0.744  17.376  0.1729 -0.4497  1.9185
  198MPD1     C 3008   1.300   4.488  15.244 -0.2897 -0.1033 -0.6571
  198MPD1    C1 3009   1.255   4.609  15.275 -0.0226 -0.2310 -0.4729
  198MPD1    C2 3010   1.279   4.660  15.399  0.2642  0.2562  1.1368
  198MPD1    C3 3011   1.354   4.587  15.496 -0.3861 -0.4127  0.3313
  198MPD1    C4 3012   1.402   4.463  15.452 -0.0228  0.3705 -0.3681
  198MPD1    C5 3013   1.374   4.417  15.332  0.3979 -0.1229 -0.4145
  198MPD1     H 3014   1.236   0.033  15.427  0.4238  1.6328 -3.4415
  198MPD1    H1 3015   1.471   4.409  15.516  0.3878 -0.6814 -1.7175
  198MPD1    H2 3016   1.270   4.445  15.149  1.7912  0.3627 -1.5461
  198MPD1    H3 3017   1.404   4.319  15.299  1.9860  0.6272 -1.2311
  198MPD1     N 3018   1.381   4.647  15.624  0.1457 -0.4207 -0.1005
  198MPD1    H5 3019   1.357   0.021  15.639  1.8780  0.1345 -0.8868
  198MPD1    N1 3020   1.205   4.691  15.170  0.7632 -0.3085  0.0052
  198MPD1    H6 3021   1.157   4.630  15.103 -0.0108 -0.2043  0.4624
  198MPD1    H7 3022   1.149   0.045  15.206  1.2422 -1.1041  2.3983
  199MPD1     C 3023   4.068   0.738  10.189  0.3641 -0.6145  0.2490
  199MPD1    C1 3024   3.956   0.691  10.132 -0.2479  0.2341  0.0092
  199MPD1    C2 3025   3.944   0.687   9.992  0.7375 -0.5803  0.2628
  199MPD1    C3 3026   4.034   0.751   9.911  0.0261 -0.2746 -0.2983
  199MPD1    C4 3027   4.143   0.810   9.967  0.8106  0.5080  0.2284
  199MPD1    C5 3028   4.159   0.803  10.105 -0.2497  0.8357  0.1639
  199MPD1     H 3029   3.863   0.627   9.952  0.4931  0.3094 -0.5627
  199MPD1    H1 3030   4.218   0.868   9.916 -0.0260  0.2136 -1.3483
  199MPD1    H2 3031   4.081   0.736  10.296 -1.1042  0.8147  0.4618
  199MPD1    H3 3032   4.248   0.852  10.144  0.4742  0.5215 -1.0774
  199MPD1     N 3033   4.013   0.765   9.773 -0.1145  0.1483  0.4422
  199MPD1    H5 3034   4.091   0.812   9.728 -0.8481  0.8176 -0.1463
  199MPD1    N1 3035   3.865   0.626  10.218 -0.5538  0.1064  0.3613
  199MPD1    H6 3036   3.864   0.683  10.302 -0.8388 -0.3438  0.6660
  199MPD1    H7 3037   3.771   0.636  10.179 -0.2378  1.8840  0.0716
  200MPD1     C 3038   1.547   0.337  14.783  0.5541 -0.5539  0.6943
  200MPD1    C1 3039   1.675   0.315  14.829 -0.1634  0.0705 -0.3357
  200MPD1    C2 3040   1.774   0.365  14.735 -0.4644  1.1676 -0.2731
  200MPD1    C3 3041   1.742   0.445  14.629  0.3445  0.1704 -0.2554
  200MPD1    C4 3042   1.615   0.493  14.618 -0.0356 -0.4653 -0.1119
  200MPD1    C5 3043   1.519   0.425  14.687 -0.1259  0.3734 -0.0619
  200MPD1     H 3044   1.877   0.331  14.747 -0.3721  1.6219  0.2487
  200MPD1    H1 3045   1.595   0.571  14.545  0.1976 -2.1397 -1.9660
  200MPD1    H2 3046   1.466   0.282  14.830 -0.9280 -1.4695 -2.9287
  200MPD1    H3 3047   1.413   0.445  14.677 -0.1039  0.0623 -0.9292
  200MPD1     N 3048   1.852   0.489  14.546  0.1611  0.8040  0.1619
  200MPD1    H5 3049   1.941   0.442  14.557 -0.2820  0.0165  0.3935
  200MPD1    N1 3050   1.711   0.222  14.933  0.8601 -0.1280 -0.1433
  200MPD1    H6 3051   1.646   0.244  15.008  0.2820  0.3411 -0.7865
  200MPD1    H7 3052   1.805   0.230  14.973  1.5309 -2.2280 -1.3307
  201MPD1     C 3053   4.472   4.720  13.084  0.5692 -0.3520  0.0465
  201MPD1    C1 3054   4.388   4.631  13.149 -0.1991  0.3449  0.8751
  201MPD1    C2 3055   4.421   4.501  13.149  0.5917  0.2961  0.2647
  201MPD1    C3 3056   4.526   4.456  13.072  0.8512  0.2068 -0.0520
  201MPD1    C4 3057   4.615   4.546  13.021 -0.0135  0.4123  0.6079
  201MPD1    C5 3058   4.579   4.676  13.016  0.1033 -0.3216  0.2010
  201MPD1     H 3059   4.373   4.435  13.221  1.9667 -0.8340  0.1427
  201MPD1    H1 3060   4.709   4.516  12.977 -0.1218  0.3047  0.4515
  201MPD1    H2 3061   4.464   0.103  13.102 -0.0201 -0.0495 -1.9036
  201MPD1    H3 3062   4.657   0.019  12.978 -0.5192  0.1533 -0.2440
  201MPD1     N 3063   4.550   4.317  13.088  0.2907  0.2235  0.3585
  201MPD1    H5 3064   4.485   4.258  13.140  1.5020 -2.5606 -1.2489
  201MPD1    N1 3065   4.285   4.682  13.233 -0.6300 -0.1976 -0.1959
  201MPD1    H6 3066   4.263   0.055  13.210 -1.1382 -0.4804 -0.8995
  201MPD1    H7 3067   4.206   4.620  13.244  1.0374 -2.1214  1.0471
  202MPD1     C 3068   4.268   4.244   9.508  0.2093 -0.9037 -0.0170
  202MPD1    C1 3069   4.316   4.157   9.418 -0.5695  0.7045 -0.0599
  202MPD1    C2 3070   4.455   4.157   9.422 -0.1761  0.4694 -0.1878
  202MPD1    C3 3071   4.536   4.259   9.475  0.3953  0.7568 -0.2395
  202MPD1    C4 3072   4.468   4.354   9.544 -0.3733  0.2190 -0.6177
  202MPD1    C5 3073   4.336   4.350   9.555  0.1651 -0.5902  0.3061
  202MPD1     H 3074   4.503   4.089   9.352 -2.4815 -2.1163  0.7523
  202MPD1    H1 3075   4.529   4.433   9.589  1.5543 -0.7407 -1.5297
  202MPD1    H2 3076   4.161   4.242   9.526  0.2896  0.7815  0.6489
  202MPD1    H3 3077   4.283   4.422   9.617  0.0962 -0.4661  0.1005
  202MPD1     N 3078   4.674   4.267   9.464 -0.2403  0.3668  0.4436
  202MPD1    H5 3079   4.721   4.351   9.495 -2.6896  2.2981 -1.0655
  202MPD1    N1 3080   4.256   4.027   9.394 -0.4083  0.0753  0.3672
  202MPD1    H6 3081   4.155   4.029   9.379 -0.4811 -0.8154  0.7358
  202MPD1    H7 3082   4.291   3.983   9.309 -0.3958  0.3573  0.2241
  203MPD1     C 3083   3.758   0.478  12.042  0.0587  0.0619  0.1201
  203MPD1    C1 3084   3.852   0.436  11.952  0.3066 -0.1406  0.2850
  203MPD1    C2 3085   3.914   0.314  11.979 -0.3901  1.1076  0.1418
  203MPD1    C3 3086   3.879   0.227  12.081 -0.9437  0.4985 -0.9480
  203MPD1    C4 3087   3.778   0.274  12.162 -0.1976 -0.2430 -0.4447
  203MPD1    C5 3088   3.725   0.397  12.145 -0.1398  0.5710 -0.1802
  203MPD1     H 3089   3.994   0.275  11.918 -1.8287 -1.0391 -0.3573
  203MPD1    H1 3090   3.745   0.219  12.249 -1.0248 -0.3687 -0.8359
  203MPD1    H2 3091   3.718   0.578  12.036  0.4285  0.2491  0.8002
  203MPD1    H3 3092   3.651   0.428  12.217  1.3686 -2.0812  2.5028
  203MPD1     N 3093   3.943   0.101  12.103 -0.4598 -0.7589  0.5480
  203MPD1    H5 3094   4.020   0.078  12.040 -1.2862 -0.0527 -0.7010
  203MPD1    N1 3095   3.901   0.525  11.859 -0.0669  0.0890 -0.4499
  203MPD1    H6 3096   3.826   0.575  11.813  0.4384 -0.9791 -2.4294
  203MPD1    H7 3097   3.959   0.481  11.787  2.7534  0.4858  1.5672
  204MPD1     C 3098   3.639   1.853  17.519  0.4649 -0.0432  1.4185
  204MPD1    C1 3099   3.676   1.794  17.400 -0.3425  0.5826  0.2107
  204MPD1    C2 3100   3.573   1.714  17.340 -0.6736 -0.6548  0.1029
  204MPD1    C3 3101   3.460   1.679  17.409 -0.3096  0.0168 -0.6529
  204MPD1    C4 3102   3.428   1.732  17.529 -0.4523  0.0369  0.1596
  204MPD1    C5 3103   3.523   1.815  17.585 -0.3427 -0.3871  0.2995
  204MPD1     H 3104   3.589   1.681  17.238 -1.3748  0.0373 -0.2276
  204MPD1    H1 3105   3.336   1.714  17.583  1.5301 -0.6230  3.3190
  204MPD1    H2 3106   3.700   1.928  17.568  0.3162  1.2411 -0.3571
  204MPD1    H3 3107   3.509   1.850  17.687  1.0282 -2.6268  1.2334
  204MPD1     N 3108   3.373   1.594  17.341  1.1186 -0.1502 -0.2997
  204MPD1    H5 3109   3.387   1.587  17.241 -0.1050  0.5529 -0.5217
  204MPD1    N1 3110   3.779   1.858  17.326  0.2986 -0.6788  0.0283
  204MPD1    H6 3111   3.828   1.798  17.260  1.1778  0.3934 -0.3014
  204MPD1    H7 3112   3.852   1.897  17.386  0.8503 -1.7825  0.0863
  205MPD1     C 3113   3.205   0.453  16.518 -0.2767  0.0604 -0.4067
  205MPD1    C1 3114   3.077   0.401  16.509  0.6761 -0.4550  0.1795
  205MPD1    C2 3115   2.990   0.415  16.614  0.4024  0.1791 -0.2600
  205MPD1    C3 3116   3.016   0.497  16.721 -0.0161  0.4572 -0.2018
  205MPD1    C4 3117   3.147   0.552  16.727  0.3962 -0.2863  0.1913
  205MPD1    C5 3118   3.238   0.521  16.630 -0.4371 -0.1187 -0.8646
  205MPD1     H 3119   2.885   0.389  16.606  0.7106 -1.2028  0.2488
  205MPD1    H1 3120   3.171   0.632  16.797  0.7698  0.9580 -1.3280
  205MPD1    H2 3121   3.276   0.434  16.439 -0.3753 -1.3164 -0.1778
  205MPD1    H3 3122   3.338   0.561  16.642 -1.0052  1.2467 -0.7194
  205MPD1     N 3123   2.921   0.522  16.823  0.4569  0.3123 -0.1772
  205MPD1    H5 3124   2.957   0.573  16.903  2.6131 -0.0026 -0.9519
  205MPD1    N1 3125   3.049   0.307  16.406  0.7520  0.5367  0.4431
  205MPD1    H6 3126   3.109   0.310  16.324  1.3310 -2.4800  0.7522
  205MPD1    H7 3127   2.956   0.332  16.374  0.8351  1.6632  1.1075
  206MPD1     C 3128   3.274   2.936  16.708  0.6964 -0.1443  0.6532
  206MPD1    C1 3129   3.346   2.881  16.606 -0.6796  0.3452 -0.7782
  206MPD1    C2 3130   3.310   2.909  16.472  0.6360  0.4138 -0.3311
  206MPD1    C3 3131   3.197   2.981  16.441  0.2963 -0.5488  0.4747
  206MPD1    C4 3132   3.140   3.053  16.548  0.5198  0.0471 -0.5849
  206MPD1    C5 3133   3.177   3.024  16.679  0.2039 -0.1537 -0.1226
  206MPD1     H 3134   3.367   2.859  16.394  0.4355 -1.2450  0.5688
  206MPD1    H1 3135   3.058   3.123  16.534  2.7247  2.2430 -2.5947
  206MPD1    H2 3136   3.296   2.915  16.812  1.9898 -2.1607 -0.0367
  206MPD1    H3 3137   3.127   3.066  16.765 -1.7701 -0.6430 -1.0483
  206MPD1     N 3138   3.147   3.001  16.311 -0.0649  0.3335  0.6087
  206MPD1    H5 3139   3.079   3.075  16.296 -2.9845 -2.1417  1.7017
  206MPD1    N1 3140   3.462   2.805  16.638  0.3751 -0.3666 -0.0730
  206MPD1    H6 3141   3.505   2.759  16.558  0.3109  1.4236 -1.1568
  206MPD1    H7 3142   3.464   2.761  16.729  2.8508  1.7775  0.8921
  207MPD1     C 3143   0.562   0.443   8.944  0.6515 -0.3413  0.2191
  207MPD1    C1 3144   0.628   0.345   8.873  0.3039 -0.2273  0.0837
  207MPD1    C2 3145   0.732   0.282   8.933 -0.1892 -0.4568  0.0260
  207MPD1    C3 3146   0.768   0.304   9.067  0.6141 -0.4639 -0.6331
  207MPD1    C4 3147   0.696   0.399   9.141  0.0631  0.3327 -0.1915
  207MPD1    C5 3148   0.593   0.465   9.075 -0.1436 -0.5291  0.1261
  207MPD1     H 3149   0.799   0.219   8.875  0.9795 -1.4643  2.4745
  207MPD1    H1 3150   0.727   0.436   9.238  0.1996 -0.3428  0.0243
  207MPD1    H2 3151   0.483   0.498   8.895  0.5030 -0.9554 -0.2455
  207MPD1    H3 3152   0.533   0.544   9.118 -1.5057 -1.9541  0.8526
  207MPD1     N 3153   0.886   0.247   9.117  0.6634 -0.1598  0.9234
  207MPD1    H5 3154   0.912   0.280   9.209  0.0191 -3.8490  2.4565
  207MPD1    N1 3155   0.605   0.331   8.732  0.4261  0.3076  0.4420
  207MPD1    H6 3156   0.638   0.242   8.695 -1.6853 -0.9678  1.5538
  207MPD1    H7 3157   0.507   0.344   8.705  0.1378  0.7617  1.7003
  208MPD1     C 3158   3.098   3.514  16.652 -0.8504 -0.4792 -0.5440
  208MPD1    C1 3159   3.200   3.583  16.708 -0.6017 -0.0190  0.3139
  208MPD1    C2 3160   3.171   3.678  16.803 -0.5086 -0.2998  0.4774
  208MPD1    C3 3161   3.039   3.704  16.836 -0.5818 -0.1186 -0.0371
  208MPD1    C4 3162   2.936   3.629  16.789 -0.3061  0.2039  0.3604
  208MPD1    C5 3163   2.969   3.551  16.683 -0.1875  0.0231 -0.5914
  208MPD1     H 3164   3.243   3.744  16.851 -0.8518  1.0690 -0.8942
  208MPD1    H1 3165   2.828   3.640  16.798 -0.5230 -1.3661 -0.3338
  208MPD1    H2 3166   3.107   3.440  16.574  0.1039 -2.4589  1.4475
  208MPD1    H3 3167   2.886   3.509  16.629  0.9933 -1.8826 -0.9134
  208MPD1     N 3168   3.025   3.808  16.932  0.1695 -0.6700  0.6746
  208MPD1    H5 3169   3.111   3.842  16.974 -0.2387 -0.2999  1.2138
  208MPD1    N1 3170   3.327   3.591  16.644  0.0758 -0.1668 -0.7748
  208MPD1    H6 3171   3.402   3.637  16.695 -0.0899  1.8770 -2.3982
  208MPD1    H7 3172   3.353   3.495  16.621 -1.9179 -1.2131  1.3891
  209MPD1     C 3173   1.082   3.443   9.901 -0.1223 -0.2878 -0.3206
  209MPD1    C1 3174   1.102   3.449   9.766 -0.0677 -0.0674 -0.5079
  209MPD1    C2 3175   1.188   3.547   9.715 -0.3440 -0.0372  0.1297
  209MPD1    C3 3176   1.266   3.620   9.805  0.0219  0.3146  0.5683
  209MPD1    C4 3177   1.242   3.615   9.942  0.5661  0.4599  0.6061
  209MPD1    C5 3178   1.147   3.530   9.987  0.6919  0.3328 -0.3133
  209MPD1     H 3179   1.193   3.575   9.611 -0.6083  0.4440  0.2455
  209MPD1    H1 3180   1.281   3.682  10.017 -0.0552  0.5137  0.8858
  209MPD1    H2 3181   1.008   3.388   9.957  0.9614  0.1202  1.5186
  209MPD1    H3 3182   1.127   3.530  10.094  2.4088 -0.9968  0.0061
  209MPD1     N 3183   1.363   3.711   9.752 -0.1314  0.2042  0.2253
  209MPD1    H5 3184   1.372   3.732   9.653 -0.5041  0.4452  0.2403
  209MPD1    N1 3185   1.018   3.370   9.688  0.1434 -0.4247 -0.0344
  209MPD1    H6 3186   1.037   3.351   9.590  0.9632  4.5111 -0.8241
  209MPD1    H7 3187   0.981   3.290   9.740 -2.4252 -0.2708 -1.5892
  210MPD1     C 3188   2.238   4.395   9.752 -0.0461 -0.2236  0.1207
  210MPD1    C1 3189   2.202   4.320   9.857 -0.7402 -0.6473 -0.6270
  210MPD1    C2 3190   2.082   4.248   9.855 -0.6291 -0.6567 -0.0452
  210MPD1    C3 3191   2.017   4.226   9.732  0.0865 -0.9162 -0.3007
  210MPD1    C4 3192   2.073   4.290   9.623  0.2699 -0.2610  0.4025
  210MPD1    C5 3193   2.177   4.375   9.631 -0.1494 -1.1008 -0.6391
  210MPD1     H 3194   2.049   4.200   9.947 -0.8211  1.6842  1.0947
  210MPD1    H1 3195   2.043   4.280   9.519  0.0197 -1.7761  0.6173
  210MPD1    H2 3196   2.330   4.451   9.757 -0.2572 -0.1612  3.1403
  210MPD1    H3 3197   2.213   4.431   9.546  0.1229  1.4745  1.1572
  210MPD1     N 3198   1.902   4.149   9.717  0.0489  0.7872 -0.1735
  210MPD1    H5 3199   1.867   4.132   9.623 -1.1647  0.4307  0.3428
  210MPD1    N1 3200   2.253   4.355   9.982 -0.5736  0.0833  0.3137
  210MPD1    H6 3201   2.350   4.379   9.962  0.1487 -0.6233  2.8852
  210MPD1    H7 3202   2.240   4.284  10.054  2.8170  0.9989  1.8594
  211MPD1     C 3203   3.748   0.345  15.936 -0.1449  0.1765 -0.0643
  211MPD1    C1 3204   3.617   0.304  15.919  0.0702 -0.4579 -0.4653
  211MPD1    C2 3205   3.514   0.370  15.987  0.3510 -1.1176 -0.2172
  211MPD1    C3 3206   3.539   0.486  16.062 -0.3209 -0.2522 -0.0612
  211MPD1    C4 3207   3.667   0.529  16.076 -0.4779  0.2456 -0.3119
  211MPD1    C5 3208   3.773   0.452  16.021  0.1792 -0.2981  1.1568
  211MPD1     H 3209   3.411   0.337  15.983  0.6203 -1.8746 -0.9684
  211MPD1    H1 3210   3.682   0.629  16.114 -1.3059  0.0996  0.3835
  211MPD1    H2 3211   3.836   0.304  15.887  0.5597  1.3057  0.2406
  211MPD1    H3 3212   3.872   0.496  16.031  0.5593 -0.9731  0.3699
  211MPD1     N 3213   3.428   0.563  16.114  0.4467  0.0707  0.5242
  211MPD1    H5 3214   3.333   0.541  16.084  0.2349  0.3364  0.9873
  211MPD1    N1 3215   3.593   0.177  15.857  0.8600 -0.2447  0.2486
  211MPD1    H6 3216   3.661   0.146  15.787  0.6736 -1.5801  0.6620
  211MPD1    H7 3217   3.501   0.176  15.814  0.3266  0.5614  1.3880
  212MPD1     C 3218   3.336   2.182  16.980  0.8968 -0.6191  0.0335
  212MPD1    C1 3219   3.292   2.262  17.079  0.6183 -0.5415 -0.2210
  212MPD1    C2 3220   3.169   2.322  17.069 -0.5476  0.3573  0.1529
  212MPD1    C3 3221   3.084   2.288  16.970 -0.0123  0.4771 -0.6524
  212MPD1    C4 3222   3.129   2.199  16.871 -0.0793  0.5087 -0.5275
  212MPD1    C5 3223   3.256   2.151  16.875  0.5279 -1.0043 -0.5541
  212MPD1     H 3224   3.137   2.391  17.147  1.3309  3.0271 -1.4448
  212MPD1    H1 3225   3.073   2.168  16.784 -0.5055 -1.0511  0.2940
  212MPD1    H2 3226   3.433   2.136  16.988  0.5717 -1.1033  1.1767
  212MPD1    H3 3227   3.279   2.077  16.799  1.8072  0.2023 -1.3421
  212MPD1     N 3228   2.956   2.343  16.938  0.2232  0.0998 -0.2970
  212MPD1    H5 3229   2.914   2.315  16.850 -1.6254  0.0315  0.5877
  212MPD1    N1 3230   3.369   2.276  17.193 -0.3981 -0.0433  0.6653
  212MPD1    H6 3231   3.350   2.372  17.223  0.0989 -0.3389  1.9221
  212MPD1    H7 3232   3.469   2.271  17.173 -0.2626 -0.1867  1.3671
  213MPD1     C 3233   1.030   4.445  15.849 -0.1544  0.4873 -0.2405
  213MPD1    C1 3234   0.904   4.382  15.838  0.1807  0.0854  0.0692
  213MPD1    C2 3235   0.871   4.332  15.715 -1.3530 -0.3530  0.4179
  213MPD1    C3 3236   0.934   4.378  15.603  0.8642 -0.3512 -0.5026
  213MPD1    C4 3237   1.052   4.454  15.612  0.1957 -0.3653  0.8679
  213MPD1    C5 3238   1.101   4.478  15.738 -0.6816  0.1026  0.7383
  213MPD1     H 3239   0.792   4.259  15.700 -1.7102  0.0995  0.0809
  213MPD1    H1 3240   1.116   4.484  15.530 -1.6604  0.4522 -0.2867
  213MPD1    H2 3241   1.067   4.468  15.949  0.3514  0.8417 -0.5063
  213MPD1    H3 3242   1.181   4.549  15.756 -1.2743 -0.1067  4.1465
  213MPD1     N 3243   0.880   4.323  15.483 -0.2131 -0.6549  0.3676
  213MPD1    H5 3244   0.814   4.248  15.501  1.1493 -1.3741  2.3953
  213MPD1    N1 3245   0.849   4.328  15.956  0.6065  0.6552 -0.3001
  213MPD1    H6 3246   0.747   4.331  15.945  0.6221 -1.5910 -0.9798
  213MPD1    H7 3247   0.877   4.384  16.036  3.3520  1.7622 -2.0393
  214MPD1     C 3248   0.155   3.729  15.290  0.2739  0.0828 -0.2604
  214MPD1    C1 3249   0.156   3.858  15.330 -0.3491 -0.7002 -1.4824
  214MPD1    C2 3250   0.269   3.938  15.303 -0.5091 -0.2667  0.0541
  214MPD1    C3 3251   0.364   3.882  15.222  0.1410  0.6195 -0.0628
  214MPD1    C4 3252   0.361   3.757  15.175  0.2737 -0.4022 -0.2166
  214MPD1    C5 3253   0.249   3.684  15.200  0.6246 -0.0198 -1.0737
  214MPD1     H 3254   0.267   4.041  15.336 -0.6161 -0.1823 -0.2232
  214MPD1    H1 3255   0.433   3.720  15.103  0.2783  0.2140 -0.5239
  214MPD1    H2 3256   0.073   3.664  15.319  0.9868  0.0880  1.7562
  214MPD1    H3 3257   0.234   3.583  15.164  0.7327  0.1623 -1.6318
  214MPD1     N 3258   0.479   3.956  15.184  0.1795 -0.7209 -0.2222
  214MPD1    H5 3259   0.546   3.903  15.129  0.7935 -0.3081  0.1259
  214MPD1    N1 3260   0.075   3.901  15.432 -0.9084 -0.2348  0.0700
  214MPD1    H6 3261   0.039   3.997  15.426 -1.0375 -0.3630 -1.1096
  214MPD1    H7 3262   4.717   3.841  15.435 -0.4991 -0.7830  0.1911
  215MPD1     C 3263   1.171   3.889  10.453 -0.9410  0.0402 -0.5393
  215MPD1    C1 3264   1.189   4.017  10.491 -0.3168 -0.2933  0.6754
  215MPD1    C2 3265   1.321   4.066  10.478  0.4092  0.3423 -0.1755
  215MPD1    C3 3266   1.422   3.988  10.419  0.1483 -0.5063  0.0701
  215MPD1    C4 3267   1.391   3.864  10.355  0.6311  0.4269  0.0427
  215MPD1    C5 3268   1.266   3.815  10.387  0.3681  0.3612 -0.0825
  215MPD1     H 3269   1.354   4.159  10.521  0.5094 -0.5229  1.6443
  215MPD1    H1 3270   1.460   3.799  10.303  1.7161  1.8447 -0.3071
  215MPD1    H2 3271   1.076   3.844  10.477 -1.1161  0.7692  0.1584
  215MPD1    H3 3272   1.235   3.719  10.347  2.9766 -0.6675  0.3498
  215MPD1     N 3273   1.551   4.044  10.412 -0.0396  0.1113 -0.3848
  215MPD1    H5 3274   1.571   4.130  10.462  1.7595  0.1206 -1.0968
  215MPD1    N1 3275   1.094   4.081  10.573  0.0516 -0.1291  0.4368
  215MPD1    H6 3276   1.102   4.182  10.569 -1.4360 -0.1017 -2.2893
  215MPD1    H7 3277   1.000   4.051  10.548 -1.1925  2.6134  1.8497
  216MPD1     C 3278   3.293   1.687  16.803 -0.2371  0.5145 -0.0969
  216MPD1    C1 3279   3.322   1.764  16.915  0.0477 -0.3958 -0.0111
  216MPD1    C2 3280   3.226   1.846  16.972 -0.1823  0.0747  0.0257
  216MPD1    C3 3281   3.099   1.856  16.912 -0.1052 -0.1910 -0.2642
  216MPD1    C4 3282   3.069   1.773  16.806 -0.4679 -0.2892 -0.4186
  216MPD1    C5 3283   3.172   1.702  16.744 -0.0651 -1.1419 -0.4700
  216MPD1     H 3284   3.253   1.903  17.060 -2.4003 -0.5808  1.1376
  216MPD1    H1 3285   2.973   1.771  16.756 -0.3976  1.5495 -0.6285
  216MPD1    H2 3286   3.361   1.620  16.750 -0.3335  1.1323 -1.0064
  216MPD1    H3 3287   3.148   1.663  16.646  0.9578 -0.0996 -1.1292
  216MPD1     N 3288   2.994   1.913  16.992 -0.6797  0.7429  0.1065
  216MPD1    H5 3289   3.014   1.923  17.091 -3.5873  1.6101  0.6134
  216MPD1    N1 3290   3.438   1.740  16.989  0.2653 -0.4764 -0.0706
  216MPD1    H6 3291   3.506   1.715  16.918 -1.0585 -0.0254 -1.5025
  216MPD1    H7 3292   3.476   1.811  17.051  3.6024 -0.4848 -2.1102
  217MPD1     C 3293   2.382   2.894   8.369  0.2554 -0.5189  0.3046
  217MPD1    C1 3294   2.423   2.987   8.462 -0.2636 -0.1936 -0.2602
  217MPD1    C2 3295   2.556   2.980   8.495 -0.0938 -0.3800 -1.0241
  217MPD1    C3 3296   2.643   2.881   8.454 -0.0379  0.0778  0.4579
  217MPD1    C4 3297   2.595   2.779   8.377  0.7081  0.4638  0.8693
  217MPD1    C5 3298   2.464   2.789   8.336 -0.4387  0.1059 -0.5892
  217MPD1     H 3299   2.608   3.051   8.559 -1.0965  0.4508 -1.1278
  217MPD1    H1 3300   2.652   2.697   8.335 -0.0512  0.4076 -0.0192
  217MPD1    H2 3301   2.283   2.899   8.324 -0.7087 -0.6526  2.3802
  217MPD1    H3 3302   2.422   2.712   8.274  1.8116  0.4496 -2.5315
  217MPD1     N 3303   2.776   2.869   8.502  0.3919  0.4029  0.0730
  217MPD1    H5 3304   2.835   2.793   8.470 -0.1282  0.0734 -0.1125
  217MPD1    N1 3305   2.349   3.104   8.476 -0.0554 -0.0200 -0.0971
  217MPD1    H6 3306   2.249   3.099   8.460 -0.5112  1.6082  2.2561
  217MPD1    H7 3307   2.367   3.158   8.561 -1.2881 -0.2005  0.2789
  218MPD1     C 3308   0.641   1.009  11.838 -0.6965  0.2149 -0.4407
  218MPD1    C1 3309   0.766   0.998  11.775  0.3727 -0.3929  0.5674
  218MPD1    C2 3310   0.864   0.927  11.836 -0.8788 -0.2254 -0.4523
  218MPD1    C3 3311   0.840   0.861  11.961 -0.0197 -0.2806 -0.1782
  218MPD1    C4 3312   0.709   0.872  12.024 -0.0006  0.4633  0.5316
  218MPD1    C5 3313   0.611   0.945  11.953  0.6738  0.5161  0.0738
  218MPD1     H 3314   0.958   0.921  11.783 -0.2744  0.5479  0.5285
  218MPD1    H1 3315   0.681   0.828  12.119 -1.8450  0.1969 -0.1252
  218MPD1    H2 3316   0.554   1.059  11.798 -1.0525 -1.4905 -1.8077
  218MPD1    H3 3317   0.505   0.948  11.977  0.4779 -3.3605 -0.2895
  218MPD1     N 3318   0.949   0.799  12.024  0.1103 -0.4529 -0.1570
  218MPD1    H5 3319   1.038   0.800  11.975  0.8930 -0.1498  1.3030
  218MPD1    N1 3320   0.779   1.080  11.658 -0.0892 -0.5681  0.2479
  218MPD1    H6 3321   0.691   1.088  11.608  1.7035  2.8315 -2.4058
  218MPD1    H7 3322   0.848   1.039  11.596 -0.0577  2.2977 -1.6403
  219MPD1     C 3323   1.660   0.921  11.685  1.1457 -0.2064 -0.1245
  219MPD1    C1 3324   1.688   0.921  11.814 -0.6156  0.3140  0.0215
  219MPD1    C2 3325   1.611   0.856  11.905 -0.3352 -0.7147  0.7688
  219MPD1    C3 3326   1.494   0.792  11.869  0.4042 -1.0345 -0.1960
  219MPD1    C4 3327   1.466   0.788  11.731  0.1269 -0.6745  0.1174
  219MPD1    C5 3328   1.550   0.854  11.645 -0.0094  0.2529  0.2071
  219MPD1     H 3329   1.635   0.875  12.009 -2.2261  3.5995  0.3976
  219MPD1    H1 3330   1.377   0.738  11.695  0.5915 -2.0226  0.8532
  219MPD1    H2 3331   1.719   0.970  11.608 -1.5702  3.3998  0.0570
  219MPD1    H3 3332   1.537   0.842  11.538  0.0080 -0.4199  0.2792
  219MPD1     N 3333   1.399   0.723  11.956 -0.1081 -0.1430 -0.2701
  219MPD1    H5 3334   1.315   0.686  11.912 -0.7289  2.3381 -1.2146
  219MPD1    N1 3335   1.801   0.985  11.852 -0.7220 -0.0170  0.1442
  219MPD1    H6 3336   1.816   1.075  11.807 -0.1386 -0.9711 -1.5790
  219MPD1    H7 3337   1.791   0.994  11.953  2.0033 -1.3691  0.5345
  220MPD1     C 3338   0.686   0.406   9.558 -0.3459 -0.3182  0.4153
  220MPD1    C1 3339   0.809   0.410   9.616 -1.0707 -0.0816 -0.5430
  220MPD1    C2 3340   0.887   0.295   9.611  0.1548 -0.2401  0.3912
  220MPD1    C3 3341   0.849   0.187   9.536  0.9361  0.9715  0.0420
  220MPD1    C4 3342   0.733   0.194   9.466  0.1050 -0.0081 -0.6820
  220MPD1    C5 3343   0.654   0.305   9.479  0.5647 -0.1660 -0.3669
  220MPD1     H 3344   0.982   0.276   9.659  0.5678  1.6391  0.3077
  220MPD1    H1 3345   0.694   0.110   9.409 -1.8407 -0.4674  1.3110
  220MPD1    H2 3346   0.622   0.493   9.567  0.4894  0.2079  1.2822
  220MPD1    H3 3347   0.558   0.305   9.428  2.1224 -0.7798 -3.2924
  220MPD1     N 3348   0.925   0.070   9.533 -0.3948  0.1926  0.3066
  220MPD1    H5 3349   0.991   0.054   9.608 -0.2700  1.9458  0.5714
  220MPD1    N1 3350   0.843   0.518   9.701  0.6020 -0.6478 -0.0167
  220MPD1    H6 3351   0.944   0.522   9.708  0.6063  0.9784 -1.1069
  220MPD1    H7 3352   0.816   0.608   9.662  3.2334  1.0997  2.1702
  221MPD1     C 3353   2.871   4.489  14.908  0.2773  0.7372  0.5208
  221MPD1    C1 3354   2.961   4.384  14.891  0.2979  0.2069 -0.1940
  221MPD1    C2 3355   3.068   4.376  14.977  0.3016  0.3271  0.7556
  221MPD1    C3 3356   3.078   4.459  15.089  0.0308  0.4483  0.2698
  221MPD1    C4 3357   2.979   4.552  15.112  0.0501  0.4509 -0.5826
  221MPD1    C5 3358   2.873   4.562  15.023 -0.4745  0.2400 -0.2779
  221MPD1     H 3359   3.144   4.301  14.958  0.3901  0.4507  0.6219
  221MPD1    H1 3360   2.994   4.622  15.194 -0.6784  0.9286 -0.8671
  221MPD1    H2 3361   2.800   4.510  14.829  0.3565 -1.0300 -0.0081
  221MPD1    H3 3362   2.801   4.640  15.047 -0.4249 -0.4683  2.2061
  221MPD1     N 3363   3.181   4.451  15.190  0.6254  0.5620  0.1614
  221MPD1    H5 3364   3.169   4.513  15.270  1.2836  1.9709 -0.8326
  221MPD1    N1 3365   2.961   4.301  14.775 -0.3193 -0.4010  0.2302
  221MPD1    H6 3366   2.875   4.308  14.722 -0.1243 -2.4350 -0.3237
  221MPD1    H7 3367   2.984   4.205  14.799 -2.5047 -0.7069  1.0869
  222MPD1     C 3368   3.408   3.015  17.205  0.1625 -0.0646  0.1059
  222MPD1    C1 3369   3.364   2.976  17.331 -0.0472 -0.4107  0.0442
  222MPD1    C2 3370   3.224   2.958  17.343  0.0632 -0.4255  0.2206
  222MPD1    C3 3371   3.142   2.956  17.236 -0.2449  0.4093 -0.8639
  222MPD1    C4 3372   3.191   2.976  17.113 -0.3714 -0.1086 -0.0806
  222MPD1    C5 3373   3.323   3.006  17.098  0.1508  0.4953 -0.0077
  222MPD1     H 3374   3.177   2.926  17.435  0.0852  1.2355  0.8128
  222MPD1    H1 3375   3.130   2.984  17.023 -0.1953 -2.3968 -0.4023
  222MPD1    H2 3376   3.509   3.051  17.189 -1.1595  2.1870 -3.1573
  222MPD1    H3 3377   3.357   3.038  17.000  0.9691  0.9952  0.4394
  222MPD1     N 3378   3.001   2.931  17.241 -0.3324  0.4310  0.0962
  222MPD1    H5 3379   2.953   2.922  17.152  0.8519 -0.0513 -0.4966
  222MPD1    N1 3380   3.438   3.011  17.439  0.3236 -0.4590 -0.5241
  222MPD1    H6 3381   3.537   2.991  17.433  0.0636 -2.1523  0.9040
  222MPD1    H7 3382   3.400   2.953  17.513  1.4286 -2.0817 -1.2447
  223MPD1     C 3383   2.300   2.437   0.100 -0.1533 -0.3473  0.0700
  223MPD1    C1 3384   2.425   2.410   0.042 -0.0866  0.1464  0.0929
  223MPD1    C2 3385   2.496   2.501  17.665 -0.5991 -0.8668  0.0143
  223MPD1    C3 3386   2.446   2.625  17.656 -0.0622 -0.4453  0.7531
  223MPD1    C4 3387   2.327   2.661   0.018 -0.0911  0.2344  0.6278
  223MPD1    C5 3388   2.255   2.568   0.088 -0.5040  0.0402  0.5329
  223MPD1     H 3389   2.589   2.483  17.612 -1.4228 -2.1200 -0.9918
  223MPD1    H1 3390   2.285   2.761   0.013 -0.5310 -0.0053 -0.3785
  223MPD1    H2 3391   2.241   2.353   0.136 -1.3887  0.6756  0.4427
  223MPD1    H3 3392   2.158   2.606   0.118 -0.8378  0.9387 -1.6144
  223MPD1     N 3393   2.527   2.709  17.573 -0.0296  0.7320  0.0663
  223MPD1    H5 3394   2.598   2.658  17.523 -0.4480  0.2055  0.0019
  223MPD1    N1 3395   2.470   2.275   0.040 -0.2132 -0.0134  0.0741
  223MPD1    H6 3396   2.571   2.263   0.035  0.0355  1.2982  2.1824
  223MPD1    H7 3397   2.427   2.221   0.115  1.1177 -4.4122 -2.2930
  224MPD1     C 3398   2.825   3.298   8.362  0.1587 -0.2724  0.0144
  224MPD1    C1 3399   2.947   3.267   8.304 -0.4577 -0.3661  0.8026
  224MPD1    C2 3400   3.056   3.273   8.390  0.0123 -0.0100 -0.0569
  224MPD1    C3 3401   3.044   3.312   8.522 -0.2704  0.4443  1.1331
  224MPD1    C4 3402   2.922   3.364   8.567  0.2672 -0.2224 -0.2773
  224MPD1    C5 3403   2.811   3.356   8.483 -0.4730  0.1833 -0.2067
  224MPD1     H 3404   3.157   3.253   8.354  0.1080 -1.0599  0.7676
  224MPD1    H1 3405   2.904   3.404   8.666 -0.9221  0.9069 -0.9491
  224MPD1    H2 3406   2.732   3.293   8.307  0.6487  0.2074 -0.8649
  224MPD1    H3 3407   2.716   3.399   8.511  0.0024  0.3400  1.1770
  224MPD1     N 3408   3.156   3.312   8.607 -0.1627  0.1665 -0.0780
  224MPD1    H5 3409   3.148   3.358   8.697  2.3054 -1.6017  1.0153
  224MPD1    N1 3410   2.960   3.209   8.174 -0.0767  1.0232  0.0836
  224MPD1    H6 3411   3.055   3.201   8.136 -0.3958 -0.1547 -0.4824
  224MPD1    H7 3412   2.892   3.251   8.111 -2.0363 -0.3822  1.2835
  225MPD1     C 3413   4.488   0.796  12.958 -0.0652 -0.4140 -0.9701
  225MPD1    C1 3414   4.609   0.743  12.931  0.5804  0.2869  0.5575
  225MPD1    C2 3415   4.675   0.774  12.819 -0.1523  0.6772  0.2297
  225MPD1    C3 3416   4.617   0.855  12.724 -0.6871 -0.2212 -0.1197
  225MPD1    C4 3417   4.500   0.910  12.746  0.0694 -0.6508 -0.2580
  225MPD1    C5 3418   4.435   0.887  12.863  0.1516 -0.7002  0.4073
  225MPD1     H 3419   0.055   0.746  12.805  0.1709  0.9054  2.0885
  225MPD1    H1 3420   4.458   0.985  12.679  0.7186  0.4770  0.5951
  225MPD1    H2 3421   4.441   0.798  13.055  1.5762 -1.9273 -0.1618
  225MPD1    H3 3422   4.343   0.944  12.870 -0.5391 -1.8690  0.8204
  225MPD1     N 3423   4.686   0.887  12.600 -0.1617 -0.1704  0.5569
  225MPD1    H5 3424   4.634   0.945  12.535 -0.5718  1.7738  2.6209
  225MPD1    N1 3425   4.676   0.676  13.038 -0.2228 -0.3371  0.4876
  225MPD1    H6 3426   0.035   0.620  13.019 -1.3311 -1.6691 -0.4439
  225MPD1    H7 3427   4.616   0.637  13.111  0.3543 -0.3530  0.9514
  226MPD1     C 3428   3.810   4.527   8.592  0.1065  0.1247 -0.0458
  226MPD1    C1 3429   3.692   4.490   8.655  0.6164 -0.0132 -0.7089
  226MPD1    C2 3430   3.682   4.530   8.790  0.5196 -0.6117 -0.0996
  226MPD1    C3 3431   3.777   4.610   8.854  0.0138  0.3417 -0.8666
  226MPD1    C4 3432   3.886   4.645   8.783  0.1896 -0.6969  0.1732
  226MPD1    C5 3433   3.902   4.603   8.658  0.4105 -0.2670 -0.3060
  226MPD1     H 3434   3.607   4.484   8.853 -1.2517  1.4776 -0.6859
  226MPD1    H1 3435   3.966   4.702   8.829  0.8668 -1.5655  0.0858
  226MPD1    H2 3436   3.836   4.491   8.494 -0.7407  0.4869 -0.4089
  226MPD1    H3 3437   3.990   4.638   8.605 -1.2250 -0.3443 -3.0934
  226MPD1     N 3438   3.766   4.642   8.995  0.8025  0.2408  0.0085
  226MPD1    H5 3439   3.677   4.617   9.035  1.1096 -0.7410  0.0711
  226MPD1    N1 3440   3.606   4.403   8.602  0.4525 -0.6951 -0.5277
  226MPD1    H6 3441   3.584   4.441   8.510  0.5395 -0.3755 -0.4157
  226MPD1    H7 3442   3.518   4.390   8.653  1.2438 -0.4469  0.9073
  227MPD1     C 3443   3.217   4.161   9.337 -0.2326  0.6481  0.1071
  227MPD1    C1 3444   3.293   4.162   9.225  0.1532  0.1197  0.2380
  227MPD1    C2 3445   3.390   4.263   9.230 -0.7478 -0.1941 -0.5859
  227MPD1    C3 3446   3.434   4.336   9.339 -0.5490 -0.4498  0.2021
  227MPD1    C4 3447   3.359   4.320   9.454  0.6395 -0.1289 -0.1988
  227MPD1    C5 3448   3.249   4.236   9.450 -0.4965 -0.3008 -0.7030
  227MPD1     H 3449   3.439   4.287   9.136 -1.6919  0.8925 -0.7975
  227MPD1    H1 3450   3.389   4.365   9.548 -2.6815  1.3372  0.1519
  227MPD1    H2 3451   3.116   4.121   9.335 -0.6413  1.7877 -2.0257
  227MPD1    H3 3452   3.190   4.230   9.541 -0.0036  2.0696 -0.2193
  227MPD1     N 3453   3.532   4.439   9.328  0.0831 -0.4690  0.3407
  227MPD1    H5 3454   3.559   4.463   9.233 -1.3662 -2.6233 -0.6029
  227MPD1    N1 3455   3.248   4.088   9.115 -0.3415 -0.9243 -0.7108
  227MPD1    H6 3456   3.326   4.079   9.049 -0.4260 -0.3533 -0.8882
  227MPD1    H7 3457   3.200   4.001   9.137  0.2489 -0.8202  0.9678
  228MPD1     C 3458   2.594   3.490  12.079 -0.3379 -0.0608 -0.6594
  228MPD1    C1 3459   2.479   3.542  12.019 -0.3383  0.9642  0.3118
  228MPD1    C2 3460   2.362   3.515  12.085  0.1304  0.5735  0.2744
  228MPD1    C3 3461   2.354   3.429  12.189  0.1544 -0.2749  0.4323
  228MPD1    C4 3462   2.469   3.364  12.240 -0.0604 -0.4976  0.2000
  228MPD1    C5 3463   2.592   3.404  12.182  0.0783 -0.1583  0.2455
  228MPD1     H 3464   2.271   3.565  12.053  0.9885  1.8645 -0.1881
  228MPD1    H1 3465   2.469   3.298  12.326  0.8840  2.6144  2.6004
  228MPD1    H2 3466   2.698   3.505  12.054 -0.1324  0.4884  0.5128
  228MPD1    H3 3467   2.682   3.379  12.237  1.0298  0.2094 -1.1468
  228MPD1     N 3468   2.224   3.421  12.248 -1.2297 -0.2488  0.1502
  228MPD1    H5 3469   2.145   3.460  12.198 -1.1656  0.0112  0.2556
  228MPD1    N1 3470   2.485   3.646  11.925 -0.3552  0.1714  0.2250
  228MPD1    H6 3471   2.402   3.649  11.868  0.2142 -1.4608 -0.6776
  228MPD1    H7 3472   2.563   3.635  11.861 -1.7127 -1.1097 -1.1785
  229MPD1     C 3473   1.710   2.209  15.358  0.2717 -0.1884  0.0180
  229MPD1    C1 3474   1.787   2.164  15.254 -0.6647 -0.3430  0.4805
  229MPD1    C2 3475   1.855   2.047  15.270  0.4648  0.4541  0.0608
  229MPD1    C3 3476   1.879   1.990  15.392  0.5085  0.2317  0.5819
  229MPD1    C4 3477   1.827   2.053  15.504  0.0794  0.3818 -0.4901
  229MPD1    C5 3478   1.740   2.160  15.481  0.6085  0.6870  0.8919
  229MPD1     H 3479   1.900   2.002  15.182 -0.9822 -0.0210 -0.4388
  229MPD1    H1 3480   1.827   2.011  15.603  2.1170  0.0259 -0.6348
  229MPD1    H2 3481   1.636   2.287  15.344 -0.9825 -1.6115 -1.3190
  229MPD1    H3 3482   1.689   2.201  15.567  0.4406  0.0603  1.0927
  229MPD1     N 3483   1.947   1.869  15.413 -0.4134 -0.1316 -0.3468
  229MPD1    H5 3484   1.948   1.837  15.509  1.4427  0.5470 -0.1481
  229MPD1    N1 3485   1.778   2.224  15.123  0.3021 -0.2009 -0.3864
  229MPD1    H6 3486   1.867   2.217  15.075 -0.9362  0.3174 -2.7636
  229MPD1    H7 3487   1.750   2.322  15.126  0.2042 -0.2055 -1.0660
  230MPD1     C 3488   2.319   1.509  16.095  0.7159 -0.6765 -0.3713
  230MPD1    C1 3489   2.381   1.599  16.005 -0.3954 -0.3871 -0.7261
  230MPD1    C2 3490   2.332   1.613  15.876  0.1387 -0.1075  0.3564
  230MPD1    C3 3491   2.240   1.524  15.834 -0.0575  0.1837 -0.2851
  230MPD1    C4 3492   2.188   1.428  15.916  0.7278 -0.6465 -0.4443
  230MPD1    C5 3493   2.226   1.424  16.044  0.3201 -0.2741 -0.4592
  230MPD1     H 3494   2.376   1.682  15.806 -3.6368  0.5403 -1.3793
  230MPD1    H1 3495   2.113   1.362  15.874  0.4283  0.2171 -1.2555
  230MPD1    H2 3496   2.337   1.504  16.202  0.1763  0.0599 -0.2472
  230MPD1    H3 3497   2.189   1.346  16.109  1.8823 -1.0997 -0.5513
  230MPD1     N 3498   2.183   1.541  15.708  0.0475  0.4339  0.2122
  230MPD1    H5 3499   2.207   1.622  15.652  1.9931  1.4899  2.5267
  230MPD1    N1 3500   2.470   1.691  16.065 -0.1454 -0.2410  0.4284
  230MPD1    H6 3501   2.527   1.656  16.141 -1.7305  1.0102  2.2098
  230MPD1    H7 3502   2.536   1.736  16.001 -2.3174 -0.0570 -1.7218
  231MPD1     C 3503   4.064   4.238  15.105 -0.1066  0.1423 -0.3694
  231MPD1    C1 3504   4.144   4.300  15.012  0.0670  0.0450 -0.6975
  231MPD1    C2 3505   4.280   4.259  15.012  0.0613  0.0605 -0.3640
  231MPD1    C3 3506   4.332   4.154  15.097 -0.2062 -0.1463 -0.9281
  231MPD1    C4 3507   4.239   4.098  15.187 -0.2462  0.0073 -0.4723
  231MPD1    C5 3508   4.109   4.145  15.194 -0.4052 -0.3369  0.2877
  231MPD1     H 3509   4.342   4.303  14.935 -0.4220 -0.3093 -0.9638
  231MPD1    H1 3510   4.278   4.029  15.261  1.9336  0.0476 -1.5523
  231MPD1    H2 3511   3.959   4.265  15.114 -0.1860 -0.3973  0.2807
  231MPD1    H3 3512   4.050   4.100  15.274  0.7720 -1.2687  0.6246
  231MPD1     N 3513   4.467   4.113  15.083  0.5077 -0.0764 -0.8041
  231MPD1    H5 3514   4.528   4.162  15.018  0.2784  2.3192  0.7729
  231MPD1    N1 3515   4.089   4.389  14.914  0.1198 -0.2324  0.3954
  231MPD1    H6 3516   3.993   4.416  14.934  0.0329 -1.1490  1.2137
  231MPD1    H7 3517   4.147   4.470  14.893 -2.1641  1.2584 -0.2091
  232MPD1     C 3518   1.668   0.638   0.960 -0.5069 -0.6122 -0.4499
  232MPD1    C1 3519   1.547   0.588   0.914  0.1686 -0.8310  0.2555
  232MPD1    C2 3520   1.496   0.653   0.806 -0.5773 -0.1293  0.9388
  232MPD1    C3 3521   1.556   0.765   0.747  0.4210 -1.1645 -0.1977
  232MPD1    C4 3522   1.679   0.806   0.788 -0.0695 -0.4345 -0.0863
  232MPD1    C5 3523   1.737   0.739   0.894  0.2206 -0.3949  0.3808
  232MPD1     H 3524   1.398   0.620   0.772 -0.2373  1.3145 -1.4251
  232MPD1    H1 3525   1.750   0.876   0.747  0.0450  1.0349  2.6309
  232MPD1    H2 3526   1.709   0.599   1.052 -1.5405  1.3055  0.8546
  232MPD1    H3 3527   1.833   0.775   0.929 -0.2960  2.2156 -0.8562
  232MPD1     N 3528   1.488   0.833   0.643 -0.1760 -0.1231 -0.2662
  232MPD1    H5 3529   1.394   0.797   0.630 -0.2456 -0.5371  1.3230
  232MPD1    N1 3530   1.461   0.500   0.982  0.2060  0.1142 -0.5501
  232MPD1    H6 3531   1.508   0.431   1.041 -3.1345 -1.4164  0.3037
  232MPD1    H7 3532   1.402   0.457   0.911 -1.5425 -0.3206  1.1655
  233MPD1     C 3533   2.372   0.037   1.491 -0.0542 -0.1822 -0.2523
  233MPD1    C1 3534   2.426   4.665   1.576  0.2385 -0.3881 -0.2369
  233MPD1    C2 3535   2.501   4.573   1.508 -0.1106 -0.3378 -0.4588
  233MPD1    C3 3536   2.536   4.577   1.371  0.3090 -0.1473  0.1272
  233MPD1    C4 3537   2.492   4.682   1.300  0.5266 -0.4325  0.4458
  233MPD1    C5 3538   2.395   0.037   1.357 -0.7725 -0.0826  0.1462
  233MPD1     H 3539   2.524   4.483   1.565 -0.5083 -0.3965 -0.3919
  233MPD1    H1 3540   2.512   4.695   1.194  0.7064  0.3791  0.5824
  233MPD1    H2 3541   2.304   0.114   1.525  1.0450  1.1270 -1.0195
  233MPD1    H3 3542   2.354   0.120   1.301 -2.8276  1.1170  3.4412
  233MPD1     N 3543   2.612   4.482   1.296 -0.2752 -0.1453  0.0617
  233MPD1    H5 3544   2.612   4.495   1.195 -2.2498 -1.0886 -0.0423
  233MPD1    N1 3545   2.375   4.651   1.708  0.1266 -0.4383  0.0185
  233MPD1    H6 3546   2.361   0.023   1.740 -1.5944 -0.5322 -0.4698
  233MPD1    H7 3547   2.425   4.594   1.775 -0.6374 -2.2534 -0.9656
  234MPD1     C 3548   4.294   1.709   8.837  0.3131  0.4043 -0.3981
  234MPD1    C1 3549   4.377   1.815   8.833  0.3767 -0.2061 -0.6927
  234MPD1    C2 3550   4.331   1.940   8.796 -0.2527 -0.3523  0.0652
  234MPD1    C3 3551   4.190   1.959   8.785  0.5123  0.3863 -0.0407
  234MPD1    C4 3552   4.105   1.846   8.792  0.0003 -1.1502 -0.9956
  234MPD1    C5 3553   4.158   1.724   8.815 -0.5590 -0.5557  0.2584
  234MPD1     H 3554   4.401   2.019   8.774 -1.1163  0.2424 -0.5463
  234MPD1    H1 3555   3.998   1.853   8.779 -0.0170 -1.7522 -1.1756
  234MPD1    H2 3556   4.330   1.610   8.864 -1.3772 -0.1532 -0.1952
  234MPD1    H3 3557   4.098   1.633   8.814 -1.3228 -0.0226 -2.9619
  234MPD1     N 3558   4.138   2.090   8.752  0.5537  0.0336 -0.3303
  234MPD1    H5 3559   4.208   2.162   8.758 -1.0207  1.4876  0.4796
  234MPD1    N1 3560   4.520   1.805   8.853 -0.1347  0.1598 -0.0506
  234MPD1    H6 3561   4.574   1.890   8.864 -1.3128  0.6160  2.3254
  234MPD1    H7 3562   4.556   1.731   8.913 -0.1920  0.1569 -0.0204
  235MPD1     C 3563   1.623   0.054   9.194  0.7139 -0.5865  0.1875
  235MPD1    C1 3564   1.668   0.103   9.313  0.0990 -0.1164  0.6659
  235MPD1    C2 3565   1.680   0.243   9.321  0.2261  0.6797 -0.1165
  235MPD1    C3 3566   1.617   0.334   9.240 -0.7798 -0.0984  0.8175
  235MPD1    C4 3567   1.566   0.278   9.122  0.2958  0.2937  0.4094
  235MPD1    C5 3568   1.589   0.145   9.094  0.0909  0.5972  0.1399
  235MPD1     H 3569   1.732   0.275   9.411  0.6094  2.8889 -1.1420
  235MPD1    H1 3570   1.529   0.344   9.044 -3.2772 -0.8230  1.1151
  235MPD1    H2 3571   1.617   4.671   9.173 -1.8117 -0.1609 -1.3188
  235MPD1    H3 3572   1.552   0.101   9.002 -2.6616 -0.4771  1.7375
  235MPD1     N 3573   1.643   0.472   9.259 -0.4328  0.2777  0.1059
  235MPD1    H5 3574   1.715   0.498   9.326 -0.0072  0.1831 -0.3145
  235MPD1    N1 3575   1.732   0.022   9.415  0.7629  0.0489  0.6186
  235MPD1    H6 3576   1.692   4.653   9.408  0.0971  0.4743 -1.0766
  235MPD1    H7 3577   1.730   0.055   9.512  0.2859  0.0363  0.6119
  236MPD1     C 3578   0.137   1.921   9.710 -0.2609 -0.8213 -0.4865
  236MPD1    C1 3579   0.196   2.026   9.775  0.5400 -0.1540 -0.0921
  236MPD1    C2 3580   0.327   2.009   9.808 -0.2476  0.1310  0.1723
  236MPD1    C3 3581   0.391   1.890   9.788 -0.0975  0.2733  0.1591
  236MPD1    C4 3582   0.329   1.786   9.731 -0.0988  0.0681 -0.1103
  236MPD1    C5 3583   0.203   1.810   9.678  0.3592 -0.6784 -0.5413
  236MPD1     H 3584   0.380   2.088   9.862 -0.1484  0.1873 -0.0088
  236MPD1    H1 3585   0.386   1.697   9.707 -0.2514 -0.6936  2.3977
  236MPD1    H2 3586   0.031   1.934   9.689 -0.5048 -0.7349  0.8092
  236MPD1    H3 3587   0.163   1.735   9.611 -0.2132  1.1273 -2.2182
  236MPD1     N 3588   0.527   1.882   9.806  1.0987  0.1167 -0.2008
  236MPD1    H5 3589   0.561   1.787   9.797 -1.3345 -0.8689  0.9575
  236MPD1    N1 3590   0.138   2.153   9.768 -0.5252 -0.5205 -0.4224
  236MPD1    H6 3591   0.037   2.145   9.771 -0.6430  0.9499 -0.1850
  236MPD1    H7 3592   0.154   2.212   9.850  0.2843  0.4243 -1.2472
  237MPD1     C 3593   0.532   0.731  14.502  0.3339 -0.4662 -0.5075
  237MPD1    C1 3594   0.466   0.748  14.619 -0.1554  1.0348 -0.3070
  237MPD1    C2 3595   0.354   0.666  14.644  1.3662  1.1031  0.3066
  237MPD1    C3 3596   0.306   0.579  14.551  0.0918 -0.3524  0.1997
  237MPD1    C4 3597   0.370   0.572  14.427  0.6276 -0.7132  0.1919
  237MPD1    C5 3598   0.486   0.642  14.413  0.5750 -0.1411 -0.2056
  237MPD1     H 3599   0.299   0.692  14.733  0.6181 -1.2676  0.5276
  237MPD1    H1 3600   0.327   0.505  14.353  1.5970 -0.8345 -0.2540
  237MPD1    H2 3601   0.619   0.793  14.479  0.4498 -0.1244  0.7957
  237MPD1    H3 3602   0.538   0.628  14.319  1.8933 -1.1137  0.6694
  237MPD1     N 3603   0.187   0.507  14.570  0.1505 -0.2131 -0.2226
  237MPD1    H5 3604   0.150   0.456  14.491 -4.9681  1.4905  1.0662
  237MPD1    N1 3605   0.504   0.846  14.706 -0.6614 -0.0930  0.1528
  237MPD1    H6 3606   0.507   0.810  14.802 -0.9114 -1.7539 -0.4568
  237MPD1    H7 3607   0.594   0.890  14.688 -0.8792 -0.7477 -2.5097
  238MPD1     C 3608   2.353   4.280  14.852  0.7287 -0.2637  0.3070
  238MPD1    C1 3609   2.272   4.249  14.959 -0.4427 -0.9750 -0.3007
  238MPD1    C2 3610   2.172   4.160  14.934 -0.0356  0.0633  0.4842
  238MPD1    C3 3611   2.119   4.138  14.807  0.3423 -0.1311  0.5169
  238MPD1    C4 3612   2.187   4.201  14.703 -0.3635 -0.4471  0.2811
  238MPD1    C5 3613   2.307   4.259  14.720  0.1260  0.3934 -0.5844
  238MPD1     H 3614   2.107   4.140  15.018 -3.5436 -1.7143 -2.6456
  238MPD1    H1 3615   2.152   4.192  14.601 -1.7528  1.0164  0.6399
  238MPD1    H2 3616   2.448   4.332  14.860  0.0944  1.0893 -1.0449
  238MPD1    H3 3617   2.352   4.308  14.635 -1.8763  1.4813 -1.0133
  238MPD1     N 3618   1.992   4.081  14.785 -0.7416 -0.0022 -0.2444
  238MPD1    H5 3619   1.957   4.082  14.690 -0.1273 -1.4197 -0.4910
  238MPD1    N1 3620   2.320   4.277  15.091 -0.8730 -0.1170 -0.5581
  238MPD1    H6 3621   2.369   4.366  15.095  0.4106 -0.8237 -0.5519
  238MPD1    H7 3622   2.247   4.273  15.162 -2.4140  0.5048 -2.1284
  239MPD1     C 3623   1.898   0.112  14.577 -0.0089  0.3788  0.1854
  239MPD1    C1 3624   2.001   0.174  14.512  0.0823  0.0140 -0.2427
  239MPD1    C2 3625   1.986   0.190  14.375  0.2141  0.2002 -0.4828
  239MPD1    C3 3626   1.874   0.143  14.305  0.0024 -0.7382  0.0456
  239MPD1    C4 3627   1.775   0.081  14.379  0.7787  0.4328 -0.9306
  239MPD1    C5 3628   1.791   0.063  14.511  0.0927  0.0217  1.1895
  239MPD1     H 3629   2.062   0.243  14.321  1.0851  0.5274  1.0677
  239MPD1    H1 3630   1.684   0.042  14.336  0.5809  1.3564 -1.3522
  239MPD1    H2 3631   1.904   0.088  14.683 -1.0207  0.0010  0.1553
  239MPD1    H3 3632   1.708   0.017  14.562 -0.6898  0.6729  0.5006
  239MPD1     N 3633   1.852   0.152  14.165  0.1860 -0.7632 -0.4564
  239MPD1    H5 3634   1.761   0.124  14.132 -0.5446 -0.6580  1.4607
  239MPD1    N1 3635   2.107   0.237  14.580  0.1250 -0.2325  0.5006
  239MPD1    H6 3636   2.118   0.200  14.674  0.3017 -0.7621  0.2765
  239MPD1    H7 3637   2.198   0.231  14.535 -0.3885 -0.3370 -0.5346
  240MPD1     C 3638   1.485   4.393  14.938 -0.0900 -0.3662 -0.1664
  240MPD1    C1 3639   1.365   4.397  14.875  0.3167 -0.6816  0.2004
  240MPD1    C2 3640   1.277   4.290  14.901  0.3637 -0.0585 -0.9151
  240MPD1    C3 3641   1.320   4.169  14.957 -0.2132  0.6574 -0.3711
  240MPD1    C4 3642   1.451   4.162  15.000 -0.2230  0.1228 -0.2829
  240MPD1    C5 3643   1.528   4.279  15.001  0.4889  0.2176  0.2809
  240MPD1     H 3644   1.174   4.304  14.869 -0.5818  0.8668  2.5997
  240MPD1    H1 3645   1.492   4.075  15.052 -1.5926 -1.4838 -1.9136
  240MPD1    H2 3646   1.555   4.476  14.931 -0.9040  0.2905 -0.5471
  240MPD1    H3 3647   1.632   4.276  15.033  1.3152  0.7205 -2.4060
  240MPD1     N 3648   1.234   4.057  14.966  0.7255 -0.4889 -0.1185
  240MPD1    H5 3649   1.142   4.069  14.923  0.9183 -1.7561 -0.8736
  240MPD1    N1 3650   1.323   4.516  14.819 -0.2517  0.0508 -0.5973
  240MPD1    H6 3651   1.245   4.502  14.755 -0.7162 -1.1356  0.2207
  240MPD1    H7 3652   1.392   4.574  14.771 -1.1392  0.7309 -1.0752
  241MPD1     C 3653   1.151   3.135  15.464 -0.0116  0.2148 -0.7368
  241MPD1    C1 3654   1.028   3.197  15.446 -0.4369 -0.4593  0.7658
  241MPD1    C2 3655   1.011   3.316  15.375  0.5020 -0.0786  0.2759
  241MPD1    C3 3656   1.125   3.383  15.329  0.4861 -0.1201  0.0222
  241MPD1    C4 3657   1.250   3.341  15.368 -0.4636  0.3353 -0.1460
  241MPD1    C5 3658   1.253   3.218  15.425  0.7075  0.6407 -0.5085
  241MPD1     H 3659   0.912   3.352  15.351  0.8295 -0.8696 -2.2922
  241MPD1    H1 3660   1.342   3.397  15.354 -0.1553 -0.4411 -1.2105
  241MPD1    H2 3661   1.169   3.045  15.522  0.9974  2.1781  1.9958
  241MPD1    H3 3662   1.349   3.177  15.454  1.0591 -0.0479 -2.6376
  241MPD1     N 3663   1.131   3.493  15.244  0.7960  0.0985 -0.0694
  241MPD1    H5 3664   1.223   3.526  15.215  0.5562 -0.1951 -1.1621
  241MPD1    N1 3665   0.914   3.111  15.458  0.0012  0.9398  0.3875
  241MPD1    H6 3666   0.822   3.151  15.479  0.6916  0.6069  4.1179
  241MPD1    H7 3667   0.921   3.041  15.532  0.2000  0.3732 -0.1630
  242MPD1     C 3668   1.337   2.577  16.103 -0.1389  0.9465  0.8488
  242MPD1    C1 3669   1.299   2.657  15.993  0.0018  0.6168  0.5966
  242MPD1    C2 3670   1.379   2.640  15.886 -0.1713  0.9408 -0.5250
  242MPD1    C3 3671   1.496   2.555  15.885  0.3393 -0.6369 -0.2334
  242MPD1    C4 3672   1.531   2.484  15.995 -0.2759  0.1279 -0.3789
  242MPD1    C5 3673   1.448   2.499  16.102  0.2302 -1.0831  0.4763
  242MPD1     H 3674   1.350   2.681  15.790  1.7372  2.5445 -0.4358
  242MPD1    H1 3675   1.620   2.422  16.002  0.3934  1.3212  1.5151
  242MPD1    H2 3676   1.276   2.578  16.193  0.5135 -0.6698  1.3020
  242MPD1    H3 3677   1.476   2.450  16.194  0.2987  1.1701  1.6741
  242MPD1     N 3678   1.579   2.539  15.770  0.2458 -0.2745  0.0628
  242MPD1    H5 3679   1.655   2.476  15.795  0.7074 -0.0158 -0.6700
  242MPD1    N1 3680   1.166   2.712  16.004  0.3699  0.1118 -0.4146
  242MPD1    H6 3681   1.147   2.737  16.101 -1.0797  1.1784 -0.9791
  242MPD1    H7 3682   1.160   2.782  15.931  0.1225  1.1274  0.5687
  243MPD1     C 3683   3.172   2.226  17.694 -0.8499 -0.0491  0.0260
  243MPD1    C1 3684   3.135   2.115   0.069 -0.4824  0.0425  0.3880
  243MPD1    C2 3685   3.103   2.001   0.006 -0.2853  0.3420  0.1501
  243MPD1    C3 3686   3.089   1.995  17.558  0.2697  0.0877 -0.4777
  243MPD1    C4 3687   3.100   2.116  17.491  0.5000 -0.9425 -0.0490
  243MPD1    C5 3688   3.145   2.226  17.562  0.8497 -0.4007 -0.2110
  243MPD1     H 3689   3.080   1.912   0.064  1.2002  0.3689  0.7920
  243MPD1    H1 3690   3.081   2.127  17.385  2.4441  1.1422 -0.1850
  243MPD1    H2 3691   3.203   2.320   0.042 -2.0875  0.4978 -0.2721
  243MPD1    H3 3692   3.159   2.317  17.505 -1.7640  0.3665  0.3427
  243MPD1     N 3693   3.046   1.881  17.501 -0.9344 -0.0560  0.4218
  243MPD1    H5 3694   3.035   1.804  17.567 -0.5288  0.5833  1.2291
  243MPD1    N1 3695   3.156   2.113   0.204 -0.2926 -0.6405  0.2933
  243MPD1    H6 3696   3.141   2.206   0.243  0.9487 -0.3867  0.1693
  243MPD1    H7 3697   3.088   2.062   0.260 -1.9975  0.8143 -0.4676
  244MPD1     C 3698   2.256   1.708   0.124  0.3286 -0.5639 -0.0001
  244MPD1    C1 3699   2.289   1.581   0.083 -0.0222  0.4892 -0.1246
  244MPD1    C2 3700   2.394   1.555  17.691  0.4539 -0.1882 -0.1300
  244MPD1    C3 3701   2.455   1.658  17.627 -0.1818 -0.5202 -0.3009
  244MPD1    C4 3702   2.410   1.791  17.656 -0.1202  0.7872  0.7890
  244MPD1    C5 3703   2.314   1.810   0.051  0.1786 -0.5262 -0.5340
  244MPD1     H 3704   2.416   1.453  17.661  2.3272 -0.2423  1.4059
  244MPD1    H1 3705   2.438   1.876  17.594  1.2139 -0.1974  0.0213
  244MPD1    H2 3706   2.189   1.734   0.205 -0.8314 -0.1262 -1.1008
  244MPD1    H3 3707   2.276   1.910   0.071 -0.8121 -1.0907  0.4311
  244MPD1     N 3708   2.550   1.622  17.530  0.6909 -0.5773  0.0773
  244MPD1    H5 3709   2.565   1.524  17.512  1.3303 -0.2703 -1.0210
  244MPD1    N1 3710   2.215   1.478   0.145 -0.5497  0.1766  0.3765
  244MPD1    H6 3711   2.204   1.391   0.092 -2.1856  1.0050 -0.6451
  244MPD1    H7 3712   2.120   1.513   0.150 -1.3363 -1.7431 -1.0738
  245MPD1     C 3713   0.022   1.824  13.066  0.4330 -0.6012  0.8859
  245MPD1    C1 3714   4.702   1.855  13.194 -0.2116  0.1835 -0.2957
  245MPD1    C2 3715   0.055   1.941  13.265 -0.5486  0.4255 -0.6402
  245MPD1    C3 3716   0.161   2.015  13.219  0.9549  0.0124  0.6658
  245MPD1    C4 3717   0.202   1.980  13.097  0.2827 -0.6508  0.3490
  245MPD1    C5 3718   0.139   1.885  13.031  0.2921  0.3804 -0.2141
  245MPD1     H 3719   0.017   1.944  13.366 -0.6523 -1.0924 -0.6316
  245MPD1    H1 3720   0.289   2.019  13.046 -1.4043 -1.4429 -3.1559
  245MPD1    H2 3721   4.703   1.746  13.004  0.5050 -0.5893  0.8209
  245MPD1    H3 3722   0.173   1.850  12.934 -0.4341 -0.1196 -0.2918
  245MPD1     N 3723   0.224   2.102  13.307 -1.2046  1.0914 -0.7196
  245MPD1    H5 3724   0.174   2.123  13.393 -0.9696 -0.2574 -0.2454
  245MPD1    N1 3725   4.595   1.782  13.256  0.0169 -0.5207 -0.3782
  245MPD1    H6 3726   4.550   1.834  13.331  1.1050  0.3309 -0.3211
  245MPD1    H7 3727   4.537   1.742  13.182 -1.1937  1.6019 -0.5792
  246MPD1     C 3728   1.806   3.618   9.654  0.3659 -0.6154 -0.8926
  246MPD1    C1 3729   1.827   3.695   9.541 -0.3833 -0.1196 -0.1114
  246MPD1    C2 3730   1.748   3.667   9.430 -0.4969  0.9679  1.1192
  246MPD1    C3 3731   1.638   3.579   9.437 -0.5367  0.8796  0.3867
  246MPD1    C4 3732   1.614   3.526   9.559 -0.2055 -0.2870 -0.3057
  246MPD1    C5 3733   1.706   3.531   9.656  0.3061 -0.5181  0.5858
  246MPD1     H 3734   1.778   3.720   9.341 -0.8232 -1.5945 -0.5089
  246MPD1    H1 3735   1.533   3.455   9.574  0.8427 -1.6178 -0.9520
  246MPD1    H2 3736   1.861   3.636   9.746  0.5682 -1.4283 -0.8569
  246MPD1    H3 3737   1.684   3.484   9.752 -0.2242  0.0737  0.7520
  246MPD1     N 3738   1.579   3.542   9.313  0.4973 -0.0953  0.2592
  246MPD1    H5 3739   1.623   3.575   9.227 -0.6824 -1.2717 -0.7867
  246MPD1    N1 3740   1.946   3.772   9.531  0.0450  0.0918  0.0394
  246MPD1    H6 3741   1.937   3.861   9.482 -0.6525 -0.3543 -0.6429
  246MPD1    H7 3742   1.993   3.790   9.620  0.4032 -0.6213 -0.0085
  247MPD1     C 3743   3.028   1.843  15.643  0.5776 -0.2892  0.0393
  247MPD1    C1 3744   3.031   1.792  15.772  0.1948  0.0580 -1.0263
  247MPD1    C2 3745   3.152   1.768  15.821  0.3059  0.3388 -0.3643
  247MPD1    C3 3746   3.272   1.794  15.756  0.6180  0.4704 -0.7569
  247MPD1    C4 3747   3.266   1.836  15.630  0.4787 -0.2891  0.5433
  247MPD1    C5 3748   3.143   1.862  15.572 -0.4684 -0.1414 -0.1991
  247MPD1     H 3749   3.164   1.739  15.925 -0.1483 -0.4591 -0.5356
  247MPD1    H1 3750   3.362   1.852  15.581  0.8448 -0.3999  1.2359
  247MPD1    H2 3751   2.935   1.851  15.587  0.4548  0.4374  0.3486
  247MPD1    H3 3752   3.122   1.912  15.478  0.1661 -1.0037 -0.7953
  247MPD1     N 3753   3.400   1.781  15.813 -0.2117 -0.0398  0.4394
  247MPD1    H5 3754   3.486   1.800  15.761 -1.8173 -0.7983 -2.5108
  247MPD1    N1 3755   2.913   1.746  15.838 -0.0453 -0.1276  0.5896
  247MPD1    H6 3756   2.822   1.771  15.800  1.4799  0.3947 -2.6861
  247MPD1    H7 3757   2.905   1.758  15.939 -0.6808  1.8620  0.3035
  248MPD1     C 3758   0.348   2.127  17.362  0.3200 -0.0085  0.5165
  248MPD1    C1 3759   0.225   2.157  17.326  0.5962 -0.2797 -0.8347
  248MPD1    C2 3760   0.148   2.242  17.402 -0.2570  0.8678 -0.2503
  248MPD1    C3 3761   0.210   2.315  17.504  0.1035 -0.2574 -0.0027
  248MPD1    C4 3762   0.341   2.294  17.534  0.3203  0.0582 -0.3279
  248MPD1    C5 3763   0.408   2.193  17.472  0.4050 -0.5518  0.4032
  248MPD1     H 3764   0.042   2.260  17.384 -0.5000  2.1163  2.4886
  248MPD1    H1 3765   0.390   2.331  17.624 -1.9817 -1.2205  1.4480
  248MPD1    H2 3766   0.400   2.049  17.309 -0.7263  0.1404 -0.7287
  248MPD1    H3 3767   0.504   2.168  17.514  1.6100  0.3609 -1.8041
  248MPD1     N 3768   0.133   2.403  17.585  0.1098  0.0406  0.3869
  248MPD1    H5 3769   0.035   2.413  17.560  0.6767  2.0164 -1.0215
  248MPD1    N1 3770   0.156   2.101  17.215 -0.6828 -0.5297  0.3626
  248MPD1    H6 3771   0.055   2.113  17.218 -0.5939  0.5244 -0.6574
  248MPD1    H7 3772   0.175   2.003  17.199  1.1247 -0.1146 -0.0604
  249MPD1     C 3773   2.448   0.296   9.670  0.4075  0.0213 -0.0954
  249MPD1    C1 3774   2.581   0.346   9.684 -0.3197  0.0309  0.5243
  249MPD1    C2 3775   2.610   0.466   9.758 -0.0443 -0.0041 -0.3855
  249MPD1    C3 3776   2.507   0.530   9.815 -0.1611  0.7109  0.2241
  249MPD1    C4 3777   2.378   0.503   9.775  0.0114 -0.9232  0.3280
  249MPD1    C5 3778   2.355   0.381   9.713 -0.0506 -0.3876  0.1341
  249MPD1     H 3779   2.710   0.500   9.779  0.7795 -2.1248 -0.8270
  249MPD1    H1 3780   2.296   0.568   9.801 -0.4217 -0.8227 -1.3341
  249MPD1    H2 3781   2.413   0.208   9.617  0.7963 -0.5979  0.6748
  249MPD1    H3 3782   2.249   0.360   9.702 -0.4632  1.9379 -0.3238
  249MPD1     N 3783   2.540   0.650   9.890  0.3899  0.0141 -0.4051
  249MPD1    H5 3784   2.639   0.666   9.907  0.5410  1.2606 -2.4732
  249MPD1    N1 3785   2.684   0.259   9.643  0.4784  0.1425 -0.3347
  249MPD1    H6 3786   2.647   0.194   9.574 -0.3352 -1.2141  1.3886
  249MPD1    H7 3787   2.774   0.294   9.612  0.9707  0.1119  1.0435
  250MPD2     C 3788   2.552   0.605  12.860 -0.7093  0.1199  0.3612
  250MPD2    C1 3789   2.482   0.597  12.737  0.0005  0.0457  0.7329
  250MPD2    C2 3790   2.374   0.508  12.724 -0.1067  0.0635  0.5224
  250MPD2    C3 3791   2.349   0.417  12.824 -0.2700  0.0981 -0.3720
  250MPD2    C4 3792   2.412   0.433  12.948 -0.7672  0.0455 -0.1207
  250MPD2    C5 3793   2.509   0.527  12.962  0.0243  0.4145  0.6507
  250MPD2     H 3794   2.325   0.505  12.627  1.0549  1.1023 -0.1098
  250MPD2    H1 3795   2.402   0.368  13.035  0.0566  0.3628  0.2090
  250MPD2    H2 3796   2.634   0.672  12.883 -2.9004  2.3978  1.5194
  250MPD2    H3 3797   2.571   0.535  13.050  3.9990 -0.8328 -2.0352
  250MPD2     N 3798   2.260   0.309  12.810  0.8079  0.1237  0.2162
  250MPD2    H5 3799   2.248   0.254  12.894 -0.2801  0.2520  0.1467
  250MPD2    N1 3800   2.529   0.678  12.635 -0.1955 -0.2742 -0.2125
  250MPD2    H7 3801   2.621   0.720  12.640 -0.1498 -0.5066  1.0918
  251TMC3    C1 3802   2.515   0.814  12.445  0.2408 -0.2652 -0.0717
  251TMC3    C2 3803   2.434   0.922  12.431  0.3496 -0.4589  0.0763
  251TMC3    C3 3804   2.488   1.039  12.386  0.4617  0.3286 -0.1468
  251TMC3    C4 3805   2.650   0.818  12.448 -0.1434  0.1682 -0.5768
  251TMC3    C5 3806   2.701   0.933  12.401  0.4314  0.3748 -0.0634
  251TMC3    C6 3807   2.618   1.041  12.366  0.2354  0.0619  0.0735
  251TMC3     C 3808   2.455   0.706  12.518 -0.0604  0.2980 -0.6242
  251TMC3     O 3809   2.345   0.674  12.482 -0.2602 -0.3386  0.7006
  251TMC3     H 3810   2.326   0.908  12.439  0.0960  2.0533  0.9867
  251TMC3    H1 3811   2.703   0.724  12.459  0.8931  0.6683 -1.1960
  251TMC3    H2 3812   2.667   1.128  12.323  0.0292 -0.2234 -0.7350
  251TMC3    C7 3813   2.845   0.941  12.388  0.0465 -0.6611  0.3109
  251TMC3    C8 3814   2.437   1.156  12.456 -0.0397  0.5558 -0.3844
  251TMC3    O1 3815   2.880   1.027  12.305  0.0002  0.3103  0.2696
  251TMC3    O2 3816   2.518   1.241  12.489 -0.4171 -0.3354  0.0972
  252TMC3    C1 3817   4.049   1.945   9.116 -0.6351  0.4503 -0.2670
  252TMC3    C2 3818   4.179   1.933   9.161 -0.2303  0.0366  0.4924
  252TMC3    C3 3819   4.234   1.805   9.164 -0.3067  0.0181  0.7235
  252TMC3    C4 3820   3.968   1.842   9.102  0.5588 -0.2424  0.2822
  252TMC3    C5 3821   4.019   1.718   9.120  0.0074  0.0918  0.2766
  252TMC3    C6 3822   4.152   1.695   9.149 -0.2134 -0.3067 -0.2739
  252TMC3     C 3823   4.009   2.085   9.080 -0.1885 -1.2202  0.4230
  252TMC3     O 3824   4.102   2.167   9.082 -0.0573 -0.1920  1.4479
  252TMC3     H 3825   4.243   2.021   9.166 -0.1586 -0.0711  1.4154
  252TMC3    H1 3826   3.863   1.863   9.083 -0.2809 -2.7319  2.0489
  252TMC3    H2 3827   4.197   1.597   9.140  1.3553  0.1934  2.0360
  252TMC3    C7 3828   3.923   1.608   9.079  0.2868  0.3831  0.5874
  252TMC3    C8 3829   4.374   1.789   9.183  0.1003 -1.1007  0.3782
  252TMC3    O1 3830   3.819   1.628   9.019 -0.2750 -0.5368  0.0862
  252TMC3    O2 3831   4.438   1.893   9.192  0.1782  0.0179  0.0748
  253MPD2     C 3832   4.140   0.490  14.716 -0.9951 -0.0005 -0.6499
  253MPD2    C1 3833   4.045   0.407  14.781 -0.3240 -0.6305  0.4932
  253MPD2    C2 3834   4.018   0.423  14.922 -0.6855  0.1642 -0.2557
  253MPD2    C3 3835   4.103   0.502  15.001  0.3996 -0.1582  0.5031
  253MPD2    C4 3836   4.203   0.573  14.936  0.7705  0.1897  0.2980
  253MPD2    C5 3837   4.213   0.573  14.797  0.0289 -0.1924 -0.3089
  253MPD2     H 3838   3.930   0.376  14.964 -0.4017 -0.4914 -0.3913
  253MPD2    H1 3839   4.273   0.634  14.992  1.1069 -0.8498  1.0052
  253MPD2    H2 3840   4.163   0.479  14.610  0.2598  0.4573 -0.4268
  253MPD2    H3 3841   4.285   0.641  14.753  1.6115 -1.7806 -0.1428
  253MPD2     N 3842   4.088   0.525  15.137 -0.0885  0.0324  0.3969
  253MPD2    H5 3843   4.160   0.577  15.186 -0.6564 -2.5590  3.9300
  253MPD2    N1 3844   3.957   0.317  14.710 -0.1199 -0.1916 -0.2623
  253MPD2    H7 3845   3.887   0.272  14.767 -0.5439 -0.9089 -1.3389
  254TMC3    C1 3846   3.990   0.485  15.358 -0.6812  0.3751  0.0788
  254TMC3    C2 3847   3.879   0.503  15.433 -0.2755  0.4732  0.8082
  254TMC3    C3 3848   3.901   0.507  15.569  0.1617 -0.2212  0.5598
  254TMC3    C4 3849   4.116   0.455  15.409  0.1965 -0.7257  0.3925
  254TMC3    C5 3850   4.130   0.459  15.547 -0.0572 -0.2520 -0.4473
  254TMC3    C6 3851   4.021   0.479  15.626  0.1141  0.5455 -0.1109
  254TMC3     C 3852   3.981   0.474  15.213  0.0753  0.3713  0.1726
  254TMC3     O 3853   3.878   0.427  15.172 -0.0128 -0.0864  0.2987
  254TMC3     H 3854   3.780   0.515  15.390  0.6611  1.9845 -0.9467
  254TMC3    H1 3855   4.190   0.440  15.331  1.1497  0.3183  1.0987
  254TMC3    H2 3856   4.041   0.495  15.732  0.3910 -0.9978  0.0609
  254TMC3    C7 3857   4.250   0.429  15.614 -0.0872  0.0818 -0.1497
  254TMC3    C8 3858   3.806   0.590  15.643 -0.3357 -0.1107  0.6179
  254TMC3    O1 3859   4.236   0.374  15.723 -0.3426  0.1190 -0.0903
  254TMC3    O2 3860   3.852   0.654  15.735 -0.0727 -0.1903  0.9253
  255MPD2     C 3861   3.460   2.902  10.545 -0.4672  0.2056  0.7018
  255MPD2    C1 3862   3.410   2.995  10.454 -0.2173  0.3263 -0.1003
  255MPD2    C2 3863   3.412   2.969  10.316 -0.0930  0.1056 -0.0506
  255MPD2    C3 3864   3.464   2.847  10.273 -0.2251 -0.2687  0.4449
  255MPD2    C4 3865   3.489   2.749  10.368 -0.0240  0.0135  0.2129
  255MPD2    C5 3866   3.492   2.775  10.498 -0.2002 -0.1035 -0.2967
  255MPD2     H 3867   3.390   3.041  10.238  1.6542  1.6113  0.8244
  255MPD2    H1 3868   3.531   2.653  10.342  0.0852  0.7271 -2.2330
  255MPD2    H2 3869   3.460   2.922  10.652  0.0841 -0.4301  0.8242
  255MPD2    H3 3870   3.531   2.694  10.558 -0.2374  1.3070  1.6115
  255MPD2     N 3871   3.490   2.824  10.133  0.4016  0.1179 -0.3266
  255MPD2    H5 3872   3.497   2.914  10.086 -1.0567 -0.0651 -0.9088
  255MPD2    N1 3873   3.372   3.120  10.512  0.4637 -0.1530  0.3144
  255MPD2    H7 3874   3.363   3.120  10.613  0.9045 -1.3635  0.3535
  256TMC3    C1 3875   3.246   3.314  10.509  0.3257 -0.2861  0.0255
  256TMC3    C2 3876   3.231   3.428  10.436  0.0563  0.1048  0.5762
  256TMC3    C3 3877   3.104   3.467  10.391  0.0778 -0.0591 -0.2874
  256TMC3    C4 3878   3.137   3.251  10.565  0.3837 -0.4048 -0.3783
  256TMC3    C5 3879   3.021   3.300  10.530 -0.1500  0.0378 -0.5703
  256TMC3    C6 3880   2.997   3.397  10.437 -0.7769  0.0401  0.6221
  256TMC3     C 3881   3.330   3.225  10.439 -0.4625  0.6068 -0.2678
  256TMC3     O 3882   3.358   3.244  10.321  0.7368  0.5891 -0.0413
  256TMC3     H 3883   3.323   3.462  10.389 -0.5355  0.4967 -0.2859
  256TMC3    H1 3884   3.151   3.156  10.616  0.5071  1.1425  2.4232
  256TMC3    H2 3885   2.894   3.417  10.414 -0.3877  0.4859 -0.7004
  256TMC3    C7 3886   2.926   3.190  10.520 -1.4843 -0.3731  0.1149
  256TMC3    C8 3887   3.102   3.512  10.251  0.3810 -0.6026  0.8491
  256TMC3    O1 3888   2.872   3.185  10.412 -0.2214  0.4063  0.1134
  256TMC3    O2 3889   3.205   3.554  10.208 -0.4883 -0.4264 -0.5480
  257MPD2     C 3890   1.822   0.896  12.918 -0.3591 -0.4140 -0.0637
  257MPD2    C1 3891   1.766   0.809  12.827  0.4124  0.8360 -0.2039
  257MPD2    C2 3892   1.725   0.682  12.866  0.9796 -0.0766 -0.0283
  257MPD2    C3 3893   1.736   0.639  12.997 -0.7162  0.1079 -0.2945
  257MPD2    C4 3894   1.790   0.723  13.090  0.3282  0.2315 -0.1653
  257MPD2    C5 3895   1.827   0.850  13.049  0.3236  0.0873  0.2924
  257MPD2     H 3896   1.679   0.612  12.797  1.7145 -0.9684  0.3792
  257MPD2    H1 3897   1.797   0.697  13.195 -2.9167  2.0503  0.4874
  257MPD2    H2 3898   1.849   0.997  12.890 -0.8394 -0.6437 -1.3192
  257MPD2    H3 3899   1.855   0.921  13.125 -1.0492 -0.3235  1.1962
  257MPD2     N 3900   1.685   0.510  13.025  0.0149  0.0894  0.7783
  257MPD2    H5 3901   1.668   0.449  12.946  0.6719  1.2407 -0.2522
  257MPD2    N1 3902   1.760   0.850  12.691  0.0873  0.9424  0.1449
  257MPD2    H7 3903   1.777   0.949  12.675 -0.9881  1.0753 -0.1836
  258TMC3    C1 3904   1.660   0.313  13.171 -0.0079 -0.8461 -0.3517
  258TMC3    C2 3905   1.604   0.230  13.082  0.0476 -0.1457  0.0443
  258TMC3    C3 3906   1.591   0.097  13.109  0.7312 -0.4619  0.1843
  258TMC3    C4 3907   1.674   0.269  13.300 -0.1250  0.4358 -1.0360
  258TMC3    C5 3908   1.656   0.141  13.329  0.4474 -0.2883 -0.1725
  258TMC3    C6 3909   1.614   0.046  13.238 -0.4130 -0.4952 -0.3372
  258TMC3     C 3910   1.676   0.460  13.154 -0.0448 -0.2708  0.1951
  258TMC3     O 3911   1.693   0.521  13.256  0.3854 -0.4737 -0.2427
  258TMC3     H 3912   1.577   0.280  12.989 -0.5890  0.3405  0.4913
  258TMC3    H1 3913   1.707   0.336  13.378  1.7155 -2.6404  0.8342
  258TMC3    H2 3914   1.585   4.670  13.269 -1.9521 -0.2247 -0.9261
  258TMC3    C7 3915   1.624   0.113  13.466 -0.1814 -0.3740  0.0849
  258TMC3    C8 3916   1.607   0.004  12.999  0.1213  0.3490  0.1175
  258TMC3    O1 3917   1.530   0.173  13.515 -0.0154  0.5417  0.7041
  258TMC3    O2 3918   1.634   4.613  13.024  0.1627  0.6401  0.7751
  259MPD2     C 3919   0.540   2.546   0.744  0.7952  0.3656  0.1050
  259MPD2    C1 3920   0.667   2.522   0.796 -0.0818  0.1476 -0.0781
  259MPD2    C2 3921   0.764   2.478   0.708 -0.2813  0.0512 -0.8191
  259MPD2    C3 3922   0.740   2.419   0.584 -0.0646 -0.0459 -0.1242
  259MPD2    C4 3923   0.611   2.432   0.542 -0.6296  0.8172 -0.8762
  259MPD2    C5 3924   0.519   2.504   0.618  0.3247 -0.4585 -0.1767
  259MPD2     H 3925   0.867   2.471   0.740  0.3050  0.5373 -2.5837
  259MPD2    H1 3926   0.560   2.377   0.464 -1.1031 -0.5728  0.4007
  259MPD2    H2 3927   0.467   2.594   0.808  0.9578 -0.8020  1.1606
  259MPD2    H3 3928   0.420   2.527   0.580 -0.2255 -1.1619  0.8178
  259MPD2     N 3929   0.837   2.330   0.518  0.2501  0.0134 -0.1327
  259MPD2    H5 3930   0.917   2.311   0.579  1.4256  2.0647 -1.0466
  259MPD2    N1 3931   0.699   2.568   0.923  0.1127 -0.1769 -0.1719
  259MPD2    H7 3932   0.626   2.577   0.992 -0.3647 -0.6683 -0.6092
  260TMC3    C1 3933   0.915   2.173   0.358  0.0041  0.4470  0.7919
  260TMC3    C2 3934   1.020   2.135   0.436  0.4147 -0.0218 -0.1542
  260TMC3    C3 3935   1.082   2.016   0.411  0.4991  0.8036  0.4402
  260TMC3    C4 3936   0.878   2.096   0.253  0.3493  0.4228  1.0001
  260TMC3    C5 3937   0.953   1.985   0.222 -0.1096 -0.6432 -1.0345
  260TMC3    C6 3938   1.055   1.940   0.301 -0.1992  0.5189  0.5242
  260TMC3     C 3939   0.826   2.288   0.390 -0.3169  0.9345  0.5359
  260TMC3     O 3940   0.761   2.335   0.298  0.2169 -0.2864 -0.1862
  260TMC3     H 3941   1.048   2.188   0.527 -0.3232 -0.7419  0.4944
  260TMC3    H1 3942   0.793   2.118   0.190  0.3435 -1.8036  0.2306
  260TMC3    H2 3943   1.119   1.857   0.272 -1.6907 -1.0857  1.9003
  260TMC3    C7 3944   0.910   1.895   0.124  0.1267 -0.6427 -0.1360
  260TMC3    C8 3945   1.160   1.962   0.522  0.1127 -0.1507  0.2754
  260TMC3    O1 3946   0.956   1.782   0.120  0.4820 -0.0624  0.5030
  260TMC3    O2 3947   1.185   2.032   0.622  0.0218  0.4509 -0.5474
  261MPD2     C 3948   1.784   0.089  12.200 -0.2379 -0.1816  0.0543
  261MPD2    C1 3949   1.905   0.136  12.250 -0.2058 -0.6913  0.0932
  261MPD2    C2 3950   1.976   0.213  12.163  0.0159 -0.1499  0.1141
  261MPD2    C3 3951   1.944   0.249  12.035 -0.3188  0.0712  0.1794
  261MPD2    C4 3952   1.826   0.194  11.988  0.5713  0.6923 -0.2019
  261MPD2    C5 3953   1.756   0.115  12.069  0.1886  0.4019 -0.4180
  261MPD2     H 3954   2.065   0.252  12.209 -0.6148  1.6578 -0.1958
  261MPD2    H1 3955   1.789   0.212  11.888  1.1766 -0.4411 -0.6312
  261MPD2    H2 3956   1.722   0.018  12.255 -0.2131 -0.8004 -0.7088
  261MPD2    H3 3957   1.662   0.074  12.033 -0.1253  0.1705  0.6825
  261MPD2     N 3958   2.030   0.333  11.964 -0.7548 -0.5725 -0.3217
  261MPD2    H5 3959   2.123   0.352  12.001 -0.7440 -0.0101 -0.6327
  261MPD2    N1 3960   1.954   0.115  12.381 -0.1471 -0.9967 -0.4176
  261MPD2    H7 3961   2.023   0.182  12.412  0.6329 -1.8109 -0.4007
  262TMC3    C1 3962   2.144   0.413  11.786 -0.7572 -0.8741  0.1284
  262TMC3    C2 3963   2.129   0.497  11.677  0.4058  1.1782 -0.1255
  262TMC3    C3 3964   2.241   0.529  11.612  0.5712  0.2289 -0.0218
  262TMC3    C4 3965   2.265   0.367  11.826  0.3328  0.1577 -0.1618
  262TMC3    C5 3966   2.381   0.409  11.757  0.2031 -0.7472 -0.1730
  262TMC3    C6 3967   2.370   0.493  11.655  0.2983 -0.4086  0.0962
  262TMC3     C 3968   2.020   0.363  11.832 -0.5058  1.0385 -0.0038
  262TMC3     O 3969   1.924   0.367  11.758  0.2164  0.1606  0.0897
  262TMC3     H 3970   2.033   0.514  11.631 -0.0486 -0.1851  0.3176
  262TMC3    H1 3971   2.269   0.303  11.912  3.3915 -1.2496 -1.3732
  262TMC3    H2 3972   2.461   0.518  11.602  0.3803  3.8823  2.2848
  262TMC3    C7 3973   2.504   0.388  11.826  0.4583  0.0797 -0.5967
  262TMC3    C8 3974   2.251   0.636  11.521  0.3717  0.0682  0.5146
  262TMC3    O1 3975   2.507   0.340  11.937 -0.3816 -0.1403 -0.4841
  262TMC3    O2 3976   2.346   0.641  11.449  0.6308 -0.0804 -0.2305
  263MPD2     C 3977   3.911   3.801  10.836  0.4818 -0.3749  0.7129
  263MPD2    C1 3978   3.953   3.920  10.879 -0.0303  0.6038  0.4424
  263MPD2    C2 3979   3.956   4.024  10.786  0.2904 -0.1974 -0.1766
  263MPD2    C3 3980   3.938   4.000  10.649 -0.5711  0.2520 -0.4136
  263MPD2    C4 3981   3.897   3.883  10.611 -0.6224  0.5630  0.4199
  263MPD2    C5 3982   3.873   3.785  10.703 -0.1793  0.5373 -0.0176
  263MPD2     H 3983   3.985   4.122  10.823  1.6612 -1.0387  0.9708
  263MPD2    H1 3984   3.858   3.876  10.510 -0.2241  1.8383  0.1757
  263MPD2    H2 3985   3.906   3.718  10.905  0.0180  1.2659  2.6502
  263MPD2    H3 3986   3.825   3.699  10.659 -1.1687  1.3279 -0.4861
  263MPD2     N 3987   3.962   4.099  10.555  0.1930 -0.5886  0.8741
  263MPD2    H5 3988   3.983   4.193  10.586  0.6411 -0.6483  0.7441
  263MPD2    N1 3989   4.011   3.934  11.008  0.0460 -0.0099 -0.2036
  263MPD2    H7 3990   4.022   3.849  11.062 -2.7585  0.0244  0.4044
  264TMC3    C1 3991   4.027   4.204  10.351  0.0094  0.2895 -0.0039
  264TMC3    C2 3992   3.980   4.323  10.390 -0.2549 -0.2858  0.6048
  264TMC3    C3 3993   4.020   4.431  10.320  0.5046  0.2960  0.9536
  264TMC3    C4 3994   4.109   4.183  10.236  0.3460 -0.0145 -0.0430
  264TMC3    C5 3995   4.128   4.296  10.166 -0.1481 -0.1067  0.1152
  264TMC3    C6 3996   4.086   4.418  10.204  0.4305  0.3612 -0.6058
  264TMC3     C 3997   3.983   4.084  10.419 -0.4320 -0.0503  0.2220
  264TMC3     O 3998   3.995   3.980  10.358 -0.3756 -0.5650 -0.3589
  264TMC3     H 3999   3.924   4.325  10.483  1.1628  0.6996  1.4420
  264TMC3    H1 4000   4.151   4.085  10.216 -2.3577 -1.5934  1.9969
  264TMC3    H2 4001   4.100   4.502  10.137 -1.9519  1.0828 -0.1977
  264TMC3    C7 4002   4.236   4.283  10.072 -0.2120 -0.0531  0.2093
  264TMC3    C8 4003   4.019   4.572  10.369  0.5096 -0.1131  0.6543
  264TMC3    O1 4004   4.280   4.172  10.045 -0.4645  0.1902  0.3212
  264TMC3    O2 4005   4.052   4.651  10.281  0.1392 -0.3806 -0.0874
  265MPD2     C 4006   0.869   0.430  15.263 -0.4515 -0.2812 -0.0825
  265MPD2    C1 4007   0.889   0.539  15.181  0.2805  0.9155 -0.3341
  265MPD2    C2 4008   0.939   0.521  15.053  0.0770  0.3054 -0.1685
  265MPD2    C3 4009   0.991   0.391  15.016  0.4752 -0.3043 -0.4076
  265MPD2    C4 4010   0.976   0.286  15.111 -0.1477 -0.1332  0.2060
  265MPD2    C5 4011   0.919   0.308  15.233 -0.0739 -0.5673  0.5987
  265MPD2     H 4012   0.946   0.613  14.995 -0.2598  0.8474  0.6431
  265MPD2    H1 4013   1.009   0.187  15.085  1.2860 -0.1279  2.1086
  265MPD2    H2 4014   0.818   0.436  15.359 -1.4824  1.7646 -0.7547
  265MPD2    H3 4015   0.912   0.227  15.306 -0.1923 -0.5770  0.5775
  265MPD2     N 4016   1.048   0.353  14.893  0.0923 -0.4724 -0.1119
  265MPD2    H5 4017   1.081   0.257  14.890  1.6583  0.0477  0.6371
  265MPD2    N1 4018   0.847   0.677  15.225 -0.1378 -0.0718  0.0100
  265MPD2    H7 4019   0.853   0.747  15.151  0.0072  1.4187  1.4483
  266TMC3    C1 4020   0.776   0.853  15.372 -0.1609  0.2702 -0.0108
  266TMC3    C2 4021   0.723   0.888  15.497  0.4137 -0.2890  0.4250
  266TMC3    C3 4022   0.679   1.010  15.514 -0.1192 -0.0015  0.1473
  266TMC3    C4 4023   0.778   0.940  15.266 -0.2090  0.7653  0.6079
  266TMC3    C5 4024   0.714   1.061  15.292  0.7750  0.0959 -0.2654
  266TMC3    C6 4025   0.666   1.102  15.415  0.3082  0.3468 -0.4917
  266TMC3     C 4026   0.808   0.714  15.354 -0.5896 -0.2303  0.1793
  266TMC3     O 4027   0.801   0.641  15.449 -0.1044  0.2235  0.0671
  266TMC3     H 4028   0.735   0.820  15.581 -0.1299  2.4462  2.6986
  266TMC3    H1 4029   0.802   0.914  15.164 -2.0466 -0.4842  0.4990
  266TMC3    H2 4030   0.628   1.201  15.439 -2.3547 -0.9186  0.5595
  266TMC3    C7 4031   0.662   1.137  15.174  0.3372 -0.4092  0.5263
  266TMC3    C8 4032   0.597   1.014  15.638  0.0913  0.3676 -0.0679
  266TMC3    O1 4033   0.723   1.116  15.072 -0.1847  0.3508  0.0268
  266TMC3    O2 4034   0.537   0.909  15.662  0.1814 -0.3280 -0.3255
  267MPD2     C 4035   2.762   2.181   0.164  0.0442  0.8429 -0.0141
  267MPD2    C1 4036   2.806   2.272   0.069  0.1209 -0.4713 -0.1738
  267MPD2    C2 4037   2.788   2.234  17.636 -0.1812 -0.0486  0.6899
  267MPD2    C3 4038   2.720   2.119  17.596 -1.0088 -0.1286  0.3638
  267MPD2    C4 4039   2.684   2.026  17.692  0.8322  0.8046  0.1381
  267MPD2    C5 4040   2.700   2.061   0.132  0.2815 -0.7522  0.0742
  267MPD2     H 4041   2.834   2.304  17.568  0.9430 -1.1527  0.3182
  267MPD2    H1 4042   2.623   1.938  17.674 -0.5310  1.9632 -0.8447
  267MPD2    H2 4043   2.760   2.208   0.269 -1.3059  2.7289 -0.5271
  267MPD2    H3 4044   2.656   2.000   0.210 -0.1647  0.0919  0.4847
  267MPD2     N 4045   2.693   2.077  17.461  0.4371  0.2240 -0.1807
  267MPD2    H5 4046   2.646   1.987  17.456  0.4651  0.0505  2.4328
  267MPD2    N1 4047   2.859   2.400   0.112  0.3570  0.1297 -0.6651
  267MPD2    H7 4048   2.890   2.417   0.207  1.2766 -0.1247 -0.9193
  268TMC3    C1 4049   2.996   2.589   0.074  0.4157  0.3943  0.6179
  268TMC3    C2 4050   3.082   2.629  17.673  0.5838 -0.1697  0.1307
  268TMC3    C3 4051   3.217   2.647   0.010  1.1113  0.5785  0.3820
  268TMC3    C4 4052   3.028   2.583   0.207  0.9558  0.1376  0.5560
  268TMC3    C5 4053   3.161   2.611   0.236  0.2085 -0.1547 -0.1276
  268TMC3    C6 4054   3.251   2.636   0.136 -0.3581 -0.1877  0.3468
  268TMC3     C 4055   2.886   2.505   0.026  0.1576  0.6398 -0.1101
  268TMC3     O 4056   2.846   2.522  17.610  0.0356 -0.3229 -0.1218
  268TMC3     H 4057   3.055   2.618  17.569  0.3695  1.1489  0.0499
  268TMC3    H1 4058   2.963   2.539   0.282  1.0099 -0.6021  0.1768
  268TMC3    H2 4059   3.353   2.659   0.161 -0.6111  2.4161 -1.0851
  268TMC3    C7 4060   3.214   2.600   0.371  0.6609  0.0405  0.2686
  268TMC3    C8 4061   3.318   2.659  17.606  0.1109 -0.9165 -0.8562
  268TMC3    O1 4062   3.331   2.569   0.395 -1.0904  0.3900  0.5677
  268TMC3    O2 4063   3.435   2.669  17.650 -0.6769  0.1495 -0.0863
  269MPD2     C 4064   3.469   0.977  15.396  0.9501  0.2482  0.3440
  269MPD2    C1 4065   3.341   0.982  15.362  0.2504  0.2344 -0.3545
  269MPD2    C2 4066   3.291   1.102  15.299  0.7208 -0.4768 -0.0006
  269MPD2    C3 4067   3.371   1.210  15.296 -0.3321  0.5176 -0.6886
  269MPD2    C4 4068   3.500   1.208  15.333 -0.2524  0.0613  0.2491
  269MPD2    C5 4069   3.551   1.085  15.374  1.0034 -0.1844  0.0045
  269MPD2     H 4070   3.193   1.099  15.253  0.2080 -2.0670  1.1843
  269MPD2    H1 4071   3.564   1.292  15.311 -0.3074 -0.1375 -0.6910
  269MPD2    H2 4072   3.505   0.886  15.441  0.1465  0.0586  0.6110
  269MPD2    H3 4073   3.658   1.083  15.392  1.2751  0.5034 -1.5412
  269MPD2     N 4074   3.305   1.330  15.254  0.2617  0.5023  0.0837
  269MPD2    H5 4075   3.210   1.322  15.219  0.5000  2.3128 -0.9787
  269MPD2    N1 4076   3.263   0.863  15.375  0.7183  0.4548 -0.0998
  269MPD2    H7 4077   3.305   0.776  15.407  0.2079  0.1770 -0.1736
  270TMC3    C1 4078   3.100   0.719  15.331  0.3854  0.3002 -0.6926
  270TMC3    C2 4079   2.971   0.682  15.288  0.7779 -0.2325 -0.7561
  270TMC3    C3 4080   2.937   0.553  15.288  0.5325  0.2337 -1.1131
  270TMC3    C4 4081   3.190   0.614  15.357  0.4367 -0.2175  0.1684
  270TMC3    C5 4082   3.144   0.489  15.355 -0.0659 -0.1867 -0.8989
  270TMC3    C6 4083   3.015   0.456  15.335  0.0580  0.3216 -0.5218
  270TMC3     C 4084   3.130   0.856  15.350 -0.5894  0.5680  0.0401
  270TMC3     O 4085   3.044   0.939  15.322 -0.2398  0.3606 -0.1449
  270TMC3     H 4086   2.893   0.756  15.274  0.6051 -0.0788  1.0077
  270TMC3    H1 4087   3.294   0.624  15.386 -0.2682  0.5300  2.4432
  270TMC3    H2 4088   2.976   0.354  15.333  2.6702 -0.7191  1.4986
  270TMC3    C7 4089   3.236   0.391  15.313  0.3798  0.1786 -0.1075
  270TMC3    C8 4090   2.890   0.509  15.159  0.0667  0.6503  0.2512
  270TMC3    O1 4091   3.344   0.397  15.363 -0.2099 -0.5264  0.1231
  270TMC3    O2 4092   2.966   0.524  15.068  0.2076 -0.6185  0.2430
  271MPD2     C 4093   2.250   0.554  13.765 -0.3754 -0.3648  0.2612
  271MPD2    C1 4094   2.171   0.481  13.855  0.4279 -0.4049  0.1218
  271MPD2    C2 4095   2.038   0.524  13.876 -0.4299  0.2096 -0.2499
  271MPD2    C3 4096   1.989   0.631  13.797  0.7255  0.2111  0.1215
  271MPD2    C4 4097   2.063   0.691  13.696  0.7804  0.5573  0.0920
  271MPD2    C5 4098   2.193   0.652  13.683 -0.1753  0.1483  0.1855
  271MPD2     H 4099   1.974   0.483  13.954 -1.4903  0.3049 -1.0604
  271MPD2    H1 4100   2.024   0.767  13.629  0.8360  0.0316 -0.5363
  271MPD2    H2 4101   2.353   0.531  13.743  0.1764  0.3855  2.0300
  271MPD2    H3 4102   2.252   0.701  13.606 -0.1535  0.7917  0.6118
  271MPD2     N 4103   1.851   0.687  13.814 -0.9262 -0.1680 -0.1622
  271MPD2    H5 4104   1.826   0.749  13.738 -0.3495  1.3462  0.8850
  271MPD2    N1 4105   2.223   0.376  13.939 -0.1222 -0.5157  0.2681
  271MPD2    H7 4106   2.164   0.338  14.012  0.8346  1.7496  2.2071
  272TMC3    C1 4107   2.386   0.231  14.031 -0.0022 -0.3124 -0.4040
  272TMC3    C2 4108   2.498   0.165  13.988  0.1329  0.2179  0.7848
  272TMC3    C3 4109   2.597   0.141  14.082  0.0714 -0.0075  0.1590
  272TMC3    C4 4110   2.359   0.258  14.165 -0.0755  0.0864 -0.2356
  272TMC3    C5 4111   2.449   0.215  14.255  0.4354  0.4643 -0.2083
  272TMC3    C6 4112   2.571   0.157  14.216  0.4408 -0.4634  0.2607
  272TMC3     C 4113   2.350   0.331  13.928 -0.7461 -0.8189  0.1263
  272TMC3     O 4114   2.439   0.359  13.846 -0.0487 -0.5154 -0.3049
  272TMC3     H 4115   2.522   0.146  13.884 -0.1554  0.3904  0.6846
  272TMC3    H1 4116   2.265   0.295  14.202  0.1494 -0.7176  1.1185
  272TMC3    H2 4117   2.648   0.148  14.292  0.0030 -0.8377  0.6542
  272TMC3    C7 4118   2.433   0.258  14.391 -0.2745  0.0692  0.0582
  272TMC3    C8 4119   2.729   0.109  14.022 -0.4768  0.7777  0.4734
  272TMC3    O1 4120   2.336   0.209  14.446  0.2012 -0.1831  0.1958
  272TMC3    O2 4121   2.760   0.137  13.907 -0.0128 -0.3650  0.0099
  273MPD2     C 4122   0.133   2.663  11.834 -0.2641  0.0600  0.7458
  273MPD2    C1 4123   0.189   2.781  11.794 -0.3489 -0.8968  0.5477
  273MPD2    C2 4124   0.141   2.832  11.676 -0.0252  0.0096 -0.8411
  273MPD2    C3 4125   0.052   2.756  11.600 -0.2142 -0.1243  0.3130
  273MPD2    C4 4126   4.720   2.640  11.638  0.4512  0.0983 -0.3028
  273MPD2    C5 4127   0.030   2.601  11.764 -0.8252 -0.2182  0.3231
  273MPD2     H 4128   0.194   2.912  11.626  0.3243  0.8929  0.9500
  273MPD2    H1 4129   4.645   2.583  11.584  0.3933 -1.0694  0.9987
  273MPD2    H2 4130   0.156   2.616  11.929 -0.3880  0.9593  1.2293
  273MPD2    H3 4131   4.712   2.513  11.812 -0.6227  0.2805  1.4124
  273MPD2     N 4132   0.012   2.824  11.486  0.8201  0.1861 -0.5285
  273MPD2    H5 4133   0.035   2.921  11.467 -0.8971  0.5510 -0.7500
  273MPD2    N1 4134   0.294   2.830  11.873 -0.0185  0.3550  0.2128
  273MPD2    H7 4135   0.309   2.791  11.966  1.2749 -1.6725 -0.8496
  274TMC3    C1 4136   4.612   2.881  11.300 -0.6986  0.2742  0.2618
  274TMC3    C2 4137   4.551   2.852  11.177 -0.6974  0.0599 -0.2611
  274TMC3    C3 4138   4.509   2.956  11.100  0.1750 -0.6386  0.1642
  274TMC3    C4 4139   4.599   3.007  11.352 -0.3820  0.7982 -0.0475
  274TMC3    C5 4140   4.537   3.103  11.275  0.8573  0.2388 -1.0625
  274TMC3    C6 4141   4.494   3.075  11.151  0.3255  0.0185 -0.7826
  274TMC3     C 4142   4.650   2.777  11.384  0.5056 -0.2568 -0.3932
  274TMC3     O 4143   4.619   2.661  11.354 -0.2014  0.0465  0.3885
  274TMC3     H 4144   4.556   2.755  11.129  1.2398 -1.2235  2.5650
  274TMC3    H1 4145   4.649   3.045  11.441  0.1486 -0.6684  0.2753
  274TMC3    H2 4146   4.435   3.149  11.098 -1.5031 -0.8213  0.0517
  274TMC3    C7 4147   4.552   3.245  11.304  0.0765 -0.8411  0.6218
  274TMC3    C8 4148   4.445   2.947  10.968  0.2156 -0.5547  0.1089
  274TMC3    O1 4149   4.525   3.325  11.210 -0.3184  0.3659 -0.3712
  274TMC3    O2 4150   4.367   2.857  10.954 -0.0847 -0.2197 -0.1091
  275MPD2     C 4151   3.990   1.072  13.981 -0.0695  0.5736  0.1729
  275MPD2    C1 4152   3.900   1.126  14.064  0.1867 -0.2237  0.1215
  275MPD2    C2 4153   3.764   1.126  14.028  0.1287  0.1496 -0.3229
  275MPD2    C3 4154   3.719   1.064  13.913 -0.4462 -0.5425  0.6591
  275MPD2    C4 4155   3.809   1.001  13.833  0.4130  0.2998  0.2674
  275MPD2    C5 4156   3.942   1.005  13.867  0.2516 -0.5183  0.2865
  275MPD2     H 4157   3.702   1.189  14.090  0.9711  0.1433  0.5274
  275MPD2    H1 4158   3.773   0.935  13.754  1.3703 -0.4589  0.4611
  275MPD2    H2 4159   4.097   1.072  14.003 -0.1407 -0.4526  0.5163
  275MPD2    H3 4160   4.017   0.956  13.805 -0.5911 -1.1083 -0.2668
  275MPD2     N 4161   3.580   1.072  13.877 -0.2056 -0.4777  0.5456
  275MPD2    H5 4162   3.556   1.032  13.787 -0.5169  1.7965 -0.3698
  275MPD2    N1 4163   3.933   1.188  14.189 -0.9793  0.0988  0.2703
  275MPD2    H7 4164   3.857   1.233  14.239 -0.5109  0.0719  1.0161
  276TMC3    C1 4165   4.019   1.179  14.389 -0.2850  0.6471 -0.1772
  276TMC3    C2 4166   3.898   1.134  14.430 -0.0357  0.5807 -0.6027
  276TMC3    C3 4167   3.871   1.158  14.560  1.0775 -0.0087 -0.1368
  276TMC3    C4 4168   4.113   1.238  14.470 -0.1348  0.2607 -0.1528
  276TMC3    C5 4169   4.069   1.273  14.597  0.0202  0.1922 -0.5100
  276TMC3    C6 4170   3.953   1.225  14.647  0.0652 -0.3940  0.3892
  276TMC3     C 4171   4.052   1.173  14.255  0.1792 -0.2579  0.1421
  276TMC3     O 4172   4.162   1.134  14.216  0.8726 -0.0206  0.0448
  276TMC3     H 4173   3.834   1.077  14.363  0.6853 -0.1115 -0.6924
  276TMC3    H1 4174   4.203   1.277  14.424  0.7532  0.6434  1.8754
  276TMC3    H2 4175   3.925   1.239  14.751 -0.4717 -2.4274  0.5169
  276TMC3    C7 4176   4.161   1.328  14.701  0.3051  0.1271  0.7807
  276TMC3    C8 4177   3.737   1.119  14.606 -1.0513  0.2784  0.0711
  276TMC3    O1 4178   4.105   1.397  14.788 -0.0464 -0.4002  0.5000
  276TMC3    O2 4179   3.696   1.162  14.715  0.3228  0.3039  0.6151
  277MPD2     C 4180   0.831   0.142  13.243  0.3406  0.0030  0.6475
  277MPD2    C1 4181   0.704   0.193  13.262  0.5372 -0.7007  0.1719
  277MPD2    C2 4182   0.630   0.165  13.373 -0.0679 -0.3652  0.5510
  277MPD2    C3 4183   0.685   0.074  13.460  0.3538 -0.4284  0.4431
  277MPD2    C4 4184   0.811   0.015  13.436  0.8810  0.5477 -0.1542
  277MPD2    C5 4185   0.881   0.045  13.324  0.6472  0.5124  0.7132
  277MPD2     H 4186   0.534   0.212  13.393 -0.0675 -1.2284  2.5314
  277MPD2    H1 4187   0.864   4.676  13.506 -2.4255 -1.3718  0.6444
  277MPD2    H2 4188   0.874   0.161  13.145  1.7084 -1.2722  1.0167
  277MPD2    H3 4189   0.975   4.719  13.304 -0.3952 -1.2279  0.1030
  277MPD2     N 4190   0.611   0.051  13.578 -0.8386  0.3775 -0.7967
  277MPD2    H5 4191   0.527   0.105  13.597 -1.3006 -0.4824 -0.3817
  277MPD2    N1 4192   0.651   0.270  13.152  0.8777 -0.3105 -0.2256
  277MPD2    H7 4193   0.715   0.299  13.079 -0.4057 -0.4643 -1.4128
  278TMC3    C1 4194   0.550   4.677  13.781  0.4400 -0.1622 -1.2693
  278TMC3    C2 4195   0.529   4.550  13.831  0.2811  0.1310  0.1135
  278TMC3    C3 4196   0.399   4.502  13.854  0.0593 -0.8785  0.5406
  278TMC3    C4 4197   0.453   0.046  13.783  0.1590  0.2049 -0.6963
  278TMC3    C5 4198   0.325   0.001  13.803  0.4203  0.3806 -0.0655
  278TMC3    C6 4199   0.300   4.595  13.843 -1.2941  0.1258 -0.1504
  278TMC3     C 4200   0.641   4.679  13.670 -0.0406 -1.0159 -0.2754
  278TMC3     O 4201   0.721   4.584  13.664 -0.2988  0.4306 -0.1340
  278TMC3     H 4202   0.609   4.477  13.831  0.3714  0.2308 -0.4460
  278TMC3    H1 4203   0.478   0.148  13.754  0.2426  0.3347 -0.1740
  278TMC3    H2 4204   0.203   4.550  13.860  0.6778 -3.6283  1.2083
  278TMC3    C7 4205   0.229   0.103  13.834 -0.1169  0.1424  0.0569
  278TMC3    C8 4206   0.373   4.360  13.846 -0.2301 -0.0789 -0.1395
  278TMC3    O1 4207   0.263   0.215  13.869  0.6406 -0.1507 -0.0447
  278TMC3    O2 4208   0.457   4.282  13.882 -0.3919 -0.1086 -0.0597
  279MPD2     C 4209   4.302   0.201  17.375 -0.0283  0.0450  0.6130
  279MPD2    C1 4210   4.349   0.323  17.426 -0.6416 -0.8253 -0.2707
  279MPD2    C2 4211   4.434   0.402  17.359  0.1112  0.3185 -0.0428
  279MPD2    C3 4212   4.473   0.358  17.231 -0.6324  0.1411  0.1410
  279MPD2    C4 4213   4.440   0.233  17.187  0.1773 -0.3366 -0.1019
  279MPD2    C5 4214   4.355   0.154  17.258 -0.1573 -0.5506 -0.6738
  279MPD2     H 4215   4.471   0.497  17.396 -0.1969  0.6974 -0.6940
  279MPD2    H1 4216   4.475   0.195  17.092  0.6692 -1.1617  0.4120
  279MPD2    H2 4217   4.217   0.159  17.428 -0.0531 -1.9187 -0.9847
  279MPD2    H3 4218   4.326   0.055  17.225  0.5171 -1.5352  1.6835
  279MPD2     N 4219   4.564   0.435  17.145  0.3247 -0.1037  0.3500
  279MPD2    H5 4220   4.597   0.386  17.062  0.7768  1.2182 -0.2510
  279MPD2    N1 4221   4.289   0.363  17.553 -0.1875  0.3790 -0.7035
  279MPD2    H7 4222   4.238   0.295  17.607 -0.0168  0.4199 -0.4912
  280TMC3    C1 4223   4.249   0.497   0.051  0.2479  0.5977 -0.4358
  280TMC3    C2 4224   4.164   0.398   0.098 -0.4889 -0.3836 -0.7295
  280TMC3    C3 4225   4.079   0.431   0.196 -0.1365  0.6459  0.0573
  280TMC3    C4 4226   4.241   0.626   0.094  0.1438 -0.2263  0.0469
  280TMC3    C5 4227   4.150   0.651   0.189 -0.0938 -0.1120 -0.1416
  280TMC3    C6 4228   4.067   0.557   0.246 -0.0659 -0.2042  0.3117
  280TMC3     C 4229   4.288   0.488  17.603 -0.0607  0.3050  0.2570
  280TMC3     O 4230   4.328   0.590  17.554  0.4633  0.7507  0.1507
  280TMC3     H 4231   4.180   0.296   0.063  2.4310 -1.0300  2.5378
  280TMC3    H1 4232   4.306   0.705   0.059 -0.3829 -0.7226 -2.0435
  280TMC3    H2 4233   3.995   0.582   0.323 -1.1522 -2.6493  0.0698
  280TMC3    C7 4234   4.130   0.793   0.211 -0.1189  0.4282  0.2835
  280TMC3    C8 4235   3.983   0.327   0.228  0.4764 -0.5223  0.2966
  280TMC3    O1 4236   4.194   0.853   0.297 -0.5157  0.6260  0.1120
  280TMC3    O2 4237   3.974   0.228   0.156  0.3851 -0.4186 -0.2246
  281TMC3    C1 4238   3.362   0.600  13.068  0.1283 -1.0588  0.0286
  281TMC3    C2 4239   3.368   0.657  12.946  0.5725  0.2448  0.3312
  281TMC3    C3 4240   3.422   0.575  12.844 -0.6419 -0.7911  0.3661
  281TMC3    C4 4241   3.397   0.473  13.095  0.4456 -0.0394 -0.0113
  281TMC3    C5 4242   3.460   0.404  12.992  0.1881  0.0101 -0.3229
  281TMC3    C6 4243   3.475   0.457  12.865 -0.0567  0.3982 -0.2496
  281TMC3     C 4244   3.340   0.677  13.191  0.5036 -0.1642  0.0260
  281TMC3     O 4245   3.296   0.621  13.289 -0.5271 -0.0408 -0.3401
  281TMC3     H 4246   3.330   0.755  12.921 -0.0468  0.1049  0.7403
  281TMC3    H1 4247   3.402   0.452  13.201 -1.6469  1.5198  0.4029
  281TMC3    H2 4248   3.495   0.388  12.784  3.3020  2.0088 -0.8121
  281TMC3    C7 4249   3.527   0.276  13.020 -0.2327 -0.9796 -0.4727
  281TMC3    C8 4250   3.387   0.597  12.705  0.1665  0.0339  0.2415
  281TMC3    O1 4251   3.613   0.239  12.945  0.2811 -0.5094  0.8048
  281TMC3    O2 4252   3.464   0.550  12.621  0.1318 -0.7621  0.0229
  282MPD2     C 4253   0.838   2.021  14.834 -1.1002  0.4338  0.6367
  282MPD2    C1 4254   0.714   2.027  14.890  0.6466  0.2891 -0.1449
  282MPD2    C2 4255   0.606   2.048  14.808  0.0639  0.0062  0.1485
  282MPD2    C3 4256   0.620   2.040  14.668  0.9293 -0.2328 -0.4039
  282MPD2    C4 4257   0.742   2.031  14.611  0.1963 -0.4823  0.0626
  282MPD2    C5 4258   0.849   2.030  14.701 -0.1533 -0.5472 -0.6018
  282MPD2     H 4259   0.509   2.060  14.856  0.0085  0.8190 -0.1661
  282MPD2    H1 4260   0.756   2.036  14.503  2.0964 -0.8391  0.2818
  282MPD2    H2 4261   0.934   2.011  14.884 -1.7790  2.2441  2.3071
  282MPD2    H3 4262   0.947   2.024  14.656  0.2683 -1.7083  0.4758
  282MPD2     N 4263   0.502   2.033  14.592 -0.1843 -0.5129 -0.1530
  282MPD2    H5 4264   0.410   2.022  14.632 -0.3811  1.2802 -0.1196
  282MPD2    N1 4265   0.692   2.024  15.033 -0.0121  0.3416 -0.4922
  282MPD2    H7 4266   0.596   2.020  15.065  0.4102  2.3483  0.9889
  283TMC3    C1 4267   0.755   2.053  15.263  0.0126 -0.4346 -0.0822
  283TMC3    C2 4268   0.829   2.144  15.336  0.0812  0.1323 -0.2883
  283TMC3    C3 4269   0.779   2.183  15.454  0.2822  0.5477  0.8694
  283TMC3    C4 4270   0.642   1.985  15.309 -0.1161 -0.5339 -0.2390
  283TMC3    C5 4271   0.612   2.018  15.440  0.1346 -0.2199 -0.1939
  283TMC3    C6 4272   0.670   2.126  15.506  0.7764 -0.6066 -0.1967
  283TMC3     C 4273   0.793   2.028  15.126 -0.0331 -0.0331 -0.0650
  283TMC3     O 4274   0.915   2.044  15.107  0.3794  0.0793  0.3005
  283TMC3     H 4275   0.906   2.198  15.282  0.7618 -1.4765 -0.9280
  283TMC3    H1 4276   0.575   1.925  15.248 -0.6100 -0.4591  0.2261
  283TMC3    H2 4277   0.642   2.153  15.607  2.3560 -2.9493  0.8768
  283TMC3    C7 4278   0.483   1.971  15.494 -0.5902 -0.0300 -0.2783
  283TMC3    C8 4279   0.827   2.304  15.517  0.2023 -0.5475 -0.9281
  283TMC3    O1 4280   0.443   2.044  15.580 -0.3417 -0.2892  0.5808
  283TMC3    O2 4281   0.815   2.306  15.643  0.6197  0.7397  0.3642
  284MPD2     C 4282   4.179   1.462  11.211 -0.1721 -0.1432 -0.0434
  284MPD2    C1 4283   4.321   1.473  11.207 -0.7292  0.5388 -0.1689
  284MPD2    C2 4284   4.391   1.473  11.327 -1.0640  0.0461 -0.1607
  284MPD2    C3 4285   4.323   1.457  11.446 -0.2925 -0.2095 -0.8164
  284MPD2    C4 4286   4.183   1.443  11.450 -0.4372  0.1098  0.0507
  284MPD2    C5 4287   4.117   1.443  11.328  1.1791 -0.7469  0.4254
  284MPD2     H 4288   4.499   1.485  11.332 -0.9685 -1.2360  0.8096
  284MPD2    H1 4289   4.127   1.440  11.543 -0.2955  0.2284  0.1382
  284MPD2    H2 4290   4.118   1.465  11.122 -0.2628  0.1824  0.0273
  284MPD2    H3 4291   4.012   1.416  11.317  0.3495  2.1501  1.3356
  284MPD2     N 4292   4.399   1.443  11.564  0.3555  0.5744 -0.0558
  284MPD2    H5 4293   4.495   1.477  11.560  0.8046 -0.7828 -1.0093
  284MPD2    N1 4294   4.400   1.475  11.093 -0.6297  0.4699  0.4794
  284MPD2    H7 4295   4.499   1.455  11.106 -1.3514 -1.1630  3.4882
  285TMC3    C1 4296   4.477   1.455  10.881 -0.1429 -0.3027 -0.3960
  285TMC3    C2 4297   4.503   1.326  10.870 -0.2410 -0.1519 -0.4533
  285TMC3    C3 4298   4.629   1.280  10.859 -0.4142  0.6573 -0.0648
  285TMC3    C4 4299   4.577   1.550  10.905 -0.7926  0.0616  0.4609
  285TMC3    C5 4300   4.707   1.504  10.887  0.0636 -0.6337  0.1881
  285TMC3    C6 4301   0.009   1.370  10.862 -0.6325  0.1356  0.1264
  285TMC3     C 4302   4.361   1.468  10.964  0.2377  0.0745 -1.1964
  285TMC3     O 4303   4.255   1.481  10.912  0.1841  0.5484 -0.1363
  285TMC3     H 4304   4.419   1.259  10.884 -0.3889  0.2489  0.6080
  285TMC3    H1 4305   4.554   1.656  10.916 -0.1105  0.2675 -0.0736
  285TMC3    H2 4306   0.112   1.337  10.868 -0.0418  1.8104 -0.7091
  285TMC3    C7 4307   0.092   1.602  10.893  0.0363 -0.5137  0.3326
  285TMC3    C8 4308   4.656   1.137  10.837 -0.2774 -0.9981 -0.1436
  285TMC3    O1 4309   0.061   1.713  10.926 -0.1406 -0.3479  0.0790
  285TMC3    O2 4310   4.555   1.066  10.840 -0.3504  0.7396  0.7547
  286MPD2     C 4311   3.518   0.099   1.347  0.4657 -0.2794  0.6391
  286MPD2    C1 4312   3.536   0.155   1.223 -0.0306 -0.7252 -0.1769
  286MPD2    C2 4313   3.586   0.075   1.119 -0.4439 -0.0885  0.2968
  286MPD2    C3 4314   3.609   4.662   1.141 -0.4188 -1.0056 -0.4582
  286MPD2    C4 4315   3.581   4.608   1.264  0.4418  0.3767  0.0164
  286MPD2    C5 4316   3.546   4.690   1.368 -0.6764 -0.5683  0.1636
  286MPD2     H 4317   3.605   0.120   1.022  0.5608 -0.1583  0.4567
  286MPD2    H1 4318   3.591   4.503   1.290 -1.4527 -0.2197 -1.7069
  286MPD2    H2 4319   3.488   0.155   1.435  2.5498  2.2848 -0.3058
  286MPD2    H3 4320   3.527   4.650   1.466 -2.0424  0.1847  0.2044
  286MPD2     N 4321   3.669   4.574   1.049 -0.2788 -0.1000 -0.4256
  286MPD2    H5 4322   3.682   4.481   1.088 -1.6747 -0.5391 -1.0027
  286MPD2    N1 4323   3.496   0.288   1.190  0.2931 -0.3490 -1.1619
  286MPD2    H7 4324   3.525   0.325   1.100  2.8870 -0.3523 -0.3390
  287TMC3    C1 4325   3.758   4.478   0.868 -0.5969  0.0454 -0.1875
  287TMC3    C2 4326   3.724   4.443   0.740  0.5048  0.2501 -0.1421
  287TMC3    C3 4327   3.808   4.352   0.682  0.1194  0.1688 -0.6006
  287TMC3    C4 4328   3.860   4.428   0.940 -0.0509  0.4645 -0.0304
  287TMC3    C5 4329   3.934   4.329   0.887 -0.4117  0.2896  0.1188
  287TMC3    C6 4330   3.903   4.291   0.758 -0.5887 -0.6164 -0.0111
  287TMC3     C 4331   3.688   4.594   0.912  0.1684  0.0157 -0.1687
  287TMC3     O 4332   3.628   4.676   0.842  0.2109 -0.0113  0.0433
  287TMC3     H 4333   3.638   4.488   0.692  0.9775  0.7406 -0.5312
  287TMC3    H1 4334   3.871   4.457   1.044  0.7895  0.5233 -0.1364
  287TMC3    H2 4335   3.944   4.194   0.735  1.0434  0.1286 -0.2690
  287TMC3    C7 4336   4.028   4.256   0.966 -0.2139  1.0143  0.3446
  287TMC3    C8 4337   3.787   4.295   0.552 -1.1584 -0.3116  0.5235
  287TMC3    O1 4338   4.000   4.218   1.081 -0.3752  0.2425 -0.0469
  287TMC3    O2 4339   3.848   4.193   0.524  0.2159  0.1762  0.7769
  288TMC3    C1 4340   0.762   4.415  14.258 -0.0239 -0.6143  0.7235
  288TMC3    C2 4341   0.728   4.406  14.391  0.5079  0.5644 -0.5637
  288TMC3    C3 4342   0.688   4.525  14.448  1.1705  0.1044  0.6906
  288TMC3    C4 4343   0.769   4.534  14.187 -0.4831 -0.1136  0.4353
  288TMC3    C5 4344   0.757   4.652  14.260  0.1545 -0.3188 -0.0879
  288TMC3    C6 4345   0.715   4.650  14.395 -0.3423  0.0102 -0.4779
  288TMC3     C 4346   0.780   4.295  14.180 -0.6393 -0.0363 -0.2725
  288TMC3     O 4347   0.735   4.301  14.070  0.2519 -0.2828  0.2644
  288TMC3     H 4348   0.730   4.313  14.446  0.5186  0.9271  0.0543
  288TMC3    H1 4349   0.793   4.531  14.081 -2.8347 -0.2349 -0.0922
  288TMC3    H2 4350   0.694   0.024  14.437 -2.4242 -0.1420 -1.1168
  288TMC3    C7 4351   0.768   0.056  14.187 -0.7490 -0.6457 -0.0406
  288TMC3    C8 4352   0.667   4.532  14.592 -0.0925 -0.0790  0.0015
  288TMC3    O1 4353   0.718   0.159  14.230 -0.7131 -0.2575 -0.3080
  288TMC3    O2 4354   0.669   4.647  14.631  0.4516 -1.1233  0.1418
  289MPD2     C 4355   0.810   3.714  14.480 -0.0172 -0.0504 -0.2345
  289MPD2    C1 4356   0.784   3.821  14.562  0.6307  0.5663 -0.6719
  289MPD2    C2 4357   0.702   3.920  14.525  0.1251 -0.0658  0.4125
  289MPD2    C3 4358   0.641   3.909  14.397  0.1119 -0.0244  0.2623
  289MPD2    C4 4359   0.667   3.799  14.315 -0.2971  0.4838 -0.2668
  289MPD2    C5 4360   0.746   3.704  14.360 -0.4915  0.0945  0.8052
  289MPD2     H 4361   0.673   4.001  14.590 -0.9536  0.8518 -1.2029
  289MPD2    H1 4362   0.633   3.785  14.213  1.5263 -0.6186 -0.7320
  289MPD2    H2 4363   0.886   3.640  14.505 -0.5297 -0.0778  1.2183
  289MPD2    H3 4364   0.788   3.626  14.298  0.3963  2.2203 -1.3236
  289MPD2     N 4365   0.552   3.991  14.345  0.5372  0.0155  0.1495
  289MPD2    H5 4366   0.495   3.954  14.269 -1.8336  2.5717  0.6768
  289MPD2    N1 4367   0.851   3.832  14.686 -0.1570  0.4100 -0.9721
  289MPD2    H7 4368   0.836   3.920  14.734 -2.7696 -0.8079  0.4128
  290TMC3    C1 4369   0.382   4.156  14.354 -0.0882 -0.1574  0.8385
  290TMC3    C2 4370   0.378   4.294  14.334 -0.2497  0.8443  0.2951
  290TMC3    C3 4371   0.276   4.336  14.247  0.2450 -0.3902 -0.2991
  290TMC3    C4 4372   0.306   4.064  14.281  0.0309 -0.3734 -0.0893
  290TMC3    C5 4373   0.212   4.111  14.191 -0.1461  0.1129 -0.3556
  290TMC3    C6 4374   0.200   4.248  14.168  0.8046 -0.2887  0.3055
  290TMC3     C 4375   0.506   4.103  14.409  0.8563 -0.2674  0.3383
  290TMC3     O 4376   0.563   4.175  14.497 -0.1257 -0.2750 -0.3227
  290TMC3     H 4377   0.446   4.358  14.387  2.5886 -0.3555 -1.8923
  290TMC3    H1 4378   0.318   3.958  14.300  2.6754 -0.4615 -2.1605
  290TMC3    H2 4379   0.126   4.289  14.101  0.5295 -0.1170  0.7143
  290TMC3    C7 4380   0.118   4.027  14.118  0.0611 -1.0623 -0.1478
  290TMC3    C8 4381   0.265   4.475  14.218 -0.1371  0.4541 -0.7774
  290TMC3    O1 4382   0.059   4.078  14.028  0.1716 -0.3162 -0.2218
  290TMC3    O2 4383   0.202   4.510  14.117 -0.0904 -0.1062 -0.3386
  291MPD2     C 4384   4.169   4.329  17.505 -0.3851  0.0730 -0.0908
  291MPD2    C1 4385   4.302   4.292  17.519  0.1484 -0.3626 -0.5700
  291MPD2    C2 4386   4.393   4.400  17.510 -0.4718  0.8809  0.3298
  291MPD2    C3 4387   4.347   4.534  17.509 -0.1522 -0.2825 -0.3890
  291MPD2    C4 4388   4.220   4.564  17.518  0.2886 -0.3822 -0.1699
  291MPD2    C5 4389   4.139   4.462  17.522 -0.5598 -0.8581 -0.8809
  291MPD2     H 4390   4.496   4.370  17.523 -0.4072  1.3820  0.9319
  291MPD2    H1 4391   4.173   4.661  17.518  2.0016  0.4423 -1.3702
  291MPD2    H2 4392   4.090   4.255  17.508 -0.4413  0.1512  0.2566
  291MPD2    H3 4393   4.034   4.487  17.524 -0.4989 -0.6770  0.0699
  291MPD2     N 4394   4.438   4.643  17.498 -0.1394  0.3497 -0.0728
  291MPD2    H5 4395   4.409   0.015  17.515  0.3461  0.1663  1.7752
  291MPD2    N1 4396   4.347   4.158  17.531  0.0533  0.4372 -0.0078
  291MPD2    H7 4397   4.448   4.159  17.529  0.0222  0.0818 -1.8170
  292TMC3    C1 4398   4.359   3.929  17.537 -0.0050  0.1991 -0.0187
  292TMC3    C2 4399   4.475   3.941  17.610  0.3383  0.8272  0.0222
  292TMC3    C3 4400   4.551   3.835  17.621  0.6141  0.0800  0.2545
  292TMC3    C4 4401   4.318   3.814  17.480 -0.9278  0.3324  0.3810
  292TMC3    C5 4402   4.401   3.705  17.495  0.0199 -0.1543 -1.0616
  292TMC3    C6 4403   4.519   3.710  17.560  0.0553 -0.0864  1.2401
  292TMC3     C 4404   4.272   4.046  17.521 -0.2980 -0.0287  0.4281
  292TMC3     O 4405   4.154   4.036  17.491  0.3100 -0.2988  0.1987
  292TMC3     H 4406   4.495   4.028  17.671  2.0142 -0.8026  1.8011
  292TMC3    H1 4407   4.223   3.814  17.429  0.0206 -3.2336 -1.3761
  292TMC3    H2 4408   4.595   3.635  17.545 -0.5431 -0.4451  0.0072
  292TMC3    C7 4409   4.345   3.573  17.470  0.1871 -0.7982  0.0217
  292TMC3    C8 4410   4.635   3.826   0.040 -0.0048 -0.0305  0.6595
  292TMC3    O1 4411   4.415   3.486  17.526 -0.1677  0.1663 -0.1200
  292TMC3    O2 4412   0.000   3.908   0.043  0.2301  0.0561  0.0263
  293MPD2     C 4413   1.970   0.726  12.049  0.5081 -0.3440 -0.5932
  293MPD2    C1 4414   1.890   0.634  12.117  0.4112  0.1901 -0.7043
  293MPD2    C2 4415   1.903   0.610  12.255 -0.2517  0.7778  0.4882
  293MPD2    C3 4416   1.991   0.693  12.326 -0.0713 -0.0523  0.8889
  293MPD2    C4 4417   2.079   0.773  12.255  0.0450 -0.1110  0.0636
  293MPD2    C5 4418   2.065   0.789  12.115 -0.0721  0.1216 -0.1340
  293MPD2     H 4419   1.857   0.532  12.316  1.0169 -0.9421 -0.7815
  293MPD2    H1 4420   2.158   0.829  12.302 -0.4265  0.3090  0.3568
  293MPD2    H2 4421   1.968   0.744  11.942 -2.0705 -1.4896 -0.7443
  293MPD2    H3 4422   2.127   0.862  12.063  0.6835 -0.7512 -0.4579
  293MPD2     N 4423   2.007   0.679  12.467 -0.1237 -0.3549 -0.4432
  293MPD2    H5 4424   1.961   0.597  12.505  0.2283  0.1243  1.0076
  293MPD2    N1 4425   1.791   0.580  12.036 -0.3769  0.5008 -0.2480
  293MPD2    H7 4426   1.801   0.607  11.938  1.8498 -1.6376 -0.5960
  294TMC3    C1 4427   1.608   0.439  11.977 -0.8014  0.5057  0.3650
  294TMC3    C2 4428   1.503   0.365  12.023  0.6929  0.3899 -0.2757
  294TMC3    C3 4429   1.415   0.322  11.928  0.2324  0.1961  0.0112
  294TMC3    C4 4430   1.635   0.470  11.844  0.1456 -0.2997  0.0433
  294TMC3    C5 4431   1.543   0.431  11.754  0.4454 -0.2661 -0.1204
  294TMC3    C6 4432   1.438   0.355  11.795  0.3907  0.8527 -0.2599
  294TMC3     C 4433   1.703   0.483  12.076 -0.4015 -0.4971  0.3525
  294TMC3     O 4434   1.691   0.435  12.190 -0.8534 -0.3172 -0.1310
  294TMC3     H 4435   1.494   0.342  12.128 -0.5912  0.7867 -0.2975
  294TMC3    H1 4436   1.700   0.546  11.803  0.7041 -0.8940 -0.1692
  294TMC3    H2 4437   1.385   0.298  11.719 -0.4974 -1.5038  2.1208
  294TMC3    C7 4438   1.573   0.441  11.608 -0.4209 -0.4540  0.5089
  294TMC3    C8 4439   1.368   0.192  11.956 -0.7190 -0.6294 -0.9342
  294TMC3    O1 4440   1.475   0.446  11.540 -0.4559 -0.4022  0.1726
  294TMC3    O2 4441   1.301   0.184  12.059 -0.1683 -0.0677 -0.3871
  295MPD2     C 4442   2.823   3.388   0.386 -0.0484  0.5277  0.2793
  295MPD2    C1 4443   2.784   3.521   0.411 -0.1828 -0.2527 -0.2074
  295MPD2    C2 4444   2.809   3.572   0.539 -0.0445  0.2045  0.1343
  295MPD2    C3 4445   2.859   3.492   0.635 -0.3705 -0.1056 -0.3883
  295MPD2    C4 4446   2.880   3.359   0.611 -0.6546  0.2784  0.1706
  295MPD2    C5 4447   2.881   3.317   0.484 -0.0908 -0.3739  0.3730
  295MPD2     H 4448   2.778   3.673   0.561  0.0941  0.3811 -0.4835
  295MPD2    H1 4449   2.919   3.285   0.679  0.1132  1.8812  1.4757
  295MPD2    H2 4450   2.801   3.345   0.289  1.6948  0.8270 -0.2386
  295MPD2    H3 4451   2.924   3.217   0.479 -2.4294 -1.4896  2.3795
  295MPD2     N 4452   2.842   3.528   0.768 -0.6301  0.1861  0.5144
  295MPD2    H5 4453   2.844   3.455   0.838 -0.2326 -0.3135 -0.0100
  295MPD2    N1 4454   2.715   3.584   0.308 -0.2105  0.3978 -0.4085
  295MPD2    H7 4455   2.701   3.533   0.221 -2.1754  0.2730 -0.0139
  296TMC3    C1 4456   2.806   3.638   0.971  0.4182 -0.3437  0.3860
  296TMC3    C2 4457   2.733   3.737   1.030  0.9299  0.1036  0.8753
  296TMC3    C3 4458   2.689   3.724   1.165 -0.1814  0.2292 -0.0454
  296TMC3    C4 4459   2.839   3.524   1.047 -0.5327  0.1700 -0.2096
  296TMC3    C5 4460   2.803   3.520   1.177  0.0388  0.0759 -0.3067
  296TMC3    C6 4461   2.732   3.621   1.238  0.8816 -0.1316 -0.3307
  296TMC3     C 4462   2.827   3.654   0.826  0.3109 -1.0638 -0.2262
  296TMC3     O 4463   2.823   3.763   0.774 -0.0376 -0.1350  0.0775
  296TMC3     H 4464   2.693   3.824   0.978  3.1311 -0.9772 -2.5935
  296TMC3    H1 4465   2.912   3.458   1.001 -2.0499 -0.5803 -1.5458
  296TMC3    H2 4466   2.719   3.620   1.346  1.5362  0.5301 -0.2477
  296TMC3    C7 4467   2.888   3.422   1.252  0.5769 -0.5898  0.4944
  296TMC3    C8 4468   2.592   3.820   1.208 -0.2857  0.1185  0.0136
  296TMC3    O1 4469   2.972   3.355   1.190  0.2263 -0.2355  0.3668
  296TMC3    O2 4470   2.516   3.855   1.116 -0.5240  0.2362 -0.2946
  297MPD2     C 4471   4.395   1.174  16.246 -0.3208  0.5506 -0.5708
  297MPD2    C1 4472   4.417   1.207  16.113  0.3137 -0.1888 -0.3025
  297MPD2    C2 4473   4.519   1.276  16.065  0.1344 -0.2279  0.9490
  297MPD2    C3 4474   4.606   1.331  16.155 -0.1138 -1.0603 -0.1106
  297MPD2    C4 4475   4.589   1.302  16.295  0.4556 -0.3788  0.3859
  297MPD2    C5 4476   4.480   1.231  16.342  0.1669 -0.6510 -0.0176
  297MPD2     H 4477   4.529   1.283  15.958 -0.4195 -1.2299  0.8231
  297MPD2    H1 4478   4.657   1.339  16.371 -0.1050 -0.5458  0.9632
  297MPD2    H2 4479   4.307   1.120  16.278  0.2470  1.0175  1.8017
  297MPD2    H3 4480   4.459   1.228  16.448 -0.7111  0.8671 -0.1452
  297MPD2     N 4481   4.713   1.413  16.121 -0.3429 -0.1893  0.1994
  297MPD2    H5 4482   0.044   1.452  16.197  0.5390 -0.3798 -0.3349
  297MPD2    N1 4483   4.323   1.170  16.014  0.4646 -0.3536 -0.0075
  297MPD2    H7 4484   4.339   1.212  15.923 -0.5707  0.7280  0.3071
  298TMC3    C1 4485   4.144   1.076  15.902  0.1933  0.3150  0.1386
  298TMC3    C2 4486   4.208   1.118  15.784  0.6380 -0.1335 -0.1463
  298TMC3    C3 4487   4.125   1.137  15.677 -0.7772  0.8764  0.3991
  298TMC3    C4 4488   4.011   1.054  15.913 -0.6464  0.7549  0.5372
  298TMC3    C5 4489   3.933   1.080  15.806  0.2417  0.3266  0.0445
  298TMC3    C6 4490   3.991   1.131  15.698 -0.1690 -0.4148 -0.3872
  298TMC3     C 4491   4.220   1.080  16.025 -0.2796 -0.4003  0.3733
  298TMC3     O 4492   4.163   1.028  16.125  0.2143 -0.5060  0.8057
  298TMC3     H 4493   4.314   1.122  15.760  1.1412  0.6264  2.1878
  298TMC3    H1 4494   3.960   1.019  16.002 -0.6257  2.8751  1.3614
  298TMC3    H2 4495   3.934   1.148  15.608 -1.7390 -1.2064  0.4445
  298TMC3    C7 4496   3.816   1.147  15.854  0.1458 -0.0659  0.1288
  298TMC3    C8 4497   4.164   1.144  15.536  0.7667 -0.4052 -0.0271
  298TMC3    O1 4498   3.835   1.229  15.943 -0.6699 -0.4138 -0.5179
  298TMC3    O2 4499   4.083   1.103  15.454  0.5923  0.1327  0.2694
  299MPD2     C 4500   1.135   4.441  10.023 -0.3751 -0.9057 -0.0322
  299MPD2    C1 4501   1.091   4.548   9.953  0.2723  0.1410 -0.9122
  299MPD2    C2 4502   0.975   4.541   9.879 -0.5553  0.0880  0.7278
  299MPD2    C3 4503   0.906   4.417   9.879 -0.3644 -0.4605 -0.0738
  299MPD2    C4 4504   0.958   4.302   9.936  0.0087 -0.4400  0.0507
  299MPD2    C5 4505   1.076   4.316  10.009  0.4961 -0.4458  0.7908
  299MPD2     H 4506   0.937   4.632   9.834  0.6611 -0.7972 -2.0960
  299MPD2    H1 4507   0.899   4.212   9.946  0.5837 -0.7197  0.9150
  299MPD2    H2 4508   1.230   4.443  10.075  0.5865 -1.9436 -1.7536
  299MPD2    H3 4509   1.137   4.234  10.047  1.6526  0.1524  0.2483
  299MPD2     N 4510   0.775   4.405   9.828  0.1271  0.1465 -0.0575
  299MPD2    H5 4511   0.734   4.313   9.836 -1.6142  0.9486  0.2926
  299MPD2    N1 4512   1.173   4.664   9.962 -0.8537  0.0572 -0.0348
  299MPD2    H7 4513   1.234   4.670  10.043 -0.2373  0.0829 -0.5026
  300TMC3    C1 4514   0.557   4.499   9.778  0.0930 -0.0105  0.5044
  300TMC3    C2 4515   0.489   4.593   9.698  0.5357  0.0616  0.5582
  300TMC3    C3 4516   0.359   4.622   9.738  0.3074 -0.2882 -0.2595
  300TMC3    C4 4517   0.503   4.451   9.893 -0.4973  0.4122 -0.2227
  300TMC3    C5 4518   0.376   4.484   9.933  0.3401  0.2538 -0.3298
  300TMC3    C6 4519   0.296   4.568   9.850 -0.2582 -0.1068 -0.0798
  300TMC3     C 4520   0.703   4.514   9.774 -0.2169 -0.0252 -0.5154
  300TMC3     O 4521   0.746   4.603   9.701 -0.0783 -0.1480  0.1737
  300TMC3     H 4522   0.533   4.638   9.610 -0.2479 -0.2414  0.0116
  300TMC3    H1 4523   0.562   4.396   9.966 -1.0928  0.4534  0.2853
  300TMC3    H2 4524   0.192   4.592   9.863 -0.7863 -1.2386 -2.2628
  300TMC3    C7 4525   0.330   4.463  10.072 -0.1662 -0.1379 -0.3752
  300TMC3    C8 4526   0.289   0.014   9.682  0.6198 -0.2719  0.4306
  300TMC3    O1 4527   0.383   4.385  10.147  0.0660 -0.2119  0.2302
  300TMC3    O2 4528   0.169   0.008   9.652  0.6174  0.3586  0.4692
  301MPD2     C 4529   3.272   2.631   1.395  0.6401  0.1123  0.0069
  301MPD2    C1 4530   3.151   2.615   1.457  0.4888 -0.4944  0.2536
  301MPD2    C2 4531   3.128   2.499   1.530 -0.1399 -0.5491 -0.0056
  301MPD2    C3 4532   3.220   2.396   1.534  0.6100 -0.2114 -0.2849
  301MPD2    C4 4533   3.343   2.406   1.470  0.4714  0.1934 -0.0072
  301MPD2    C5 4534   3.370   2.530   1.409 -0.2692 -0.7641 -0.3645
  301MPD2     H 4535   3.041   2.491   1.594  1.2371  0.8405  2.0545
  301MPD2    H1 4536   3.413   2.324   1.476 -0.4493 -0.5191  0.8208
  301MPD2    H2 4537   3.296   2.716   1.332  2.1355 -0.8538 -0.7465
  301MPD2    H3 4538   3.473   2.540   1.376 -0.5982  1.3483 -0.7316
  301MPD2     N 4539   3.194   2.271   1.603  0.1963 -0.3328 -0.1523
  301MPD2    H5 4540   3.267   2.201   1.598 -0.1726 -0.7613  0.4863
  301MPD2    N1 4541   3.048   2.711   1.448  0.3247 -0.4977 -0.6383
  301MPD2    H7 4542   2.972   2.683   1.509  2.1046  0.0453  1.8102
  302TMC3    C1 4543   3.072   2.116   1.724  0.0619  0.4527  0.2764
  302TMC3    C2 4544   3.179   2.027   1.726  0.2017  0.9869 -0.1271
  302TMC3    C3 4545   3.153   1.908   1.789 -0.4488 -0.4498  0.5447
  302TMC3    C4 4546   2.951   2.082   1.772  1.2797 -0.2822  0.3911
  302TMC3    C5 4547   2.931   1.963   1.830 -0.0798  0.6946  0.4391
  302TMC3    C6 4548   3.032   1.870   1.836 -0.3572 -0.1987  0.1418
  302TMC3     C 4549   3.080   2.241   1.663  0.1342  0.4744  0.5313
  302TMC3     O 4550   2.975   2.304   1.653  0.3208 -0.2517  0.0429
  302TMC3     H 4551   3.272   2.050   1.674  0.5825  0.9362  0.5292
  302TMC3    H1 4552   2.878   2.163   1.772  0.8731 -0.6480 -0.6416
  302TMC3    H2 4553   3.007   1.780   1.890  1.9928 -0.8064  0.2161
  302TMC3    C7 4554   2.797   1.920   1.848  0.1913 -0.1256 -0.4481
  302TMC3    C8 4555   3.257   1.811   1.773  0.2443  0.2461 -0.1504
  302TMC3    O1 4556   2.768   1.830   1.923  0.1461 -0.2706 -0.1740
  302TMC3    O2 4557   3.330   1.811   1.672  0.0889 -0.1095 -0.7742
  303MPD2     C 4558   3.558   4.635  10.172  0.2732 -0.3652  0.0537
  303MPD2    C1 4559   3.424   4.619  10.171 -0.2212  0.1879  0.5764
  303MPD2    C2 4560   3.350   4.626  10.053 -0.0685 -0.0342  0.0581
  303MPD2    C3 4561   3.416   4.644   9.931 -0.0482 -1.3935  0.0209
  303MPD2    C4 4562   3.559   4.668   9.942 -0.7925  0.1405 -0.4369
  303MPD2    C5 4563   3.632   4.654  10.057 -0.5639 -0.6096 -0.1202
  303MPD2     H 4564   3.243   4.614  10.057 -0.2694  1.4856 -0.4363
  303MPD2    H1 4565   3.617   4.694   9.854  0.1110  1.2428  0.4821
  303MPD2    H2 4566   3.616   4.642  10.263 -1.0859 -0.6881  0.9528
  303MPD2    H3 4567   3.739   4.672  10.069 -0.5078  1.3902 -3.6544
  303MPD2     N 4568   3.351   4.640   9.804  0.1759  0.3139 -0.1543
  303MPD2    H5 4569   3.404   4.638   9.717  0.8436  0.7749  0.2367
  303MPD2    N1 4570   3.358   4.600  10.290 -0.0197 -0.4862 -0.1302
  303MPD2    H7 4571   3.424   4.608  10.367  1.4639  0.8535 -1.5358
  304TMC3    C1 4572   3.201   4.625  10.464  0.3048  0.1150  0.1867
  304TMC3    C2 4573   3.069   4.653  10.484 -0.9101 -0.9943 -0.4028
  304TMC3    C3 4574   2.999   4.581  10.578 -0.5268  0.0803 -0.0106
  304TMC3    C4 4575   3.259   4.521  10.538 -0.5253  0.1701  0.5382
  304TMC3    C5 4576   3.190   4.454  10.622 -0.5349  0.8666 -0.7035
  304TMC3    C6 4577   3.061   4.481  10.646  0.4735 -0.4815  0.0924
  304TMC3     C 4578   3.229   4.613  10.323 -0.4678 -0.6188  0.4677
  304TMC3     O 4579   3.135   4.618  10.249  0.5104 -0.5364  0.1440
  304TMC3     H 4580   3.024   0.006  10.421 -0.4021  0.1124  0.5735
  304TMC3    H1 4581   3.361   4.491  10.516  0.2514  1.4366  2.4697
  304TMC3    H2 4582   3.007   4.422  10.719 -0.3250  1.1592  0.8376
  304TMC3    C7 4583   3.214   4.313  10.589 -0.5794 -0.6368  0.1296
  304TMC3    C8 4584   2.879   4.531  10.525 -0.3299  0.8150  0.3825
  304TMC3    O1 4585   3.321   4.268  10.555  0.1847 -0.3127 -0.0997
  304TMC3    O2 4586   2.848   4.416  10.554  0.1450 -0.2840 -0.0134
  305MPD2     C 4587   1.804   2.457  13.813 -0.3387 -0.0501  0.4311
  305MPD2    C1 4588   1.683   2.478  13.878 -0.1642 -0.4337 -0.1715
  305MPD2    C2 4589   1.563   2.495  13.806  0.5661  0.1013  0.4434
  305MPD2    C3 4590   1.563   2.468  13.670  0.2258 -0.3339  0.1062
  305MPD2    C4 4591   1.681   2.451  13.609  0.0831 -0.5704 -0.0269
  305MPD2    C5 4592   1.799   2.446  13.679 -0.3692 -0.2676 -0.1794
  305MPD2     H 4593   1.468   2.501  13.859 -0.2779 -0.2044 -1.0524
  305MPD2    H1 4594   1.683   2.436  13.502  0.4437 -1.8134  0.1519
  305MPD2    H2 4595   1.903   2.443  13.854  0.2354  1.1293 -0.5915
  305MPD2    H3 4596   1.891   2.417  13.630  0.5734 -0.3625  1.6531
  305MPD2     N 4597   1.440   2.473  13.600 -0.8427  0.5857 -0.1918
  305MPD2    H5 4598   1.450   2.479  13.499 -0.2002  0.4604 -0.1379
  305MPD2    N1 4599   1.689   2.470  14.020 -0.2036  0.7861  0.0550
  305MPD2    H7 4600   1.781   2.442  14.051  0.0340 -1.0037 -2.2287
  306TMC3    C1 4601   1.635   2.513  14.241 -0.4137 -0.1416  0.1281
  306TMC3    C2 4602   1.685   2.397  14.284 -0.1801 -0.8515 -0.5121
  306TMC3    C3 4603   1.685   2.371  14.418  0.3765  0.1043  0.6294
  306TMC3    C4 4604   1.583   2.603  14.321 -0.1024 -0.0215  0.3020
  306TMC3    C5 4605   1.589   2.581  14.455  0.1053 -0.2520  0.2235
  306TMC3    C6 4606   1.628   2.463  14.500  0.5118  1.5620  0.8029
  306TMC3     C 4607   1.597   2.528  14.102  0.0305 -0.3438 -0.0120
  306TMC3     O 4608   1.513   2.612  14.071  0.5303  0.5547  0.1839
  306TMC3     H 4609   1.729   2.322  14.220 -0.1618 -1.2336 -0.0462
  306TMC3    H1 4610   1.553   2.701  14.288  0.2474  0.3091  0.9806
  306TMC3    H2 4611   1.605   2.437  14.602 -3.8177  0.9640 -0.3348
  306TMC3    C7 4612   1.523   2.668  14.548 -0.7687 -0.4652 -0.5211
  306TMC3    C8 4613   1.710   2.236  14.460  0.0750 -0.1126  0.2399
  306TMC3    O1 4614   1.458   2.760  14.503  0.2069  0.0920  0.9205
  306TMC3    O2 4615   1.770   2.166  14.381  0.0408 -0.6484  0.3027
  307MPD2     C 4616   3.218   4.640   0.088 -0.5288  0.9320  0.3620
  307MPD2    C1 4617   3.135   0.025   0.106  0.0201  0.3551 -0.5888
  307MPD2    C2 4618   3.116   0.080   0.235  0.2658  0.4043 -0.1706
  307MPD2    C3 4619   3.180   0.021   0.343 -0.4769  0.8151 -0.4012
  307MPD2    C4 4620   3.250   4.627   0.323 -0.3484 -0.5937  1.3427
  307MPD2    C5 4621   3.259   4.576   0.198  0.4831  0.2576  1.1305
  307MPD2     H 4622   3.068   0.176   0.248  2.3679  1.0913  2.6150
  307MPD2    H1 4623   3.292   4.560   0.398 -0.5196 -0.5179  1.5083
  307MPD2    H2 4624   3.246   4.598  17.689  1.2895 -0.1359  1.3738
  307MPD2    H3 4625   3.304   4.477   0.187  0.1356  0.1474  0.6712
  307MPD2     N 4626   3.164   0.073   0.473  0.5487 -0.2869  0.6958
  307MPD2    H5 4627   3.102   0.153   0.482  0.2527 -0.3998 -0.3381
  307MPD2    N1 4628   3.054   0.083   0.011  0.1407 -0.1199  0.5280
  307MPD2    H7 4629   2.986   0.151   0.043  0.8712  0.7464  0.2386
  308TMC3    C1 4630   3.055   0.269   0.814 -0.2107 -0.0119 -0.3281
  308TMC3    C2 4631   3.160   0.310   0.894 -0.2643  0.1498 -0.0930
  308TMC3    C3 4632   3.285   0.248   0.881 -0.1668  1.1711  0.4103
  308TMC3    C4 4633   3.079   0.173   0.715 -0.0786  0.6492 -0.0592
  308TMC3    C5 4634   3.208   0.120   0.699  0.0537  0.1924 -0.3473
  308TMC3    C6 4635   3.311   0.152   0.783 -0.3865  0.3566 -0.4602
  308TMC3     C 4636   2.987   0.386   0.763  0.4194  0.2988 -0.7421
  308TMC3     O 4637   3.061   0.479   0.747 -0.8964 -0.1428  0.0958
  308TMC3     H 4638   3.143   0.390   0.965 -0.1949  0.9433 -0.9702
  308TMC3    H1 4639   3.009   0.158   0.633  0.0813  0.8046 -0.2232
  308TMC3    H2 4640   3.411   0.119   0.758 -0.3106  0.4042 -0.2180
  308TMC3    C7 4641   3.241   0.041   0.586 -0.5731  0.0193  0.1734
  308TMC3    C8 4642   3.389   0.355   0.867  0.8089  0.4455  0.8618
  308TMC3    O1 4643   3.345   4.697   0.591  0.4173  0.0665 -0.4275
  308TMC3    O2 4644   3.506   0.330   0.897  0.0593 -0.2561 -0.1860
  309MPD2     C 4645   2.309   1.121  17.475 -0.2567 -0.4459  0.1321
  309MPD2    C1 4646   2.223   1.165  17.377 -0.1652  0.3615 -0.4841
  309MPD2    C2 4647   2.092   1.198  17.407  0.0557  0.0089  0.2859
  309MPD2    C3 4648   2.054   1.189  17.540 -0.3172 -0.5183 -0.2245
  309MPD2    C4 4649   2.141   1.142  17.634  0.3038  0.9425  0.0473
  309MPD2    C5 4650   2.266   1.109  17.604  0.3973  0.2578 -0.1371
  309MPD2     H 4651   2.017   1.221  17.333  0.4549  0.3105 -0.0270
  309MPD2    H1 4652   2.109   1.125   0.040  0.2697 -2.5916 -0.5481
  309MPD2    H2 4653   2.403   1.073  17.454  1.7365  2.6207  2.0290
  309MPD2    H3 4654   2.327   1.075  17.687  0.0843  1.2226  0.4809
  309MPD2     N 4655   1.922   1.203  17.587  0.3533 -0.4338  0.2175
  309MPD2    H5 4656   1.901   1.174  17.682 -0.8712 -0.4451 -0.0635
  309MPD2    N1 4657   2.263   1.173  17.243  0.5312  0.6013  0.9605
  309MPD2    H7 4658   2.189   1.173  17.173  1.4141 -3.4362  0.0425
  310TMC3    C1 4659   2.413   1.180  17.063 -0.3058  0.8209 -0.0380
  310TMC3    C2 4660   2.307   1.174  16.982  0.7832  0.4191 -0.0163
  310TMC3    C3 4661   2.326   1.146  16.849 -0.5356  1.3418 -0.0169
  310TMC3    C4 4662   2.540   1.141  17.023  0.9589  0.3389  0.2869
  310TMC3    C5 4663   2.557   1.133  16.887 -1.2299 -0.1487  0.2276
  310TMC3    C6 4664   2.451   1.115  16.802  0.7568  0.6357 -0.5703
  310TMC3     C 4665   2.398   1.180  17.208  0.3424  0.6374 -0.0895
  310TMC3     O 4666   2.488   1.214  17.283 -0.3306 -0.2938 -0.1206
  310TMC3     H 4667   2.204   1.195  17.010  0.7305 -0.7633  0.6751
  310TMC3    H1 4668   2.618   1.143  17.097 -0.5352  1.5639  1.8286
  310TMC3    H2 4669   2.466   1.090  16.698  1.2856 -0.6277 -0.1985
  310TMC3    C7 4670   2.682   1.075  16.841 -0.5212 -0.2693  0.2494
  310TMC3    C8 4671   2.228   1.151  16.742 -0.3569 -0.6610 -0.1503
  310TMC3    O1 4672   2.674   1.025  16.728 -0.8782  0.0649 -0.3413
  310TMC3    O2 4673   2.263   1.090  16.643 -0.0139  0.2424  0.0594
  311MPD2     C 4674   4.434   2.126  12.585 -0.1609  0.3265  0.8201
  311MPD2    C1 4675   4.456   2.163  12.714 -0.2880 -0.5018  0.3806
  311MPD2    C2 4676   4.342   2.189  12.785  0.0240 -0.4010 -0.2132
  311MPD2    C3 4677   4.215   2.191  12.731 -0.4191 -0.1536  0.0847
  311MPD2    C4 4678   4.200   2.165  12.596  0.4224 -0.0472  0.6186
  311MPD2    C5 4679   4.310   2.134  12.526  0.2722 -0.2061  0.4584
  311MPD2     H 4680   4.363   2.204  12.891 -2.1661  2.5633 -0.2052
  311MPD2    H1 4681   4.107   2.178  12.541  0.2607 -1.1203  0.6311
  311MPD2    H2 4682   4.513   2.111  12.512  0.0532  0.0861  1.0994
  311MPD2    H3 4683   4.296   2.120  12.420 -0.1426 -2.3614  0.7991
  311MPD2     N 4684   4.106   2.206  12.818  0.7961  1.0880  0.4506
  311MPD2    H5 4685   4.127   2.203  12.917  1.3042 -0.2965  0.3038
  311MPD2    N1 4686   4.583   2.161  12.783  0.4684 -0.1079 -0.0134
  311MPD2    H7 4687   4.590   2.185  12.882  1.1833 -0.4780  0.0301
  312TMC3    C1 4688   3.885   2.177  12.905 -0.1762  0.1296 -0.3327
  312TMC3    C2 4689   3.779   2.092  12.897  0.2273 -0.0926 -0.1533
  312TMC3    C3 4690   3.697   2.092  13.005  0.1130  0.5511  0.6789
  312TMC3    C4 4691   3.926   2.239  13.019 -0.8902 -0.0335  0.5308
  312TMC3    C5 4692   3.856   2.212  13.133 -0.1499  0.0657 -0.0525
  312TMC3    C6 4693   3.735   2.151  13.125  0.4512  0.2747  0.3985
  312TMC3     C 4694   3.970   2.188  12.788 -0.6226  0.6455  0.2691
  312TMC3     O 4695   3.923   2.157  12.681  0.2953  0.2322 -0.7220
  312TMC3     H 4696   3.745   2.068  12.797 -2.9534  3.6454  0.0559
  312TMC3    H1 4697   4.009   2.309  13.021 -1.3368  0.5086  0.2428
  312TMC3    H2 4698   3.673   2.146  13.213 -1.9326  0.7802 -1.2631
  312TMC3    C7 4699   3.865   2.316  13.232  0.0890 -0.0276  0.4056
  312TMC3    C8 4700   3.583   2.000  12.995 -0.4883 -0.3534  0.4103
  312TMC3    O1 4701   3.886   2.432  13.201  0.5322 -0.7800  0.1051
  312TMC3    O2 4702   3.584   1.941  12.889  0.6793 -0.0186 -0.1027
  313MPD2     C 4703   4.602   0.719  10.333  0.0266  0.1509 -0.0829
  313MPD2    C1 4704   4.464   0.710  10.342  0.0977  0.1499 -0.1235
  313MPD2    C2 4705   4.392   0.607  10.286 -0.3063 -0.0533 -0.1526
  313MPD2    C3 4706   4.455   0.518  10.202  0.0578 -0.6873 -0.4360
  313MPD2    C4 4707   4.591   0.521  10.192 -0.5408 -0.5040  0.2229
  313MPD2    C5 4708   4.660   0.622  10.251  0.0978 -0.4101 -0.3066
  313MPD2     H 4709   4.284   0.604  10.287 -0.3058 -0.0885 -0.2250
  313MPD2    H1 4710   4.647   0.443  10.140 -0.6147  2.2026 -3.9542
  313MPD2    H2 4711   4.661   0.792  10.387 -1.5183 -0.4383  2.3794
  313MPD2    H3 4712   0.045   0.622  10.241  0.3141 -1.7090  1.9543
  313MPD2     N 4713   4.375   0.412  10.164  0.1300 -0.0037  0.3622
  313MPD2    H5 4714   4.275   0.418  10.180  0.0437 -2.5861  0.8563
  313MPD2    N1 4715   4.391   0.806  10.418  0.2157 -0.1727 -0.1259
  313MPD2    H7 4716   4.291   0.787  10.424  0.6545 -1.8130  2.1034
  314TMC3    C1 4717   4.323   1.018  10.490 -0.4954 -0.1473  0.0792
  314TMC3    C2 4718   4.374   1.125  10.553 -0.1516  0.1886  0.3347
  314TMC3    C3 4719   4.347   1.255  10.512 -0.3756 -0.0772  0.4784
  314TMC3    C4 4720   4.230   1.035  10.389 -0.4504  0.4540 -0.2292
  314TMC3    C5 4721   4.209   1.164  10.345 -0.1924  0.3531  0.4168
  314TMC3    C6 4722   4.269   1.276  10.404  0.0099  0.2522 -0.2677
  314TMC3     C 4723   4.434   0.923  10.468 -0.3504 -0.1641 -0.2618
  314TMC3     O 4724   4.542   0.982  10.456 -1.0380  0.4520  0.0818
  314TMC3     H 4725   4.433   1.103  10.641  1.4086 -1.1536 -1.0284
  314TMC3    H1 4726   4.198   0.951  10.328  1.5645 -0.5072  0.0606
  314TMC3    H2 4727   4.250   1.377  10.371  2.5518  1.1829  1.1904
  314TMC3    C7 4728   4.162   1.169  10.212 -0.6781 -0.1912  0.3396
  314TMC3    C8 4729   4.462   1.341  10.508  0.4782  0.1710  0.1619
  314TMC3    O1 4730   4.057   1.117  10.189  0.9169  0.2240  0.2206
  314TMC3    O2 4731   4.445   1.462  10.516 -0.8358  0.0122 -0.4008
  315MPD2     C 4732   3.338   0.485  17.202 -0.0302  0.1527  0.0620
  315MPD2    C1 4733   3.359   0.536  17.332 -0.3752  0.7594  0.0505
  315MPD2    C2 4734   3.405   0.667  17.350  1.2438 -0.1529  0.2780
  315MPD2    C3 4735   3.419   0.758  17.244 -0.1019  0.3901  0.5100
  315MPD2    C4 4736   3.386   0.709  17.120 -0.7230  0.0999 -0.0770
  315MPD2    C5 4737   3.353   0.577  17.102  0.3833  0.1031  0.5008
  315MPD2     H 4738   3.418   0.701  17.452  3.4801 -1.2140  0.3643
  315MPD2    H1 4739   3.407   0.777  17.038 -0.4979  1.2740  0.9475
  315MPD2    H2 4740   3.314   0.384  17.171 -1.6316  0.8218 -0.8872
  315MPD2    H3 4741   3.333   0.540  17.002 -1.2583  2.4234 -0.0398
  315MPD2     N 4742   3.461   0.886  17.276 -0.2378  0.0433  0.0527
  315MPD2    H5 4743   3.495   0.906  17.369 -1.2137 -0.5478  0.5279
  315MPD2    N1 4744   3.355   0.451  17.447 -0.6974 -0.1953  0.6012
  315MPD2    H7 4745   3.371   0.496  17.537  0.4324 -1.9420  1.2815
  316TMC3    C1 4746   3.529   1.109  17.249  0.5684  0.2130  0.1552
  316TMC3    C2 4747   3.543   1.116  17.386  0.0968  0.0708  0.5358
  316TMC3    C3 4748   3.593   1.238  17.426 -1.8363 -0.1234  0.4753
  316TMC3    C4 4749   3.549   1.214  17.164  0.5696 -0.1719  0.0548
  316TMC3    C5 4750   3.581   1.334  17.213 -0.6418 -0.0272 -0.4011
  316TMC3    C6 4751   3.615   1.341  17.347  0.0739  0.4270 -0.1284
  316TMC3     C 4752   3.475   0.992  17.190  0.0628  0.2804  0.2416
  316TMC3     O 4753   3.454   0.991  17.069 -0.2402  0.0016  0.6105
  316TMC3     H 4754   3.521   1.049  17.468  1.4227 -0.5463  0.3849
  316TMC3    H1 4755   3.537   1.203  17.056  1.5680  0.6116 -0.1303
  316TMC3    H2 4756   3.644   1.438  17.386  1.4523  0.3909 -1.0437
  316TMC3    C7 4757   3.682   1.400  17.132 -0.2579  0.0285 -0.1612
  316TMC3    C8 4758   3.656   1.246  17.553  0.2016  0.0619 -0.6937
  316TMC3    O1 4759   3.778   1.456  17.190  0.0155  0.0547  0.3958
  316TMC3    O2 4760   3.633   1.344  17.622 -0.5506 -0.0911 -0.5458
  317MPD2     C 4761   1.067   4.239  12.802 -0.1041  0.1609 -0.3870
  317MPD2    C1 4762   1.150   4.145  12.743 -0.1611 -0.4451  0.0872
  317MPD2    C2 4763   1.230   4.072  12.835  0.2168  0.2256 -0.4153
  317MPD2    C3 4764   1.212   4.082  12.968  0.2423 -0.3665  0.4651
  317MPD2    C4 4765   1.125   4.177  13.021  0.3316  0.5073  0.1171
  317MPD2    C5 4766   1.062   4.262  12.938  0.4489 -0.6022 -0.4405
  317MPD2     H 4767   1.297   3.998  12.794 -1.1967 -0.9871 -0.5396
  317MPD2    H1 4768   1.117   4.198  13.127 -0.1303  2.6481 -0.3427
  317MPD2    H2 4769   0.990   4.290  12.745  1.4506 -0.2924 -2.9254
  317MPD2    H3 4770   0.985   4.327  12.980  0.7744 -1.3101  1.2494
  317MPD2     N 4771   1.292   4.004  13.050  0.2737  0.1655  0.1863
  317MPD2    H5 4772   1.365   3.955  13.000  1.2248  2.5664 -0.7517
  317MPD2    N1 4773   1.164   4.119  12.606 -0.1629 -0.5685 -0.0266
  317MPD2    H7 4774   1.225   4.044  12.577 -2.3660 -2.1785 -0.4568
  318TMC3    C1 4775   1.366   3.869  13.226  0.8128  0.1988 -0.5952
  318TMC3    C2 4776   1.324   3.763  13.301  0.0839  0.2767 -0.4046
  318TMC3    C3 4777   1.419   3.656  13.306 -0.6660  0.0645 -0.5665
  318TMC3    C4 4778   1.492   3.881  13.165  0.5859 -0.2343 -0.0053
  318TMC3    C5 4779   1.573   3.770  13.167 -0.4213  0.8625  0.6264
  318TMC3    C6 4780   1.536   3.660  13.234  0.3828 -0.3687 -0.1103
  318TMC3     C 4781   1.261   3.962  13.177  0.0876  0.7467  0.6108
  318TMC3     O 4782   1.154   3.962  13.239  0.2095 -0.1907  0.4364
  318TMC3     H 4783   1.228   3.765  13.350  1.2673 -1.4318  1.9558
  318TMC3    H1 4784   1.538   3.963  13.111  0.6751  0.1423  0.6515
  318TMC3    H2 4785   1.611   3.582  13.241 -1.9611 -2.5188  1.0286
  318TMC3    C7 4786   1.681   3.768  13.074 -0.1661 -0.5944  0.3942
  318TMC3    C8 4787   1.382   3.525  13.357  0.3191  0.4333  0.1382
  318TMC3    O1 4788   1.681   3.853  12.987  0.2660 -0.0086 -0.7818
  318TMC3    O2 4789   1.469   3.440  13.369 -0.3036 -0.1188  0.2300
  319MPD2     C 4790   2.161   0.391  16.328  0.2512  0.3213 -0.1770
  319MPD2    C1 4791   2.046   0.402  16.393  0.2940 -0.1953 -0.6547
  319MPD2    C2 4792   1.926   0.373  16.338  0.1472  0.1365  0.2595
  319MPD2    C3 4793   1.922   0.333  16.208 -0.5271 -0.2384 -0.6847
  319MPD2    C4 4794   2.039   0.306  16.143  0.1140 -0.4544  0.2424
  319MPD2    C5 4795   2.159   0.339  16.199  0.3911  0.1299 -0.3034
  319MPD2     H 4796   1.836   0.408  16.388  0.5602  2.8226 -0.8396
  319MPD2    H1 4797   2.031   0.278  16.039  1.1129  3.8609 -1.0039
  319MPD2    H2 4798   2.257   0.420  16.370  0.4668 -0.8839  0.1816
  319MPD2    H3 4799   2.247   0.319  16.139  0.2100 -2.9276  0.4820
  319MPD2     N 4800   1.801   0.318  16.134  0.2404 -0.3451 -0.5635
  319MPD2    H5 4801   1.809   0.314  16.033  0.1363 -0.1399 -0.5810
  319MPD2    N1 4802   2.030   0.453  16.523 -0.0218 -0.3435  0.3620
  319MPD2    H7 4803   1.935   0.466  16.556  0.3054 -0.2193  1.2451
  320TMC3    C1 4804   1.565   0.318  16.102  0.1268 -0.1914 -0.4224
  320TMC3    C2 4805   1.559   0.392  15.992  0.2799 -0.7985 -0.1216
  320TMC3    C3 4806   1.460   0.369  15.900 -0.4994  0.7157 -0.2745
  320TMC3    C4 4807   1.476   0.215  16.127 -0.1847 -0.1989 -0.2480
  320TMC3    C5 4808   1.370   0.208  16.051 -0.0804 -0.2901 -1.0264
  320TMC3    C6 4809   1.358   0.283  15.936 -0.4407  0.5522 -0.6013
  320TMC3     C 4810   1.678   0.318  16.193  0.0608  0.5188 -0.1102
  320TMC3     O 4811   1.651   0.305  16.311  0.2337  0.0492  0.3830
  320TMC3     H 4812   1.633   0.469  15.971 -1.6704  1.5598  1.5238
  320TMC3    H1 4813   1.493   0.148  16.211 -1.3528 -0.3552 -0.1355
  320TMC3    H2 4814   1.268   0.284  15.876 -0.8722  0.0446  0.0279
  320TMC3    C7 4815   1.297   0.083  16.040  0.0682  0.3976  0.4657
  320TMC3    C8 4816   1.429   0.474  15.799 -0.6990  0.1572  0.3768
  320TMC3    O1 4817   1.260   0.052  15.925 -0.2366  0.1070  0.3509
  320TMC3    O2 4818   1.488   0.585  15.805 -0.7595  0.4047 -0.5020
  321TMC3    C1 4819   2.080   0.535  16.739  0.3609  0.0528  0.0838
  321TMC3    C2 4820   1.975   0.471  16.796 -0.1883  0.2303  0.2059
  321TMC3    C3 4821   1.916   0.519  16.910  0.0537  0.1989 -0.7948
  321TMC3    C4 4822   2.115   0.652  16.793  0.2498 -0.2734  0.3532
  321TMC3    C5 4823   2.056   0.704  16.901 -0.4992 -0.0808 -0.4187
  321TMC3    C6 4824   1.952   0.638  16.965  0.0122  0.1345  0.0260
  321TMC3     C 4825   2.127   0.504  16.602 -0.1249 -0.5694 -0.4845
  321TMC3     O 4826   2.251   0.517  16.592  0.4818  1.1257  0.3228
  321TMC3     H 4827   1.962   0.368  16.765  0.2351  0.6127 -1.2214
  321TMC3    H1 4828   2.206   0.701  16.758  1.2378 -1.6705  0.9917
  321TMC3    H2 4829   1.889   0.680  17.042  1.1227  0.9527  0.4907
  321TMC3    C7 4830   2.154   0.765  16.998  0.1224  1.0883  0.0291
  321TMC3    C8 4831   1.894   0.427  17.021  0.4859  1.3919 -0.5781
  321TMC3    O1 4832   2.243   0.841  16.962 -0.3575 -0.1015  0.1179
  321TMC3    O2 4833   1.929   0.473  17.130  0.0999 -0.4905  0.5285
  322MPD2     C 4834   0.959   1.816  13.372 -0.3689  0.3999 -0.3419
  322MPD2    C1 4835   0.887   1.785  13.489  0.9552  0.8962  0.3959
  322MPD2    C2 4836   0.799   1.685  13.488 -0.0833  0.1763 -0.1029
  322MPD2    C3 4837   0.778   1.614  13.373 -0.2256  0.9868 -0.5214
  322MPD2    C4 4838   0.844   1.649  13.255 -0.4858 -0.2904  0.9394
  322MPD2    C5 4839   0.936   1.747  13.257 -0.2808 -0.1645 -0.3849
  322MPD2     H 4840   0.733   1.680  13.574  1.8389 -0.2358  1.3541
  322MPD2    H1 4841   0.836   1.587  13.166 -2.9264 -0.3338  1.1909
  322MPD2    H2 4842   1.036   1.892  13.372  3.5918 -3.5848 -0.8603
  322MPD2    H3 4843   1.013   1.763  13.183 -0.0247 -0.1296 -0.1127
  322MPD2     N 4844   0.700   1.499  13.389  0.7672  0.2512  0.5033
  322MPD2    H5 4845   0.677   1.479  13.486  0.0453 -0.4900  0.1803
  322MPD2    N1 4846   0.927   1.859  13.607  0.1158  0.2901 -0.5317
  322MPD2    H7 4847   0.992   1.935  13.593 -1.1180  0.9898 -2.4338
  323TMC3    C1 4848   0.944   1.944  13.835  0.0175  0.1781  0.4558
  323TMC3    C2 4849   1.070   1.984  13.807  0.7154  0.3235  1.0629
  323TMC3    C3 4850   1.129   2.069  13.894 -0.4128 -0.1944 -0.3865
  323TMC3    C4 4851   0.886   1.953  13.961  0.4689  0.7661 -0.1088
  323TMC3    C5 4852   0.953   2.024  14.054 -0.2349  0.3644  0.4407
  323TMC3    C6 4853   1.077   2.078  14.019  0.0337 -0.3644 -0.2628
  323TMC3     C 4854   0.881   1.849  13.740 -0.5045  0.2510 -0.0680
  323TMC3     O 4855   0.801   1.769  13.776 -0.3846  0.2320  0.0730
  323TMC3     H 4856   1.126   1.955  13.719  0.7100  2.4699  0.3579
  323TMC3    H1 4857   0.797   1.891  13.968  0.1634  1.1615 -0.5084
  323TMC3    H2 4858   1.125   2.150  14.085 -0.8425 -0.8174  0.8828
  323TMC3    C7 4859   0.970   1.948  14.183  0.7144  0.7969 -0.1273
  323TMC3    C8 4860   1.272   2.074  13.898  0.7285  0.7629  0.5353
  323TMC3    O1 4861   0.932   1.833  14.195  0.5365 -0.2227  0.1657
  323TMC3    O2 4862   1.320   2.053  14.011  0.4512 -0.0124 -0.0370
  324MPD2     C 4863   2.944   3.759  13.896 -0.4035  0.4248  0.9064
  324MPD2    C1 4864   2.940   3.657  13.992 -0.1158  0.4662 -0.6688
  324MPD2    C2 4865   2.820   3.593  14.018  0.9277  0.2979  0.0774
  324MPD2    C3 4866   2.716   3.615  13.933  0.3928  0.7223  0.8223
  324MPD2    C4 4867   2.733   3.694  13.825 -0.6968 -0.8616  0.1179
  324MPD2    C5 4868   2.840   3.776  13.814 -0.2443  0.0666 -0.7264
  324MPD2     H 4869   2.815   3.508  14.086  1.7277  0.6050  0.5165
  324MPD2    H1 4870   2.647   3.712  13.760 -1.0971  1.1830  1.2327
  324MPD2    H2 4871   3.030   3.818  13.866  0.2748 -0.4000  1.1939
  324MPD2    H3 4872   2.860   3.847  13.735 -0.4529  1.9571  0.8945
  324MPD2     N 4873   2.586   3.566  13.952  0.1894 -0.0376 -0.8682
  324MPD2    H5 4874   2.529   3.591  13.872 -0.3351  0.7087 -0.2666
  324MPD2    N1 4875   3.064   3.633  14.062 -0.3309 -0.1770  1.0295
  324MPD2    H7 4876   3.150   3.672  14.024  0.2283 -1.3716  1.0749
  325TMC3    C1 4877   2.397   3.453  14.023  0.2447  0.8476  0.4273
  325TMC3    C2 4878   2.349   3.342  14.084 -0.5895 -0.2637  0.1417
  325TMC3    C3 4879   2.222   3.298  14.044  0.3368  0.3484 -0.6073
  325TMC3    C4 4880   2.323   3.525  13.934  0.5044 -0.2750  0.2684
  325TMC3    C5 4881   2.193   3.482  13.906  0.1854 -0.1250  0.1718
  325TMC3    C6 4882   2.136   3.371  13.967 -0.1539 -0.6646  0.3478
  325TMC3     C 4883   2.533   3.492  14.056 -0.0896 -0.1051  0.0595
  325TMC3     O 4884   2.586   3.449  14.160  0.0821 -0.3678  0.0496
  325TMC3     H 4885   2.422   3.286  14.141  0.3480 -0.8124 -1.5997
  325TMC3    H1 4886   2.358   3.617  13.888 -0.9073 -0.7282 -1.6782
  325TMC3    H2 4887   2.047   3.333  13.919  0.7344 -0.8333 -1.1738
  325TMC3    C7 4888   2.109   3.570  13.824  1.0597  0.3343  0.0314
  325TMC3    C8 4889   2.200   3.157  14.085 -0.2479 -0.2085 -0.1603
  325TMC3    O1 4890   2.166   3.658  13.762 -0.1269  0.3500 -0.1079
  325TMC3    O2 4891   2.284   3.086  14.138  0.0268 -0.5492  0.4355
  326MPD2     C 4892   4.056   3.145  11.054  0.0195  1.2278  0.5300
  326MPD2    C1 4893   4.026   3.197  10.932 -0.1378 -0.0928 -0.6417
  326MPD2    C2 4894   4.101   3.304  10.889  0.3020  0.0855  0.1318
  326MPD2    C3 4895   4.206   3.359  10.950  0.3489 -0.1134  0.4470
  326MPD2    C4 4896   4.240   3.297  11.068  0.1291  0.7975 -0.3540
  326MPD2    C5 4897   4.154   3.207  11.124 -0.5445 -0.1677  0.0229
  326MPD2     H 4898   4.079   3.347  10.792  0.8385 -0.6745 -0.3216
  326MPD2    H1 4899   4.321   3.337  11.128 -0.4211 -1.9268  2.2105
  326MPD2    H2 4900   3.991   3.079  11.110 -1.3970  0.9133 -1.4978
  326MPD2    H3 4901   4.178   3.179  11.226  2.3097  0.6749 -0.3995
  326MPD2     N 4902   4.288   3.465  10.906 -0.4525  0.2231 -0.8476
  326MPD2    H5 4903   4.370   3.494  10.958 -0.9185 -4.3987  2.3380
  326MPD2    N1 4904   3.914   3.161  10.852  0.8446  0.0706 -0.5052
  326MPD2    H7 4905   3.898   3.221  10.772  3.1015  0.0617 -0.9745
  327TMC3    C1 4906   3.763   3.054  10.737 -0.2850 -0.5808 -0.0894
  327TMC3    C2 4907   3.701   3.168  10.709  0.1844  0.4634  0.1385
  327TMC3    C3 4908   3.710   3.227  10.583 -0.4573 -0.0135 -0.7541
  327TMC3    C4 4909   3.835   2.992  10.641 -0.4906 -0.1731 -0.0477
  327TMC3    C5 4910   3.864   3.063  10.526 -0.2952 -0.3421 -0.2931
  327TMC3    C6 4911   3.794   3.171  10.490  0.0414  0.6311  0.0918
  327TMC3     C 4912   3.834   3.052  10.863 -0.5467  0.5978  0.1065
  327TMC3     O 4913   3.836   2.960  10.942 -0.0049 -0.2819  0.2207
  327TMC3     H 4914   3.652   3.217  10.793 -1.5213 -1.1579  0.0796
  327TMC3    H1 4915   3.887   2.900  10.661  0.6736 -0.0101 -2.3584
  327TMC3    H2 4916   3.826   3.228  10.403  0.5523 -1.4813 -1.0888
  327TMC3    C7 4917   4.006   3.067  10.491  0.1984 -0.2814  0.1376
  327TMC3    C8 4918   3.663   3.365  10.562  0.0979  0.6080  0.6818
  327TMC3    O1 4919   4.045   3.098  10.377 -0.1126 -0.5967  0.1995
  327TMC3    O2 4920   3.717   3.425  10.474 -0.0271  0.1394 -0.0382
  328MPD2     C 4921   0.734   3.618  17.478 -1.2082 -0.1582 -0.4610
  328MPD2    C1 4922   0.727   3.736  17.419 -0.5334 -0.1978 -0.0267
  328MPD2    C2 4923   0.728   3.746  17.279  0.0953  0.6945 -1.3919
  328MPD2    C3 4924   0.709   3.633  17.198  0.5467  0.2423  0.6765
  328MPD2    C4 4925   0.692   3.515  17.263  0.4950 -0.5448  0.1855
  328MPD2    C5 4926   0.717   3.499  17.403  0.5492  0.3983  0.7083
  328MPD2     H 4927   0.726   3.841  17.227  1.1758  2.3046  1.5028
  328MPD2    H1 4928   0.691   3.424  17.203 -0.4268 -1.2084  1.2002
  328MPD2    H2 4929   0.771   3.601  17.579  2.4915 -0.9191 -1.9638
  328MPD2    H3 4930   0.738   3.403  17.449  2.1381  0.6586  0.5303
  328MPD2     N 4931   0.713   3.638  17.055  0.2383 -0.2835  0.2393
  328MPD2    H5 4932   0.685   3.550  17.012 -1.0826 -1.0067  2.5911
  328MPD2    N1 4933   0.731   3.855  17.493 -0.1316  0.6459  0.1612
  328MPD2    H7 4934   0.744   3.942  17.442  1.4872  1.1821  1.5044
  329TMC3    C1 4935   0.706   3.990  17.689 -0.3078  0.0654  0.5103
  329TMC3    C2 4936   0.658   4.094  17.615 -0.0050  0.6456 -0.6545
  329TMC3    C3 4937   0.579   4.183  17.679 -0.0606  0.2913 -0.2991
  329TMC3    C4 4938   0.688   3.975   0.125  0.4694 -0.1028 -0.4156
  329TMC3    C5 4939   0.612   4.068   0.194 -0.1322  0.4698  0.5671
  329TMC3    C6 4940   0.553   4.174   0.117  0.0946 -0.2236  0.3639
  329TMC3     C 4941   0.697   3.861  17.628  0.3945 -0.0554 -0.1544
  329TMC3     O 4942   0.648   3.775   0.004  0.2162  0.3498 -0.5069
  329TMC3     H 4943   0.678   4.091  17.509  3.1420  0.4056 -0.0561
  329TMC3    H1 4944   0.728   3.895   0.186 -1.8451 -0.2942  0.8427
  329TMC3    H2 4945   0.494   4.252   0.165  0.6386 -0.5949  1.6428
  329TMC3    C7 4946   0.581   4.044   0.332 -0.1984 -1.0782  0.3729
  329TMC3    C8 4947   0.514   4.297  17.617  0.1408 -0.0931  0.2227
  329TMC3    O1 4948   0.661   3.983   0.402 -0.3796  0.1815  0.5322
  329TMC3    O2 4949   0.426   4.351  17.687  0.5429  0.1719 -0.6064
  330TMC3    C1 4950   3.374   2.651   9.234 -1.1538  0.8830  0.4802
  330TMC3    C2 4951   3.363   2.530   9.164 -0.3682  0.1393  0.0845
  330TMC3    C3 4952   3.472   2.446   9.166  0.1937 -0.2359  0.1733
  330TMC3    C4 4953   3.488   2.687   9.296  0.3575 -0.4761 -0.4546
  330TMC3    C5 4954   3.590   2.594   9.304 -0.1654 -0.0873  0.7026
  330TMC3    C6 4955   3.591   2.476   9.229  0.2328  0.8366  0.5904
  330TMC3     C 4956   3.261   2.733   9.262  0.0721  0.6878 -0.3291
  330TMC3     O 4957   3.270   2.812   9.355 -0.4844 -0.2965  0.3302
  330TMC3     H 4958   3.267   2.502   9.122 -1.2589  2.1402  0.7435
  330TMC3    H1 4959   3.499   2.781   9.347  0.1466 -1.5129  1.5104
  330TMC3    H2 4960   3.689   2.438   9.205 -0.8008 -0.7334 -1.1768
  330TMC3    C7 4961   3.722   2.640   9.352 -0.0803 -0.3553  0.1138
  330TMC3    C8 4962   3.437   2.314   9.109 -0.4449  0.8295  0.0121
  330TMC3    O1 4963   3.730   2.758   9.376  0.5791  0.1149  0.4086
  330TMC3    O2 4964   3.332   2.315   9.045  0.4309  0.0593 -0.2726
  331MPD2     C 4965   2.229   2.420  12.392 -0.3210 -0.0044  0.3990
  331MPD2    C1 4966   2.363   2.400  12.363 -0.6034 -0.1626  0.7169
  331MPD2    C2 4967   2.389   2.280  12.287  0.3092 -0.2110 -0.0399
  331MPD2    C3 4968   2.291   2.199  12.234 -0.8700  0.4124  0.9806
  331MPD2    C4 4969   2.162   2.225  12.266 -0.6690  0.5545  0.0390
  331MPD2    C5 4970   2.138   2.330  12.351  0.0121 -0.1823 -0.3034
  331MPD2     H 4971   2.491   2.259  12.259  0.3051  1.4564 -1.3316
  331MPD2    H1 4972   2.074   2.172  12.233  0.2458 -2.4785  2.4491
  331MPD2    H2 4973   2.204   2.499  12.462 -0.9529 -0.6697  0.9268
  331MPD2    H3 4974   2.035   2.349  12.381 -0.1160  0.3208 -1.0661
  331MPD2     N 4975   2.328   2.084  12.160 -0.4502 -0.5488  0.2710
  331MPD2    H5 4976   2.426   2.088  12.134 -0.8265 -0.3391 -1.1182
  331MPD2    N1 4977   2.458   2.490  12.412  0.4431 -0.3234 -0.1382
  331MPD2    H7 4978   2.415   2.575  12.449 -1.4077 -1.2148 -0.2418
  332TMC3    C1 4979   2.306   1.909  12.024  0.5031  0.3577 -0.4085
  332TMC3    C2 4980   2.371   1.970  11.919 -0.1448  0.2139 -0.3822
  332TMC3    C3 4981   2.413   1.894  11.816 -0.1615  0.1798 -0.5691
  332TMC3    C4 4982   2.275   1.771  12.025 -0.3807  0.1548  0.7458
  332TMC3    C5 4983   2.319   1.699  11.918 -0.1969 -0.1757 -0.1775
  332TMC3    C6 4984   2.392   1.757  11.813 -0.7638  0.1500  0.0763
  332TMC3     C 4985   2.244   1.986  12.121  0.1557  0.4368 -1.1338
  332TMC3     O 4986   2.154   1.938  12.187  0.7457 -0.4503  0.0858
  332TMC3     H 4987   2.405   2.073  11.923  0.6121 -0.1628  2.6289
  332TMC3    H1 4988   2.228   1.726  12.112  2.2976 -2.8458  0.6861
  332TMC3    H2 4989   2.425   1.690  11.734 -1.6105 -1.5221  1.1422
  332TMC3    C7 4990   2.372   1.568  11.953  0.0634  0.4039  0.4485
  332TMC3    C8 4991   2.526   1.942  11.741  0.1092 -0.3072  0.4844
  332TMC3    O1 4992   2.387   1.488  11.861 -0.3372 -0.1793  0.6680
  332TMC3    O2 4993   2.601   2.023  11.791 -0.2791  0.4093  0.3417
  333MPD2     C 4994   2.585   1.659  11.015  0.2693  0.1310  0.0241
  333MPD2    C1 4995   2.657   1.581  10.930 -0.3522 -0.4291  0.2905
  333MPD2    C2 4996   2.624   1.446  10.926  0.7634 -0.2521 -0.1480
  333MPD2    C3 4997   2.533   1.386  11.012  0.3037  0.5887  0.4171
  333MPD2    C4 4998   2.460   1.471  11.087 -0.5658  0.6946 -0.2223
  333MPD2    C5 4999   2.483   1.604  11.091  0.8709 -0.0237  0.1851
  333MPD2     H 5000   2.691   1.383  10.868 -2.0821 -2.7896 -0.7122
  333MPD2    H1 5001   2.378   1.434  11.148  0.4241  0.1008  0.7617
  333MPD2    H2 5002   2.609   1.765  11.017 -2.3886  0.7844 -2.2256
  333MPD2    H3 5003   2.429   1.662  11.166 -0.0869  1.8169 -1.9143
  333MPD2     N 5004   2.507   1.249  10.996  0.5344 -0.2337 -0.3267
  333MPD2    H5 5005   2.570   1.200  10.933 -0.4749 -1.1648 -0.6022
  333MPD2    N1 5006   2.764   1.644  10.857  0.1350 -0.2776 -0.2502
  333MPD2    H7 5007   2.791   1.729  10.904 -0.2636 -0.2483 -0.0755
  334TMC3    C1 5008   2.917   1.679  10.681 -0.0057  0.0218 -0.4186
  334TMC3    C2 5009   3.022   1.613  10.620  0.0552  0.4267 -0.6649
  334TMC3    C3 5010   3.122   1.689  10.574 -0.1280  0.8033  0.3739
  334TMC3    C4 5011   2.905   1.815  10.692  0.3274  0.4624 -0.3946
  334TMC3    C5 5012   3.005   1.886  10.626  0.1680 -0.3628  0.4673
  334TMC3    C6 5013   3.114   1.824  10.564  0.5492 -0.2134 -0.3432
  334TMC3     C 5014   2.820   1.597  10.742  0.6008 -0.0888  0.7079
  334TMC3     O 5015   2.791   1.497  10.678 -0.2355  1.2153  0.0445
  334TMC3     H 5016   3.035   1.505  10.621  3.0461  0.8219  0.4557
  334TMC3    H1 5017   2.820   1.864  10.738  1.5165  0.5895  1.6611
  334TMC3    H2 5018   3.197   1.885  10.529 -0.0399 -0.1641 -1.6407
  334TMC3    C7 5019   2.999   2.033  10.647 -0.5205  0.5708  0.6578
  334TMC3    C8 5020   3.222   1.617  10.487 -0.2998  0.2383 -0.1967
  334TMC3    O1 5021   2.904   2.083  10.705 -0.0717  0.1781 -0.1977
  334TMC3    O2 5022   3.204   1.494  10.470  0.4483 -0.6608 -0.3025
  335TMC3    C1 5023   1.912   4.042  17.316  0.2932 -0.2019 -0.1891
  335TMC3    C2 5024   1.880   3.945  17.220  0.2114  0.0248 -0.2399
  335TMC3    C3 5025   1.963   3.931  17.115  0.4981 -0.7293  0.2352
  335TMC3    C4 5026   2.039   4.099  17.317 -0.0339 -0.0818  0.1587
  335TMC3    C5 5027   2.131   4.077  17.210  0.6087  0.0855  0.7658
  335TMC3    C6 5028   2.092   4.001  17.105 -0.1933  0.4415  0.1189
  335TMC3     C 5029   1.877   4.007  17.451 -0.5361 -0.2142  0.1363
  335TMC3     O 5030   1.968   4.013  17.539  0.4346 -0.2917  0.3690
  335TMC3     H 5031   1.795   3.879  17.230  1.6289 -1.8481 -0.6551
  335TMC3    H1 5032   2.068   4.163  17.399  0.5118 -0.9538  0.6479
  335TMC3    H2 5033   2.158   3.988  17.020 -0.7552 -1.1519 -0.0581
  335TMC3    C7 5034   2.268   4.087  17.254  0.3821 -0.8683  0.1731
  335TMC3    C8 5035   1.957   3.807  17.038  0.5698  1.0943  0.5563
  335TMC3    O1 5036   2.284   4.158  17.351 -0.1928  0.2703 -0.3823
  335TMC3    O2 5037   2.027   3.813  16.935  0.1618  0.0853  0.3418
  336MPD2     C 5038   1.425   1.739  16.051 -0.9040  0.3293 -0.3794
  336MPD2    C1 5039   1.448   1.654  15.947  0.3633 -0.5061  0.6212
  336MPD2    C2 5040   1.446   1.518  15.970  0.8632  0.7698 -0.1718
  336MPD2    C3 5041   1.443   1.472  16.102  0.9563 -0.1984 -0.2977
  336MPD2    C4 5042   1.432   1.562  16.203  0.0567 -0.1664  0.0109
  336MPD2    C5 5043   1.418   1.694  16.175 -0.5265 -0.2178  0.4934
  336MPD2     H 5044   1.467   1.443  15.894  0.6472 -1.4255  1.9635
  336MPD2    H1 5045   1.415   1.525  16.303 -0.0160 -2.9883 -1.0286
  336MPD2    H2 5046   1.417   1.847  16.046 -3.1179  0.2671  1.9262
  336MPD2    H3 5047   1.390   1.767  16.250 -1.0140 -0.0944  0.1912
  336MPD2     N 5048   1.457   1.339  16.148  0.3560 -0.1881 -0.0350
  336MPD2    H5 5049   1.443   1.320  16.247 -1.1932  0.2410 -0.1608
  336MPD2    N1 5050   1.455   1.697  15.812 -0.5318 -0.0751 -0.1237
  336MPD2    H7 5051   1.455   1.621  15.746  0.7998 -0.0701 -0.1386
  337TMC3    C1 5052   1.475   1.850  15.622  0.2454  1.0503 -0.1276
  337TMC3    C2 5053   1.397   1.759  15.548  0.5096 -0.0897 -0.1347
  337TMC3    C3 5054   1.324   1.798  15.439  0.1584 -1.0721  0.3924
  337TMC3    C4 5055   1.475   1.981  15.580  0.1327  0.3884  0.0310
  337TMC3    C5 5056   1.392   2.015  15.475  0.2120  0.5391 -0.3133
  337TMC3    C6 5057   1.311   1.929  15.406  0.5101 -0.4807  0.3058
  337TMC3     C 5058   1.479   1.831  15.763 -0.3666 -0.4386 -0.5526
  337TMC3     O 5059   1.498   1.933  15.829  0.3645  0.1540 -0.0049
  337TMC3     H 5060   1.411   1.655  15.575  2.1332 -0.0779 -0.9270
  337TMC3    H1 5061   1.532   2.055  15.635  0.4591  0.2916 -0.1768
  337TMC3    H2 5062   1.228   1.964  15.345  0.5602 -0.5482  0.1988
  337TMC3    C7 5063   1.370   2.153  15.466  0.1980 -0.2443  0.2035
  337TMC3    C8 5064   1.218   1.707  15.407  0.2208  0.1477  0.2008
  337TMC3    O1 5065   1.398   2.214  15.568 -0.5424 -0.6711 -0.1661
  337TMC3    O2 5066   1.181   1.631  15.498 -0.1220  0.5468 -0.0030
  338MPD2     C 5067   1.726   0.259   1.017  0.3466 -0.5363  0.0650
  338MPD2    C1 5068   1.723   0.258   0.882 -0.5546  1.0266  0.4229
  338MPD2    C2 5069   1.606   0.217   0.816 -0.6126 -0.9269 -1.1800
  338MPD2    C3 5070   1.509   0.160   0.891  0.0290  0.6593 -0.2151
  338MPD2    C4 5071   1.523   0.145   1.028  0.3258  0.0451  0.2214
  338MPD2    C5 5072   1.625   0.203   1.099 -0.2573  0.6177 -0.0568
  338MPD2     H 5073   1.606   0.225   0.708  0.9776  1.2351 -1.0217
  338MPD2    H1 5074   1.438   0.102   1.079 -0.5938  2.6288  0.8509
  338MPD2    H2 5075   1.813   0.298   1.069 -0.2669  0.9278 -0.0094
  338MPD2    H3 5076   1.627   0.199   1.208 -1.7526  1.4602  0.0004
  338MPD2     N 5077   1.392   0.120   0.819 -0.4558 -0.0471 -0.1184
  338MPD2    H5 5078   1.393   0.138   0.719 -1.5801 -2.8475 -0.6093
  338MPD2    N1 5079   1.816   0.325   0.799 -0.1424 -0.4941  1.3341
  338MPD2    H7 5080   1.801   0.333   0.699 -1.3609 -1.4725  1.4450
  339TMC3    C1 5081   1.168   0.052   0.779  0.0587  0.0804 -0.3982
  339TMC3    C2 5082   1.044   0.026   0.832  0.1641  0.2919  0.3809
  339TMC3    C3 5083   0.937   0.071   0.762 -0.5452  0.1708 -0.2307
  339TMC3    C4 5084   1.181   0.107   0.656  0.3168  0.0834 -0.0525
  339TMC3    C5 5085   1.066   0.154   0.592 -0.3346 -0.0645  0.9768
  339TMC3    C6 5086   0.940   0.133   0.640 -0.2330  0.2576  0.3742
  339TMC3     C 5087   1.282   0.056   0.875  0.2281 -0.3737 -0.6422
  339TMC3     O 5088   1.271   0.003   0.985 -0.8346 -0.2580  0.0111
  339TMC3     H 5089   1.028   4.709   0.931  0.6776  2.2108  1.2587
  339TMC3    H1 5090   1.270   0.111   0.595  1.4717 -0.7164  1.5817
  339TMC3    H2 5091   0.851   0.179   0.597 -0.2472  0.1320  0.2686
  339TMC3    C7 5092   1.093   0.277   0.527 -0.2451  0.5163  0.4887
  339TMC3    C8 5093   0.805   0.032   0.804 -0.3428  0.5278 -0.5410
  339TMC3    O1 5094   1.186   0.344   0.568 -0.4062  0.2747 -0.2080
  339TMC3    O2 5095   0.715   0.061   0.726  0.2918  0.4007  0.2809
  340MPD2     C 5096   2.643   2.805  10.687 -0.4974  0.1966 -0.3587
  340MPD2    C1 5097   2.663   2.846  10.555 -0.0749 -0.7173 -1.2706
  340MPD2    C2 5098   2.748   2.955  10.529 -0.7232 -0.1864 -0.6959
  340MPD2    C3 5099   2.818   3.010  10.644 -0.3990 -0.5076 -0.0828
  340MPD2    C4 5100   2.796   2.962  10.770  0.2304 -0.7970 -0.8482
  340MPD2    C5 5101   2.713   2.858  10.792 -0.6420 -0.4220 -0.5279
  340MPD2     H 5102   2.760   2.984  10.425 -0.7937 -1.4557 -1.0588
  340MPD2    H1 5103   2.840   3.016  10.854 -0.8262 -1.2302 -0.0189
  340MPD2    H2 5104   2.570   2.728  10.710  0.2932  0.0218  1.6293
  340MPD2    H3 5105   2.700   2.831  10.896  1.4529  1.2612  0.1551
  340MPD2     N 5106   2.910   3.119  10.632 -0.4293 -0.1318  0.3749
  340MPD2    H5 5107   2.963   3.147  10.714 -1.6748  0.0809  1.1089
  340MPD2    N1 5108   2.593   2.786  10.455 -0.2091 -0.0368 -0.6866
  340MPD2    H7 5109   2.551   2.699  10.484  0.2128 -0.0277 -0.0484
  341TMC3    C1 5110   2.510   2.734  10.238  0.5161  0.6709 -0.2769
  341TMC3    C2 5111   2.503   2.599  10.262 -0.0526  0.4299 -0.2582
  341TMC3    C3 5112   2.404   2.525  10.207  0.5858  0.0829 -0.1570
  341TMC3    C4 5113   2.448   2.791  10.125 -0.2583 -0.2484  0.1132
  341TMC3    C5 5114   2.357   2.712  10.064 -0.9105 -0.6009 -0.1979
  341TMC3    C6 5115   2.332   2.583  10.108  0.6846  0.3721  0.2054
  341TMC3     C 5116   2.574   2.835  10.327 -0.1225  0.7435  0.1177
  341TMC3     O 5117   2.594   2.949  10.281  0.1909 -0.0747  0.7679
  341TMC3     H 5118   2.568   2.553  10.337 -2.1170 -0.5484  0.9190
  341TMC3    H1 5119   2.482   2.881  10.074 -0.5256  0.5114  1.2703
  341TMC3    H2 5120   2.243   2.531  10.075  2.0494 -1.0013 -1.3034
  341TMC3    C7 5121   2.346   2.714   9.922 -0.2491 -0.2487  0.0537
  341TMC3    C8 5122   2.425   2.381  10.204 -0.0481 -0.4349 -0.2097
  341TMC3    O1 5123   2.361   2.608   9.864 -0.2814  0.0750 -0.3278
  341TMC3    O2 5124   2.535   2.345  10.241  0.0121 -0.5621 -0.4871
  342MPD2     C 5125   4.004   2.109  17.548  0.0608 -0.3192 -0.0357
  342MPD2    C1 5126   4.126   2.120  17.480  0.0675  0.1495 -0.1211
  342MPD2    C2 5127   4.170   2.242  17.448 -0.4702  0.3713  0.4636
  342MPD2    C3 5128   4.116   2.363  17.491  1.1824 -0.3293  0.0991
  342MPD2    C4 5129   3.999   2.356  17.565 -0.0077 -0.4416  0.4111
  342MPD2    C5 5130   3.944   2.227  17.591  0.1882  0.5774 -0.2351
  342MPD2     H 5131   4.258   2.244  17.386 -1.1161 -3.7036 -0.6276
  342MPD2    H1 5132   3.943   2.443  17.600  1.9539  0.4779  1.2567
  342MPD2    H2 5133   3.964   2.014  17.583 -1.0732 -1.2191 -3.8242
  342MPD2    H3 5134   3.849   2.220  17.643 -0.1402 -1.6566 -1.1590
  342MPD2     N 5135   4.170   2.488  17.449  0.3636 -0.1815 -0.4634
  342MPD2    H5 5136   4.120   2.565  17.492  1.1666 -0.9899  1.8731
  342MPD2    N1 5137   4.204   2.015  17.437  0.1543 -0.0362  0.3140
  342MPD2    H7 5138   4.296   2.046  17.409 -0.1589  1.0878  0.5213
  343TMC3    C1 5139   4.286   1.804  17.376 -0.3637  0.2585 -0.2115
  343TMC3    C2 5140   4.410   1.859  17.330  0.0390 -0.2574 -0.0475
  343TMC3    C3 5141   4.498   1.777  17.266 -0.7012 -0.3604 -0.8506
  343TMC3    C4 5142   4.264   1.668  17.372  0.2694  0.1642  0.4732
  343TMC3    C5 5143   4.361   1.595  17.304 -0.4597 -0.1555 -0.4540
  343TMC3    C6 5144   4.475   1.641  17.250 -1.1513  0.3817 -0.9349
  343TMC3     C 5145   4.175   1.885  17.435 -0.3553 -0.0643  0.2236
  343TMC3     O 5146   4.066   1.833  17.461  0.2753 -0.3657 -0.2320
  343TMC3     H 5147   4.427   1.966  17.332  1.2891 -0.4739  0.8396
  343TMC3    H1 5148   4.176   1.624  17.417  0.8263 -2.0691 -0.6289
  343TMC3    H2 5149   4.556   1.579  17.210 -2.2560 -1.3985 -0.4070
  343TMC3    C7 5150   4.356   1.451  17.314 -0.6129  0.1855  0.1532
  343TMC3    C8 5151   4.630   1.831  17.260  0.1272 -0.2933  0.8797
  343TMC3    O1 5152   4.402   1.392  17.218  0.0058 -0.1807 -0.0316
  343TMC3    O2 5153   4.647   1.942  17.311 -0.5005  0.0216 -0.2151
  344MPD2     C 5154   1.059   0.774   9.799 -0.1675 -0.0382 -0.2827
  344MPD2    C1 5155   1.174   0.765   9.875  0.1084 -0.7031 -0.0059
  344MPD2    C2 5156   1.253   0.878   9.901  0.2269  0.8729  0.0734
  344MPD2    C3 5157   1.215   0.995   9.839 -0.2565  0.0252 -0.8322
  344MPD2    C4 5158   1.105   0.993   9.752 -0.7789  0.5552 -0.1179
  344MPD2    C5 5159   1.024   0.888   9.736  0.2137  0.1478 -0.1101
  344MPD2     H 5160   1.347   0.870   9.953  0.7286 -1.2171 -1.1438
  344MPD2    H1 5161   1.073   1.084   9.701 -1.5298 -0.6434 -1.7905
  344MPD2    H2 5162   0.998   0.684   9.796  1.5959 -1.2284 -0.9368
  344MPD2    H3 5163   0.942   0.883   9.666 -1.0684  0.5897  1.3462
  344MPD2     N 5164   1.282   1.113   9.854 -0.4619  0.3980 -0.9353
  344MPD2    H5 5165   1.267   1.181   9.780 -0.7638 -0.0227 -1.2591
  344MPD2    N1 5166   1.229   0.642   9.918 -0.1825 -0.1134  0.2934
  344MPD2    H7 5167   1.310   0.656   9.978 -0.1539 -0.9263  0.4435
  345TMC3    C1 5168   1.439   1.270   9.936 -0.3527  0.6160  0.0371
  345TMC3    C2 5169   1.541   1.304  10.018 -0.0882  0.1221  0.4180
  345TMC3    C3 5170   1.580   1.431  10.005 -0.8590 -0.4841 -0.0384
  345TMC3    C4 5171   1.379   1.358   9.848 -0.9918  0.4349  0.3957
  345TMC3    C5 5172   1.429   1.483   9.837  1.0627  0.1452 -0.4550
  345TMC3    C6 5173   1.528   1.519   9.910  0.2804 -0.7293 -0.7661
  345TMC3     C 5174   1.381   1.137   9.951 -0.5932 -0.4582 -1.0653
  345TMC3     O 5175   1.415   1.072  10.046  0.0462  0.6052 -0.0996
  345TMC3     H 5176   1.576   1.239  10.097 -0.4409  0.2873  0.7076
  345TMC3    H1 5177   1.286   1.333   9.799 -0.7862  1.1161 -0.3421
  345TMC3    H2 5178   1.563   1.621   9.896  0.7835 -0.6230  1.2286
  345TMC3    C7 5179   1.383   1.591   9.752 -0.3143  0.1994 -0.4320
  345TMC3    C8 5180   1.632   1.509  10.120 -0.3850 -0.7905 -0.2445
  345TMC3    O1 5181   1.349   1.700   9.798  0.0142 -0.2482  0.4885
  345TMC3    O2 5182   1.563   1.606  10.145 -0.3092  0.3029  0.1858
  346MPD2     C 5183   1.576   3.101  14.063  0.6566 -0.2623  0.6344
  346MPD2    C1 5184   1.529   3.212  13.995 -0.0303  0.7162  0.0864
  346MPD2    C2 5185   1.453   3.306  14.057 -0.9805  0.3866  0.0549
  346MPD2    C3 5186   1.428   3.301  14.191  0.0643  0.3921  0.0136
  346MPD2    C4 5187   1.468   3.187  14.265  0.1141  0.1720  0.2788
  346MPD2    C5 5188   1.539   3.084  14.198  0.4652 -0.0604 -0.1877
  346MPD2     H 5189   1.441   3.396  13.998 -1.6643 -0.3093 -0.8680
  346MPD2    H1 5190   1.441   3.173  14.369  1.0022 -1.2232  0.3233
  346MPD2    H2 5191   1.638   3.029  14.011 -1.2778  0.2192 -2.3082
  346MPD2    H3 5192   1.565   2.997  14.256 -1.4237 -1.0792 -0.8422
  346MPD2     N 5193   1.369   3.415  14.246 -0.5350  0.1654  0.0969
  346MPD2    H5 5194   1.354   3.486  14.175 -1.0303  0.5091  0.5520
  346MPD2    N1 5195   1.575   3.254  13.867 -0.3127  0.2249 -0.8084
  346MPD2    H7 5196   1.533   3.339  13.829  1.5637  1.0393 -1.0667
  347TMC3    C1 5197   1.378   3.596  14.398 -0.8099 -0.3514  0.2063
  347TMC3    C2 5198   1.383   3.654  14.271 -0.0279  0.0344 -0.2605
  347TMC3    C3 5199   1.484   3.742  14.234  0.5114 -0.1882  0.1110
  347TMC3    C4 5200   1.478   3.616  14.489  0.0303  0.0585  1.2952
  347TMC3    C5 5201   1.575   3.709  14.453  0.2630 -0.1478  0.1863
  347TMC3    C6 5202   1.590   3.765  14.324  0.8273  0.5525  0.2567
  347TMC3     C 5203   1.357   3.450  14.377 -0.2182  0.3798  0.1555
  347TMC3     O 5204   1.372   3.384  14.477 -0.4779 -0.2522 -0.1796
  347TMC3     H 5205   1.310   3.638  14.193  0.0224  1.6776 -0.6495
  347TMC3    H1 5206   1.473   3.577  14.590 -0.7366 -4.3240 -0.4405
  347TMC3    H2 5207   1.675   3.828  14.300  0.4028  0.4986 -1.4240
  347TMC3    C7 5208   1.698   3.693  14.520 -0.2873 -0.4687  0.0475
  347TMC3    C8 5209   1.538   3.716  14.099 -0.7262 -0.4881 -0.4643
  347TMC3    O1 5210   1.783   3.781  14.516  0.3551 -0.3638 -0.1042
  347TMC3    O2 5211   1.530   3.607  14.049 -0.4434  0.4170  0.5681
  348MPD2     C 5212   4.535   2.011  11.724  0.4938 -0.0363  0.9697
  348MPD2    C1 5213   4.661   2.047  11.704 -0.2269 -0.1529  0.5963
  348MPD2    C2 5214   4.704   2.102  11.580 -1.1089  0.1806  0.3545
  348MPD2    C3 5215   4.611   2.141  11.479  0.0919 -0.3086  0.2566
  348MPD2    C4 5216   4.477   2.105  11.503  0.7901  0.1009  0.6028
  348MPD2    C5 5217   4.449   2.037  11.620 -0.1299  0.4996  0.6930
  348MPD2     H 5218   0.087   2.120  11.580 -0.8514 -1.3528  2.5539
  348MPD2    H1 5219   4.395   2.133  11.437  0.0326 -0.7503  1.1818
  348MPD2    H2 5220   4.499   1.967  11.817 -1.4923  0.1502  0.2999
  348MPD2    H3 5221   4.343   2.015  11.632  0.0685  1.0983  3.4323
  348MPD2     N 5222   4.668   2.210  11.365 -0.4318  0.0627 -0.0795
  348MPD2    H5 5223   0.045   2.225  11.372 -0.1473 -1.9241 -0.0450
  348MPD2    N1 5224   0.040   2.013  11.802 -0.2588 -0.8454 -0.0539
  348MPD2    H7 5225   0.137   2.036  11.782 -0.0783 -1.3515  0.2473
  349TMC3    C1 5226   0.159   1.906  11.971  0.0012 -0.0267  0.1857
  349TMC3    C2 5227   0.188   1.895  12.107 -0.8473 -0.3614  0.0972
  349TMC3    C3 5228   0.323   1.892  12.149 -0.2835  0.0483  0.3570
  349TMC3    C4 5229   0.257   1.889  11.885  0.1056  1.3076 -0.1232
  349TMC3    C5 5230   0.386   1.869  11.929  0.3081  0.2899 -0.0250
  349TMC3    C6 5231   0.426   1.879  12.057  0.5860 -0.2686 -0.1057
  349TMC3     C 5232   0.025   1.936  11.915  0.5832  0.4120  0.2110
  349TMC3     O 5233   4.648   1.896  11.969  0.2896 -0.3291  0.2679
  349TMC3     H 5234   0.116   1.911  12.187 -1.2544 -2.5716  0.1588
  349TMC3    H1 5235   0.236   1.877  11.780  0.2336  1.0135 -0.1165
  349TMC3    H2 5236   0.530   1.866  12.082  0.3369 -2.9201 -0.3814
  349TMC3    C7 5237   0.482   1.896  11.828 -0.6364 -0.0697 -0.3904
  349TMC3    C8 5238   0.350   1.890  12.292  0.3310  0.4476 -0.9661
  349TMC3    O1 5239   0.462   1.853  11.715 -0.3265  0.5506  0.5476
  349TMC3    O2 5240   0.263   1.890  12.377 -0.0148  0.2165 -0.9798
  350MPD2     C 5241   4.031   4.462   9.370  0.1581  0.1564  0.2217
  350MPD2    C1 5242   3.969   4.430   9.489 -0.0470 -0.4658  0.3871
  350MPD2    C2 5243   3.999   4.501   9.604  0.1420  0.0757 -0.4492
  350MPD2    C3 5244   4.088   4.600   9.594 -0.4918  0.4828 -0.2871
  350MPD2    C4 5245   4.151   4.636   9.476 -0.1879  0.1750 -0.1314
  350MPD2    C5 5246   4.118   4.568   9.367  0.1274 -0.2778  0.4838
  350MPD2     H 5247   3.950   4.484   9.699  2.0876  0.3408  0.5968
  350MPD2    H1 5248   4.219   4.720   9.467 -1.2619  1.0405 -0.2517
  350MPD2    H2 5249   4.008   4.406   9.280 -1.3235  0.2460  0.5454
  350MPD2    H3 5250   4.167   4.603   9.277 -0.1971  1.4350  0.9729
  350MPD2     N 5251   4.101   4.676   9.711 -0.3060  0.1432 -0.5780
  350MPD2    H5 5252   4.042   4.650   9.789  0.6545  0.0510  0.1093
  350MPD2    N1 5253   3.879   4.324   9.511 -0.1464 -0.2714  0.1552
  350MPD2    H7 5254   3.836   4.332   9.603 -1.2384 -1.6572 -0.2297
  351TMC3    C1 5255   3.730   4.145   9.477 -0.7665  0.9812  0.7204
  351TMC3    C2 5256   3.690   4.030   9.414 -0.8189  0.0418  0.0185
  351TMC3    C3 5257   3.579   3.962   9.461 -0.2339 -0.2585  0.0834
  351TMC3    C4 5258   3.671   4.166   9.601 -0.3764  0.0606  0.2994
  351TMC3    C5 5259   3.561   4.102   9.646  1.0245  0.4791  0.1958
  351TMC3    C6 5260   3.508   3.995   9.577 -0.5394  0.3352 -0.3147
  351TMC3     C 5261   3.840   4.225   9.427 -0.7247 -0.9700  0.4081
  351TMC3     O 5262   3.869   4.217   9.304  0.3924 -0.1531  0.1944
  351TMC3     H 5263   3.724   4.014   9.312  0.4051 -2.7931  0.8721
  351TMC3    H1 5264   3.712   4.237   9.672  1.2287 -0.5877  0.0218
  351TMC3    H2 5265   3.418   3.942   9.605  0.5260 -1.1393  0.3404
  351TMC3    C7 5266   3.514   4.141   9.775  0.3743  0.5553  0.1093
  351TMC3    C8 5267   3.523   3.874   9.365 -0.5672  0.0290 -0.4783
  351TMC3    O1 5268   3.528   4.261   9.800  0.2579 -0.8498 -0.4284
  351TMC3    O2 5269   3.601   3.813   9.298 -0.2150  0.2894 -0.1726
  352MPD2     C 5270   2.599   3.199   0.716  0.1168 -0.0857  0.2859
  352MPD2    C1 5271   2.583   3.276   0.829 -0.3343 -0.5753  0.0840
  352MPD2    C2 5272   2.636   3.236   0.955  0.5405  0.7624 -0.0140
  352MPD2    C3 5273   2.699   3.110   0.964 -0.3848  0.5355 -0.2356
  352MPD2    C4 5274   2.718   3.041   0.849  0.1580  0.2353  0.0544
  352MPD2    C5 5275   2.669   3.080   0.726 -0.3804  0.8112  0.4589
  352MPD2     H 5276   2.621   3.297   1.043 -0.9283 -1.1172  1.0558
  352MPD2    H1 5277   2.752   2.939   0.851 -2.4310 -0.6698 -1.6485
  352MPD2    H2 5278   2.552   3.221   0.621  1.2632  1.4702  0.0717
  352MPD2    H3 5279   2.689   3.015   0.641 -2.4514  0.8141 -0.0354
  352MPD2     N 5280   2.741   3.057   1.087 -0.4053 -0.3856  0.3952
  352MPD2    H5 5281   2.802   2.977   1.083 -0.2567 -0.2014 -1.1958
  352MPD2    N1 5282   2.507   3.393   0.805  0.0277  0.1042 -0.0801
  352MPD2    H7 5283   2.466   3.413   0.715  0.7221  1.1375 -0.1730
  353TMC3    C1 5284   2.773   3.045   1.318  0.5047  0.4479  0.1097
  353TMC3    C2 5285   2.902   2.990   1.306  1.2434 -0.5871  0.2996
  353TMC3    C3 5286   2.951   2.912   1.410  0.3484 -0.0382  0.5234
  353TMC3    C4 5287   2.706   3.043   1.437 -0.0979  0.6232  0.5857
  353TMC3    C5 5288   2.761   2.973   1.537  0.1670  0.6131 -0.6178
  353TMC3    C6 5289   2.877   2.898   1.525  0.1889 -0.2206 -0.8807
  353TMC3     C 5290   2.709   3.113   1.202  0.9949 -0.1368  0.5599
  353TMC3     O 5291   2.627   3.194   1.228  0.3123 -0.3745 -0.1271
  353TMC3     H 5292   2.960   3.004   1.215  0.1228 -1.0707 -0.4844
  353TMC3    H1 5293   2.604   3.078   1.440 -0.2030  0.4304 -0.8726
  353TMC3    H2 5294   2.910   2.839   1.609 -0.3322  0.3852 -0.2508
  353TMC3    C7 5295   2.665   2.913   1.627  0.3746  0.5033 -0.5978
  353TMC3    C8 5296   3.062   2.830   1.381  0.0776  0.3434 -0.1144
  353TMC3    O1 5297   2.673   2.789   1.620  0.7926  0.1834 -0.4468
  353TMC3    O2 5298   3.154   2.870   1.311  0.0615  0.0507  0.2880
  354TMC3    C1 5299   3.898   3.598  12.844  0.5994 -0.0736  0.0196
  354TMC3    C2 5300   3.924   3.733  12.828  0.3239  0.3908 -0.0154
  354TMC3    C3 5301   4.046   3.776  12.785 -0.3132 -0.6782  0.0377
  354TMC3    C4 5302   3.996   3.508  12.812 -0.0538 -0.5644  0.0794
  354TMC3    C5 5303   4.104   3.557  12.741  0.5753  0.5813 -0.1137
  354TMC3    C6 5304   4.136   3.688  12.730 -0.0255  0.0791 -0.2763
  354TMC3     C 5305   3.809   3.573  12.956  0.1275  0.3095  0.9448
  354TMC3     O 5306   3.850   3.516  13.056  0.4885  0.1356  0.2828
  354TMC3     H 5307   3.854   3.810  12.859 -0.1118 -1.0350  2.5359
  354TMC3    H1 5308   3.960   3.405  12.809 -2.3181  0.1557  2.2073
  354TMC3    H2 5309   4.231   3.719  12.689  0.3713  0.6872  1.0958
  354TMC3    C7 5310   4.163   3.463  12.642 -0.4471  0.8107 -0.3456
  354TMC3    C8 5311   4.063   3.908  12.747  0.1034  0.2705 -0.2382
  354TMC3    O1 5312   4.155   3.341  12.655 -0.4424  0.1514 -0.1354
  354TMC3    O2 5313   4.136   3.934  12.654 -0.0299  0.2488  0.4513
  355MPD2     C 5314   4.474   4.574  11.523 -0.5359  0.0203  0.6686
  355MPD2    C1 5315   4.533   4.611  11.403  0.6231  0.1535 -0.4183
  355MPD2    C2 5316   4.654   4.670  11.394 -0.0662 -0.1087 -0.1558
  355MPD2    C3 5317   4.717   4.702  11.514 -0.0574 -0.4115  0.4123
  355MPD2    C4 5318   4.672   4.651  11.635 -0.1790  0.4541  0.1553
  355MPD2    C5 5319   4.547   4.593  11.636 -0.6865  0.7206 -0.2086
  355MPD2     H 5320   4.690   4.704  11.298 -0.1780  1.0882  0.2320
  355MPD2    H1 5321   4.716   4.680  11.729  1.5530 -1.6974  0.0371
  355MPD2    H2 5322   4.382   4.518  11.526 -0.8569  0.5464  0.7367
  355MPD2    H3 5323   4.514   4.579  11.739 -1.0740  1.6722 -0.2108
  355MPD2     N 5324   0.101   0.069  11.518  0.1746 -0.0521  0.6159
  355MPD2    H5 5325   0.141   0.094  11.608 -0.7251  1.2062  0.6631
  355MPD2    N1 5326   4.447   4.595  11.289 -0.8869  0.0348  0.5365
  355MPD2    H7 5327   4.347   4.580  11.297 -0.6610 -1.7248  0.1628
  356TMC3    C1 5328   0.251   0.236  11.461 -0.1351  0.5981  0.7878
  356TMC3    C2 5329   0.260   0.360  11.393 -0.5905  0.2947 -0.5696
  356TMC3    C3 5330   0.324   0.461  11.458  0.4739  0.3294  0.9655
  356TMC3    C4 5331   0.311   0.218  11.579  0.0226 -0.1068  0.0918
  356TMC3    C5 5332   0.364   0.325  11.640  0.4121  0.3853  0.6124
  356TMC3    C6 5333   0.375   0.451  11.583  0.6178 -0.2246  1.1416
  356TMC3     C 5334   0.152   0.144  11.412  0.1977  0.0862  0.4449
  356TMC3     O 5335   0.135   0.140  11.289  0.0051  0.2687 -0.4038
  356TMC3     H 5336   0.224   0.372  11.292 -3.0364  1.8087  0.4878
  356TMC3    H1 5337   0.308   0.129  11.641 -1.6345 -1.7202 -2.2951
  356TMC3    H2 5338   0.444   0.527  11.619 -0.1985  1.5817 -1.1569
  356TMC3    C7 5339   0.425   0.293  11.771  0.2640 -0.7256 -0.5360
  356TMC3    C8 5340   0.379   0.567  11.371  0.4549  0.5843  1.0361
  356TMC3    O1 5341   0.459   0.180  11.805 -0.2649 -0.4837 -0.6289
  356TMC3    O2 5342   0.379   0.559  11.250  0.4289  0.0597  0.2021
  357MPD2     C 5343   3.020   4.520   0.535  0.3199  0.2608 -1.1121
  357MPD2    C1 5344   3.118   4.449   0.601 -0.6871  0.3680 -0.0976
  357MPD2    C2 5345   3.103   4.436   0.742 -0.5848 -0.5488  0.0174
  357MPD2    C3 5346   2.988   4.471   0.807 -0.4487 -0.4241  0.9750
  357MPD2    C4 5347   2.898   4.553   0.744 -0.6401  0.8752  0.2708
  357MPD2    C5 5348   2.914   4.579   0.607 -0.2189 -0.0439  1.1168
  357MPD2     H 5349   3.186   4.385   0.789 -0.6566 -1.8527 -1.2489
  357MPD2    H1 5350   2.812   4.596   0.794  0.5660  2.9826  0.5455
  357MPD2    H2 5351   3.019   4.539   0.429 -1.6087 -3.3447 -1.7487
  357MPD2    H3 5352   2.841   4.635   0.550 -0.9974 -0.8356  1.3357
  357MPD2     N 5353   2.963   4.438   0.939 -0.6635 -0.5845  0.7143
  357MPD2    H5 5354   2.878   4.463   0.989  0.3924  1.1129  1.6832
  357MPD2    N1 5355   3.210   4.376   0.520 -0.0525 -0.1922  0.4426
  357MPD2    H7 5356   3.179   4.348   0.428 -2.7165  1.5752  0.8151
  358TMC3    C1 5357   3.386   4.227   0.489  0.5974  0.2875  0.6845
  358TMC3    C2 5358   3.324   4.181   0.373 -0.5518  0.6016 -0.3962
  358TMC3    C3 5359   3.367   4.059   0.320  0.0110  0.4611 -0.3119
  358TMC3    C4 5360   3.475   4.150   0.556  0.0650 -0.2804  0.4488
  358TMC3    C5 5361   3.506   4.028   0.501  0.5089 -0.6338 -0.1451
  358TMC3    C6 5362   3.448   3.981   0.385 -0.0203 -0.3074  0.6750
  358TMC3     C 5363   3.325   4.325   0.570 -0.3409 -0.5522 -0.2315
  358TMC3     O 5364   3.379   4.334   0.676  0.6093  0.9587  0.2194
  358TMC3     H 5365   3.249   4.240   0.322  0.7013  3.1897  0.7601
  358TMC3    H1 5366   3.523   4.178   0.649  2.2586 -2.6024  0.0217
  358TMC3    H2 5367   3.496   3.897   0.336  2.2508  0.0673  2.2341
  358TMC3    C7 5368   3.586   3.930   0.572 -0.0482  0.1384  0.4695
  358TMC3    C8 5369   3.327   4.030   0.182  0.6857 -0.7093 -0.4348
  358TMC3    O1 5370   3.661   3.983   0.656 -0.0316 -0.3961 -0.4836
  358TMC3    O2 5371   3.301   4.130   0.116 -0.4942 -0.3164 -0.6995
  359MPD2     C 5372   0.359   3.170  12.538  0.8307  0.0184 -0.5777
  359MPD2    C1 5373   0.319   3.079  12.447 -0.5536 -0.0841 -0.5835
  359MPD2    C2 5374   0.213   2.995  12.477  0.5178  0.3856 -0.7964
  359MPD2    C3 5375   0.141   3.012  12.593  0.4260  0.5358  0.1129
  359MPD2    C4 5376   0.173   3.114  12.678 -0.2279 -1.1844 -0.1286
  359MPD2    C5 5377   0.285   3.190  12.655  0.8693  0.6584 -0.1106
  359MPD2     H 5378   0.186   2.926  12.398 -4.0475 -0.0058  1.1100
  359MPD2    H1 5379   0.119   3.139  12.768  1.0617  0.0869  0.3073
  359MPD2    H2 5380   0.440   3.241  12.521 -0.3275  1.2477 -0.9655
  359MPD2    H3 5381   0.312   3.268  12.725  0.9272 -0.5827  1.2396
  359MPD2     N 5382   0.035   2.924  12.624 -0.3241 -0.0273 -0.6670
  359MPD2    H5 5383   4.708   2.939  12.711 -0.6954 -1.8822 -0.5579
  359MPD2    N1 5384   0.370   3.072  12.320  0.5518 -0.2061 -0.5716
  359MPD2    H7 5385   0.324   3.008  12.256 -2.4042 -0.8740  2.2536
  360TMC3    C1 5386   0.515   3.093  12.135  0.3275  0.8482  0.3624
  360TMC3    C2 5387   0.647   3.112  12.101  0.1149 -0.4625 -0.0934
  360TMC3    C3 5388   0.681   3.081  11.971 -0.0653  0.1515  0.6237
  360TMC3    C4 5389   0.432   3.008  12.069 -0.8581 -0.0453  0.0720
  360TMC3    C5 5390   0.479   2.961  11.944  0.5374  0.7455 -0.2792
  360TMC3    C6 5391   0.598   2.998  11.891  0.1409  0.0669  0.5952
  360TMC3     C 5392   0.477   3.137  12.271  0.0400  0.0636  0.3962
  360TMC3     O 5393   0.563   3.199  12.332 -0.4058  0.7178  0.2062
  360TMC3     H 5394   0.702   3.190  12.152  2.6269 -2.0007 -0.5020
  360TMC3    H1 5395   0.327   3.000  12.095 -0.2791 -3.6288  1.3228
  360TMC3    H2 5396   0.621   2.962  11.792 -0.1070 -1.1628  0.9832
  360TMC3    C7 5397   0.386   2.924  11.840  0.2456 -0.0878  0.4338
  360TMC3    C8 5398   0.801   3.130  11.919 -0.2905 -0.6804  0.1422
  360TMC3    O1 5399   0.394   2.984  11.733  0.1329  0.0635  0.2347
  360TMC3    O2 5400   0.879   3.165  12.011  0.1247 -0.2835 -0.0032
  361MPD2     C 5401   0.777   2.879  17.322 -0.4663 -0.1702 -0.1760
  361MPD2    C1 5402   0.782   2.794  17.214 -0.5394 -0.4296 -0.8122
  361MPD2    C2 5403   0.889   2.702  17.211  0.8550 -0.1575 -0.4204
  361MPD2    C3 5404   0.988   2.699  17.311 -0.1505  0.2702  0.8005
  361MPD2    C4 5405   0.979   2.798  17.409  0.1609  0.3777 -0.2557
  361MPD2    C5 5406   0.876   2.886  17.417 -0.4670  0.5731 -0.2517
  361MPD2     H 5407   0.879   2.625  17.135 -1.3085 -1.2228  0.9522
  361MPD2    H1 5408   1.052   2.797  17.489  0.9424 -0.7827 -0.9763
  361MPD2    H2 5409   0.692   2.945  17.330 -0.8612 -0.7926  0.6946
  361MPD2    H3 5410   0.851   2.934  17.510 -1.3526  1.5485 -0.9911
  361MPD2     N 5411   1.094   2.601  17.321  0.1842  0.0316  0.2069
  361MPD2    H5 5412   1.146   2.608  17.408  0.1289 -0.3091  0.2691
  361MPD2    N1 5413   0.685   2.780  17.110  1.1080  0.0391  0.8688
  361MPD2    H7 5414   0.710   2.706  17.046 -1.6751 -0.4209  0.3125
  362TMC3    C1 5415   0.481   2.788  17.005 -0.3588 -0.4356 -0.5891
  362TMC3    C2 5416   0.348   2.774  17.040  0.4968 -0.0718  0.5432
  362TMC3    C3 5417   0.274   2.701  16.954  0.8153 -0.1573  0.5284
  362TMC3    C4 5418   0.534   2.744  16.887  0.0804  0.3203 -0.2126
  362TMC3    C5 5419   0.448   2.664  16.813  0.1905 -0.1022  0.4179
  362TMC3    C6 5420   0.324   2.627  16.853 -0.6310  0.0950 -0.7169
  362TMC3     C 5421   0.571   2.857  17.097  0.7961  0.2239 -0.4642
  362TMC3     O 5422   0.530   2.943  17.175  0.2008 -0.8158  0.5287
  362TMC3     H 5423   0.312   2.836  17.121  0.5264  1.5621 -0.6989
  362TMC3    H1 5424   0.636   2.763  16.857  0.3891 -1.7579 -0.5174
  362TMC3    H2 5425   0.256   2.571  16.791  0.0914 -2.4878  0.7968
  362TMC3    C7 5426   0.475   2.658  16.672 -0.5665  0.1735  0.7654
  362TMC3    C8 5427   0.136   2.674  16.988  0.4249  0.5573  1.5740
  362TMC3    O1 5428   0.549   2.743  16.624  0.7355  0.3190  0.0568
  362TMC3    O2 5429   0.089   2.569  16.954 -0.7231 -0.6537  0.8640
  363TMC3    C1 5430   0.008   0.656   9.342  0.0119  0.0309 -0.0711
  363TMC3    C2 5431   0.118   0.583   9.290  0.0683  0.1701  0.6283
  363TMC3    C3 5432   0.111   0.448   9.309  0.4648  0.3782  0.2118
  363TMC3    C4 5433   4.623   0.596   9.398 -0.7636  0.3932  0.4647
  363TMC3    C5 5434   4.626   0.459   9.414  0.2691  0.5952  0.1719
  363TMC3    C6 5435   0.004   0.381   9.364  0.2939 -0.5682 -0.5800
  363TMC3     C 5436   4.719   0.787   9.285  0.2840 -0.3750 -0.8486
  363TMC3     O 5437   0.095   0.814   9.226 -0.3057 -0.0716  0.2439
  363TMC3     H 5438   0.204   0.625   9.239 -0.3224 -0.0568 -0.2106
  363TMC3    H1 5439   4.539   0.652   9.438 -0.7893  1.6829 -1.4051
  363TMC3    H2 5440   4.712   0.274   9.370 -3.6114 -0.0012 -0.6578
  363TMC3    C7 5441   4.493   0.402   9.440  0.3344  0.0613  0.0218
  363TMC3    C8 5442   0.225   0.370   9.259  0.0986 -0.4553  0.1876
  363TMC3    O1 5443   4.450   0.332   9.352  0.0866  0.3317 -0.5757
  363TMC3    O2 5444   0.296   0.431   9.183 -0.2841 -0.0801  0.1160
  364MPD2     C 5445   3.390   3.769  10.729  0.4331  0.1490 -0.6619
  364MPD2    C1 5446   3.480   3.768  10.618 -0.1895 -0.3616  0.1697
  364MPD2    C2 5447   3.529   3.641  10.577 -0.7074  0.1235  0.2855
  364MPD2    C3 5448   3.499   3.523  10.661  0.4720  0.1149 -0.2903
  364MPD2    C4 5449   3.407   3.529  10.768  0.8423  0.2139 -0.1545
  364MPD2    C5 5450   3.351   3.653  10.795  0.5564  0.3851  1.2049
  364MPD2     H 5451   3.607   3.627  10.502 -0.9116 -1.8240  0.4509
  364MPD2    H1 5452   3.379   3.445  10.830  2.4053  0.3705  0.7680
  364MPD2    H2 5453   3.345   3.859  10.768  2.1150 -0.0866  1.8079
  364MPD2    H3 5454   3.263   3.655  10.858 -0.4414  0.5349 -0.1777
  364MPD2     N 5455   3.551   3.395  10.643  0.5879 -0.8952  0.0164
  364MPD2    H5 5456   3.527   3.326  10.713 -0.7048 -2.3930 -1.9222
  364MPD2    N1 5457   3.519   3.895  10.561 -0.4546 -0.1356  0.0161
  364MPD2    H7 5458   3.495   3.978  10.613 -0.6876  0.3189 -0.8212
  365TMC3    C1 5459   3.619   4.035  10.396 -0.0539 -0.0732 -0.0078
  365TMC3    C2 5460   3.645   4.052  10.261 -0.0646  0.2804  0.6299
  365TMC3    C3 5461   3.664   4.179  10.210 -0.3023 -0.3451  0.6412
  365TMC3    C4 5462   3.618   4.143  10.479  0.1590 -0.5526 -0.4891
  365TMC3    C5 5463   3.639   4.273  10.427 -0.1412 -0.4898  0.4690
  365TMC3    C6 5464   3.649   4.287  10.292  0.1082  0.4366 -0.2377
  365TMC3     C 5465   3.587   3.905  10.443 -0.9772 -0.0742 -0.3495
  365TMC3     O 5466   3.611   3.816  10.363  0.8399  0.3113 -0.1326
  365TMC3     H 5467   3.648   3.967  10.194 -0.4596 -0.2843  1.3372
  365TMC3    H1 5468   3.600   4.127  10.585  0.6062 -0.6607 -0.4290
  365TMC3    H2 5469   3.653   4.390  10.257  0.2107  0.5897  0.2150
  365TMC3    C7 5470   3.636   4.392  10.512 -1.0009 -0.1315 -0.2650
  365TMC3    C8 5471   3.735   4.196  10.082 -0.7104  0.4288 -0.2329
  365TMC3    O1 5472   3.630   4.492  10.444  0.1002  0.1675 -0.5656
  365TMC3    O2 5473   3.730   4.299  10.019  0.0384 -0.0431  0.8006
  366MPD2     C 5474   1.257   0.659  15.047 -0.5584 -0.4923 -0.2387
  366MPD2    C1 5475   1.305   0.750  15.141  0.1174  0.5203 -0.6355
  366MPD2    C2 5476   1.415   0.723  15.208  0.0082  0.9899  0.3216
  366MPD2    C3 5477   1.495   0.618  15.175 -0.2258  0.1038  0.0648
  366MPD2    C4 5478   1.448   0.526  15.085  0.0343 -0.1119 -0.0150
  366MPD2    C5 5479   1.327   0.548  15.023  0.4751  0.1350  0.7471
  366MPD2     H 5480   1.453   0.786  15.287  1.8476 -0.5638  0.6878
  366MPD2    H1 5481   1.505   0.440  15.050 -1.6957 -1.1068 -0.3727
  366MPD2    H2 5482   1.160   0.676  15.003  0.0271  1.5663 -0.7358
  366MPD2    H3 5483   1.290   0.483  14.944  3.4736 -0.3216 -0.2810
  366MPD2     N 5484   1.622   0.618  15.240 -0.8781 -0.1853 -0.0286
  366MPD2    H5 5485   1.649   0.696  15.300 -0.8304  0.7211 -1.2213
  366MPD2    N1 5486   1.239   0.873  15.161 -0.5361  0.8032 -0.5612
  366MPD2    H7 5487   1.287   0.940  15.220 -0.9994 -0.1199  0.8512
  367TMC3    C1 5488   1.107   1.064  15.133 -0.0108  0.2870 -0.0204
  367TMC3    C2 5489   1.202   1.138  15.196  0.8514 -0.8475  0.3814
  367TMC3    C3 5490   1.213   1.275  15.160 -0.5873  0.0971  0.5864
  367TMC3    C4 5491   1.024   1.113  15.033 -0.4664  0.2455 -0.2753
  367TMC3    C5 5492   1.038   1.246  15.000 -0.2925 -0.4974 -0.6027
  367TMC3    C6 5493   1.135   1.327  15.060  0.2270  0.0660  0.0883
  367TMC3     C 5494   1.119   0.917  15.114  0.7762  0.0990 -0.0950
  367TMC3     O 5495   1.041   0.860  15.043  0.0809  0.0614 -0.1455
  367TMC3     H 5496   1.265   1.095  15.274  1.9513 -1.6616 -0.9527
  367TMC3    H1 5497   0.953   1.050  14.980  2.0227 -1.8633 -1.0682
  367TMC3    H2 5498   1.145   1.428  15.023  2.0398  1.4199  4.3143
  367TMC3    C7 5499   0.969   1.303  14.882 -0.7103  0.1545  0.0444
  367TMC3    C8 5500   1.318   1.357  15.213  0.4027  0.6081  0.9519
  367TMC3    O1 5501   1.029   1.396  14.833  0.1078  0.1236  0.6258
  367TMC3    O2 5502   1.350   1.456  15.143 -0.0895 -0.1084  0.3006
  368MPD2     C 5503   3.029   2.489  13.236  0.7877 -0.3255 -0.4380
  368MPD2    C1 5504   3.011   2.459  13.105 -0.0180  1.3536  0.8742
  368MPD2    C2 5505   3.110   2.508  13.016  0.1444 -0.1704 -0.3533
  368MPD2    C3 5506   3.216   2.594  13.057 -0.1500  0.2578  0.3055
  368MPD2    C4 5507   3.230   2.609  13.194 -0.1840  0.5080  0.1324
  368MPD2    C5 5508   3.130   2.560  13.278 -0.1994  0.4986 -0.3923
  368MPD2     H 5509   3.109   2.494  12.909 -2.3554 -2.4618 -0.0089
  368MPD2    H1 5510   3.311   2.668  13.235 -0.8031 -1.0581  3.6261
  368MPD2    H2 5511   2.965   2.453  13.316 -0.2800 -0.5566 -1.4011
  368MPD2    H3 5512   3.140   2.581  13.384 -0.7311 -2.2976  0.1977
  368MPD2     N 5513   3.319   2.657  12.977  0.0560  0.1947 -0.6714
  368MPD2    H5 5514   3.390   2.716  13.019  0.6883 -1.3190  0.4069
  368MPD2    N1 5515   2.895   2.390  13.067  0.1983  0.3796 -0.1486
  368MPD2    H7 5516   2.830   2.360  13.139  0.8151 -3.9192 -1.3635
  369TMC3    C1 5517   2.727   2.325  12.908  0.8243  0.4680 -0.0990
  369TMC3    C2 5518   2.664   2.388  12.800  0.0266  0.5446 -0.6310
  369TMC3    C3 5519   2.531   2.429  12.829 -0.5002  0.5813 -0.2792
  369TMC3    C4 5520   2.660   2.290  13.024 -0.1475 -0.9221  0.2356
  369TMC3    C5 5521   2.524   2.325  13.034  0.0792  0.0537 -0.3265
  369TMC3    C6 5522   2.454   2.393  12.936 -0.0076  0.4998  0.0734
  369TMC3     C 5523   2.862   2.377  12.931  0.2748  0.1169 -0.0267
  369TMC3     O 5524   2.919   2.414  12.829  0.0364 -0.5224 -0.4283
  369TMC3     H 5525   2.721   2.426  12.716 -0.4194 -0.8703 -1.5638
  369TMC3    H1 5526   2.714   2.229  13.095  0.4852 -0.5693  0.0565
  369TMC3    H2 5527   2.372   2.455  12.970 -1.4055 -1.1329 -0.3167
  369TMC3    C7 5528   2.453   2.257  13.142 -0.0456  0.4696 -0.0905
  369TMC3    C8 5529   2.502   2.555  12.767  0.5624 -0.2207  0.3078
  369TMC3    O1 5530   2.519   2.198  13.228 -0.3548 -0.4663 -0.1793
  369TMC3    O2 5531   2.592   2.620  12.719 -0.2630 -0.3406 -0.0531
  370TMC3    C1 5532   2.004   3.264  16.135 -0.1790 -0.1752 -0.3596
  370TMC3    C2 5533   1.906   3.211  16.211  0.4555  0.7044 -0.5833
  370TMC3    C3 5534   1.872   3.078  16.199  0.2922  0.0876 -1.6928
  370TMC3    C4 5535   2.049   3.192  16.032 -0.1140  0.0168 -0.0171
  370TMC3    C5 5536   2.018   3.058  16.016 -0.5883 -1.0458  0.8797
  370TMC3    C6 5537   1.927   2.997  16.103 -0.6617  0.5473 -0.4155
  370TMC3     C 5538   2.110   3.338  16.208  0.2920 -0.3909 -0.6124
  370TMC3     O 5539   2.107   3.331  16.333  0.6075 -0.4626 -0.1113
  370TMC3     H 5540   1.868   3.275  16.290 -1.1038 -0.4484 -0.3992
  370TMC3    H1 5541   2.118   3.232  15.958 -1.6631  1.9589 -0.4133
  370TMC3    H2 5542   1.897   2.894  16.090  0.1981  0.2428  0.0418
  370TMC3    C7 5543   2.068   2.976  15.904  0.3165  0.2937  0.2687
  370TMC3    C8 5544   1.803   3.017  16.313 -0.3006  1.2428  0.5360
  370TMC3    O1 5545   2.081   3.039  15.800 -0.2200 -0.9082 -0.2985
  370TMC3    O2 5546   1.832   2.900  16.337  0.3973  0.0558 -0.1700
  371TMC3    C1 5547   3.269   1.556  15.197  1.0627 -0.5220 -0.0342
  371TMC3    C2 5548   3.135   1.528  15.185 -0.0439  0.0294  0.2890
  371TMC3    C3 5549   3.050   1.633  15.212  0.3207  0.1941 -0.7564
  371TMC3    C4 5550   3.322   1.683  15.202 -0.2828  0.2671  0.1676
  371TMC3    C5 5551   3.232   1.782  15.224  0.3571 -0.3354 -0.0009
  371TMC3    C6 5552   3.098   1.763  15.236  0.8249 -0.4649  0.4785
  371TMC3     C 5553   3.364   1.452  15.230  0.8055 -0.1009  0.2778
  371TMC3     O 5554   3.483   1.480  15.240 -0.6837 -0.5505 -0.0237
  371TMC3     H 5555   3.097   1.432  15.152  0.5642  0.1191 -0.6967
  371TMC3    H1 5556   3.427   1.707  15.187  0.4372 -0.9619  3.2125
  371TMC3    H2 5557   3.039   1.853  15.251  0.7901 -0.6882  1.7149
  371TMC3    C7 5558   3.282   1.921  15.231  0.6988 -0.3061 -0.3890
  371TMC3    C8 5559   2.917   1.592  15.255  0.2784  1.4441 -0.3658
  371TMC3    O1 5560   3.204   2.007  15.195  0.3622  0.4318 -0.3521
  371TMC3    O2 5561   2.894   1.471  15.264  0.3493  0.3500 -0.3629
  372MPD2     C 5562   2.534   2.619  13.261  0.4589 -0.4704  0.3917
  372MPD2    C1 5563   2.667   2.627  13.292  0.2950  0.1902  0.0441
  372MPD2    C2 5564   2.715   2.566  13.409 -0.6400 -0.1241 -0.0151
  372MPD2    C3 5565   2.628   2.489  13.487  0.0932  0.0682 -0.2240
  372MPD2    C4 5566   2.497   2.484  13.457 -0.3921  0.2866 -0.0095
  372MPD2    C5 5567   2.451   2.553  13.350 -0.1690 -0.2050  0.2135
  372MPD2     H 5568   2.818   2.575  13.439 -0.6816 -0.4215  0.2064
  372MPD2    H1 5569   2.429   2.413  13.503 -1.1876  0.8632 -0.2937
  372MPD2    H2 5570   2.481   2.669  13.180  0.8450 -0.9299 -0.1424
  372MPD2    H3 5571   2.346   2.545  13.325 -0.5893  0.6874  1.6290
  372MPD2     N 5572   2.690   2.410  13.592  0.7046  0.3701  0.0460
  372MPD2    H5 5573   2.789   2.426  13.609  0.4031  1.0618  1.1048
  372MPD2    N1 5574   2.760   2.700  13.217 -1.0858 -0.3288 -0.1701
  372MPD2    H7 5575   2.850   2.718  13.260 -1.4188  1.5770 -0.2540
  373TMC3    C1 5576   2.722   2.261  13.768 -0.2849 -0.8242 -0.1152
  373TMC3    C2 5577   2.691   2.279  13.900 -0.4482  0.2719 -0.0699
  373TMC3    C3 5578   2.784   2.230  13.988  0.3496 -1.0900  0.4558
  373TMC3    C4 5579   2.829   2.184  13.721  0.3399  0.4084  0.4848
  373TMC3    C5 5580   2.918   2.140  13.813  0.3585  0.2883  0.1573
  373TMC3    C6 5581   2.892   2.152  13.948 -0.1334  0.9637  0.4621
  373TMC3     C 5582   2.628   2.326  13.676 -0.2271  0.2265  0.5412
  373TMC3     O 5583   2.507   2.312  13.694  0.8449 -0.4454  0.4780
  373TMC3     H 5584   2.603   2.334  13.932 -1.2783  0.0820 -2.0030
  373TMC3    H1 5585   2.847   2.166  13.616 -0.3048 -0.4328  0.5171
  373TMC3    H2 5586   2.953   2.101  14.021  2.3219  1.4253 -1.2754
  373TMC3    C7 5587   3.020   2.057  13.768 -0.2740  0.1079  0.0619
  373TMC3    C8 5588   2.807   2.298  14.118 -0.1832 -0.3407 -0.1481
  373TMC3    O1 5589   3.001   2.012  13.653 -0.0665 -0.8757 -0.1489
  373TMC3    O2 5590   2.822   2.230  14.216 -0.0570 -0.1673  0.1262
  374TMC3    C1 5591   0.403   2.699   8.958  0.0025  0.1376 -0.0386
  374TMC3    C2 5592   0.402   2.805   9.044 -0.1545  0.2560 -0.4298
  374TMC3    C3 5593   0.311   2.815   9.139  0.1241  0.4747  0.2509
  374TMC3    C4 5594   0.300   2.616   8.957  0.2330 -0.2952 -0.2850
  374TMC3    C5 5595   0.201   2.629   9.057 -0.1208  0.2463 -0.2440
  374TMC3    C6 5596   0.199   2.739   9.146  0.8392  0.7373 -0.1389
  374TMC3     C 5597   0.521   2.683   8.873  0.2452  0.1007  0.2083
  374TMC3     O 5598   0.604   2.769   8.846  0.0052 -0.7054 -0.3291
  374TMC3     H 5599   0.490   2.868   9.033 -0.5909  0.8996 -0.2198
  374TMC3    H1 5600   0.290   2.539   8.881  1.2258 -1.3717  0.6712
  374TMC3    H2 5601   0.118   2.753   9.218 -0.0891 -1.7522 -0.7189
  374TMC3    C7 5602   0.092   2.531   9.054  0.2575  0.5190 -0.2298
  374TMC3    C8 5603   0.332   2.920   9.229 -0.8812 -0.2516 -0.7385
  374TMC3    O1 5604   0.112   2.422   9.000  0.6363 -0.1128 -1.0207
  374TMC3    O2 5605   0.393   3.020   9.189 -0.0502 -0.3021 -0.2970
  375MPD2     C 5606   3.464   3.301  17.006 -0.2857 -0.2145  0.1563
  375MPD2    C1 5607   3.354   3.314  16.919 -0.5704 -0.1001  0.6019
  375MPD2    C2 5608   3.375   3.299  16.784 -0.4880 -0.6330 -0.0800
  375MPD2    C3 5609   3.505   3.271  16.742  0.0445 -0.1707  0.0958
  375MPD2    C4 5610   3.612   3.257  16.826  0.0059 -0.2770 -0.1353
  375MPD2    C5 5611   3.590   3.278  16.961  0.0399  0.2479 -0.3222
  375MPD2     H 5612   3.293   3.298  16.713  0.5209 -0.6817 -1.2471
  375MPD2    H1 5613   3.714   3.233  16.797 -0.1419 -0.8751 -0.1731
  375MPD2    H2 5614   3.454   3.310  17.113 -0.6067 -0.1720  0.1251
  375MPD2    H3 5615   3.671   3.270  17.033  0.5947  1.7835 -0.7702
  375MPD2     N 5616   3.531   3.244  16.610  0.3307 -0.1692 -0.1714
  375MPD2    H5 5617   3.626   3.215  16.588  0.0091 -0.9878 -0.4927
  375MPD2    N1 5618   3.222   3.339  16.956 -0.3124  0.3215  0.1658
  375MPD2    H7 5619   3.148   3.360  16.889  0.0934 -0.7770 -0.6233
  376TMC3    C1 5620   3.501   3.227  16.369 -0.1445 -0.0882  0.3524
  376TMC3    C2 5621   3.638   3.223  16.347 -0.4948 -0.2512 -0.6851
  376TMC3    C3 5622   3.679   3.238  16.218 -0.5954  0.1014  0.2735
  376TMC3    C4 5623   3.409   3.261  16.270 -0.4497  0.4367 -0.2261
  376TMC3    C5 5624   3.467   3.284  16.143  0.1211  0.1533  0.8104
  376TMC3    C6 5625   3.599   3.274  16.112  0.7323  0.5361 -0.6325
  376TMC3     C 5626   3.446   3.265  16.502  0.0817  0.1381 -0.6005
  376TMC3     O 5627   3.337   3.325  16.496 -0.0840 -0.3664 -0.4308
  376TMC3     H 5628   3.697   3.223  16.438 -0.2702  1.5116 -0.8322
  376TMC3    H1 5629   3.304   3.276  16.289 -0.2795  1.5289 -0.1233
  376TMC3    H2 5630   3.640   3.320  16.023 -0.2507  1.9128 -0.3541
  376TMC3    C7 5631   3.394   3.352  16.036  0.0056  0.6187  0.1024
  376TMC3    C8 5632   3.819   3.259  16.190 -0.3158 -0.3747  0.2847
  376TMC3    O1 5633   3.459   3.390  15.940 -0.6310  0.3121  0.3658
  376TMC3    O2 5634   3.835   3.294  16.076 -0.8144 -0.0800 -0.1743
  377MPD2     C 5635   2.022   2.701  12.294  0.3465 -0.1857  0.5301
  377MPD2    C1 5636   2.025   2.833  12.276  0.0830 -0.8999 -0.5553
  377MPD2    C2 5637   1.915   2.909  12.318  0.0973  0.8191 -0.3759
  377MPD2    C3 5638   1.807   2.843  12.377 -0.5280 -0.1243  0.4484
  377MPD2    C4 5639   1.809   2.710  12.397 -0.2652 -0.1617 -0.1560
  377MPD2    C5 5640   1.911   2.639  12.341 -0.9491  0.0341  0.4039
  377MPD2     H 5641   1.916   3.017  12.317 -0.5303  0.8241 -0.8808
  377MPD2    H1 5642   1.741   2.647  12.454 -0.5653  0.5376  0.2499
  377MPD2    H2 5643   2.103   2.640  12.256  0.0228 -1.1755  1.4286
  377MPD2    H3 5644   1.910   2.530  12.340 -0.0663  0.0501 -2.1191
  377MPD2     N 5645   1.702   2.902  12.454 -0.4099  0.1325 -0.7427
  377MPD2    H5 5646   1.640   2.838  12.500 -0.7738  1.8543  1.1685
  377MPD2    N1 5647   2.143   2.897  12.218 -0.3126 -0.9075 -0.8979
  377MPD2    H7 5648   2.231   2.848  12.213  0.4168  0.2465  0.8579
  378TMC3    C1 5649   2.399   3.155  11.934  0.1743  0.0611  0.1130
  378TMC3    C2 5650   2.277   3.113  11.976 -0.1844  0.3331  0.0033
  378TMC3    C3 5651   2.275   3.048  12.102 -0.1877 -0.3367 -0.2656
  378TMC3    C4 5652   2.514   3.122  11.986  0.1013 -0.1214  0.4040
  378TMC3    C5 5653   2.506   3.052  12.108 -0.5271  0.1837  0.0922
  378TMC3    C6 5654   2.389   3.017  12.171  0.4693 -0.0469 -0.0401
  378TMC3     C 5655   2.392   3.250  11.826 -0.6347 -0.2390 -0.6119
  378TMC3     O 5656   2.284   3.301  11.813 -0.9006 -0.1947 -0.1705
  378TMC3     H 5657   2.185   3.134  11.923  0.4797  1.1388 -0.8271
  378TMC3    H1 5658   2.608   3.172  11.967  0.4748 -0.6853  0.7593
  378TMC3    H2 5659   2.389   2.977  12.272  1.2465 -2.8530 -1.1516
  378TMC3    C7 5660   2.628   3.033  12.186  0.2918 -0.0662  0.4940
  378TMC3    C8 5661   2.141   3.020  12.153 -0.9807  0.0426 -0.2381
  378TMC3    O1 5662   2.621   3.026  12.303 -0.1687 -0.6287 -0.2225
  378TMC3    O2 5663   2.046   3.079  12.108 -0.1836  0.6028  0.3530
  379MPD2     C 5664   1.792   1.301  16.529 -0.2426 -0.0071  0.4132
  379MPD2    C1 5665   1.897   1.238  16.470 -0.4901  0.9536 -0.0030
  379MPD2    C2 5666   1.997   1.188  16.556  0.4866 -0.0024  0.2138
  379MPD2    C3 5667   1.998   1.230  16.687  0.6598  0.8648 -0.0217
  379MPD2    C4 5668   1.890   1.300  16.738 -1.0145 -0.4194 -0.3382
  379MPD2    C5 5669   1.787   1.338  16.658  0.3739 -0.0449 -0.5006
  379MPD2     H 5670   2.075   1.131  16.507 -0.9882 -0.8153 -1.1740
  379MPD2    H1 5671   1.891   1.328  16.843  0.5821 -0.1989 -0.4175
  379MPD2    H2 5672   1.701   1.326  16.476  0.1623  0.7811  0.0919
  379MPD2    H3 5673   1.705   1.402  16.689  0.0042 -0.9367  0.3472
  379MPD2     N 5674   2.113   1.214  16.779 -0.1072 -0.6068  0.2949
  379MPD2    H5 5675   2.117   1.260  16.870 -0.5328  0.2572 -0.1128
  379MPD2    N1 5676   1.902   1.212  16.328  0.3537  0.2408 -0.3348
  379MPD2    H7 5677   1.975   1.150  16.295  1.8433  0.9995  1.5050
  380TMC3    C1 5678   1.870   1.274  16.098 -0.0022 -0.5467  0.1633
  380TMC3    C2 5679   1.937   1.167  16.056 -0.0892  0.0972 -0.1949
  380TMC3    C3 5680   1.947   1.139  15.924 -0.5273 -0.7824  0.3441
  380TMC3    C4 5681   1.808   1.358  16.008  0.3804  0.7504  0.1812
  380TMC3    C5 5682   1.823   1.324  15.873 -0.8940  0.0983  0.5524
  380TMC3    C6 5683   1.884   1.212  15.826 -0.8370  0.2335  0.2661
  380TMC3     C 5684   1.836   1.292  16.238  0.5396 -0.9087 -0.3050
  380TMC3     O 5685   1.762   1.385  16.256  0.2572 -0.5169  0.1441
  380TMC3     H 5686   1.972   1.091  16.126  2.5724  0.4565 -1.1480
  380TMC3    H1 5687   1.767   1.455  16.035  0.4077  1.0031 -0.7035
  380TMC3    H2 5688   1.902   1.193  15.721 -2.0738  1.5975 -0.1935
  380TMC3    C7 5689   1.773   1.418  15.777 -0.6979 -0.2112 -0.4657
  380TMC3    C8 5690   2.044   1.047  15.872  0.7385 -0.6076 -0.0534
  380TMC3    O1 5691   1.791   1.534  15.803 -0.3932  0.2733  0.1126
  380TMC3    O2 5692   2.028   1.016  15.755 -0.0065  0.5505  0.2454
  381TMC3    C1 5693   1.856   2.319  16.276 -1.1203 -0.0602  0.0516
  381TMC3    C2 5694   1.899   2.436  16.230  0.2061  0.2785  0.0889
  381TMC3    C3 5695   1.941   2.532  16.320  0.2182  0.0928 -0.3147
  381TMC3    C4 5696   1.854   2.288  16.413 -0.2155  0.5280  0.7327
  381TMC3    C5 5697   1.884   2.391  16.498  0.1584 -0.4419  0.2069
  381TMC3    C6 5698   1.937   2.514  16.458 -0.8108 -0.5886  0.5480
  381TMC3     C 5699   1.881   2.211  16.184 -0.5988 -0.0476 -0.2601
  381TMC3     O 5700   1.943   2.237  16.084  0.5544 -0.2571  0.4280
  381TMC3     H 5701   1.891   2.463  16.126 -3.1963 -2.9207 -0.4701
  381TMC3    H1 5702   1.849   2.185  16.448 -2.5262  1.0734  1.9862
  381TMC3    H2 5703   1.985   2.579  16.531 -0.0676 -1.2971  0.7002
  381TMC3    C7 5704   1.856   2.364  16.638 -0.6045  0.5630 -0.1561
  381TMC3    C8 5705   2.038   2.623  16.268  0.0151  0.1391  0.0001
  381TMC3    O1 5706   1.853   2.242  16.663 -0.7327 -0.0199 -0.3644
  381TMC3    O2 5707   2.054   2.615  16.149  0.2156 -0.1118 -0.0909
  382MPD2     C 5708   1.350   0.027  16.732  0.3427  0.2848 -0.0199
  382MPD2    C1 5709   1.287   0.045  16.850  0.2895 -0.0762  0.3613
  382MPD2    C2 5710   1.220   4.660  16.902  0.3870  0.8567 -0.0326
  382MPD2    C3 5711   1.234   4.531  16.844  0.0297  0.6429 -0.3139
  382MPD2    C4 5712   1.293   4.507  16.721 -0.2266 -0.0422  0.2248
  382MPD2    C5 5713   1.357   4.618  16.671 -0.6497 -0.6752 -0.0268
  382MPD2     H 5714   1.157   4.677  16.988 -0.1547  0.0931 -0.2809
  382MPD2    H1 5715   1.297   4.412  16.669  1.6880  0.9094 -1.3418
  382MPD2    H2 5716   1.397   0.107  16.675 -3.1630  2.3031 -0.0388
  382MPD2    H3 5717   1.418   4.608  16.582  0.8705 -0.2740  0.9753
  382MPD2     N 5718   1.179   4.421  16.910  0.5392 -0.0781  0.5394
  382MPD2    H5 5719   1.164   4.340  16.852  1.2729  0.1113  0.0792
  382MPD2    N1 5720   1.276   0.166  16.922  0.8203 -0.7014 -0.0822
  382MPD2    H7 5721   1.233   0.167  17.014 -1.3013 -0.2051 -1.0840
  383TMC3    C1 5722   1.063   4.306  17.085 -0.3948  0.8299  0.4836
  383TMC3    C2 5723   0.962   4.254  17.001 -0.0245  0.6138  0.3721
  383TMC3    C3 5724   0.840   4.198  17.060 -0.6089 -0.5797  0.1400
  383TMC3    C4 5725   1.051   4.292  17.221 -0.9025  0.0236 -0.3909
  383TMC3    C5 5726   0.937   4.240  17.277 -0.7415  0.3917  0.2595
  383TMC3    C6 5727   0.834   4.191  17.195  0.5249  0.0737 -0.4731
  383TMC3     C 5728   1.147   4.413  17.041 -0.3920 -0.0152  0.2269
  383TMC3     O 5729   1.189   4.490  17.130 -0.4773 -0.4479 -0.1113
  383TMC3     H 5730   0.960   4.267  16.893  1.7139 -0.9479  0.1616
  383TMC3    H1 5731   1.134   4.321  17.284  0.2160  0.6714 -2.1533
  383TMC3    H2 5732   0.755   4.138  17.248 -0.5676 -0.0766 -2.2546
  383TMC3    C7 5733   0.947   4.200  17.415  0.1270 -0.1598 -0.3589
  383TMC3    C8 5734   0.745   4.139  16.971  0.2129 -0.1018 -0.9612
  383TMC3    O1 5735   0.888   4.098  17.445  0.0712  0.2852 -0.4217
  383TMC3    O2 5736   0.782   4.125  16.857 -0.2340  0.1418 -0.3019
  384MPD2     C 5737   2.944   0.955  11.568  0.2867 -0.0723 -0.1006
  384MPD2    C1 5738   2.890   0.882  11.672 -0.0782  0.2970  0.3867
  384MPD2    C2 5739   2.975   0.803  11.745 -0.6111 -0.1157  0.0606
  384MPD2    C3 5740   3.112   0.802  11.726 -0.4866  0.0259 -0.1683
  384MPD2    C4 5741   3.164   0.887  11.631  0.4510 -0.6233 -0.4047
  384MPD2    C5 5742   3.077   0.956  11.551 -0.2056  0.2333  0.2530
  384MPD2     H 5743   2.922   0.751  11.824 -1.0511 -0.5536 -0.5172
  384MPD2    H1 5744   3.269   0.892  11.604  0.4303  0.7271 -0.2689
  384MPD2    H2 5745   2.883   1.012  11.498  0.2860 -2.8796 -2.3767
  384MPD2    H3 5746   3.118   1.009  11.465 -0.2217 -0.1129  0.0313
  384MPD2     N 5747   3.180   0.734  11.824  0.0288  0.6447  0.7134
  384MPD2    H5 5748   3.122   0.718  11.905 -1.8719  0.1816 -0.7459
  384MPD2    N1 5749   2.751   0.870  11.702  0.4608  0.0068 -0.0314
  384MPD2    H7 5750   2.716   0.800  11.766  0.7416  0.3299  0.4750
  385TMC3    C1 5751   3.351   0.658  11.966  0.2147 -0.7567 -0.2452
  385TMC3    C2 5752   3.395   0.528  11.961 -0.3403 -0.4823 -0.1406
  385TMC3    C3 5753   3.344   0.436  12.049 -0.8671 -0.4268  0.4815
  385TMC3    C4 5754   3.262   0.698  12.056  0.5869 -0.9571  0.5440
  385TMC3    C5 5755   3.210   0.602  12.145 -0.6996 -0.0171  0.5544
  385TMC3    C6 5756   3.259   0.472  12.147  0.2654  0.3941 -0.1621
  385TMC3     C 5757   3.319   0.716  11.834 -0.7428  0.2131  0.0444
  385TMC3     O 5758   3.414   0.739  11.751 -0.1232  0.4507 -0.3693
  385TMC3     H 5759   3.471   0.507  11.886 -2.2245 -0.0253 -2.1861
  385TMC3    H1 5760   3.223   0.798  12.048 -1.8167 -1.7829  1.8740
  385TMC3    H2 5761   3.216   0.393  12.207  1.2290 -0.6760 -0.8936
  385TMC3    C7 5762   3.065   0.629  12.170  0.2624  0.1775 -0.1432
  385TMC3    C8 5763   3.394   0.295  12.058  0.6226  0.2367 -0.4760
  385TMC3    O1 5764   3.024   0.723  12.102 -0.7286 -0.3431 -0.2357
  385TMC3    O2 5765   3.341   0.226  12.146 -0.0630  0.4873  0.3217
  386TMC3    C1 5766   3.625   3.059  12.024 -0.3507  0.2209 -0.5255
  386TMC3    C2 5767   3.589   3.039  11.896  0.6915  0.3149  0.1431
  386TMC3    C3 5768   3.453   3.050  11.862  0.0866 -0.4906 -0.5736
  386TMC3    C4 5769   3.544   3.106  12.123  0.6998  0.4646  0.3646
  386TMC3    C5 5770   3.411   3.118  12.090  0.4532  0.8564  0.5312
  386TMC3    C6 5771   3.366   3.101  11.961 -0.1527  0.3881  0.1784
  386TMC3     C 5772   3.760   3.023  12.056 -0.3107  0.0991  0.4087
  386TMC3     O 5773   3.820   3.106  12.127  0.0174 -0.4520 -0.2135
  386TMC3     H 5774   3.669   3.013  11.828  0.2824 -0.8087  0.0871
  386TMC3    H1 5775   3.581   3.115  12.224 -0.0600  0.9176  0.6069
  386TMC3    H2 5776   3.261   3.098  11.938 -0.3220  0.8946  0.8828
  386TMC3    C7 5777   3.315   3.156  12.191  0.3335  0.5456 -1.0490
  386TMC3    C8 5778   3.398   3.015  11.734  0.3631 -0.9669 -0.2155
  386TMC3    O1 5779   3.221   3.225  12.152 -0.1601 -0.2445 -0.0349
  386TMC3    O2 5780   3.276   3.028  11.711  0.4252 -0.0082 -0.4191
  387MPD2     C 5781   0.878   2.834   9.856 -0.2826 -0.3650  0.6018
  387MPD2    C1 5782   0.948   2.881   9.744 -0.3118  0.7384 -0.4288
  387MPD2    C2 5783   0.952   2.810   9.626  0.1968  1.1379 -0.3540
  387MPD2    C3 5784   0.902   2.681   9.621  0.5545  0.3416 -1.0668
  387MPD2    C4 5785   0.833   2.633   9.727  0.0559  0.2979 -0.0177
  387MPD2    C5 5786   0.817   2.708   9.840  0.2023 -0.5537  0.5842
  387MPD2     H 5787   1.015   2.847   9.545  0.5748 -0.2501 -0.6876
  387MPD2    H1 5788   0.796   2.532   9.740  0.0297  0.2956 -0.1081
  387MPD2    H2 5789   0.866   2.881   9.953  2.4777  0.7715  0.4054
  387MPD2    H3 5790   0.759   2.659   9.918  4.0627 -1.9698  2.5582
  387MPD2     N 5791   0.947   2.595   9.509 -0.1288 -0.3824  0.2900
  387MPD2    H5 5792   1.008   2.629   9.436 -0.4693  0.2860  0.3239
  387MPD2    N1 5793   1.024   2.997   9.754 -0.2665 -0.1340 -0.7140
  387MPD2    H7 5794   1.060   3.028   9.664 -1.0558 -0.6887 -1.2216
  388TMC3    C1 5795   1.194   3.141   9.857 -0.0651  0.4941  0.1115
  388TMC3    C2 5796   1.253   3.179   9.975 -0.1917 -0.2671 -0.0888
  388TMC3    C3 5797   1.377   3.227   9.967  0.3606 -0.8596 -0.1237
  388TMC3    C4 5798   1.267   3.135   9.739 -0.0568  0.9886  0.1311
  388TMC3    C5 5799   1.399   3.175   9.734 -0.7184 -0.3501 -0.1825
  388TMC3    C6 5800   1.452   3.230   9.853  0.4749 -0.1990 -0.0686
  388TMC3     C 5801   1.067   3.067   9.870  0.3959 -0.5025 -0.0351
  388TMC3     O 5802   1.011   3.062   9.980  0.0256  0.0151 -0.4306
  388TMC3     H 5803   1.185   3.197  10.058  1.1482  1.0258  0.7221
  388TMC3    H1 5804   1.221   3.100   9.647  0.3330  0.0130  0.3086
  388TMC3    H2 5805   1.560   3.236   9.861  0.3175  0.7964  1.3384
  388TMC3    C7 5806   1.490   3.092   9.666 -0.4100 -0.0894 -0.0167
  388TMC3    C8 5807   1.425   3.318  10.072 -0.4323 -0.6953 -0.1823
  388TMC3    O1 5808   1.598   3.141   9.635  0.3160 -0.6603 -0.0159
  388TMC3    O2 5809   1.518   3.388  10.037 -0.4826  0.2150  0.1968
  389MPD2     C 5810   0.979   0.807  10.506  0.5149 -0.3006  0.2281
  389MPD2    C1 5811   0.844   0.773  10.473  0.5845  0.3137 -0.6958
  389MPD2    C2 5812   0.746   0.755  10.574  0.4107  0.2673 -0.1515
  389MPD2    C3 5813   0.779   0.788  10.703  0.4410 -0.2746  0.4241
  389MPD2    C4 5814   0.909   0.833  10.731 -0.7076 -0.4453  0.9479
  389MPD2    C5 5815   1.005   0.841  10.635 -0.1041  0.2375  1.2907
  389MPD2     H 5816   0.645   0.741  10.539  0.8305 -2.5370 -0.2258
  389MPD2    H1 5817   0.923   0.860  10.835  0.6036  2.8008 -0.0927
  389MPD2    H2 5818   1.059   0.800  10.433  0.3366 -0.2253  0.0269
  389MPD2    H3 5819   1.110   0.863  10.653  0.3456 -1.0363  0.2615
  389MPD2     N 5820   0.686   0.776  10.814  0.5661  0.3392 -0.3839
  389MPD2    H5 5821   0.716   0.801  10.907 -2.9341 -1.8247  1.3327
  389MPD2    N1 5822   0.819   0.753  10.326  0.1417  0.3141 -0.1216
  389MPD2    H7 5823   0.903   0.770  10.271  0.1778 -0.1338 -0.2040
  390TMC3    C1 5824   0.471   0.759  10.911  0.3867 -0.4969 -0.7170
  390TMC3    C2 5825   0.359   0.684  10.925  0.1928 -0.0907  0.5416
  390TMC3    C3 5826   0.247   0.737  10.978  0.1300 -0.2737 -0.3956
  390TMC3    C4 5827   0.462   0.899  10.940 -0.0126  0.7219  0.2009
  390TMC3    C5 5828   0.347   0.938  11.003 -0.3672 -0.1724  0.1863
  390TMC3    C6 5829   0.239   0.860  11.025 -0.6677 -0.2894  0.3629
  390TMC3     C 5830   0.563   0.723  10.802  0.3917 -0.3479 -0.7624
  390TMC3     O 5831   0.515   0.650  10.713 -0.3501 -0.2986  0.5055
  390TMC3     H 5832   0.367   0.585  10.883 -3.0075 -0.7295  1.4410
  390TMC3    H1 5833   0.538   0.965  10.899 -0.9761  1.0848 -1.0341
  390TMC3    H2 5834   0.143   0.900  11.058  0.3206  0.1780  2.6595
  390TMC3    C7 5835   0.341   1.073  11.058 -0.2771 -0.5778 -0.2521
  390TMC3    C8 5836   0.141   0.640  10.988  0.0020  1.3867  0.5803
  390TMC3    O1 5837   0.418   1.152  11.006 -0.1435 -0.3491  0.3449
  390TMC3    O2 5838   0.158   0.523  10.951 -0.2754 -0.3421 -0.0607
  391MPD2     C 5839   4.455   2.340  10.558 -0.2597  0.0576 -0.0181
  391MPD2    C1 5840   4.587   2.347  10.606 -0.1693  0.1646 -0.3524
  391MPD2    C2 5841   4.672   2.426  10.534  0.4716 -0.7338  0.1818
  391MPD2    C3 5842   4.634   2.480  10.407 -0.6795 -0.4441  0.2811
  391MPD2    C4 5843   4.505   2.449  10.358  0.1417 -0.2115 -0.0348
  391MPD2    C5 5844   4.417   2.377  10.434  0.1718  0.9892 -0.5333
  391MPD2     H 5845   0.048   2.448  10.571  0.5821  1.1398 -1.2123
  391MPD2    H1 5846   4.473   2.454  10.255  0.4295  0.2066 -0.1035
  391MPD2    H2 5847   4.380   2.297  10.625 -2.3029  2.1652 -0.9416
  391MPD2    H3 5848   4.321   2.357  10.387  0.9750  1.3672 -2.3018
  391MPD2     N 5849   4.723   2.558  10.337 -0.1664  0.0797 -0.2949
  391MPD2    H5 5850   0.094   2.554  10.373  0.7653 -2.2841 -3.0409
  391MPD2    N1 5851   4.611   2.303  10.742 -0.9482  0.3738 -0.6613
  391MPD2    H7 5852   4.532   2.286  10.802 -0.9519 -2.7866 -1.5950
  392TMC3    C1 5853   0.083   2.709  10.177 -0.6996 -0.4515  0.3242
  392TMC3    C2 5854   0.082   2.742  10.044  0.0416  0.5489  0.3277
  392TMC3    C3 5855   0.156   2.841   9.996  0.0199 -0.0928 -0.6959
  392TMC3    C4 5856   0.151   2.784  10.268 -0.0899  0.5317  0.2511
  392TMC3    C5 5857   0.222   2.891  10.223  0.2364  0.6042  0.2816
  392TMC3    C6 5858   0.236   2.914  10.084 -0.6683  0.3201 -0.0848
  392TMC3     C 5859   4.696   2.632  10.222 -0.2556 -0.0205 -0.2729
  392TMC3     O 5860   4.602   2.638  10.142 -0.2952 -0.4976  0.4594
  392TMC3     H 5861   0.021   2.685   9.974  0.2402 -0.4428  0.9646
  392TMC3    H1 5862   0.140   2.774  10.375  0.8791 -1.1251  0.1918
  392TMC3    H2 5863   0.314   2.979  10.047  0.4225 -1.5791 -1.1259
  392TMC3    C7 5864   0.301   2.959  10.320  0.3592 -0.0401 -0.6282
  392TMC3    C8 5865   0.163   2.857   9.855 -0.5926  0.6776 -0.4446
  392TMC3    O1 5866   0.313   2.907  10.430  0.2593 -0.5322  0.7092
  392TMC3    O2 5867   0.117   2.774   9.775 -0.4229  0.2579 -0.5121
  393TMC3    C1 5868   3.089   0.200   9.976  0.0268 -0.9042  0.2047
  393TMC3    C2 5869   2.962   0.245  10.023 -0.0772 -0.0989  0.5253
  393TMC3    C3 5870   2.959   0.272  10.157  0.7769 -0.0394 -1.1060
  393TMC3    C4 5871   3.200   0.192  10.049 -0.1503 -0.4609 -0.4682
  393TMC3    C5 5872   3.185   0.222  10.177 -0.4438 -0.2690  0.1227
  393TMC3    C6 5873   3.066   0.264  10.238 -0.6429  0.5161 -0.3193
  393TMC3     C 5874   3.112   0.217   9.838  0.5522  0.0329 -0.5424
  393TMC3     O 5875   3.218   0.271   9.807 -0.1447 -0.1914 -0.5802
  393TMC3     H 5876   2.882   0.273   9.956 -0.3364  3.1069  2.1996
  393TMC3    H1 5877   3.296   0.175  10.001  1.0331  0.5218  1.5439
  393TMC3    H2 5878   3.057   0.292  10.342  1.1506  0.8012 -0.2442
  393TMC3    C7 5879   3.301   0.211  10.267 -0.4007 -0.0675 -0.4218
  393TMC3    C8 5880   2.834   0.321  10.213  0.3432 -0.3778  0.6249
  393TMC3    O1 5881   3.265   0.195  10.384 -0.4872 -0.4451 -0.4932
  393TMC3    O2 5882   2.842   0.360  10.327  0.0396  0.3117  0.0920
  394TMC3    C1 5883   0.686   0.761  10.120 -0.1260  0.7681  0.1785
  394TMC3    C2 5884   0.593   0.701  10.031 -0.8923  0.1056  0.0705
  394TMC3    C3 5885   0.582   0.758   9.909 -0.0833 -0.1930  0.1845
  394TMC3    C4 5886   0.758   0.870  10.079 -0.2479 -0.4406  0.1322
  394TMC3    C5 5887   0.738   0.925   9.952 -0.1852  0.4608 -0.5969
  394TMC3    C6 5888   0.661   0.855   9.860  0.0587 -0.1621 -0.1442
  394TMC3     C 5889   0.694   0.724  10.265  0.2776 -0.2147  0.0476
  394TMC3     O 5890   0.595   0.676  10.317 -0.5736  0.2830 -0.0330
  394TMC3     H 5891   0.524   0.624  10.061 -1.6153  1.1010  0.9640
  394TMC3    H1 5892   0.800   0.927  10.161 -1.5073 -0.9147  1.1017
  394TMC3    H2 5893   0.638   0.898   9.763 -0.5565  0.1029  0.1193
  394TMC3    C7 5894   0.784   1.066   9.931 -0.2000 -0.5447 -0.0335
  394TMC3    C8 5895   0.485   0.703   9.820 -0.4958  0.1845  0.3935
  394TMC3    O1 5896   0.724   1.132   9.849  0.0543  0.2398 -0.0658
  394TMC3    O2 5897   0.437   0.777   9.735  0.1191 -0.2763  0.1969
  395TMC3    C1 5898   4.472   3.213  14.119 -0.7032 -0.2818 -0.0803
  395TMC3    C2 5899   4.338   3.189  14.140 -0.6278  0.2041 -0.1608
  395TMC3    C3 5900   4.271   3.272  14.232  0.3500 -0.5077  0.5204
  395TMC3    C4 5901   4.519   3.330  14.163  0.1556 -0.3378 -0.3270
  395TMC3    C5 5902   4.446   3.423  14.226 -0.5820 -0.0283 -1.0017
  395TMC3    C6 5903   4.313   3.399  14.253 -0.2656  0.0979 -0.2217
  395TMC3     C 5904   4.554   3.116  14.185 -0.2496 -0.2569  0.5340
  395TMC3     O 5905   4.641   3.156  14.261  0.3509  0.2717  0.1603
  395TMC3     H 5906   4.284   3.101  14.107 -1.5961  2.5460 -4.7083
  395TMC3    H1 5907   4.625   3.349  14.154 -0.2267  1.7470 -0.3362
  395TMC3    H2 5908   4.252   3.454  14.323  1.0239  2.6909 -1.1633
  395TMC3    C7 5909   4.512   3.493  14.331  0.1613  0.4864  0.4389
  395TMC3    C8 5910   4.170   3.213  14.320 -0.0862  0.2028 -0.1453
  395TMC3    O1 5911   4.450   3.588  14.379 -0.3259 -0.2394  0.4496
  395TMC3    O2 5912   4.112   3.277  14.409  0.3858  0.3906 -0.5592
  396MPD2     C 5913   4.073   4.305  16.415 -0.0435  0.2129 -0.4109
  396MPD2    C1 5914   4.169   4.341  16.504  0.3117 -0.3036 -0.4733
  396MPD2    C2 5915   4.265   4.429  16.469 -0.5046  0.3205 -0.3898
  396MPD2    C3 5916   4.271   4.490  16.343  0.1266 -0.4470  0.3564
  396MPD2    C4 5917   4.168   4.464  16.253  0.2411 -0.2465 -0.2999
  396MPD2    C5 5918   4.068   4.377  16.298 -0.3512 -0.7667  0.8320
  396MPD2     H 5919   4.350   4.452  16.533  0.9143 -4.9891 -0.3880
  396MPD2    H1 5920   4.161   4.504  16.153 -2.0439  2.2928  0.8913
  396MPD2    H2 5921   3.991   4.236  16.436  0.3892 -0.0477  0.4250
  396MPD2    H3 5922   3.999   4.354  16.218 -0.2720  0.3131  0.4601
  396MPD2     N 5923   4.381   4.573  16.310 -0.7043  0.3746  0.2743
  396MPD2    H5 5924   4.456   4.591  16.377 -1.2277  0.6153  0.7984
  396MPD2    N1 5925   4.168   4.272  16.628  0.4785  0.1711 -0.2235
  396MPD2    H7 5926   4.105   4.192  16.630  3.5061 -2.1507  2.1683
  397TMC3    C1 5927   4.266   4.187  16.816 -0.9072 -0.5111 -0.2881
  397TMC3    C2 5928   4.392   4.153  16.773  0.4053  0.1324 -0.2636
  397TMC3    C3 5929   4.402   4.042  16.697  0.1695  0.1496  0.4248
  397TMC3    C4 5930   4.163   4.095  16.805 -0.0731  0.4014 -0.3104
  397TMC3    C5 5931   4.189   3.971  16.758 -0.1534  0.3835  0.2278
  397TMC3    C6 5932   4.308   3.939  16.700  0.2570 -0.0411 -0.1748
  397TMC3     C 5933   4.242   4.310  16.740  0.7032  0.2837  0.5014
  397TMC3     O 5934   4.309   4.412  16.767 -0.1621  0.1679 -0.2019
  397TMC3     H 5935   4.447   4.242  16.743  0.6781  0.1233  0.2020
  397TMC3    H1 5936   4.062   4.131  16.821 -0.1208  0.3819 -0.5559
  397TMC3    H2 5937   4.322   3.847  16.644  2.9883 -1.5292  2.9873
  397TMC3    C7 5938   4.091   3.869  16.771 -0.0138  0.1397 -0.1873
  397TMC3    C8 5939   4.450   4.070  16.558  0.3608  0.1824 -0.2914
  397TMC3    O1 5940   4.120   3.767  16.707  0.0633 -0.1496 -0.5789
  397TMC3    O2 5941   4.410   3.999  16.470  0.6279 -0.0727  0.0513
  398MPD2     C 5942   2.424   1.158   0.241  0.2204  0.3989 -0.2200
  398MPD2    C1 5943   2.477   1.032   0.262  0.1157  0.2386  0.2753
  398MPD2    C2 5944   2.615   1.023   0.275  0.5903 -0.1948 -0.1664
  398MPD2    C3 5945   2.700   1.127   0.274  0.8018  0.4252 -0.1164
  398MPD2    C4 5946   2.640   1.251   0.244 -0.0487  0.2189  0.2219
  398MPD2    C5 5947   2.506   1.260   0.230 -0.4940 -0.1877 -0.4753
  398MPD2     H 5948   2.645   0.924   0.307  0.2338 -0.2434  0.0147
  398MPD2    H1 5949   2.699   1.341   0.232 -0.6666  0.2964 -2.1629
  398MPD2    H2 5950   2.319   1.171   0.217  0.3270 -0.3820 -1.0931
  398MPD2    H3 5951   2.458   1.357   0.221  2.6582  1.1983 -2.1749
  398MPD2     N 5952   2.836   1.105   0.302  0.1476 -0.4926  0.3481
  398MPD2    H5 5953   2.859   1.010   0.330  1.0230 -0.7674 -1.3099
  398MPD2    N1 5954   2.402   0.912   0.264 -0.6156 -0.0621  0.1414
  398MPD2    H7 5955   2.447   0.821   0.267 -2.8456 -1.1780 -0.2173
  399TMC3    C1 5956   2.218   0.765   0.244 -0.1161  0.0289 -0.4077
  399TMC3    C2 5957   2.303   0.660   0.279 -0.2813  0.3009  1.0479
  399TMC3    C3 5958   2.255   0.530   0.282  0.6631 -0.2121  0.2646
  399TMC3    C4 5959   2.106   0.741   0.179  0.2695 -0.5141 -0.1682
  399TMC3    C5 5960   2.075   0.610   0.167 -0.5988 -0.2287  0.0683
  399TMC3    C6 5961   2.141   0.506   0.215  0.2815  0.3695 -0.3480
  399TMC3     C 5962   2.264   0.903   0.249 -0.2347  0.1286  0.1157
  399TMC3     O 5963   2.181   0.993   0.239 -0.1524  0.2373 -0.0500
  399TMC3     H 5964   2.392   0.682   0.337  0.4502 -2.9583  1.1269
  399TMC3    H1 5965   2.054   0.821   0.127 -2.6519 -2.3277 -0.0660
  399TMC3    H2 5966   2.109   0.403   0.204  0.6491  0.3007 -0.7796
  399TMC3    C7 5967   1.950   0.576   0.101 -0.3233  0.5677 -1.2781
  399TMC3    C8 5968   2.349   0.425   0.323 -0.1644  0.9500 -0.5038
  399TMC3    O1 5969   1.915   0.463   0.102  0.3343  0.3757 -0.4987
  399TMC3    O2 5970   2.456   0.467   0.366 -0.3107 -0.0190 -0.6260
  400TMC3    C1 5971   0.722   3.730  16.833  0.6676  0.6745  0.1044
  400TMC3    C2 5972   0.622   3.649  16.805  0.9759 -0.2849 -0.4473
  400TMC3    C3 5973   0.597   3.629  16.672  0.6377  0.1520  0.2615
  400TMC3    C4 5974   0.775   3.814  16.742  0.2597 -0.6331 -0.0053
  400TMC3    C5 5975   0.752   3.789  16.614 -0.3064 -0.4436 -0.1688
  400TMC3    C6 5976   0.667   3.689  16.570  0.7707 -0.0432  0.3258
  400TMC3     C 5977   0.757   3.742  16.976 -0.5001  0.9934 -0.3879
  400TMC3     O 5978   0.843   3.827  17.012 -0.5302 -0.0124  0.1912
  400TMC3     H 5979   0.543   3.616  16.872  2.2725 -2.5435 -0.0070
  400TMC3    H1 5980   0.851   3.876  16.788  0.9847  0.8006 -3.1641
  400TMC3    H2 5981   0.655   3.675  16.464  2.2003  0.6354  0.0817
  400TMC3    C7 5982   0.813   3.878  16.515 -0.0054  0.3490  0.2991
  400TMC3    C8 5983   0.467   3.566  16.643  0.1735 -0.2244 -0.0301
  400TMC3    O1 5984   0.800   3.855  16.398  0.0069 -0.4309  0.1816
  400TMC3    O2 5985   0.376   3.600  16.717  0.1005 -0.3115 -0.2905
  401MPD2     C 5986   3.857   3.211   0.466 -0.0881 -0.0441 -0.0194
  401MPD2    C1 5987   3.921   3.122   0.552  0.2678 -0.1105  0.3227
  401MPD2    C2 5988   3.884   2.986   0.553  0.2196 -0.0154 -1.4210
  401MPD2    C3 5989   3.778   2.947   0.478  0.4123  0.3280  0.3615
  401MPD2    C4 5990   3.699   3.035   0.415  0.2287  0.2224 -0.6301
  401MPD2    C5 5991   3.738   3.170   0.406 -0.0214 -0.6108  0.8089
  401MPD2     H 5992   3.940   2.911   0.608  1.4988 -0.0381 -2.7418
  401MPD2    H1 5993   3.609   2.998   0.367  0.2618 -2.1625  1.1486
  401MPD2    H2 5994   3.886   3.316   0.461 -0.5722  0.0942  0.0901
  401MPD2    H3 5995   3.683   3.243   0.348  1.6583  0.7334  0.9326
  401MPD2     N 5996   3.759   2.809   0.470 -0.0433  0.1547  0.0528
  401MPD2    H5 5997   3.800   2.745   0.537  1.0092 -1.1436 -1.8182
  401MPD2    N1 5998   4.037   3.171   0.614  0.6160  0.0460  1.0016
  401MPD2    H7 5999   4.050   3.269   0.592 -4.1010  0.5291  0.2766
  402TMC3    C1 6000   3.696   2.605   0.397  0.1799 -0.0881 -0.0003
  402TMC3    C2 6001   3.655   2.568   0.524 -0.0025 -0.5363  0.8072
  402TMC3    C3 6002   3.676   2.444   0.566  0.3727 -0.4657  0.3307
  402TMC3    C4 6003   3.756   2.515   0.316  0.3604 -0.3259 -0.6872
  402TMC3    C5 6004   3.771   2.382   0.359  0.4443 -0.0085  0.5314
  402TMC3    C6 6005   3.731   2.344   0.489 -0.1418 -0.1598 -0.4935
  402TMC3     C 6006   3.703   2.748   0.361  0.2446 -0.1266  0.4731
  402TMC3     O 6007   3.679   2.782   0.245  0.2647  0.6162 -0.4838
  402TMC3     H 6008   3.620   2.650   0.585 -0.2377 -0.3701  0.4514
  402TMC3    H1 6009   3.800   2.552   0.224 -1.1832 -0.6157 -1.5388
  402TMC3    H2 6010   3.755   2.247   0.530 -0.9323  1.0407  2.8211
  402TMC3    C7 6011   3.862   2.293   0.295  0.2453 -0.1780 -0.0044
  402TMC3    C8 6012   3.698   2.430   0.711 -0.0806  0.2181  0.5111
  402TMC3    O1 6013   3.831   2.171   0.296  0.2602  0.0533  0.3293
  402TMC3    O2 6014   3.743   2.324   0.742 -0.5628 -0.0764 -0.6977
  403MPD2     C 6015   2.578   1.014  12.757 -0.8691 -0.6757  0.0477
  403MPD2    C1 6016   2.498   1.000  12.866  0.1235 -0.4073  0.0855
  403MPD2    C2 6017   2.544   1.043  12.985 -0.3386  0.4369 -0.5710
  403MPD2    C3 6018   2.667   1.103  12.997 -0.1829  0.3115 -0.8680
  403MPD2    C4 6019   2.748   1.119  12.886  0.0727  0.1956 -0.2013
  403MPD2    C5 6020   2.704   1.067  12.768  0.1909  0.1546  0.5279
  403MPD2     H 6021   2.486   1.019  13.073  0.1577 -1.8795 -0.8569
  403MPD2    H1 6022   2.849   1.160  12.890 -0.5200  1.4200  2.3422
  403MPD2    H2 6023   2.553   0.978  12.658 -1.0353  0.9935 -0.5252
  403MPD2    H3 6024   2.777   1.068  12.688  0.2192 -0.4090  0.5424
  403MPD2     N 6025   2.719   1.114  13.124  0.2555  0.1990  0.1491
  403MPD2    H5 6026   2.651   1.104  13.199  0.0966 -0.1606 -0.0461
  403MPD2    N1 6027   2.382   0.917  12.848 -0.8183 -0.5375  0.3195
  403MPD2    H7 6028   2.352   0.890  12.755 -0.4480  1.0693 -0.2661
  404TMC3    C1 6029   2.183   0.802  12.891  0.4628 -0.1474  0.3631
  404TMC3    C2 6030   2.141   0.691  12.953 -0.2497 -0.1931 -0.2502
  404TMC3    C3 6031   2.069   0.606  12.873 -0.2033  0.0516 -0.2345
  404TMC3    C4 6032   2.153   0.835  12.767 -0.7306 -0.1541  0.4840
  404TMC3    C5 6033   2.106   0.740  12.682  0.2166 -0.9224  0.3802
  404TMC3    C6 6034   2.063   0.620  12.737  0.3392 -0.2995 -0.1548
  404TMC3     C 6035   2.297   0.872  12.949  0.2258  0.2939  0.3336
  404TMC3     O 6036   2.309   0.854  13.068  1.2571 -0.4637  0.8733
  404TMC3     H 6037   2.176   0.666  13.053 -1.2060  0.1251  0.1558
  404TMC3    H1 6038   2.184   0.932  12.731 -0.9152 -1.4312 -3.1805
  404TMC3    H2 6039   2.029   0.533  12.681  1.3761  0.2072 -1.5451
  404TMC3    C7 6040   2.077   0.771  12.544 -0.4358 -0.6441 -0.0231
  404TMC3    C8 6041   2.019   0.487  12.931  0.2238  0.8664 -0.2437
  404TMC3    O1 6042   2.101   0.887  12.507 -0.6720 -0.0870 -0.3274
  404TMC3    O2 6043   1.986   0.391  12.859 -0.4123  0.1722  0.3472
  405MPD2     C 6044   2.438   0.762  14.756  0.0180 -0.6591  0.6780
  405MPD2    C1 6045   2.401   0.766  14.620 -0.2560  0.1525 -0.5980
  405MPD2    C2 6046   2.452   0.873  14.546 -0.2583 -0.3642  0.1435
  405MPD2    C3 6047   2.539   0.960  14.598 -0.3702 -0.0514 -0.9596
  405MPD2    C4 6048   2.580   0.944  14.730 -0.2034  0.6894 -0.0653
  405MPD2    C5 6049   2.534   0.846  14.808 -0.0331  0.0137  0.2309
  405MPD2     H 6050   2.423   0.894  14.444  0.1980  0.1758  0.1269
  405MPD2    H1 6051   2.652   1.005  14.782 -0.7721 -0.2635  1.8549
  405MPD2    H2 6052   2.393   0.698  14.831 -1.2168 -0.0688  0.4478
  405MPD2    H3 6053   2.572   0.834  14.909  1.3670 -2.7093 -0.6122
  405MPD2     N 6054   2.601   1.059  14.512  0.2571 -0.4781  0.5876
  405MPD2    H5 6055   2.568   1.062  14.417 -2.5800  1.2123  1.6238
  405MPD2    N1 6056   2.315   0.662  14.572 -0.1652  0.3984  0.2297
  405MPD2    H7 6057   2.280   0.599  14.644  2.3520 -1.9243 -0.5363
  406TMC3    C1 6058   2.786   1.402  14.315 -0.0377  0.5442  0.0101
  406TMC3    C2 6059   2.794   1.344  14.187  0.1128  0.4675 -0.5892
  406TMC3    C3 6060   2.768   1.211  14.191  0.0527 -0.7788 -0.5120
  406TMC3    C4 6061   2.760   1.347  14.435 -0.0438  0.3192  0.4394
  406TMC3    C5 6062   2.748   1.214  14.433  0.8604 -0.1478  0.3632
  406TMC3    C6 6063   2.748   1.150  14.313  0.8019  0.4454 -0.2162
  406TMC3     C 6064   2.719   1.529  14.325 -0.1434  0.4627 -0.3308
  406TMC3     O 6065   2.767   1.620  14.391  0.0882 -0.4442 -0.2481
  406TMC3     H 6066   2.810   1.414  14.106  2.0485 -0.3510 -0.9206
  406TMC3    H1 6067   2.748   1.407  14.524  0.2796 -1.0977  1.4227
  406TMC3    H2 6068   2.723   1.045  14.312  3.6597 -0.2399  0.6735
  406TMC3    C7 6069   2.691   1.157  14.552 -0.3297 -0.4055  0.1367
  406TMC3    C8 6070   2.698   1.158  14.075  0.0736 -0.8598 -0.3185
  406TMC3    O1 6071   2.732   1.188  14.661 -0.5675 -0.3306 -0.0184
  406TMC3    O2 6072   2.676   1.240  13.988 -0.1446 -0.3371 -0.2708
  407MPD2     C 6073   0.520   2.580   9.520 -0.3836 -1.0322  0.2407
  407MPD2    C1 6074   0.592   2.672   9.449  0.0117 -0.6570  0.8665
  407MPD2    C2 6075   0.605   2.798   9.510  0.0729 -0.5410  0.5158
  407MPD2    C3 6076   0.560   2.832   9.636  0.0862  0.1722  0.7426
  407MPD2    C4 6077   0.483   2.745   9.702 -0.4631  0.5009 -0.0187
  407MPD2    C5 6078   0.465   2.622   9.641 -0.6734 -0.0245 -0.3510
  407MPD2     H 6079   0.671   2.861   9.451 -1.4351 -0.2146 -0.8436
  407MPD2    H1 6080   0.435   2.772   9.796  1.1537 -1.2730  1.3361
  407MPD2    H2 6081   0.491   2.479   9.494 -1.2192 -0.5090 -0.8898
  407MPD2    H3 6082   0.402   2.547   9.688 -2.1858 -0.9057 -3.7865
  407MPD2     N 6083   0.598   2.959   9.682 -0.4339 -0.2231  0.0161
  407MPD2    H5 6084   0.647   3.012   9.611  0.4886 -0.2407  0.6325
  407MPD2    N1 6085   0.655   2.638   9.328  0.1226 -0.0067  0.0282
  407MPD2    H7 6086   0.716   2.707   9.286  1.3815 -0.0758  1.7371
  408TMC3    C1 6087   0.767   2.502   9.173 -0.5017 -0.5292  1.0094
  408TMC3    C2 6088   0.805   2.380   9.141  0.3085 -0.1812  0.0133
  408TMC3    C3 6089   0.901   2.369   9.044 -0.4155  0.1415 -0.1788
  408TMC3    C4 6090   0.810   2.618   9.105  0.1272 -0.1261  0.8797
  408TMC3    C5 6091   0.902   2.608   9.004  0.3782 -0.0114 -0.5048
  408TMC3    C6 6092   0.946   2.481   8.979 -0.2147 -0.2252  0.4054
  408TMC3     C 6093   0.656   2.514   9.260  0.4494 -0.7861 -0.5429
  408TMC3     O 6094   0.596   2.411   9.291  0.7818  0.0221  0.9830
  408TMC3     H 6095   0.800   2.309   9.222 -1.2467 -1.8374 -1.5223
  408TMC3    H1 6096   0.770   2.718   9.113 -1.0406 -0.4820 -0.3543
  408TMC3    H2 6097   1.024   2.456   8.908  0.9421 -1.4805  2.1165
  408TMC3    C7 6098   0.971   2.726   8.958 -0.1830 -0.2923  0.6922
  408TMC3    C8 6099   0.961   2.240   9.024  0.2908  0.2974  0.5931
  408TMC3    O1 6100   0.969   2.823   9.034 -0.1946  0.1115  0.5862
  408TMC3    O2 6101   0.894   2.143   9.055  0.3319  0.4376 -0.5109
  409MPD2     C 6102   4.273   3.495  16.462  0.4112  1.0923  0.0046
  409MPD2    C1 6103   4.355   3.523  16.565  0.0310  0.0623  0.1719
  409MPD2    C2 6104   4.472   3.595  16.551  0.4767 -0.8140 -0.2146
  409MPD2    C3 6105   4.504   3.642  16.421 -0.3691 -0.3505 -0.1970
  409MPD2    C4 6106   4.416   3.613  16.317 -0.0004  0.4017 -0.0015
  409MPD2    C5 6107   4.300   3.543  16.337 -0.2068  0.7251  0.1503
  409MPD2     H 6108   4.536   3.612  16.636 -1.1672  0.6538  0.7370
  409MPD2    H1 6109   4.437   3.637  16.213 -0.1677  0.2001 -0.0820
  409MPD2    H2 6110   4.178   3.445  16.476  1.0374 -0.3529 -0.9161
  409MPD2    H3 6111   4.239   3.516  16.251  1.7626 -0.3460 -0.9127
  409MPD2     N 6112   4.619   3.722  16.387  0.1705 -0.1877 -0.3599
  409MPD2    H5 6113   4.639   3.746  16.291 -1.9122  1.0267 -0.5107
  409MPD2    N1 6114   4.326   3.476  16.697 -0.1181  0.2371 -0.2893
  409MPD2    H7 6115   4.400   3.491  16.764  0.7498  0.2942 -1.2548
  410TMC3    C1 6116   0.074   3.868  16.430 -0.1263 -0.1389 -0.5580
  410TMC3    C2 6117   0.151   3.923  16.524  0.1440  0.5342  0.1087
  410TMC3    C3 6118   0.272   3.969  16.488 -0.3085  0.2181  0.3595
  410TMC3    C4 6119   0.107   3.864  16.299  0.2503  0.5221  0.1215
  410TMC3    C5 6120   0.224   3.921  16.260 -0.1486  0.0014  0.3183
  410TMC3    C6 6121   0.312   3.977  16.354  0.5421  0.2210  0.0853
  410TMC3     C 6122   4.686   3.783  16.482  0.2882 -0.3424  0.0421
  410TMC3     O 6123   4.687   3.771  16.604  1.2103 -0.3317  0.5300
  410TMC3     H 6124   0.119   3.934  16.627 -0.5148  1.2286 -0.1705
  410TMC3    H1 6125   0.060   3.797  16.228  0.4617 -0.6822  1.1154
  410TMC3    H2 6126   0.409   4.020  16.331  0.9750 -1.2655 -0.8555
  410TMC3    C7 6127   0.223   3.953  16.119  0.2144  0.2485 -0.5305
  410TMC3    C8 6128   0.372   3.997  16.597  0.4365  0.6915 -0.3706
  410TMC3    O1 6129   0.146   3.890  16.048 -0.1987  0.2551  0.0233
  410TMC3    O2 6130   0.460   4.083  16.582  0.0952 -0.3141 -0.7981
  411MPD2     C 6131   0.003   4.149  14.458  0.5464 -0.3079  0.5826
  411MPD2    C1 6132   4.638   4.194  14.362 -0.3570 -0.1428 -0.1552
  411MPD2    C2 6133   4.552   4.102  14.311 -0.1396  0.1558  0.0175
  411MPD2    C3 6134   4.552   3.966  14.349  0.6659 -0.6838  0.1888
  411MPD2    C4 6135   4.647   3.927  14.441 -0.2735 -0.7917 -0.5201
  411MPD2    C5 6136   0.007   4.017  14.499 -0.3489  0.3276 -0.1244
  411MPD2     H 6137   4.484   4.139  14.235 -0.1254 -0.2018 -0.1670
  411MPD2    H1 6138   4.642   3.825  14.477 -0.0317 -0.4354  0.5405
  411MPD2    H2 6139   0.077   4.210  14.510  0.8057  0.1941 -0.3745
  411MPD2    H3 6140   0.080   3.988  14.574  1.0869  1.9591 -0.8955
  411MPD2     N 6141   4.468   3.864  14.299 -0.4006 -0.0629 -0.9004
  411MPD2    H5 6142   4.492   3.769  14.327 -1.7380 -0.3123 -0.5936
  411MPD2    N1 6143   4.633   4.328  14.322 -0.1379 -0.1529 -0.3670
  411MPD2    H7 6144   4.583   4.349  14.237  0.8041 -0.4459 -0.9866
  412TMC3    C1 6145   4.307   3.761  14.170 -0.4071  0.9085  0.3710
  412TMC3    C2 6146   4.172   3.750  14.169 -0.3029 -0.2961 -0.0736
  412TMC3    C3 6147   4.114   3.682  14.065 -0.6720 -0.2634  0.5925
  412TMC3    C4 6148   4.373   3.731  14.058  0.5668  0.4158  0.0275
  412TMC3    C5 6149   4.318   3.670  13.953  0.4109  0.0087  0.3572
  412TMC3    C6 6150   4.188   3.639  13.966 -0.2723 -0.2495  0.2194
  412TMC3     C 6151   4.353   3.882  14.228  0.2858 -0.2806  0.7394
  412TMC3     O 6152   4.284   3.978  14.204 -0.5156 -0.4163  0.3565
  412TMC3     H 6153   4.109   3.805  14.238  0.3308  0.9949 -0.5361
  412TMC3    H1 6154   4.478   3.755  14.051  0.4577  0.9661  0.2410
  412TMC3    H2 6155   4.146   3.566  13.898  0.4030 -0.4230 -0.0045
  412TMC3    C7 6156   4.329   3.729  13.823 -0.5024  0.3525  0.2871
  412TMC3    C8 6157   3.980   3.721  14.018 -0.1470  0.3190 -0.2254
  412TMC3    O1 6158   4.252   3.695  13.733 -0.3382  0.1936 -0.2122
  412TMC3    O2 6159   3.913   3.785  14.099 -0.9921 -0.0170 -0.6793
  413MPD2     C 6160   2.121   2.199  15.763 -0.5588  0.6093 -0.4549
  413MPD2    C1 6161   2.101   2.236  15.631 -0.5994  0.6742 -0.4636
  413MPD2    C2 6162   2.154   2.149  15.531 -0.4101  0.5665  0.0744
  413MPD2    C3 6163   2.227   2.036  15.563 -1.0534  0.5112  0.1785
  413MPD2    C4 6164   2.230   1.998  15.699 -0.4277  0.0997 -0.3367
  413MPD2    C5 6165   2.173   2.079  15.790 -0.3349 -0.3903  0.0991
  413MPD2     H 6166   2.138   2.166  15.425 -2.5595 -2.0931 -0.0461
  413MPD2    H1 6167   2.283   1.913  15.740 -0.2442  0.9458  1.1643
  413MPD2    H2 6168   2.070   2.257  15.840 -1.5235 -1.2586  0.2934
  413MPD2    H3 6169   2.180   2.058  15.896 -0.5068 -1.5133 -0.1134
  413MPD2     N 6170   2.269   1.949  15.466  0.8963  0.6310 -0.3601
  413MPD2    H5 6171   2.256   1.984  15.372  0.6555  0.7377 -0.2881
  413MPD2    N1 6172   2.018   2.347  15.602  0.3619  0.0842  0.1691
  413MPD2    H7 6173   1.973   2.387  15.684 -1.7069  0.4710 -1.1563
  414TMC3    C1 6174   2.375   1.761  15.363  0.2767 -0.2987  0.3106
  414TMC3    C2 6175   2.401   1.626  15.366 -0.1094  0.4740 -0.0890
  414TMC3    C3 6176   2.441   1.569  15.251  0.0650  1.0611 -0.8161
  414TMC3    C4 6177   2.384   1.828  15.242  0.1536 -0.7147 -0.3282
  414TMC3    C5 6178   2.411   1.761  15.122 -0.7647  0.0111  0.7544
  414TMC3    C6 6179   2.440   1.632  15.132 -0.0710 -0.4855  0.0918
  414TMC3     C 6180   2.327   1.824  15.484 -0.0356  0.0270  0.4478
  414TMC3     O 6181   2.310   1.752  15.581 -0.0530 -0.5549  0.5027
  414TMC3     H 6182   2.396   1.569  15.459  1.2037  0.1844 -0.2060
  414TMC3    H1 6183   2.390   1.936  15.251 -3.3866 -0.5671  0.2246
  414TMC3    H2 6184   2.478   1.585  15.042  0.1713  0.9492 -0.5515
  414TMC3    C7 6185   2.506   1.835  15.046 -0.1311 -0.1433 -0.0517
  414TMC3    C8 6186   2.490   1.434  15.262  0.3853  0.5917 -0.4034
  414TMC3    O1 6187   2.612   1.867  15.104  0.1243  0.3477 -0.0220
  414TMC3    O2 6188   2.416   1.357  15.318  0.4151 -0.1539  0.2212
  415TMC3    C1 6189   3.204   4.603   9.633 -0.2907 -0.9502 -0.8479
  415TMC3    C2 6190   3.279   4.673   9.541  0.1423 -0.1141  0.1714
  415TMC3    C3 6191   3.248   4.658   9.410  0.3501  0.0836  0.2724
  415TMC3    C4 6192   3.100   4.529   9.597 -0.6551  0.1716 -0.0973
  415TMC3    C5 6193   3.060   4.525   9.465 -0.7982  0.0039 -0.0558
  415TMC3    C6 6194   3.141   4.584   9.365 -0.3690  0.2204  0.2607
  415TMC3     C 6195   3.221   4.617   9.780  0.0783  0.7249  1.2206
  415TMC3     O 6196   3.125   4.615   9.852 -0.5454  0.0972 -0.2049
  415TMC3     H 6197   3.371   4.720   9.575  0.4078 -0.1803 -0.4584
  415TMC3    H1 6198   3.053   4.471   9.675 -0.9349  1.9330  1.0184
  415TMC3    H2 6199   3.122   4.560   9.261  0.6120 -0.4853  0.2356
  415TMC3    C7 6200   2.949   4.440   9.427 -0.4901 -0.5232 -0.6277
  415TMC3    C8 6201   3.322   0.014   9.305  0.4370  0.1937 -0.1998
  415TMC3    O1 6202   2.936   4.423   9.306  0.1431  0.0914  1.1311
  415TMC3    O2 6203   3.306   4.708   9.187  0.8528 -0.1099  0.4766
  416MPD2     C 6204   4.515   3.622  11.645  0.3113 -0.3071 -0.4516
  416MPD2    C1 6205   4.470   3.619  11.514  0.1713  0.6059 -0.0757
  416MPD2    C2 6206   4.502   3.509  11.445  0.3041  0.1756  0.3476
  416MPD2    C3 6207   4.543   3.396  11.509  0.5164 -0.4429 -0.0448
  416MPD2    C4 6208   4.582   3.396  11.641 -0.1249 -0.0608  0.3336
  416MPD2    C5 6209   4.577   3.519  11.705 -0.5178 -0.1598  0.3201
  416MPD2     H 6210   4.478   3.505  11.340 -2.8171  1.7851  1.0014
  416MPD2    H1 6211   4.631   3.311  11.688  0.5968  0.0014 -0.3053
  416MPD2    H2 6212   4.505   3.709  11.709  1.3549 -0.0838 -0.5950
  416MPD2    H3 6213   4.609   3.518  11.809 -1.9583 -4.0128  0.7387
  416MPD2     N 6214   4.558   3.271  11.439  0.0018 -1.1417 -0.1555
  416MPD2    H5 6215   4.564   3.186  11.494 -2.4989 -0.5909  0.9610
  416MPD2    N1 6216   4.406   3.736  11.455  0.1033 -0.3939 -0.0738
  416MPD2    H7 6217   4.438   3.823  11.496 -0.6562 -0.5682  0.8929
  417TMC3    C1 6218   4.274   3.877  11.327 -0.2937 -0.0935 -0.1222
  417TMC3    C2 6219   4.318   3.977  11.406 -0.0936  0.5522 -0.0940
  417TMC3    C3 6220   4.259   4.104  11.372 -0.6210 -0.0014  0.4392
  417TMC3    C4 6221   4.197   3.898  11.210  0.0652 -0.5000 -0.6038
  417TMC3    C5 6222   4.135   4.021  11.192  0.5049 -0.6458  0.0982
  417TMC3    C6 6223   4.170   4.125  11.271  0.3082 -0.1420 -0.5417
  417TMC3     C 6224   4.318   3.738  11.352  0.5560  0.6601  0.9900
  417TMC3     O 6225   4.293   3.647  11.275 -0.0960  0.1400  0.1186
  417TMC3     H 6226   4.360   3.965  11.505  0.2825  0.3020 -0.2822
  417TMC3    H1 6227   4.183   3.815  11.141 -2.8389  1.1371 -1.9936
  417TMC3    H2 6228   4.115   4.217  11.257 -0.1605 -0.3398  0.0114
  417TMC3    C7 6229   4.052   4.052  11.073 -0.1240 -0.4606  0.3703
  417TMC3    C8 6230   4.257   4.207  11.471  0.3729  0.0115 -0.3001
  417TMC3    O1 6231   4.037   4.165  11.034 -0.6029  0.3769 -0.1204
  417TMC3    O2 6232   4.156   4.274  11.498  0.4829 -0.1412 -0.2715
  418TMC3    C1 6233   3.258   1.094   0.214  0.4973  0.0297 -0.5670
  418TMC3    C2 6234   3.159   1.181   0.233 -0.4913  0.3454 -0.3689
  418TMC3    C3 6235   3.063   1.149   0.329 -0.9029 -0.0350 -0.8519
  418TMC3    C4 6236   3.273   0.989   0.301 -0.0628  0.7634 -0.3805
  418TMC3    C5 6237   3.177   0.964   0.392 -0.1253 -0.0349  1.2067
  418TMC3    C6 6238   3.065   1.041   0.411 -0.2083  0.7329  0.5179
  418TMC3     C 6239   3.295   1.075   0.078 -0.0675 -1.3010  0.2048
  418TMC3     O 6240   3.338   1.172   0.012  0.0791 -0.1027  0.1425
  418TMC3     H 6241   3.155   1.261   0.161 -3.3539 -1.4317 -2.2038
  418TMC3    H1 6242   3.359   0.925   0.286  1.0080  1.8740  0.9210
  418TMC3    H2 6243   2.992   1.019   0.488  0.0125  1.2512  0.8744
  418TMC3    C7 6244   3.199   0.862   0.495  0.3242 -0.7453  0.5130
  418TMC3    C8 6245   2.933   1.203   0.296  0.2787  0.3375  0.0569
  418TMC3    O1 6246   3.105   0.818   0.557  0.1607 -0.0322  0.0848
  418TMC3    O2 6247   2.937   1.308   0.232  0.6462  0.4874  0.1870
  419MPD2     C 6248   1.690   4.000  12.474 -0.1469  0.1966 -1.0575
  419MPD2    C1 6249   1.659   4.110  12.408 -0.7849  0.2625  0.4025
  419MPD2    C2 6250   1.578   4.207  12.473 -0.5877  0.3216  0.2142
  419MPD2    C3 6251   1.548   4.200  12.605  0.1260 -0.2963  0.8913
  419MPD2    C4 6252   1.583   4.084  12.672 -0.3178 -0.1448 -0.2099
  419MPD2    C5 6253   1.656   3.989  12.606 -0.5438  0.0267  0.5215
  419MPD2     H 6254   1.536   4.290  12.416  0.3178  1.3986  1.0948
  419MPD2    H1 6255   1.547   4.049  12.768 -1.2583  1.9250  0.1738
  419MPD2    H2 6256   1.742   3.922  12.419  1.1102  1.0286 -1.0629
  419MPD2    H3 6257   1.680   3.901  12.665  2.1719 -0.4970 -1.3533
  419MPD2     N 6258   1.460   4.291  12.668 -0.6461  0.0946 -0.5098
  419MPD2    H5 6259   1.418   4.359  12.604  0.2067  0.9100 -0.1898
  419MPD2    N1 6260   1.706   4.132  12.275  0.5879 -0.2776  0.8975
  419MPD2    H7 6261   1.683   4.218  12.227  1.2881 -0.8061 -0.3758
  420TMC3    C1 6262   1.377   4.432  12.845  0.1145 -0.1252  0.8005
  420TMC3    C2 6263   1.305   4.502  12.756 -0.5702 -0.1476 -0.9550
  420TMC3    C3 6264   1.229   4.604  12.811  0.4399 -0.7951 -0.0259
  420TMC3    C4 6265   1.369   4.454  12.979 -0.0692  0.2354 -0.1872
  420TMC3    C5 6266   1.295   4.549  13.029 -0.9247 -0.0604 -0.5884
  420TMC3    C6 6267   1.228   4.628  12.949 -0.7569 -0.2740 -0.2359
  420TMC3     C 6268   1.451   4.311  12.806  0.1100 -0.1169  0.1394
  420TMC3     O 6269   1.518   4.255  12.891  0.0481 -0.4191 -0.4951
  420TMC3     H 6270   1.325   4.491  12.650  1.8834 -1.4237 -0.3765
  420TMC3    H1 6271   1.432   4.398  13.046 -0.0685  0.8436  0.3188
  420TMC3    H2 6272   1.163   4.708  12.983 -2.7408 -1.3259 -1.5856
  420TMC3    C7 6273   1.291   4.552  13.171 -0.0496  1.1479 -0.1548
  420TMC3    C8 6274   1.183   4.715  12.722 -0.4061 -0.1610 -0.3653
  420TMC3    O1 6275   1.346   4.471  13.241  0.1049  0.3965 -0.1682
  420TMC3    O2 6276   1.185   0.105  12.766 -0.1088  0.7514  0.1402
  421TMC3    C1 6277   2.880   1.140  13.287 -0.3663 -0.5596  0.2566
  421TMC3    C2 6278   2.799   1.225  13.356 -0.3321  0.5104 -0.1973
  421TMC3    C3 6279   2.834   1.245  13.484 -0.5261  0.1918  0.5993
  421TMC3    C4 6280   2.980   1.068  13.345 -0.3543 -0.1879 -0.8317
  421TMC3    C5 6281   3.014   1.087  13.478 -0.4455 -0.2277  0.0741
  421TMC3    C6 6282   2.945   1.188  13.541 -0.0481 -0.5763 -0.1925
  421TMC3     C 6283   2.858   1.112  13.149  0.2999  0.6002 -0.6306
  421TMC3     O 6284   2.955   1.061  13.086 -0.2858 -0.1578 -0.1632
  421TMC3     H 6285   2.713   1.265  13.303 -1.6166 -0.8530  0.8393
  421TMC3    H1 6286   3.023   0.996  13.276 -0.5909 -1.5357  0.4272
  421TMC3    H2 6287   2.958   1.201  13.648  0.3361 -1.8348 -0.0915
  421TMC3    C7 6288   2.984   0.962  13.548 -0.3182  0.1285 -0.1699
  421TMC3    C8 6289   2.739   1.316  13.572 -0.6435  0.2995 -0.3385
  421TMC3    O1 6290   2.912   0.970  13.651  0.1036 -0.2765 -0.2093
  421TMC3    O2 6291   2.624   1.317  13.536 -0.1414  0.2901  0.1458
  422TMC3    C1 6292   0.340   2.209  12.761 -0.7479  0.7088  0.7916
  422TMC3    C2 6293   0.341   2.272  12.878 -0.2734 -0.0308 -0.4055
  422TMC3    C3 6294   0.225   2.304  12.944 -0.2430  0.2848 -0.6657
  422TMC3    C4 6295   0.218   2.168  12.716 -0.8511 -0.2687 -0.2784
  422TMC3    C5 6296   0.102   2.190  12.786  0.2485  0.2953 -0.0119
  422TMC3    C6 6297   0.103   2.262  12.899 -0.5611  0.4032 -0.1985
  422TMC3     C 6298   0.441   2.227  12.651  0.1697 -0.0880 -0.2032
  422TMC3     O 6299   0.405   2.231  12.537 -0.7960  0.1069  0.2628
  422TMC3     H 6300   0.434   2.313  12.915 -1.1427  0.7704  0.9049
  422TMC3    H1 6301   0.220   2.110  12.625  0.2884  0.0911 -0.4816
  422TMC3    H2 6302   0.017   2.273  12.964 -1.1341 -2.8471 -0.4019
  422TMC3    C7 6303   4.704   2.163  12.706  0.1810  0.4291  0.2772
  422TMC3    C8 6304   0.235   2.415  13.043  0.3856 -0.4032  0.7519
  422TMC3    O1 6305   4.719   2.106  12.599  0.0588 -0.3950  0.1407
  422TMC3    O2 6306   0.338   2.479  13.034 -0.2882  0.1019  0.8237
  423MPD2     C 6307   2.235   3.766   0.241 -1.0118  0.3785  0.8450
  423MPD2    C1 6308   2.277   3.649   0.305 -0.3339 -0.8406 -0.1246
  423MPD2    C2 6309   2.245   3.523   0.246  0.1140  0.2720  0.1807
  423MPD2    C3 6310   2.173   3.514   0.126  0.3999  0.0002  0.1094
  423MPD2    C4 6311   2.149   3.633   0.057  0.5950  0.3445  0.2795
  423MPD2    C5 6312   2.179   3.757   0.116 -0.1420  0.0117 -0.0603
  423MPD2     H 6313   2.279   3.429   0.287  2.2485  0.7009 -0.6464
  423MPD2    H1 6314   2.099   3.642  17.658 -0.2461  0.4060  0.7269
  423MPD2    H2 6315   2.261   3.865   0.276 -0.9418  0.6448  0.0308
  423MPD2    H3 6316   2.144   3.847   0.066  1.9569  0.6947 -0.2902
  423MPD2     N 6317   2.140   3.387   0.059  0.1238  0.3148 -0.0670
  423MPD2    H5 6318   2.112   3.390  17.658 -0.4818  3.2805  0.1945
  423MPD2    N1 6319   2.328   3.653   0.435 -0.4565 -0.3556 -0.4140
  423MPD2    H7 6320   2.353   3.567   0.483 -1.3070 -0.3194  0.0902
  424TMC3    C1 6321   2.353   3.736   0.658  0.1968 -0.2013 -0.1817
  424TMC3    C2 6322   2.407   3.621   0.705 -0.0495  0.7663 -0.7872
  424TMC3    C3 6323   2.403   3.603   0.840  0.4898 -0.2554 -0.4635
  424TMC3    C4 6324   2.293   3.822   0.744  0.1983  0.1191 -0.7139
  424TMC3    C5 6325   2.292   3.794   0.883 -0.9676 -0.4367 -0.6416
  424TMC3    C6 6326   2.344   3.682   0.928  0.1944  0.4450  0.1544
  424TMC3     C 6327   2.331   3.770   0.516  0.2156 -0.9371  0.2972
  424TMC3     O 6328   2.298   3.885   0.491  0.3416  0.1988 -0.1683
  424TMC3     H 6329   2.473   3.558   0.647 -1.2207 -1.1948  0.0175
  424TMC3    H1 6330   2.249   3.914   0.708 -2.0870 -1.0418 -0.9257
  424TMC3    H2 6331   2.341   3.644   1.029 -1.8109  1.6761  0.5538
  424TMC3    C7 6332   2.202   3.870   0.967 -0.0611  0.0622  1.0956
  424TMC3    C8 6333   2.491   3.498   0.892  0.6855 -0.5568  0.4404
  424TMC3    O1 6334   2.113   3.924   0.905 -0.1799 -0.5195 -0.3177
  424TMC3    O2 6335   2.513   3.498   1.015 -0.2459 -0.4064  0.1170
  425MPD2     C 6336   0.428   2.756  17.436 -0.3614 -0.8151  0.0303
  425MPD2    C1 6337   0.373   2.647  17.368 -0.4863 -0.0879 -0.2666
  425MPD2    C2 6338   0.233   2.650  17.348 -1.0347 -0.6486 -0.3612
  425MPD2    C3 6339   0.152   2.759  17.383 -0.3500  0.0299 -0.6005
  425MPD2    C4 6340   0.214   2.870  17.443 -0.2830  1.0118  0.4960
  425MPD2    C5 6341   0.347   2.859  17.476 -1.0056 -0.0768 -0.3125
  425MPD2     H 6342   0.187   2.564  17.301  2.5881 -2.6993 -0.1821
  425MPD2    H1 6343   0.158   2.953  17.483 -1.0387 -0.2329  2.0469
  425MPD2    H2 6344   0.535   2.770  17.443 -0.4418  0.3294 -0.9515
  425MPD2    H3 6345   0.398   2.939  17.527 -0.8920 -0.0940 -0.3999
  425MPD2     N 6346   0.017   2.740  17.360 -0.2216 -0.5247 -0.1404
  425MPD2    H5 6347   4.716   2.648  17.324  1.9355 -0.4383 -1.8743
  425MPD2    N1 6348   0.467   2.556  17.324 -0.9628 -0.1555  0.4006
  425MPD2    H7 6349   0.565   2.581  17.339 -0.7540 -0.4727 -0.4401
  426TMC3    C1 6350   0.550   2.374  17.196 -0.3709 -0.5265  0.2009
  426TMC3    C2 6351   0.509   2.264  17.120 -0.8264  0.1605 -0.2736
  426TMC3    C3 6352   0.608   2.169  17.098 -0.1520 -0.1225  0.3488
  426TMC3    C4 6353   0.671   2.387  17.258 -0.2931  0.7822  0.5289
  426TMC3    C5 6354   0.757   2.283  17.239  0.4534  0.5899 -0.1596
  426TMC3    C6 6355   0.728   2.179  17.155  0.2776  0.3867  0.2314
  426TMC3     C 6356   0.437   2.457  17.237  0.1741  0.0338 -0.4556
  426TMC3     O 6357   0.326   2.422  17.198 -0.2956  0.1373  0.0499
  426TMC3     H 6358   0.417   2.266  17.063 -0.0574 -3.0317 -1.6361
  426TMC3    H1 6359   0.704   2.479  17.304 -1.7771  1.2805  0.6023
  426TMC3    H2 6360   0.801   2.103  17.131 -1.0457 -0.2251 -1.8349
  426TMC3    C7 6361   0.871   2.264  17.323 -0.6066 -0.3266  0.6406
  426TMC3    C8 6362   0.573   2.055  17.013  0.2011 -0.0176 -0.1083
  426TMC3    O1 6363   0.958   2.192  17.278 -0.6180  0.1280  0.1122
  426TMC3    O2 6364   0.673   1.988  16.976 -0.5493 -0.3212 -0.0205
  427MPD2     C 6365   4.059   4.598  14.415  0.2337  0.6692 -0.2814
  427MPD2    C1 6366   4.038   4.473  14.469  0.7488 -0.7232  0.0659
  427MPD2    C2 6367   3.914   4.435  14.481  0.1395  0.4668 -1.0464
  427MPD2    C3 6368   3.806   4.505  14.427  0.3016 -0.7521  0.1316
  427MPD2    C4 6369   3.825   4.632  14.373  0.8366  0.1029 -0.3218
  427MPD2    C5 6370   3.954   4.679  14.370 -0.4021 -0.1275 -0.0112
  427MPD2     H 6371   3.905   4.339  14.531  0.0889  0.6680 -0.6763
  427MPD2    H1 6372   3.740   4.684  14.330  2.2998  1.2569 -1.8438
  427MPD2    H2 6373   4.157   4.637  14.395 -0.4962  1.5671 -2.0740
  427MPD2    H3 6374   3.978   0.055  14.336 -1.7436 -0.1994 -1.1633
  427MPD2     N 6375   3.672   4.460  14.435  0.1470  0.3089 -0.2508
  427MPD2    H5 6376   3.603   4.511  14.381  0.7163  1.3296 -0.0080
  427MPD2    N1 6377   4.142   4.395  14.522 -0.3384 -0.3949 -0.2063
  427MPD2    H7 6378   4.118   4.307  14.567 -0.8351 -0.2102 -0.1086
  428TMC3    C1 6379   4.362   4.325  14.576 -0.4103 -0.2330  0.6100
  428TMC3    C2 6380   4.328   4.193  14.605 -0.0914 -0.8928 -0.0016
  428TMC3    C3 6381   4.418   4.117  14.668 -0.3460 -0.1483  0.4998
  428TMC3    C4 6382   4.479   4.377  14.629 -0.8797 -0.0269 -0.4305
  428TMC3    C5 6383   4.567   4.293  14.688 -0.1290  0.4113 -0.2835
  428TMC3    C6 6384   4.540   4.165  14.710  0.1981  0.1257  0.5828
  428TMC3     C 6385   4.274   4.428  14.521 -0.2107  0.0841  0.0379
  428TMC3     O 6386   4.334   4.518  14.463 -0.2526 -0.3702 -0.4008
  428TMC3     H 6387   4.229   4.157  14.579 -0.6013 -0.9671  2.0895
  428TMC3    H1 6388   4.513   4.479  14.615 -4.4159  1.0288 -1.2576
  428TMC3    H2 6389   4.617   4.110  14.761 -1.0886 -0.7052  1.5972
  428TMC3    C7 6390   4.656   4.340  14.793 -0.5024 -0.3845 -0.8130
  428TMC3    C8 6391   4.402   3.974  14.681  0.4279 -0.1510  0.1195
  428TMC3    O1 6392   4.646   4.281  14.898  0.4195  0.0730  0.3407
  428TMC3    O2 6393   4.496   3.918  14.741  0.3140 -0.2896 -0.1843
  429MPD2     C 6394   0.269   0.055  16.976  0.0780  0.2799 -0.4401
  429MPD2    C1 6395   0.342   4.664  16.978 -0.1708  0.0781  0.0070
  429MPD2    C2 6396   0.464   4.669  16.915  0.0449  0.4627  0.3965
  429MPD2    C3 6397   0.513   0.063  16.859  0.3091  0.8104 -0.6245
  429MPD2    C4 6398   0.435   0.178  16.856 -0.0182  0.3748 -0.2825
  429MPD2    C5 6399   0.317   0.175  16.921  0.6521 -0.4995 -0.5804
  429MPD2     H 6400   0.529   4.583  16.913  0.7917  1.0982 -1.9733
  429MPD2    H1 6401   0.447   0.257  16.782  1.1495 -0.6658 -1.1992
  429MPD2    H2 6402   0.170   0.062  17.020  0.2750 -2.5616  0.4844
  429MPD2    H3 6403   0.251   0.260  16.933  0.8532 -0.6393  1.4025
  429MPD2     N 6404   0.634   0.062  16.795  0.3273  1.0497 -1.0580
  429MPD2    H5 6405   0.678   4.697  16.776 -1.0294 -0.1315  1.3094
  429MPD2    N1 6406   0.300   4.548  17.050  1.0545  0.0374  0.2615
  429MPD2    H7 6407   0.367   4.472  17.063 -0.9869 -1.8439 -0.3502
  430TMC3    C1 6408   0.834   0.116  16.712  0.0927  0.1834 -0.4571
  430TMC3    C2 6409   0.902   0.177  16.607 -0.8773  0.2966  0.0365
  430TMC3    C3 6410   0.997   0.110  16.534 -0.0466  0.0275 -0.1576
  430TMC3    C4 6411   0.869   4.707  16.739 -0.1071 -0.0995 -0.0549
  430TMC3    C5 6412   0.969   4.641  16.667  0.3678 -0.6054  0.4335
  430TMC3    C6 6413   1.031   4.709  16.567 -0.3681  0.4436 -0.3597
  430TMC3     C 6414   0.704   0.170  16.751  0.2543  0.4955 -0.2544
  430TMC3     O 6415   0.694   0.295  16.764  0.2180 -0.2711 -0.1739
  430TMC3     H 6416   0.854   0.258  16.553 -0.0187 -0.0612 -1.2526
  430TMC3    H1 6417   0.836   4.665  16.834 -0.7109  1.5104  0.4587
  430TMC3    H2 6418   1.112   4.662  16.512  0.5703 -0.3507  1.7294
  430TMC3    C7 6419   0.935   4.503  16.653  0.5845  0.0278  0.4893
  430TMC3    C8 6420   0.989   0.106  16.392 -0.9580 -0.0017 -0.3114
  430TMC3    O1 6421   0.888   4.448  16.751 -0.8968  0.0555  0.4032
  430TMC3    O2 6422   0.954   4.720  16.341  0.2388  0.1659 -0.2052
  431MPD2     C 6423   1.260   4.643  11.923 -0.3606 -0.9348  0.4489
  431MPD2    C1 6424   1.384   4.683  11.877 -0.1440 -1.2020  0.5587
  431MPD2    C2 6425   1.482   4.591  11.867  0.3591  0.0514  0.4047
  431MPD2    C3 6426   1.458   4.459  11.891  0.2286  0.1485 -0.7536
  431MPD2    C4 6427   1.330   4.428  11.929  0.0964 -0.6128  0.4763
  431MPD2    C5 6428   1.229   4.513  11.948  0.0686 -0.3376 -0.3682
  431MPD2     H 6429   1.576   4.626  11.826  0.9465 -1.4861  0.4383
  431MPD2    H1 6430   1.309   4.325  11.956  2.0052 -2.1633 -3.9775
  431MPD2    H2 6431   1.186   4.721  11.938  0.3351 -0.0593 -0.7431
  431MPD2    H3 6432   1.131   4.488  11.986  0.0106  0.6862  0.1468
  431MPD2     N 6433   1.554   4.356  11.902 -0.4981 -0.6465  0.9616
  431MPD2    H5 6434   1.526   4.262  11.928 -0.3715 -1.4303 -1.6979
  431MPD2    N1 6435   1.413   0.094  11.868 -0.0111 -0.2129  0.7970
  431MPD2    H7 6436   1.499   0.116  11.817 -0.0805 -0.2173  0.6784
  432TMC3    C1 6437   1.767   4.257  11.922 -0.3134  1.1631  0.2274
  432TMC3    C2 6438   1.892   4.240  11.862 -0.3071 -0.0741  0.4254
  432TMC3    C3 6439   1.977   4.148  11.912 -0.1125 -0.1367  0.0948
  432TMC3    C4 6440   1.731   4.191  12.034  0.5047  0.1769 -0.0544
  432TMC3    C5 6441   1.821   4.101  12.083 -0.4205 -0.2200  0.0610
  432TMC3    C6 6442   1.940   4.063  12.015  0.1815  0.1521 -0.4921
  432TMC3     C 6443   1.688   4.370  11.872  0.5413  0.1123  0.3147
  432TMC3     O 6444   1.732   4.459  11.801  0.1872  0.0575 -0.1947
  432TMC3     H 6445   1.910   4.288  11.767  0.3058  0.0664  0.6155
  432TMC3    H1 6446   1.635   4.208  12.082  1.1468  0.9771  0.9411
  432TMC3    H2 6447   2.001   3.980  12.049  0.4354  0.3298 -0.5089
  432TMC3    C7 6448   1.812   4.062  12.226  0.1409 -0.6278 -0.4353
  432TMC3    C8 6449   2.105   4.125  11.853 -0.5472  0.2686 -0.2109
  432TMC3    O1 6450   1.899   3.988  12.272 -0.2188 -0.4705 -0.7358
  432TMC3    O2 6451   2.157   4.015  11.877  0.5341  0.0447  0.2943
  433MPD2     C 6452   0.666   2.960  10.436 -0.4332 -0.0772 -0.0077
  433MPD2    C1 6453   0.639   2.833  10.465  0.0301 -0.0189 -0.1830
  433MPD2    C2 6454   0.638   2.785  10.593 -0.4265  0.5491 -0.1484
  433MPD2    C3 6455   0.676   2.871  10.701  0.1450 -0.1458 -0.6268
  433MPD2    C4 6456   0.710   3.004  10.664 -0.0333  0.1623 -0.1834
  433MPD2    C5 6457   0.705   3.047  10.536  0.2837  0.1771  0.3678
  433MPD2     H 6458   0.599   2.688  10.622 -0.5342  0.9415  1.0414
  433MPD2    H1 6459   0.747   3.081  10.731 -1.3279  0.4970  0.1435
  433MPD2    H2 6460   0.671   2.988  10.331 -2.1771  0.9048  0.1735
  433MPD2    H3 6461   0.743   3.145  10.508  0.6822 -0.0230  0.2025
  433MPD2     N 6462   0.694   2.818  10.834 -0.5718  0.4547  0.5701
  433MPD2    H5 6463   0.672   2.720  10.850 -0.1824  0.1402 -0.8392
  433MPD2    N1 6464   0.636   2.734  10.358 -0.3009 -0.3019 -0.2709
  433MPD2    H7 6465   0.606   2.640  10.384 -0.6122 -0.2869 -0.5836
  434TMC3    C1 6466   0.725   2.607  10.188  0.3601 -0.1705 -0.1236
  434TMC3    C2 6467   0.858   2.581  10.155  0.0897 -0.8035 -0.1941
  434TMC3    C3 6468   0.891   2.449  10.109  0.6921  0.8683  0.4415
  434TMC3    C4 6469   0.627   2.517  10.176  0.1851  0.0135  0.3115
  434TMC3    C5 6470   0.661   2.395  10.132  0.6371  0.7644  0.4597
  434TMC3    C6 6471   0.797   2.356  10.108 -0.2499  0.0709  0.0943
  434TMC3     C 6472   0.690   2.748  10.233 -0.6049 -0.4491  0.2863
  434TMC3     O 6473   0.770   2.832  10.183 -0.8202 -0.4878 -0.1610
  434TMC3     H 6474   0.929   2.662  10.166  0.0029 -0.8029  0.3616
  434TMC3    H1 6475   0.522   2.544  10.185 -0.0680 -0.5537 -0.9128
  434TMC3    H2 6476   0.825   2.259  10.071 -1.9715  0.3564 -1.9826
  434TMC3    C7 6477   0.554   2.300  10.127  0.8844  0.0215 -0.1614
  434TMC3    C8 6478   1.026   2.399  10.149  0.3186 -1.2049  0.8375
  434TMC3    O1 6479   0.438   2.345  10.115  0.1382  0.2504  0.2056
  434TMC3    O2 6480   1.045   2.280  10.127  0.4709  0.1599  0.2316
  435MPD2     C 6481   2.195   3.033  15.319 -0.0278  0.3143 -0.0122
  435MPD2    C1 6482   2.181   3.051  15.455 -0.0809 -0.4403  0.0320
  435MPD2    C2 6483   2.280   3.002  15.536  0.2510  0.0632 -0.0442
  435MPD2    C3 6484   2.393   2.947  15.487 -0.6415 -0.1404 -0.1189
  435MPD2    C4 6485   2.410   2.954  15.355 -0.3005 -0.6404 -0.1818
  435MPD2    C5 6486   2.306   2.989  15.268 -0.4998 -0.2505  0.3959
  435MPD2     H 6487   2.276   3.006  15.644  1.1460  2.3478 -0.0987
  435MPD2    H1 6488   2.498   2.914  15.307  1.0963  1.3583  0.7144
  435MPD2    H2 6489   2.122   3.071  15.249  0.3336  0.0741 -0.5216
  435MPD2    H3 6490   2.316   2.987  15.160  1.8110 -1.9926  0.6455
  435MPD2     N 6491   2.479   2.883  15.578  0.7766 -0.3187  0.4403
  435MPD2    H5 6492   2.437   2.851  15.665  1.8741 -1.1095  0.6809
  435MPD2    N1 6493   2.064   3.096  15.520 -0.3810  0.3956  0.0242
  435MPD2    H7 6494   2.074   3.092  15.621 -1.7263 -0.9661  0.0953
  436TMC3    C1 6495   1.702   3.063  15.722  0.4430 -0.1472 -0.8453
  436TMC3    C2 6496   1.825   3.058  15.655  0.1563  0.4232  0.5732
  436TMC3    C3 6497   1.845   3.157  15.565 -0.2970 -0.4546 -0.4932
  436TMC3    C4 6498   1.611   3.162  15.702 -0.4697 -0.7860 -0.3739
  436TMC3    C5 6499   1.645   3.261  15.608  0.1330 -1.2538 -0.3502
  436TMC3    C6 6500   1.755   3.257  15.536  0.8292  0.3608  0.2199
  436TMC3     C 6501   1.697   2.975  15.838 -0.4893 -0.1084 -0.0383
  436TMC3     O 6502   1.768   2.875  15.837  0.0582  0.3462 -0.3623
  436TMC3     H 6503   1.882   2.966  15.653 -2.2867 -1.0613 -0.0577
  436TMC3    H1 6504   1.514   3.153  15.750  0.4229 -3.0612  1.0237
  436TMC3    H2 6505   1.771   3.315  15.446 -3.6312 -0.4533 -1.1023
  436TMC3    C7 6506   1.550   3.369  15.596  0.2627 -0.3575 -0.1969
  436TMC3    C8 6507   1.938   3.125  15.465 -0.1097  0.5348 -0.6543
  436TMC3    O1 6508   1.444   3.357  15.652  0.2501  0.5851  0.1172
  436TMC3    O2 6509   1.904   3.147  15.347 -0.0433 -0.2600 -0.2693
  437TMC3    C1 6510   0.593   0.914  12.495  0.0715 -0.5061 -0.1708
  437TMC3    C2 6511   0.476   0.981  12.511 -0.0320 -0.4513 -0.4559
  437TMC3    C3 6512   0.464   1.112  12.473 -0.2678  0.5498  0.4623
  437TMC3    C4 6513   0.682   0.962  12.403 -0.1545  0.1500  0.1543
  437TMC3    C5 6514   0.656   1.079  12.341 -0.1862  0.4890  0.6901
  437TMC3    C6 6515   0.547   1.155  12.374 -0.1567  0.0565 -0.9301
  437TMC3     C 6516   0.601   0.776  12.528 -0.5218  0.4664  0.1559
  437TMC3     O 6517   0.494   0.722  12.539 -0.0934 -0.2985  0.0102
  437TMC3     H 6518   0.397   0.936  12.570  0.2705 -1.5171 -0.8627
  437TMC3    H1 6519   0.764   0.901  12.366 -0.4004 -2.4066  3.7606
  437TMC3    H2 6520   0.540   1.257  12.341  0.0288  0.5885  0.6659
  437TMC3    C7 6521   0.758   1.141  12.260 -0.9958  0.0653 -0.2323
  437TMC3    C8 6522   0.339   1.181  12.490 -0.3043  0.1011  0.0501
  437TMC3    O1 6523   0.732   1.245  12.201  0.7603  0.1520  0.2291
  437TMC3    O2 6524   0.290   1.228  12.389 -0.9493  0.1016 -0.1462
  438MPD2     C 6525   3.115   1.281  16.442  0.0811 -0.8527 -0.1757
  438MPD2    C1 6526   3.219   1.235  16.519  0.7358  0.6874  0.2477
  438MPD2    C2 6527   3.224   1.262  16.649  0.2933 -0.0843 -0.0356
  438MPD2    C3 6528   3.127   1.350  16.705 -0.2693  0.4602 -0.6206
  438MPD2    C4 6529   3.029   1.405  16.628  0.4419 -0.1373 -0.1331
  438MPD2    C5 6530   3.027   1.375  16.495 -0.2966 -0.1280 -0.5033
  438MPD2     H 6531   3.299   1.217  16.713  0.4045  0.0081 -0.1010
  438MPD2    H1 6532   2.947   1.468  16.660 -0.2740 -2.1859  2.0914
  438MPD2    H2 6533   3.099   1.251  16.339  1.2491  1.1501 -0.9266
  438MPD2    H3 6534   2.945   1.409  16.434  1.3759  0.6459 -2.3256
  438MPD2     N 6535   3.114   1.378  16.843 -1.0735 -0.6494  0.5284
  438MPD2    H5 6536   3.039   1.430  16.887 -1.3504  0.7058 -1.5187
  438MPD2    N1 6537   3.322   1.166  16.453 -0.4971  0.1740  0.1879
  438MPD2    H7 6538   3.404   1.164  16.513 -0.2473 -1.1527 -0.1920
  439TMC3    C1 6539   3.470   1.079  16.294  0.3687  0.1791 -0.1494
  439TMC3    C2 6540   3.493   1.041  16.166 -0.5438  0.2197  0.0658
  439TMC3    C3 6541   3.611   0.979  16.124 -0.4925 -0.6626  0.0143
  439TMC3    C4 6542   3.554   1.039  16.393  0.1775 -0.2818  0.0447
  439TMC3    C5 6543   3.667   0.976  16.354 -0.2578  0.0710 -0.2498
  439TMC3    C6 6544   3.704   0.949  16.222  0.5900 -0.7092 -0.9305
  439TMC3     C 6545   3.334   1.119  16.327  0.4243  0.0984  0.7651
  439TMC3     O 6546   3.257   1.114  16.236 -0.2409 -0.0003  0.0022
  439TMC3     H 6547   3.425   1.082  16.092 -0.4607  0.4912  0.1382
  439TMC3    H1 6548   3.534   1.062  16.497  0.5209 -1.5410  0.3938
  439TMC3    H2 6549   3.798   0.903  16.193  1.5583  0.2575  0.6793
  439TMC3    C7 6550   3.732   0.901  16.460 -0.3222  0.8599  0.0292
  439TMC3    C8 6551   3.614   0.896  16.012  0.3572 -0.0296 -0.2144
  439TMC3    O1 6552   3.721   0.938  16.576 -0.0685 -0.1606  0.0512
  439TMC3    O2 6553   3.726   0.856  15.987  0.5222 -0.2246 -0.5678
  440MPD2     C 6554   2.096   1.106  15.000 -0.7391  0.6097 -0.4862
  440MPD2    C1 6555   2.143   1.113  15.129 -0.1439 -0.2365  0.0649
  440MPD2    C2 6556   2.208   1.000  15.183 -0.3960 -0.4215 -0.1230
  440MPD2    C3 6557   2.213   0.878  15.111  0.0732  0.2904 -0.2806
  440MPD2    C4 6558   2.149   0.874  14.984 -0.7973  0.3517  0.4457
  440MPD2    C5 6559   2.102   0.989  14.930  0.2812 -0.2844 -0.2881
  440MPD2     H 6560   2.264   1.008  15.276  0.1030  0.3791 -0.4908
  440MPD2    H1 6561   2.152   0.786  14.920 -1.2201  0.6996 -0.0548
  440MPD2    H2 6562   2.048   1.193  14.955 -0.7187 -0.8348 -3.2623
  440MPD2    H3 6563   2.052   0.993  14.834 -0.4454 -0.1792  0.0935
  440MPD2     N 6564   2.270   0.773  15.184 -0.3532  0.0728 -0.2889
  440MPD2    H5 6565   2.321   0.797  15.268  1.1468 -0.5090 -1.0341
  440MPD2    N1 6566   2.154   1.228  15.203  0.2496  0.0752  0.2587
  440MPD2    H7 6567   2.198   1.217  15.294 -0.5007  1.2180  0.7631
  441TMC3    C1 6568   2.371   0.579  15.229 -0.2918  0.7876 -0.4781
  441TMC3    C2 6569   2.486   0.630  15.180 -0.0996  0.2706 -0.0269
  441TMC3    C3 6570   2.568   0.700  15.262  0.6410 -0.1921  0.0668
  441TMC3    C4 6571   2.341   0.597  15.364 -0.4443  0.2210 -0.4632
  441TMC3    C5 6572   2.427   0.668  15.441  0.3151  1.0520 -0.2015
  441TMC3    C6 6573   2.538   0.721  15.392 -0.2787  0.0820  0.0913
  441TMC3     C 6574   2.270   0.636  15.148  0.4604 -0.2597  0.4025
  441TMC3     O 6575   2.251   0.580  15.042  0.6532  0.3879 -0.1583
  441TMC3     H 6576   2.497   0.635  15.072  0.9672  0.1638  0.0803
  441TMC3    H1 6577   2.242   0.558  15.381 -0.4996  0.0962 -1.0694
  441TMC3    H2 6578   2.598   0.782  15.458  0.2926  2.1860 -2.3452
  441TMC3    C7 6579   2.368   0.722  15.561 -0.5259  0.1787 -0.7913
  441TMC3    C8 6580   2.646   0.797  15.192  0.0831  0.1980 -0.4405
  441TMC3    O1 6581   2.247   0.722  15.559 -0.0276  0.1790  0.0950
  441TMC3    O2 6582   2.701   0.755  15.092 -0.3448  0.2366 -0.1968
  442MPD2     C 6583   0.444   2.089  16.568 -0.4423 -0.2091 -0.2180
  442MPD2    C1 6584   0.313   2.070  16.541  0.0226  0.6769  0.6887
  442MPD2    C2 6585   0.263   1.996  16.435  0.2297 -0.0687 -0.0398
  442MPD2    C3 6586   0.355   1.949  16.341  0.7542 -0.2098 -0.0717
  442MPD2    C4 6587   0.490   1.970  16.362  0.4569  0.4238 -0.9020
  442MPD2    C5 6588   0.530   2.039  16.472 -0.5740  0.5919 -0.3523
  442MPD2     H 6589   0.157   1.991  16.416 -0.0772  0.9609  1.3133
  442MPD2    H1 6590   0.566   1.933  16.295  1.4679 -2.3746  1.7671
  442MPD2    H2 6591   0.476   2.134  16.661 -1.8641  0.5796 -0.1055
  442MPD2    H3 6592   0.633   2.065  16.492 -1.2085  2.2000  0.7859
  442MPD2     N 6593   0.329   1.870  16.228  0.2516 -0.0906 -0.2926
  442MPD2    H5 6594   0.404   1.821  16.180  0.0577 -1.7708  1.1655
  442MPD2    N1 6595   0.219   2.120  16.632 -0.4234  0.2712  0.8092
  442MPD2    H7 6596   0.123   2.088  16.624 -0.6716  1.5035 -1.0481
  443TMC3    C1 6597   0.111   2.281  16.777 -0.7958  0.3661 -0.5680
  443TMC3    C2 6598   0.054   2.389  16.716 -0.3109  0.1077  0.1431
  443TMC3    C3 6599   4.643   2.413  16.725  0.5226 -0.0368  0.3956
  443TMC3    C4 6600   0.032   2.195  16.849 -0.1905  0.4071  0.1299
  443TMC3    C5 6601   4.620   2.224  16.857 -0.5174  0.0725 -0.8055
  443TMC3    C6 6602   4.560   2.332  16.795 -0.1473 -0.0670  0.1596
  443TMC3     C 6603   0.236   2.233  16.711 -0.1008  0.4598  0.4597
  443TMC3     O 6604   0.328   2.310  16.726  0.5243  0.8564 -0.0354
  443TMC3     H 6605   0.129   2.448  16.666  0.2963 -0.1266  0.7705
  443TMC3    H1 6606   0.055   2.096  16.887  1.4550  0.4874 -0.6403
  443TMC3    H2 6607   4.452   2.341  16.794 -0.3260 -1.9033  2.8203
  443TMC3    C7 6608   4.541   2.103  16.891 -1.0242 -0.0047 -1.1294
  443TMC3    C8 6609   4.577   2.447  16.601  0.2987 -0.2517  0.3169
  443TMC3    O1 6610   4.573   1.989  16.858  0.0790  0.7608 -0.7544
  443TMC3    O2 6611   4.470   2.393  16.579 -0.0112  0.2088  0.6629
  444MPD2     C 6612   0.184   1.807  17.336  0.1554 -0.1359  0.4928
  444MPD2    C1 6613   0.126   1.744  17.221  0.3725 -0.1544 -0.2156
  444MPD2    C2 6614   0.210   1.677  17.134 -0.4740  0.3213 -1.1439
  444MPD2    C3 6615   0.347   1.662  17.156  0.3212 -0.2161 -0.7914
  444MPD2    C4 6616   0.401   1.722  17.266  0.0351  0.0519 -0.5338
  444MPD2    C5 6617   0.316   1.789  17.356 -0.3943 -0.3001  0.1559
  444MPD2     H 6618   0.155   1.628  17.054 -1.3252  0.1414 -0.4522
  444MPD2    H1 6619   0.502   1.708  17.302  0.2082 -1.3107 -1.5766
  444MPD2    H2 6620   0.129   1.865  17.408  1.5199  0.3233  1.1667
  444MPD2    H3 6621   0.352   1.820  17.454  0.3598  2.9693 -1.1736
  444MPD2     N 6622   0.419   1.585  17.060 -0.4275  0.4090 -0.0972
  444MPD2    H5 6623   0.373   1.546  16.979  0.8129 -1.0282 -0.1107
  444MPD2    N1 6624   4.712   1.749  17.196 -0.4350 -0.2138 -0.1384
  444MPD2    H7 6625   4.672   1.690  17.124  2.7014  0.8291 -2.7288
  445TMC3    C1 6626   0.609   1.466  16.976 -0.1748  0.5157  0.2503
  445TMC3    C2 6627   0.525   1.381  16.909  0.2999 -0.1114  0.6556
  445TMC3    C3 6628   0.584   1.295  16.829 -0.3150 -0.5595 -0.6244
  445TMC3    C4 6629   0.745   1.462  16.972 -0.3158 -0.4202 -0.2615
  445TMC3    C5 6630   0.798   1.356  16.904  0.2243  0.6750 -0.3889
  445TMC3    C6 6631   0.725   1.279  16.820 -0.2334 -0.4466  0.3746
  445TMC3     C 6632   0.551   1.551  17.075  0.0375  0.5058  0.0984
  445TMC3     O 6633   0.632   1.586  17.161  0.0399  0.2727  0.0782
  445TMC3     H 6634   0.420   1.402  16.891  0.2526 -0.4695  0.5036
  445TMC3    H1 6635   0.809   1.533  17.022 -0.1427 -1.7026  1.3252
  445TMC3    H2 6636   0.770   1.207  16.753 -2.3058 -0.1178 -1.3626
  445TMC3    C7 6637   0.937   1.331  16.918  0.6996  0.1583 -0.0816
  445TMC3    C8 6638   0.497   1.233  16.723 -0.3422  0.1181  0.3773
  445TMC3    O1 6639   0.992   1.386  17.012  0.3535 -0.7048 -0.1435
  445TMC3    O2 6640   0.378   1.214  16.739 -0.0340 -0.6326 -0.4372
  446MPD2     C 6641   0.787   2.002  10.427  0.3086 -0.1379 -0.3429
  446MPD2    C1 6642   0.709   2.102  10.495  0.7433  0.0835  0.2865
  446MPD2    C2 6643   0.771   2.224  10.521  0.7454 -0.0463 -0.0726
  446MPD2    C3 6644   0.899   2.240  10.483 -0.6894  0.6932  0.1731
  446MPD2    C4 6645   0.980   2.150  10.422 -0.0816 -0.3961  0.5164
  446MPD2    C5 6646   0.920   2.027  10.395  0.1897  0.0615 -0.6980
  446MPD2     H 6647   0.723   2.306  10.573  0.0739  0.0424 -0.8320
  446MPD2    H1 6648   1.082   2.183  10.403 -0.1880 -1.1008 -1.2653
  446MPD2    H2 6649   0.744   1.912  10.385  0.3190 -0.6619  0.7712
  446MPD2    H3 6650   0.979   1.953  10.340  1.0347  0.0738  0.1890
  446MPD2     N 6651   0.974   2.360  10.513  0.8819 -0.3013  0.6708
  446MPD2    H5 6652   1.072   2.363  10.486  0.9833 -2.3471  0.8348
  446MPD2    N1 6653   0.568   2.090  10.522 -0.0560  0.1549 -0.6390
  446MPD2    H7 6654   0.527   2.179  10.550  0.8966 -0.9585  4.2771
  447TMC3    C1 6655   1.030   2.575  10.595  0.1770 -0.0236 -0.0033
  447TMC3    C2 6656   0.999   2.709  10.598 -0.0617  0.3632 -0.1851
  447TMC3    C3 6657   1.098   2.796  10.595  0.5208  0.6135  0.2090
  447TMC3    C4 6658   1.163   2.528  10.615  0.2112 -0.2394 -0.6414
  447TMC3    C5 6659   1.267   2.623  10.615  0.4949 -0.3248 -0.4626
  447TMC3    C6 6660   1.229   2.756  10.600 -0.3310  0.8098  0.1561
  447TMC3     C 6661   0.926   2.482  10.565  0.4591 -0.1524 -0.0342
  447TMC3     O 6662   0.812   2.499  10.602 -0.7509 -0.4098  0.3949
  447TMC3     H 6663   0.899   2.742  10.572  0.0113  1.4140  0.8869
  447TMC3    H1 6664   1.183   2.421  10.616 -1.0673 -0.4687  1.1249
  447TMC3    H2 6665   1.297   2.833  10.566 -2.0933  1.4545 -1.9586
  447TMC3    C7 6666   1.409   2.602  10.648  0.3996  0.1779 -0.3398
  447TMC3    C8 6667   1.076   2.898  10.489 -0.3352 -0.6699  0.6685
  447TMC3    O1 6668   1.450   2.492  10.678  0.4026 -0.0697  0.6264
  447TMC3    O2 6669   1.092   2.871  10.374  0.1339 -0.0279  0.2338
  448TMC3    C1 6670   3.065   2.607  16.674  0.4842  0.9161  0.0180
  448TMC3    C2 6671   3.088   2.518  16.569  0.0822 -0.1559  0.1980
  448TMC3    C3 6672   3.210   2.454  16.560 -0.4042 -0.6036 -0.0417
  448TMC3    C4 6673   3.147   2.605  16.788  0.7240  0.8216  0.6275
  448TMC3    C5 6674   3.263   2.533  16.774 -0.3571  0.5381 -0.6790
  448TMC3    C6 6675   3.301   2.465  16.663 -0.1146  0.2344  0.9952
  448TMC3     C 6676   2.975   2.718  16.667  0.1435  0.8659 -0.1773
  448TMC3     O 6677   2.947   2.773  16.774 -0.3845  0.5575 -0.0133
  448TMC3     H 6678   3.023   2.505  16.483  0.9689  1.1207 -0.6750
  448TMC3    H1 6679   3.115   2.660  16.875  2.9763  1.2437  1.1811
  448TMC3    H2 6680   3.393   2.410  16.674 -1.6926 -2.4821  0.4810
  448TMC3    C7 6681   3.365   2.563  16.872  0.4110 -0.3722  0.5956
  448TMC3    C8 6682   3.218   2.333  16.481  0.1300 -0.5957  0.2371
  448TMC3    O1 6683   3.486   2.553  16.849 -0.0381 -0.6996  0.4377
  448TMC3    O2 6684   3.268   2.236  16.535 -0.2208  0.6350 -0.1857
  449MPD2     C 6685   4.114   0.990  12.997  0.2415 -0.0048 -0.3206
  449MPD2    C1 6686   4.114   0.850  12.990 -0.4269  0.8469 -0.4698
  449MPD2    C2 6687   4.126   0.775  13.099 -0.1204 -0.1072 -0.1907
  449MPD2    C3 6688   4.122   0.833  13.229 -0.1877  0.5537 -0.5894
  449MPD2    C4 6689   4.121   0.972  13.242 -0.1405 -0.7853 -0.9120
  449MPD2    C5 6690   4.128   1.048  13.125  0.4428 -0.5499 -0.4730
  449MPD2     H 6691   4.134   0.667  13.091  2.4748  0.0658  0.2932
  449MPD2    H1 6692   4.114   1.025  13.337 -0.4547 -1.7197 -0.4165
  449MPD2    H2 6693   4.107   1.062  12.917  0.4261 -1.2331 -1.4583
  449MPD2    H3 6694   4.136   1.156  13.128 -0.4886 -0.4347 -2.1130
  449MPD2     N 6695   4.130   0.742  13.341  0.2617 -0.2748 -0.7838
  449MPD2    H5 6696   4.138   0.644  13.318  1.1971 -0.5826  0.8639
  449MPD2    N1 6697   4.088   0.777  12.876 -0.0517 -0.4149 -0.2746
  449MPD2    H7 6698   4.079   0.676  12.890  0.9909 -0.4932 -0.1790
  450TMC3    C1 6699   4.091   0.723  12.654 -0.1576  0.6023 -0.1660
  450TMC3    C2 6700   4.199   0.723  12.574  0.2358 -0.5053 -0.7043
  450TMC3    C3 6701   4.253   0.601  12.567 -0.0766  0.3750 -0.4923
  450TMC3    C4 6702   4.024   0.610  12.701  0.2235 -0.6835  0.4724
  450TMC3    C5 6703   4.084   0.485  12.698 -0.4442  0.3058 -0.4371
  450TMC3    C6 6704   4.202   0.482  12.623  1.4511 -0.3708 -0.7800
  450TMC3     C 6705   4.084   0.828  12.750  0.5092  0.8627  0.5107
  450TMC3     O 6706   4.096   0.948  12.718  1.0706 -0.2478  0.4333
  450TMC3     H 6707   4.249   0.811  12.535  2.5725 -0.4290  2.4498
  450TMC3    H1 6708   3.928   0.623  12.750  1.0399  0.2093  1.8250
  450TMC3    H2 6709   4.262   0.392  12.621  3.3898  0.8698  2.2055
  450TMC3    C7 6710   4.087   0.427  12.826  0.4428 -0.1731 -0.2874
  450TMC3    C8 6711   4.380   0.590  12.499 -0.9498 -0.3694 -0.6755
  450TMC3    O1 6712   4.070   0.510  12.911 -0.1936 -0.7756  0.3204
  450TMC3    O2 6713   4.392   0.650  12.394 -0.5772 -0.3081  0.4584
  451MPD2     C 6714   0.915   4.048   1.251 -0.3435  0.8792 -0.7928
  451MPD2    C1 6715   0.927   4.115   1.125  0.2089  1.2291  1.1921
  451MPD2    C2 6716   1.050   4.156   1.088 -0.1932  0.2534 -1.0354
  451MPD2    C3 6717   1.159   4.160   1.175 -0.6568  0.5170 -0.4054
  451MPD2    C4 6718   1.151   4.081   1.288 -0.3088 -0.2184  0.0279
  451MPD2    C5 6719   1.028   4.028   1.330 -0.2837 -0.1101  0.0791
  451MPD2     H 6720   1.066   4.199   0.990 -3.1998  0.4265 -1.4359
  451MPD2    H1 6721   1.239   4.069   1.350  0.2154  0.3671 -0.6021
  451MPD2    H2 6722   0.815   4.014   1.277  0.2736  0.6265  1.2218
  451MPD2    H3 6723   1.026   3.983   1.428  0.0530 -1.0075 -0.3280
  451MPD2     N 6724   1.274   4.222   1.148 -0.1077 -0.0635  0.6982
  451MPD2    H5 6725   1.349   4.206   1.214  2.9240 -1.8847 -3.1931
  451MPD2    N1 6726   0.808   4.142   1.056 -0.7055  0.4258  0.4131
  451MPD2    H7 6727   0.723   4.103   1.095 -1.6156  3.1807  1.1930
  452TMC3    C1 6728   1.445   4.319   1.021 -0.5077  0.3992 -0.5093
  452TMC3    C2 6729   1.501   4.411   1.106  0.3504  0.5663  0.0227
  452TMC3    C3 6730   1.594   4.488   1.047 -0.6306 -0.1864 -0.0404
  452TMC3    C4 6731   1.475   4.303   0.888 -0.3789 -0.3967  0.7221
  452TMC3    C5 6732   1.552   4.400   0.828 -0.6857  0.4784  0.0519
  452TMC3    C6 6733   1.617   4.490   0.907 -0.4029 -0.6927  0.7261
  452TMC3     C 6734   1.306   4.293   1.037  0.5507  0.7033  0.5435
  452TMC3     O 6735   1.241   4.321   0.935  0.4196  0.0987  0.7511
  452TMC3     H 6736   1.486   4.413   1.214  1.4179 -0.2477  0.1853
  452TMC3    H1 6737   1.426   4.227   0.828 -0.6911  0.4235 -0.0745
  452TMC3    H2 6738   1.671   4.568   0.854 -0.7111  0.9509  2.8205
  452TMC3    C7 6739   1.481   4.458   0.714 -0.4670  0.0654  0.7953
  452TMC3    C8 6740   1.679   4.566   1.133 -0.1573 -0.8296  0.0498
  452TMC3    O1 6741   1.538   4.541   0.645  0.9470  0.1021 -0.1497
  452TMC3    O2 6742   1.662   4.570   1.254  0.2606 -0.1891 -0.1149
  453TMC3    C1 6743   2.760   1.460  11.391 -0.1535  0.5807 -0.1030
  453TMC3    C2 6744   2.644   1.414  11.452  0.2311  0.0636  0.4113
  453TMC3    C3 6745   2.597   1.291  11.411 -0.2626 -0.1412  0.3042
  453TMC3    C4 6746   2.831   1.380  11.303  1.1491  0.6290 -0.1694
  453TMC3    C5 6747   2.786   1.258  11.271 -0.0385  0.3027  0.8479
  453TMC3    C6 6748   2.672   1.206  11.330 -0.0727 -0.3087  0.2143
  453TMC3     C 6749   2.850   1.545  11.463 -0.2543  0.0414  0.3072
  453TMC3     O 6750   2.950   1.588  11.406 -1.0131  0.0383  0.9956
  453TMC3     H 6751   2.585   1.482  11.512  0.0441  0.3536 -0.1017
  453TMC3    H1 6752   2.921   1.419  11.256  0.4120 -0.3365 -2.3705
  453TMC3    H2 6753   2.633   1.113  11.290  0.0477 -0.5530  0.6759
  453TMC3    C7 6754   2.874   1.171  11.191 -0.3019 -1.2131  0.6981
  453TMC3    C8 6755   2.478   1.247  11.470  0.6504  0.4437 -0.3360
  453TMC3    O1 6756   2.971   1.224  11.144  0.0882 -0.4389  0.3693
  453TMC3    O2 6757   2.429   1.332  11.542  0.1223  0.1375 -0.0801
  454MPD2     C 6758   1.137   0.998  16.165  0.3976 -0.1616 -0.4334
  454MPD2    C1 6759   1.123   1.119  16.100  0.0042 -0.0015 -0.1646
  454MPD2    C2 6760   1.051   1.219  16.162  0.1872 -0.5766  0.4229
  454MPD2    C3 6761   0.999   1.203  16.284  0.1196 -0.1159 -0.1296
  454MPD2    C4 6762   1.013   1.090  16.354  0.5500 -0.6257  0.6176
  454MPD2    C5 6763   1.085   0.992  16.294  0.4166 -0.2806  0.6750
  454MPD2     H 6764   1.029   1.313  16.112  0.0487 -0.3951  0.8209
  454MPD2    H1 6765   0.987   1.071  16.458  0.6845 -1.3184  0.5248
  454MPD2    H2 6766   1.188   0.910  16.128 -1.5903 -1.0982 -0.9618
  454MPD2    H3 6767   1.111   0.903  16.350  1.1261 -0.5397 -0.0714
  454MPD2     N 6768   0.939   1.323  16.334 -0.8252  0.0839  0.4142
  454MPD2    H5 6769   0.930   1.397  16.264  3.7652 -0.7241 -1.0168
  454MPD2    N1 6770   1.177   1.139  15.972 -0.3530 -0.7377 -0.8331
  454MPD2    H7 6771   1.223   1.060  15.927  3.3023  0.8210  0.2111
  455TMC3    C1 6772   0.786   1.449  16.422 -0.3893 -0.2256 -0.2262
  455TMC3    C2 6773   0.749   1.519  16.530  0.3650 -0.7107 -0.3276
  455TMC3    C3 6774   0.627   1.587  16.529 -0.1834  0.2707  0.2663
  455TMC3    C4 6775   0.710   1.431  16.316  0.9581  0.3512 -0.3600
  455TMC3    C5 6776   0.590   1.496  16.318  0.2197  0.0398  0.2645
  455TMC3    C6 6777   0.555   1.583  16.412  0.0427  0.1798 -0.1445
  455TMC3     C 6778   0.866   1.339  16.442 -0.4618 -0.0985 -0.5226
  455TMC3     O 6779   0.851   1.266  16.539 -0.1083  0.0409  0.3445
  455TMC3     H 6780   0.812   1.531  16.617 -1.8088 -1.1586  1.3194
  455TMC3    H1 6781   0.732   1.358  16.239 -1.6485  0.2075 -0.9828
  455TMC3    H2 6782   0.457   1.628  16.407 -0.9629 -2.3283 -3.7287
  455TMC3    C7 6783   0.489   1.452  16.223 -0.2425 -0.9716 -0.3515
  455TMC3    C8 6784   0.588   1.666  16.645 -0.4043 -0.1580 -0.0471
  455TMC3    O1 6785   0.373   1.465  16.249  0.2415  0.1197  0.1425
  455TMC3    O2 6786   0.678   1.701  16.726 -0.1204 -0.6020 -0.6223
  456MPD2     C 6787   3.466   1.119  15.725  0.4265 -0.0764  0.7564
  456MPD2    C1 6788   3.575   1.175  15.803  0.0082 -1.2809 -0.3743
  456MPD2    C2 6789   3.547   1.273  15.897  0.1818  0.2538  0.4283
  456MPD2    C3 6790   3.418   1.304  15.938  0.7041 -0.3735 -0.3870
  456MPD2    C4 6791   3.310   1.237  15.868  0.1772  0.6728  0.1082
  456MPD2    C5 6792   3.334   1.148  15.766 -0.7824  0.7352 -0.6155
  456MPD2     H 6793   3.632   1.324  15.939  0.1508 -0.4614  1.3717
  456MPD2    H1 6794   3.207   1.246  15.901 -0.0344  1.8362 -0.8818
  456MPD2    H2 6795   3.490   1.055  15.641 -1.7233  0.3856 -0.2173
  456MPD2    H3 6796   3.250   1.104  15.714  0.0557  0.7035 -1.9179
  456MPD2     N 6797   3.403   1.377  16.053  0.7110  0.7715  0.3004
  456MPD2    H5 6798   3.489   1.408  16.098 -0.4899  2.2190  1.5971
  456MPD2    N1 6799   3.704   1.128  15.772  0.6836 -0.5190 -0.0133
  456MPD2    H7 6800   3.727   1.071  15.692  1.9788 -0.2525  0.1726
  457TMC3    C1 6801   3.319   1.506  16.216  0.3020 -0.1063  0.5996
  457TMC3    C2 6802   3.240   1.613  16.245 -0.7961  0.5983  0.7872
  457TMC3    C3 6803   3.273   1.693  16.351  0.1121 -0.9466 -0.4335
  457TMC3    C4 6804   3.423   1.468  16.294  0.1435 -0.0311 -0.5689
  457TMC3    C5 6805   3.444   1.545  16.405 -0.1242  0.3049  0.0330
  457TMC3    C6 6806   3.378   1.664  16.436 -0.3085  0.7596  0.8021
  457TMC3     C 6807   3.290   1.431  16.100  0.2355  0.0585  0.1073
  457TMC3     O 6808   3.179   1.437  16.044  0.2546 -0.1256  0.1719
  457TMC3     H 6809   3.145   1.630  16.196  0.5181  1.0420 -1.6282
  457TMC3    H1 6810   3.469   1.370  16.281  1.3144  0.3512  0.7403
  457TMC3    H2 6811   3.410   1.728  16.518 -0.3336 -0.7090  1.9492
  457TMC3    C7 6812   3.519   1.488  16.515 -0.2990  0.6874 -0.6957
  457TMC3    C8 6813   3.202   1.823  16.365 -0.1159  0.0537 -0.0339
  457TMC3    O1 6814   3.524   1.368  16.539 -0.0412 -0.0238  0.2516
  457TMC3    O2 6815   3.193   1.878  16.474  0.4560  0.0810  0.2025
  458MPD2     C 6816   1.215   1.157  12.024  0.4041 -0.2717 -0.0820
  458MPD2    C1 6817   1.228   1.116  12.155 -0.5413  0.1399 -0.1475
  458MPD2    C2 6818   1.123   1.097  12.241  0.1514  0.2564 -0.2943
  458MPD2    C3 6819   0.996   1.121  12.194  0.4182 -0.2935 -0.5669
  458MPD2    C4 6820   0.980   1.148  12.063 -0.2686  0.4768 -0.2139
  458MPD2    C5 6821   1.086   1.169  11.979  0.3843  0.9903 -0.4562
  458MPD2     H 6822   1.140   1.081  12.346 -1.6940  0.8605  0.0966
  458MPD2    H1 6823   0.879   1.163  12.025 -1.2173  0.4812  2.3429
  458MPD2    H2 6824   1.297   1.170  11.954  2.4594  1.0201  2.5716
  458MPD2    H3 6825   1.065   1.193  11.875 -1.7158  1.3191  0.0531
  458MPD2     N 6826   0.885   1.085  12.273 -0.2851  0.2763 -0.7243
  458MPD2    H5 6827   0.913   1.024  12.349 -0.7155  0.6582 -0.2624
  458MPD2    N1 6828   1.358   1.085  12.197 -0.0731 -0.5356 -0.6015
  458MPD2    H7 6829   1.433   1.097  12.129 -0.6653  1.6339 -0.8917
  459TMC3    C1 6830   1.530   0.990  12.332 -0.1731  0.2224  0.0652
  459TMC3    C2 6831   1.623   1.083  12.295 -0.2600  0.8136  0.1290
  459TMC3    C3 6832   1.749   1.059  12.339  0.6208 -0.5278 -0.2694
  459TMC3    C4 6833   1.555   0.882  12.417 -0.1687 -0.6927  0.0579
  459TMC3    C5 6834   1.687   0.869  12.466  0.2844  0.4157 -1.0616
  459TMC3    C6 6835   1.780   0.964  12.428  0.0991 -0.1701 -0.0071
  459TMC3     C 6836   1.390   1.027  12.315 -0.0425 -0.6211 -0.2212
  459TMC3     O 6837   1.319   0.987  12.406  0.2354  0.0222  0.3120
  459TMC3     H 6838   1.591   1.168  12.235 -2.9007 -0.5845 -0.4467
  459TMC3    H1 6839   1.477   0.825  12.466 -2.5034  1.8331 -0.7031
  459TMC3    H2 6840   1.881   0.950  12.463 -0.2999 -3.3337 -0.0821
  459TMC3    C7 6841   1.691   0.793  12.592  0.0042  0.3767 -0.2753
  459TMC3    C8 6842   1.861   1.120  12.268  0.2813  0.3673  0.3979
  459TMC3    O1 6843   1.627   0.688  12.581 -0.5277  0.0855  0.3853
  459TMC3    O2 6844   1.959   1.117  12.332 -1.1130 -0.2554 -0.0284
  460MPD2     C 6845   1.008   3.255  10.553  0.2280 -0.5802  0.5995
  460MPD2    C1 6846   1.001   3.138  10.486 -0.2403 -0.3656  0.0683
  460MPD2    C2 6847   0.941   3.127  10.361  0.4928  0.1473  0.0072
  460MPD2    C3 6848   0.889   3.239  10.302  1.2201 -0.3300  0.5362
  460MPD2    C4 6849   0.901   3.356  10.375  0.9209 -0.2152  0.9082
  460MPD2    C5 6850   0.956   3.365  10.499 -0.2562 -0.4934  0.3734
  460MPD2     H 6851   0.926   3.033  10.308  2.3470 -0.5897  0.7796
  460MPD2    H1 6852   0.869   3.451  10.335 -1.0571 -0.5906  1.6003
  460MPD2    H2 6853   1.060   3.266  10.647 -0.9526  0.9536  1.0709
  460MPD2    H3 6854   0.961   3.458  10.554  0.4713 -0.7665  0.7513
  460MPD2     N 6855   0.806   3.235  10.188  0.7214 -0.3967  0.0888
  460MPD2    H5 6856   0.798   3.139  10.154 -1.0100  0.4905 -1.9675
  460MPD2    N1 6857   1.052   3.022  10.546  0.3014 -0.0163 -0.3068
  460MPD2    H7 6858   1.057   3.026  10.648 -0.8455 -0.1640 -0.2448
  461TMC3    C1 6859   0.717   3.300   9.978 -0.0019 -0.6219  0.2663
  461TMC3    C2 6860   0.663   3.178   9.959  0.4218  0.2503  0.1829
  461TMC3    C3 6861   0.619   3.149   9.833  0.0356  0.1848  0.5296
  461TMC3    C4 6862   0.709   3.393   9.877 -0.5316 -0.0517  0.2078
  461TMC3    C5 6863   0.672   3.356   9.754  0.5156 -0.6373 -0.4068
  461TMC3    C6 6864   0.616   3.239   9.726 -0.0453 -0.2640 -0.3065
  461TMC3     C 6865   0.758   3.342  10.108 -0.2817 -0.1412 -0.4070
  461TMC3     O 6866   0.781   3.461  10.128 -0.4595 -0.5667 -0.0608
  461TMC3     H 6867   0.664   3.102  10.037 -1.7525  0.4810  0.4458
  461TMC3    H1 6868   0.751   3.492   9.889  1.1247 -0.6747 -0.5857
  461TMC3    H2 6869   0.580   3.204   9.630 -1.7002  0.2375  0.1416
  461TMC3    C7 6870   0.654   3.457   9.655 -0.1704 -0.3315 -0.9549
  461TMC3    C8 6871   0.572   3.011   9.810  0.6069  0.4562  0.4915
  461TMC3    O1 6872   0.544   3.470   9.599 -0.2731  0.2015 -0.0841
  461TMC3    O2 6873   0.530   2.949   9.907 -0.9684  0.4272  0.0238
  462TMC3    C1 6874   4.701   0.245  17.549 -0.1150  0.0876  0.7894
  462TMC3    C2 6875   0.084   0.260  17.469  0.0598  0.5920  0.9218
  462TMC3    C3 6876   0.115   0.151  17.397 -0.3380  0.7445  0.6837
  462TMC3    C4 6877   4.617   0.138  17.541  0.1163  0.4817 -0.3353
  462TMC3    C5 6878   4.656   0.025  17.471  0.0449  0.3185  0.3332
  462TMC3    C6 6879   0.042   0.032  17.400 -0.0190 -0.0725  1.2285
  462TMC3     C 6880   4.660   0.356  17.639  0.1785 -0.0778  0.0112
  462TMC3     O 6881   0.005   0.457  17.639 -0.1624 -0.3670  0.2728
  462TMC3     H 6882   0.155   0.341  17.483  1.8392 -1.1030  1.7071
  462TMC3    H1 6883   4.526   0.131  17.601  0.3112  1.9128  0.1246
  462TMC3    H2 6884   0.064   4.666  17.342 -2.0556  0.7502 -0.8180
  462TMC3    C7 6885   4.570   4.629  17.458 -0.0667  0.5960 -0.4144
  462TMC3    C8 6886   0.258   0.135  17.363 -0.0585 -0.0692  0.6879
  462TMC3    O1 6887   4.612   4.541  17.385 -0.1296 -0.2573 -0.9891
  462TMC3    O2 6888   0.321   0.227  17.311 -0.1458 -0.0756  0.4291
  463MPD2     C 6889   2.130   2.712   2.213 -0.2417 -0.4666  0.3720
  463MPD2    C1 6890   2.143   2.804   2.112 -0.4830 -0.5900 -0.0744
  463MPD2    C2 6891   2.243   2.899   2.117  0.7248  0.2707  0.5500
  463MPD2    C3 6892   2.328   2.902   2.218  0.7248  0.1807 -0.2560
  463MPD2    C4 6893   2.325   2.805   2.318 -0.2448 -0.0538  0.5014
  463MPD2    C5 6894   2.224   2.712   2.312  0.1784  0.2582 -0.2908
  463MPD2     H 6895   2.244   2.969   2.033 -0.3112 -0.2312  0.1169
  463MPD2    H1 6896   2.393   2.802   2.403 -1.8894  0.3003  1.8275
  463MPD2    H2 6897   2.043   2.650   2.231  3.0262 -3.8297  4.5100
  463MPD2    H3 6898   2.221   2.631   2.385  3.1055  0.9363  0.5934
  463MPD2     N 6899   2.445   2.981   2.221  0.0458  0.2333  1.0353
  463MPD2    H5 6900   2.497   2.965   2.307  0.9555 -0.2658  0.3976
  463MPD2    N1 6901   2.053   2.826   2.007 -0.1660  0.0403 -0.5509
  463MPD2    H7 6902   2.053   2.916   1.960 -0.0629  0.9476  1.1803
  464TMC3    C1 6903   1.867   2.778   1.881 -0.5444 -0.5965 -0.4029
  464TMC3    C2 6904   1.855   2.911   1.840 -0.8839  0.3637 -0.0974
  464TMC3    C3 6905   1.772   2.935   1.731  0.0850  0.4101 -0.0739
  464TMC3    C4 6906   1.795   2.681   1.813  0.3333 -0.1790 -0.2978
  464TMC3    C5 6907   1.710   2.713   1.718 -0.4727  0.2131 -0.1777
  464TMC3    C6 6908   1.685   2.839   1.677  0.3893 -0.4961 -0.2590
  464TMC3     C 6909   1.962   2.731   1.980  0.3351 -0.6886 -0.2219
  464TMC3     O 6910   1.972   2.614   1.999 -0.2261 -0.7681  0.0312
  464TMC3     H 6911   1.932   2.982   1.869 -0.3223 -0.0999 -0.4581
  464TMC3    H1 6912   1.830   2.580   1.830  1.3655  0.0435 -1.0739
  464TMC3    H2 6913   1.612   2.862   1.600 -0.3431  3.5425  1.5988
  464TMC3    C7 6914   1.663   2.597   1.640 -0.4602 -0.0460  0.0077
  464TMC3    C8 6915   1.766   3.076   1.665 -0.6515  0.2699  0.0919
  464TMC3    O1 6916   1.729   2.494   1.645  0.2327 -0.1627 -0.0485
  464TMC3    O2 6917   1.694   3.095   1.565 -0.0096 -0.0521  0.3028
  465MPD2     C 6918   2.739   1.415  16.805  0.3437  0.3267  0.2781
  465MPD2    C1 6919   2.652   1.486  16.889  0.1245  0.6340  0.1851
  465MPD2    C2 6920   2.523   1.513  16.851 -1.0257  0.1266 -0.1012
  465MPD2    C3 6921   2.474   1.473  16.730  0.2465  0.5232  0.8875
  465MPD2    C4 6922   2.561   1.412  16.643  0.6313 -0.3682 -0.8172
  465MPD2    C5 6923   2.688   1.377  16.684 -0.2918 -0.3947 -0.0231
  465MPD2     H 6924   2.452   1.565  16.915  0.6818  4.1607 -1.5005
  465MPD2    H1 6925   2.530   1.392  16.541 -1.0973 -0.0063 -0.3669
  465MPD2    H2 6926   2.840   1.390  16.835  0.4914  0.1211 -0.4022
  465MPD2    H3 6927   2.766   1.333  16.622 -0.7922  0.6564 -1.3810
  465MPD2     N 6928   2.344   1.513  16.696 -0.1435  0.1606 -0.1919
  465MPD2    H5 6929   2.289   1.553  16.770  1.3739  2.0475 -0.0675
  465MPD2    N1 6930   2.692   1.533  17.012  0.2465  0.0296  0.6445
  465MPD2    H7 6931   2.618   1.571  17.070 -0.7169 -0.6821 -0.1227
  466TMC3    C1 6932   1.987   1.674  16.673  0.4617 -0.2114 -0.1212
  466TMC3    C2 6933   1.962   1.765  16.570  0.7779 -0.2272  0.9961
  466TMC3    C3 6934   2.043   1.759  16.461 -0.4259  1.0959 -0.3912
  466TMC3    C4 6935   2.090   1.587  16.683  0.0035  0.9938 -0.1636
  466TMC3    C5 6936   2.170   1.587  16.570 -0.1071 -0.1793  0.1498
  466TMC3    C6 6937   2.148   1.668  16.459 -0.5034  0.6974 -0.1205
  466TMC3     C 6938   1.886   1.661  16.781  0.4015 -0.6230  0.1294
  466TMC3     O 6939   1.919   1.620  16.891 -0.6351 -0.5342 -0.7758
  466TMC3     H 6940   1.899   1.852  16.584 -0.6282 -1.7743  4.2004
  466TMC3    H1 6941   2.085   1.513  16.761 -0.6770 -0.1372 -1.2735
  466TMC3    H2 6942   2.223   1.663  16.381  1.0729 -0.8725  1.4981
  466TMC3    C7 6943   2.295   1.510  16.569 -0.1414 -0.4434  0.2099
  466TMC3    C8 6944   2.102   1.887  16.418  0.2538 -0.1853 -0.3435
  466TMC3    O1 6945   2.344   1.500  16.460  0.2791 -0.0043 -0.0052
  466TMC3    O2 6946   2.165   1.882  16.311 -0.2015 -0.0910  0.8546
  467TMC3    C1 6947   3.263   4.226  13.538 -0.1566 -1.1991 -0.5861
  467TMC3    C2 6948   3.242   4.320  13.442  0.2128 -0.8253  0.2113
  467TMC3    C3 6949   3.162   4.432  13.471 -0.2992  0.2491 -0.1955
  467TMC3    C4 6950   3.220   4.249  13.673 -0.0266 -0.6693 -0.5134
  467TMC3    C5 6951   3.136   4.354  13.691  0.1987  0.0467 -0.1303
  467TMC3    C6 6952   3.103   4.442  13.598  0.4008 -0.0436 -0.0352
  467TMC3     C 6953   3.398   4.167  13.526  0.3745  0.2108  0.6645
  467TMC3     O 6954   3.464   4.166  13.631  0.0805 -0.0794 -1.1557
  467TMC3     H 6955   3.276   4.316  13.339  2.7511  0.7439  1.0039
  467TMC3    H1 6956   3.242   4.177  13.752  1.7664 -2.3212 -2.5026
  467TMC3    H2 6957   3.053   4.536  13.619  1.2502  0.8727 -2.1389
  467TMC3    C7 6958   3.063   4.353  13.821 -0.3297 -0.1849  0.0013
  467TMC3    C8 6959   3.215   4.557  13.414  0.6742 -0.5253  0.5409
  467TMC3    O1 6960   3.116   4.284  13.905 -0.3991 -0.0231  0.1764
  467TMC3    O2 6961   3.140   4.649  13.379  0.7389  0.2523  0.0283
  468MPD2     C 6962   3.180   2.510  10.546  0.2673 -0.4099 -0.6903
  468MPD2    C1 6963   3.089   2.473  10.642 -0.1788  0.2067 -0.0685
  468MPD2    C2 6964   3.056   2.338  10.652  0.2829  0.5106 -0.4033
  468MPD2    C3 6965   3.113   2.242  10.569 -0.4539  0.0803 -0.7507
  468MPD2    C4 6966   3.202   2.286  10.473 -0.8284  0.3265 -0.8365
  468MPD2    C5 6967   3.233   2.418  10.457  0.1964  0.2896  0.1129
  468MPD2     H 6968   2.993   2.309  10.735 -0.4900  1.1893 -0.7560
  468MPD2    H1 6969   3.248   2.222  10.398 -1.2761 -1.5173  0.4661
  468MPD2    H2 6970   3.216   2.612  10.535 -0.1421 -0.0889  0.9521
  468MPD2    H3 6971   3.296   2.458  10.378  2.2414  0.0025  1.5795
  468MPD2     N 6972   3.090   2.103  10.568  0.0954  0.1842  0.0214
  468MPD2    H5 6973   3.137   2.046  10.499  0.8099 -1.2897  1.7353
  468MPD2    N1 6974   3.044   2.570  10.739 -0.2160  0.2978 -0.1858
  468MPD2    H7 6975   3.085   2.661  10.718  1.9816 -0.6961 -0.2869
  469TMC3    C1 6976   2.965   2.657  10.946  0.3227  0.0610 -0.4943
  469TMC3    C2 6977   3.088   2.714  10.968 -0.5723 -0.5451 -0.4650
  469TMC3    C3 6978   3.119   2.772  11.091 -0.5577 -0.0666 -1.0964
  469TMC3    C4 6979   2.865   2.658  11.043  0.4903  0.4390  0.2149
  469TMC3    C5 6980   2.902   2.706  11.161 -0.7570 -0.1370 -0.5288
  469TMC3    C6 6981   3.017   2.775  11.183  0.1296  0.1317  0.5510
  469TMC3     C 6982   2.951   2.557  10.835 -0.5832  0.3518 -0.5109
  469TMC3     O 6983   2.865   2.476  10.859 -0.7924  0.0237 -0.0615
  469TMC3     H 6984   3.161   2.713  10.888 -0.3222 -0.1826 -0.2417
  469TMC3    H1 6985   2.770   2.609  11.026  0.6203  0.3199 -0.1768
  469TMC3    H2 6986   3.030   2.826  11.278 -0.1398 -0.4871  0.9170
  469TMC3    C7 6987   2.782   2.762  11.227  0.1665 -1.1922 -0.2593
  469TMC3    C8 6988   3.254   2.793  11.129  0.1808  0.1186  0.2863
  469TMC3    O1 6989   2.697   2.684  11.254 -0.3739  0.0017 -0.3899
  469TMC3    O2 6990   3.335   2.753  11.049 -0.5256 -0.2301  0.6237
  470TMC3    C1 6991   4.097   3.821   0.132  0.2427 -0.1100  0.1313
  470TMC3    C2 6992   4.062   3.948   0.096  0.3388 -0.7575  0.1629
  470TMC3    C3 6993   4.130   4.048   0.161 -0.0599  0.5397 -0.3100
  470TMC3    C4 6994   4.198   3.798   0.225 -0.5855 -0.1615 -0.4781
  470TMC3    C5 6995   4.258   3.904   0.283  0.5078 -0.0821 -0.2313
  470TMC3    C6 6996   4.225   4.031   0.252 -0.1009  0.0007 -0.7102
  470TMC3     C 6997   4.032   3.718   0.056 -0.3065  0.3371  0.0176
  470TMC3     O 6998   3.969   3.751  17.653 -0.3799 -0.5669 -0.2576
  470TMC3     H 6999   3.987   3.963   0.018 -0.2568  0.3160  0.9420
  470TMC3    H1 7000   4.235   3.707   0.270  0.9452  0.9994  0.6127
  470TMC3    H2 7001   4.273   4.110   0.308  2.7370 -1.8187 -0.5710
  470TMC3    C7 7002   4.375   3.896   0.364 -0.3108 -0.7652  0.3075
  470TMC3    C8 7003   4.074   4.184   0.157 -0.0547  0.2866  0.8786
  470TMC3    O1 7004   4.463   3.981   0.341 -0.0302  0.6199 -0.3083
  470TMC3    O2 7005   3.993   4.208   0.070 -0.5375  0.4871 -0.2739
  471MPD2     C 7006   0.971   0.329  15.945  0.4366 -0.4545 -0.1026
  471MPD2    C1 7007   0.896   0.220  15.990 -0.0246  0.2025 -1.2639
  471MPD2    C2 7008   0.927   0.178  16.117 -0.3307  0.3467 -0.7209
  471MPD2    C3 7009   1.003   0.254  16.205  0.2222  0.0459  0.4216
  471MPD2    C4 7010   1.061   0.372  16.158 -0.1356  0.4753  0.1155
  471MPD2    C5 7011   1.049   0.404  16.025 -0.4016 -0.1208 -0.7156
  471MPD2     H 7012   0.883   0.081  16.137  0.2588  0.2356  0.0640
  471MPD2    H1 7013   1.123   0.434  16.221 -1.2993  0.1714  1.5526
  471MPD2    H2 7014   0.966   0.371  15.846  1.0695  0.5037  0.2699
  471MPD2    H3 7015   1.109   0.485  15.986  1.8991  0.0848  3.2179
  471MPD2     N 7016   1.025   0.225  16.341  0.1896  0.0156 -0.3055
  471MPD2    H5 7017   1.073   0.287  16.405 -1.3995 -0.3879  1.2816
  471MPD2    N1 7018   0.807   0.145  15.911  0.1969 -0.2393 -0.1578
  471MPD2    H7 7019   0.754   0.075  15.962 -0.5755  1.8144  1.8049
  472TMC3    C1 7020   0.667   0.084  15.727  0.0456 -0.4893 -0.0175
  472TMC3    C2 7021   0.580   0.128  15.627  0.2040  0.8668 -0.1752
  472TMC3    C3 7022   0.484   0.038  15.597 -0.0838 -0.3088 -0.3048
  472TMC3    C4 7023   0.673   4.676  15.763  0.6539 -0.0975  0.0239
  472TMC3    C5 7024   0.586   4.579  15.720  0.2829  0.0667  0.5025
  472TMC3    C6 7025   0.480   4.633  15.647  0.3713 -0.0950  0.5332
  472TMC3     C 7026   0.761   0.180  15.781  0.7193  0.3840 -1.0309
  472TMC3     O 7027   0.811   0.259  15.706  1.1681 -0.6491 -0.1020
  472TMC3     H 7028   0.565   0.233  15.604  0.1969  1.5310  2.8929
  472TMC3    H1 7029   0.766   4.649  15.812  1.4049  0.8259 -0.8900
  472TMC3    H2 7030   0.398   4.564  15.629 -2.5233  3.3577  0.6476
  472TMC3    C7 7031   0.559   4.468  15.806  0.3291 -0.3287 -0.7049
  472TMC3    C8 7032   0.360   0.089  15.536  0.4071 -0.0898 -0.2268
  472TMC3    O1 7033   0.584   4.472  15.928  0.3515 -0.0505  0.0005
  472TMC3    O2 7034   0.367   0.177  15.452  0.3150 -0.2261 -0.0789
  473MPD2     C 7035   0.386   2.360  14.043  0.0737 -0.5844  0.4823
  473MPD2    C1 7036   0.393   2.462  13.948 -0.2868  0.6201 -0.6135
  473MPD2    C2 7037   0.407   2.597  13.982  0.0439 -0.2280  0.1976
  473MPD2    C3 7038   0.395   2.638  14.108 -0.5666  0.4082 -0.0677
  473MPD2    C4 7039   0.389   2.540  14.205  0.3011 -0.4343 -0.0839
  473MPD2    C5 7040   0.400   2.405  14.171 -0.1893  0.0071 -0.4616
  473MPD2     H 7041   0.414   2.670  13.901 -0.3625  0.6606  0.9648
  473MPD2    H1 7042   0.396   2.568  14.310 -0.5535  0.5887 -0.3053
  473MPD2    H2 7043   0.394   2.257  14.012 -0.0582 -0.1673 -0.9367
  473MPD2    H3 7044   0.416   2.340  14.257 -1.3358  0.6941  0.2767
  473MPD2     N 7045   0.384   2.772  14.143 -0.1913  0.3917  0.0556
  473MPD2    H5 7046   0.393   2.784  14.244  0.5678  1.0245 -0.0850
  473MPD2    N1 7047   0.396   2.441  13.805  0.1102 -0.1004  0.0322
  473MPD2    H7 7048   0.430   2.522  13.754  1.2756 -0.6551 -0.0830
  474TMC3    C1 7049   0.354   3.006  14.111  0.0964 -0.2113 -0.5550
  474TMC3    C2 7050   0.248   3.085  14.081 -0.0444 -0.2737 -0.2717
  474TMC3    C3 7051   0.271   3.217  14.087 -0.2366  1.0274  0.7852
  474TMC3    C4 7052   0.466   3.047  14.172  0.1822  0.5980 -0.7914
  474TMC3    C5 7053   0.487   3.183  14.167 -0.3940 -0.8282 -0.3734
  474TMC3    C6 7054   0.389   3.268  14.129  0.5060 -0.4310 -0.7909
  474TMC3     C 7055   0.344   2.871  14.057 -0.0658 -0.6683  0.6811
  474TMC3     O 7056   0.296   2.860  13.941  0.0715 -0.0337  0.0017
  474TMC3     H 7057   0.157   3.041  14.041 -0.0171 -0.8663  0.3163
  474TMC3    H1 7058   0.544   2.973  14.175 -1.1728 -0.7712  0.3060
  474TMC3    H2 7059   0.403   3.375  14.119  0.9589 -0.4217 -0.0418
  474TMC3    C7 7060   0.625   3.234  14.182  0.3889 -0.3530  0.3412
  474TMC3    C8 7061   0.161   3.300  14.050  0.5294 -0.7130  0.1390
  474TMC3    O1 7062   0.649   3.342  14.128  0.0373 -0.3602 -0.3420
  474TMC3    O2 7063   0.079   3.244  13.978  0.2361  0.0557 -0.2830
  475MPD2     C 7064   3.787   0.216  10.425 -0.2963 -0.1540 -0.2687
  475MPD2    C1 7065   3.781   0.214  10.286  0.2095 -0.3940 -0.3086
  475MPD2    C2 7066   3.659   0.227  10.221 -0.4130  0.2371  0.0041
  475MPD2    C3 7067   3.542   0.219  10.292  0.6042 -0.0212  0.3521
  475MPD2    C4 7068   3.546   0.201  10.430 -0.4470  0.2932  0.0325
  475MPD2    C5 7069   3.668   0.211  10.496 -1.0621 -0.2831  0.0495
  475MPD2     H 7070   3.654   0.248  10.115  3.6390  1.1934 -0.0142
  475MPD2    H1 7071   3.459   0.181  10.492 -1.0943 -2.3682 -1.7050
  475MPD2    H2 7072   3.882   0.213  10.477 -0.8352 -0.4982  0.7101
  475MPD2    H3 7073   3.664   0.202  10.604  0.2864  1.8700  0.2669
  475MPD2     N 7074   3.421   0.225  10.212  0.3462  0.0597  0.1283
  475MPD2    H5 7075   3.428   0.240  10.112  1.5319  0.1289  0.2191
  475MPD2    N1 7076   3.910   0.209  10.222 -0.0182  0.2457  0.3600
  475MPD2    H7 7077   3.991   0.188  10.281  0.3155  1.3034  0.2793
  476TMC3    C1 7078   4.059   0.187  10.040  0.3657 -0.2264  0.5171
  476TMC3    C2 7079   4.069   0.115   9.924 -0.8105 -0.2999  0.0664
  476TMC3    C3 7080   4.189   0.108   9.864  0.3757  0.7017  0.0285
  476TMC3    C4 7081   4.166   0.249  10.100 -0.3970 -0.2883  0.2243
  476TMC3    C5 7082   4.285   0.236  10.036 -0.1640 -0.1657 -0.4238
  476TMC3    C6 7083   4.305   0.159   9.921 -0.2059 -0.2214  0.3062
  476TMC3     C 7084   3.926   0.215  10.088 -0.3168 -0.5503 -0.1443
  476TMC3     O 7085   3.844   0.234  10.003  0.5421  0.5800 -0.1283
  476TMC3     H 7086   3.972   0.103   9.879 -1.2022 -0.1919  0.8804
  476TMC3    H1 7087   4.140   0.301  10.192 -2.2623  0.9154 -0.9625
  476TMC3    H2 7088   4.389   0.166   9.853 -1.2343  1.0237 -0.8403
  476TMC3    C7 7089   4.408   0.311  10.079 -0.9416  0.0034 -0.0817
  476TMC3    C8 7090   4.209   0.034   9.737 -0.4000  0.5142 -0.9438
  476TMC3    O1 7091   4.513   0.297  10.014  0.4984  0.3718  0.1057
  476TMC3    O2 7092   4.315   0.044   9.675  0.4089  0.2509  0.4406
  477MPD2     C 7093   1.902   2.123  10.848 -0.1932 -0.1207 -0.0631
  477MPD2    C1 7094   1.805   2.028  10.872  0.4756 -1.2229  0.6886
  477MPD2    C2 7095   1.811   1.942  10.982 -0.2360  0.5250  0.3949
  477MPD2    C3 7096   1.912   1.961  11.076 -0.2128  0.0995  0.0785
  477MPD2    C4 7097   2.011   2.052  11.047 -0.2251  0.1872 -0.0848
  477MPD2    C5 7098   2.006   2.132  10.935  0.3500  0.0204  0.5305
  477MPD2     H 7099   1.741   1.863  11.007 -0.8559  0.6388 -1.0006
  477MPD2    H1 7100   2.097   2.072  11.110 -0.6704  1.4748  0.1127
  477MPD2    H2 7101   1.890   2.198  10.770 -1.9029  0.7879  1.0724
  477MPD2    H3 7102   2.073   2.217  10.927 -0.6973  0.4979 -2.8138
  477MPD2     N 7103   1.913   1.887  11.192 -0.1233 -0.0962  0.8640
  477MPD2    H5 7104   1.848   1.809  11.196 -1.1532  0.6665 -1.1323
  477MPD2    N1 7105   1.696   2.019  10.779  0.5807  0.0054  0.6655
  477MPD2    H7 7106   1.696   2.091  10.709  1.6528  0.1416  0.8124
  478TMC3    C1 7107   1.476   1.970  10.712  0.2431  0.2815 -0.4266
  478TMC3    C2 7108   1.360   1.906  10.758  0.1895  0.4444 -0.1222
  478TMC3    C3 7109   1.261   1.884  10.660 -0.7591 -0.4045 -0.1161
  478TMC3    C4 7110   1.498   2.006  10.573  0.2080  0.0381 -0.6122
  478TMC3    C5 7111   1.396   1.976  10.486  0.1520 -0.7976 -0.2317
  478TMC3    C6 7112   1.280   1.914  10.526  0.3743  0.5785 -0.2498
  478TMC3     C 7113   1.588   1.930  10.792  0.2046 -0.3992 -0.1925
  478TMC3     O 7114   1.579   1.819  10.847  0.4559  0.4208  0.2055
  478TMC3     H 7115   1.341   1.885  10.862 -0.4028  0.9164 -0.1358
  478TMC3    H1 7116   1.591   2.054  10.545  0.2693  1.6476  2.2618
  478TMC3    H2 7117   1.196   1.905  10.459  0.4837 -2.2849  0.0189
  478TMC3    C7 7118   1.364   2.077  10.382 -0.0504  0.0487 -0.2457
  478TMC3    C8 7119   1.127   1.918  10.710 -0.6520  0.2043  0.8378
  478TMC3    O1 7120   1.289   2.042  10.294  0.0963 -0.3774  0.0823
  478TMC3    O2 7121   1.040   1.845  10.676 -0.1166  0.6296 -0.4524
  479MPD2     C 7122   0.116   4.650  14.780 -0.1123  0.0727 -0.2034
  479MPD2    C1 7123   0.079   4.536  14.833  0.0991  0.1362  0.1503
  479MPD2    C2 7124   0.113   4.508  14.968  0.4869  0.8244  0.0290
  479MPD2    C3 7125   0.182   4.608  15.039 -0.0538  0.1110  0.2157
  479MPD2    C4 7126   0.228   4.717  14.969 -0.5576 -0.6150  0.2428
  479MPD2    C5 7127   0.193   0.017  14.840  0.4789  0.2982  0.7719
  479MPD2     H 7128   0.084   4.413  15.010  2.4284  1.0333  1.8941
  479MPD2    H1 7129   0.298   0.054  15.025 -1.2918  0.1244  0.3623
  479MPD2    H2 7130   0.087   4.668  14.677  0.1563 -0.7786 -0.4335
  479MPD2    H3 7131   0.227   0.101  14.780 -4.0271  0.7359 -1.2258
  479MPD2     N 7132   0.218   4.600  15.175 -0.4184  0.4113 -0.2500
  479MPD2    H5 7133   0.294   4.661  15.204 -0.7266  0.0956  1.2071
  479MPD2    N1 7134   4.720   4.455  14.753  0.1678  0.0062 -0.0711
  479MPD2    H7 7135   4.705   4.477  14.655 -0.1198  0.5401  0.0891
  480TMC3    C1 7136   4.580   4.350  15.350  0.5448  0.0842  0.6274
  480TMC3    C2 7137   4.486   4.409  15.274  0.0746  0.1240  0.0714
  480TMC3    C3 7138   4.531   4.508  15.197 -0.2414  0.1759  0.0896
  480TMC3    C4 7139   4.713   4.378  15.349  0.0645  1.0910  0.0162
  480TMC3    C5 7140   0.029   4.471  15.263  0.1039  0.5863 -0.8798
  480TMC3    C6 7141   4.659   4.546  15.195 -0.0543  0.3854 -0.3025
  480TMC3     C 7142   4.545   4.232  15.420 -0.5400 -0.2557  0.5301
  480TMC3     O 7143   4.626   4.147  15.440  0.0499  0.0202  0.7624
  480TMC3     H 7144   4.387   4.366  15.269  0.6344 -1.3801  2.0591
  480TMC3    H1 7145   0.060   4.325  15.413 -0.3886  0.4135 -0.0433
  480TMC3    H2 7146   4.674   4.644  15.151  2.0306  0.3462  0.3459
  480TMC3    C7 7147   0.170   4.510  15.267  0.9464  0.7137  0.6903
  480TMC3    C8 7148   4.427   4.570  15.122  0.3621 -0.3547 -0.1457
  480TMC3    O1 7149   0.218   4.494  15.378 -0.5477  0.7800 -0.2773
  480TMC3    O2 7150   4.311   4.557  15.162  0.2182  0.2119 -0.3370
  481MPD2     C 7151   1.429   4.483  14.303 -0.0226  0.4736 -0.8568
  481MPD2    C1 7152   1.389   4.353  14.309 -0.2733  0.6223 -0.4236
  481MPD2    C2 7153   1.420   4.271  14.416 -0.2915 -0.2052  0.3044
  481MPD2    C3 7154   1.512   4.317  14.508  0.3636 -0.1728 -0.3600
  481MPD2    C4 7155   1.558   4.449  14.504 -0.0918 -0.2161 -0.2748
  481MPD2    C5 7156   1.513   4.536  14.396  0.1743  0.0103 -0.4316
  481MPD2     H 7157   1.364   4.180  14.434  1.9733 -1.2541  2.0040
  481MPD2    H1 7158   1.624   4.483  14.582  0.2683 -2.3075  0.3209
  481MPD2    H2 7159   1.403   4.550  14.221 -0.6844  1.6269  0.2992
  481MPD2    H3 7160   1.558   4.635  14.385  0.8104 -0.1860  0.4498
  481MPD2     N 7161   1.556   4.237  14.615 -0.0045 -0.5023  0.7691
  481MPD2    H5 7162   1.639   4.268  14.664  0.4432  2.3605 -1.8122
  481MPD2    N1 7163   1.307   4.325  14.206 -0.5691 -0.0062  0.5216
  481MPD2    H7 7164   1.283   4.397  14.139 -0.6948 -0.8623 -0.3425
  482TMC3    C1 7165   1.199   4.205  14.045 -1.1226 -0.4359 -0.0773
  482TMC3    C2 7166   1.229   4.090  13.971  0.2309 -0.1320  0.4116
  482TMC3    C3 7167   1.268   4.117  13.841  0.1619  0.4131  0.6325
  482TMC3    C4 7168   1.193   4.329  14.000  0.5195  0.2400 -0.0126
  482TMC3    C5 7169   1.207   4.342  13.861  0.1973  0.3184  0.1241
  482TMC3    C6 7170   1.259   4.239  13.781  0.0966 -0.1857  0.7330
  482TMC3     C 7171   1.258   4.199  14.177  0.4683  0.5798 -0.1219
  482TMC3     O 7172   1.292   4.096  14.239  0.2101 -0.1726 -0.0816
  482TMC3     H 7173   1.237   3.991  14.015 -1.1730 -0.3107  0.2676
  482TMC3    H1 7174   1.141   4.409  14.053  0.7688  0.2963  0.1493
  482TMC3    H2 7175   1.269   4.247  13.674 -0.9534 -0.2658  0.6234
  482TMC3    C7 7176   1.206   4.475  13.810  0.3963 -0.3859 -0.7979
  482TMC3    C8 7177   1.353   4.022  13.771 -0.0206 -1.4079  0.0755
  482TMC3    O1 7178   1.236   4.566  13.895  0.3518 -0.5778  0.1758
  482TMC3    O2 7179   1.340   3.912  13.821  0.1187 -0.8692 -0.1542
  483TMC3    C1 7180   4.258   3.183   0.707  0.0383  0.4645  0.4055
  483TMC3    C2 7181   4.290   3.286   0.619  0.2424 -0.4471  0.1852
  483TMC3    C3 7182   4.418   3.342   0.634 -0.2808 -1.1272  0.7967
  483TMC3    C4 7183   4.335   3.140   0.806  0.5071  0.1723  0.2221
  483TMC3    C5 7184   4.454   3.213   0.825  0.5634  0.0362 -0.3464
  483TMC3    C6 7185   4.499   3.307   0.737  0.4002 -0.8709  0.3894
  483TMC3     C 7186   4.134   3.103   0.684  0.1571 -0.1876 -0.4195
  483TMC3     O 7187   4.130   2.984   0.712  0.0109 -0.3139  0.2170
  483TMC3     H 7188   4.233   3.313   0.531 -0.0054  0.5334  0.6447
  483TMC3    H1 7189   4.307   3.048   0.856 -0.3356  0.9749  1.2252
  483TMC3    H2 7190   4.598   3.351   0.745  0.5374 -1.1772  0.3816
  483TMC3    C7 7191   4.553   3.157   0.916 -0.1146 -0.5277  0.4954
  483TMC3    C8 7192   4.474   3.414   0.518  0.6314  0.0743  0.6714
  483TMC3    O1 7193   4.669   3.201   0.906 -0.2578 -0.1262  0.4403
  483TMC3    O2 7194   4.393   3.433   0.430 -0.0536  0.2232 -0.6452
  484MPD2     C 7195   1.889   1.320  11.967  0.1866  1.1467 -0.4396
  484MPD2    C1 7196   1.923   1.224  12.053 -0.1345  0.1188  0.4314
  484MPD2    C2 7197   2.051   1.160  12.046 -0.4133 -0.2393  0.5581
  484MPD2    C3 7198   2.138   1.204  11.942  0.1811 -0.2693 -0.4449
  484MPD2    C4 7199   2.094   1.299  11.859 -0.0450 -0.7488  0.2606
  484MPD2    C5 7200   1.973   1.361  11.873 -0.2873  0.3001  0.3134
  484MPD2     H 7201   2.079   1.078  12.111  1.6213 -0.4292 -0.5736
  484MPD2    H1 7202   2.158   1.332  11.778  1.7468 -0.7251  1.6741
  484MPD2    H2 7203   1.787   1.354  11.982 -0.3070 -0.4031 -0.2406
  484MPD2    H3 7204   1.932   1.428  11.798  0.2838 -1.4343 -1.5288
  484MPD2     N 7205   2.266   1.139  11.912 -0.1801  0.6193  0.5037
  484MPD2    H5 7206   2.298   1.156  11.818 -1.2007 -3.0530 -0.5039
  484MPD2    N1 7207   1.831   1.176  12.144  0.0508  0.3788 -0.1752
  484MPD2    H7 7208   1.732   1.184  12.121 -0.2121 -3.1476 -0.3300
  485TMC3    C1 7209   2.445   0.989  11.951  0.7017  1.5938  0.0980
  485TMC3    C2 7210   2.456   0.862  11.996  0.2901 -0.9354 -0.3089
  485TMC3    C3 7211   2.487   0.766  11.900 -0.0232  0.2300 -0.4038
  485TMC3    C4 7212   2.487   1.019  11.823 -0.3684 -0.3514  0.2778
  485TMC3    C5 7213   2.532   0.925  11.738  0.0386  0.2359 -0.2661
  485TMC3    C6 7214   2.521   0.793  11.769  0.0623 -0.6063  0.4147
  485TMC3     C 7215   2.332   1.059  12.003  0.8531 -1.0248  0.4740
  485TMC3     O 7216   2.304   1.038  12.119  0.4016 -0.1786 -0.3559
  485TMC3     H 7217   2.411   0.835  12.091  0.8177 -0.6555  0.0206
  485TMC3    H1 7218   2.488   1.122  11.788 -0.9258  0.0885  1.5478
  485TMC3    H2 7219   2.559   0.713  11.705  0.5740  0.5588 -0.7378
  485TMC3    C7 7220   2.655   0.964  11.678 -0.3056  0.2842 -0.3291
  485TMC3    C8 7221   2.590   0.677  11.949  0.3042  0.1796 -0.7042
  485TMC3    O1 7222   2.669   1.078  11.639  0.1656  0.3231  0.7727
  485TMC3    O2 7223   2.701   0.685  11.889 -0.0126  0.1434 -0.5519
  486MPD2     C 7224   4.400   4.475  12.659  0.4839 -0.2366 -0.5495
  486MPD2    C1 7225   4.415   4.472  12.523 -0.6855 -0.3903  0.1412
  486MPD2    C2 7226   4.361   4.575  12.447  0.1216 -0.0002  0.0877
  486MPD2    C3 7227   4.291   4.678  12.499  0.1962  0.0402 -0.1291
  486MPD2    C4 7228   4.274   4.678  12.633 -0.5354 -0.2774 -0.1048
  486MPD2    C5 7229   4.339   4.584  12.719 -0.1502  0.4238  0.3010
  486MPD2     H 7230   4.359   4.565  12.339  0.3578 -2.1036  0.2783
  486MPD2    H1 7231   4.217   0.035  12.676  0.4108  1.2459 -1.7323
  486MPD2    H2 7232   4.455   4.408  12.724 -0.2014  0.2619  0.5517
  486MPD2    H3 7233   4.328   4.604  12.825 -1.8667  1.6250 -0.0955
  486MPD2     N 7234   4.234   0.055  12.409  0.6184 -0.1550  0.4666
  486MPD2    H5 7235   4.271   0.044  12.315 -1.4660 -0.2208 -0.3646
  486MPD2    N1 7236   4.484   4.355  12.475 -0.1117 -0.0407  0.0041
  486MPD2    H7 7237   4.525   4.295  12.546 -0.5575  1.6397  1.6614
  487TMC3    C1 7238   4.567   4.200  12.312 -0.4932 -0.2932 -0.5643
  487TMC3    C2 7239   4.514   4.098  12.240  0.3228 -0.8623  0.0924
  487TMC3    C3 7240   4.570   3.971  12.265  0.7993 -0.5243  0.6409
  487TMC3    C4 7241   4.668   4.192  12.391 -0.1454 -0.3414  0.0689
  487TMC3    C5 7242   4.705   4.063  12.431 -0.0099 -0.6835 -0.3726
  487TMC3    C6 7243   4.667   3.951  12.357  0.3590 -0.3142 -0.1454
  487TMC3     C 7244   4.480   4.316  12.339 -0.6155  0.0450  0.2868
  487TMC3     O 7245   4.424   4.363  12.243  0.5054  0.4027  0.3937
  487TMC3     H 7246   4.432   4.113  12.171  0.0277  0.4878  0.7259
  487TMC3    H1 7247   4.705   4.276  12.449 -0.6109  0.3810 -0.6815
  487TMC3    H2 7248   4.678   3.851  12.398 -0.6226 -1.0949 -1.8086
  487TMC3    C7 7249   4.671   4.059  12.573 -0.1810 -0.0292  0.6737
  487TMC3    C8 7250   4.483   3.862  12.246  0.0389  0.7167  0.0918
  487TMC3    O1 7251   4.643   4.164  12.629  0.6267 -0.2071 -0.6128
  487TMC3    O2 7252   4.362   3.886  12.244  0.0552  0.1367 -0.0163
  488MPD2     C 7253   4.168   1.496  16.094 -0.3710 -0.1200  0.3984
  488MPD2    C1 7254   4.263   1.563  16.172  0.1357  0.2962 -0.0302
  488MPD2    C2 7255   4.271   1.538  16.305  0.0697 -0.2022 -0.5827
  488MPD2    C3 7256   4.195   1.445  16.369  0.5034  0.2898  0.5363
  488MPD2    C4 7257   4.100   1.377  16.292  0.9776  0.3425  0.4841
  488MPD2    C5 7258   4.082   1.410  16.156  0.0141 -0.9544 -0.1016
  488MPD2     H 7259   4.344   1.595  16.361 -0.5307  0.4013 -0.4182
  488MPD2    H1 7260   4.026   1.315  16.341  2.0307 -1.2146  0.1028
  488MPD2    H2 7261   4.147   1.512  15.989  2.1915  1.8280  0.1649
  488MPD2    H3 7262   4.007   1.361  16.095 -1.5129  0.6143  0.5254
  488MPD2     N 7263   4.211   1.431  16.508 -0.8044 -0.8685  0.2970
  488MPD2    H5 7264   4.276   1.496  16.550 -0.2508 -2.0240  1.2356
  488MPD2    N1 7265   4.347   1.675  16.125  0.0694  0.0565  0.1671
  488MPD2    H7 7266   4.402   1.724  16.195 -0.4620  0.6007  0.1995
  489TMC3    C1 7267   4.147   1.367  16.724 -0.0869 -0.4359 -0.5160
  489TMC3    C2 7268   4.222   1.473  16.776 -0.4000  0.6060 -0.0012
  489TMC3    C3 7269   4.200   1.515  16.900 -0.2893  0.0419 -0.7620
  489TMC3    C4 7270   4.052   1.304  16.799  0.4687 -0.6371  0.0416
  489TMC3    C5 7271   4.043   1.342  16.928  0.4458 -0.2322 -0.3069
  489TMC3    C6 7272   4.108   1.453  16.982  0.1086 -0.2037  0.5245
  489TMC3     C 7273   4.143   1.334  16.583  0.2391  0.0737 -0.4368
  489TMC3     O 7274   4.070   1.245  16.539 -0.8621  0.3527  0.2267
  489TMC3     H 7275   4.288   1.528  16.710 -0.8253  1.5474  0.3592
  489TMC3    H1 7276   4.003   1.218  16.753 -2.2167 -0.6009  2.8498
  489TMC3    H2 7277   4.100   1.481  17.086  0.2060  0.6925  0.2920
  489TMC3    C7 7278   3.998   1.246  17.027  0.4759  0.6847 -0.4367
  489TMC3    C8 7279   4.272   1.629  16.942 -0.0141  0.5432 -0.4187
  489TMC3    O1 7280   4.047   1.259  17.139  0.6397 -0.1756 -0.3899
  489TMC3    O2 7281   4.378   1.633  16.884 -0.9255  0.3231  0.3713
  490MPD2     C 7282   0.068   1.196  17.154 -0.7947  0.0607 -0.1547
  490MPD2    C1 7283   0.170   1.108  17.128  0.1750 -0.2413 -0.6649
  490MPD2    C2 7284   0.300   1.130  17.154 -0.3870 -0.6420 -0.0938
  490MPD2    C3 7285   0.337   1.243  17.221 -0.3772 -0.1981 -0.2139
  490MPD2    C4 7286   0.233   1.338  17.248  0.2010 -0.0997  0.2956
  490MPD2    C5 7287   0.102   1.318  17.213 -0.0388  0.1351 -0.2279
  490MPD2     H 7288   0.370   1.051  17.130 -0.1811 -0.7343  0.8204
  490MPD2    H1 7289   0.253   1.432  17.297 -4.0675  0.6688  0.6261
  490MPD2    H2 7290   4.689   1.174  17.127 -1.0269  1.2651 -0.2624
  490MPD2    H3 7291   0.029   1.396  17.227 -0.1062 -0.0154  0.2838
  490MPD2     N 7292   0.467   1.270  17.260 -0.1830  0.2007  0.1118
  490MPD2    H5 7293   0.492   1.356  17.307 -0.5675  0.1292  0.4482
  490MPD2    N1 7294   0.127   0.987  17.068 -0.1414 -1.2889  0.1190
  490MPD2    H7 7295   0.027   0.969  17.068 -0.0687 -1.7329  1.0037
  491TMC3    C1 7296   0.116   0.765  16.976 -0.1045 -0.3031 -0.4663
  491TMC3    C2 7297   0.016   0.731  17.064 -0.4430 -0.5566  0.8678
  491TMC3    C3 7298   4.698   0.604  17.064  0.4929  0.0595 -0.3777
  491TMC3    C4 7299   0.184   0.671  16.900 -0.1038  0.8542 -0.3881
  491TMC3    C5 7300   0.134   0.546  16.901  0.4417 -0.6349 -0.4870
  491TMC3    C6 7301   0.035   0.508  16.986 -0.1442 -0.6520  0.3431
  491TMC3     C 7302   0.199   0.883  17.011  0.5853  0.4511  0.4481
  491TMC3     O 7303   0.315   0.875  16.970  0.3487  0.3358 -0.8206
  491TMC3     H 7304   4.699   0.798  17.139  0.3562 -0.5686  1.3076
  491TMC3    H1 7305   0.257   0.703  16.827 -0.1054 -1.5128 -1.3994
  491TMC3    H2 7306   0.015   0.403  17.001  0.1766 -0.5201  1.6900
  491TMC3    C7 7307   0.155   0.454  16.785  0.8801 -0.3344 -0.0328
  491TMC3    C8 7308   4.607   0.566  17.169 -0.1478 -0.0884  0.3145
  491TMC3    O1 7309   0.065   0.369  16.783  0.4179  0.2596 -0.6004
  491TMC3    O2 7310   4.587   0.643  17.261  0.3615 -0.4607  0.1510
  492MPD2     C 7311   1.321   0.532  10.514  0.3912 -0.5923  0.2186
  492MPD2    C1 7312   1.245   0.439  10.452 -0.3522 -0.5339  0.2432
  492MPD2    C2 7313   1.122   0.404  10.503 -0.3432  0.6058 -0.0466
  492MPD2    C3 7314   1.072   0.449  10.625  0.4607 -0.4001 -0.8318
  492MPD2    C4 7315   1.164   0.525  10.691 -0.6468 -0.0090 -0.4285
  492MPD2    C5 7316   1.286   0.565  10.644 -0.5738  0.5247 -0.1999
  492MPD2     H 7317   1.052   0.336  10.455 -0.8847 -0.3968  2.1567
  492MPD2    H1 7318   1.138   0.560  10.790  0.0947  3.1688 -1.3424
  492MPD2    H2 7319   1.412   0.570  10.469 -1.2424  2.3741 -0.5483
  492MPD2    H3 7320   1.346   0.639  10.695  0.7985 -0.9368  0.3145
  492MPD2     N 7321   0.944   0.418  10.687 -0.3008 -0.4639 -0.1205
  492MPD2    H5 7322   0.924   0.442  10.783 -0.7254 -0.8227 -0.1180
  492MPD2    N1 7323   1.289   0.397  10.327 -0.6627 -0.2068  0.1259
  492MPD2    H7 7324   1.382   0.430  10.301 -1.7930  1.0415 -2.4115
  493TMC3    C1 7325   1.303   0.301  10.111  0.0832  0.0617 -0.5006
  493TMC3    C2 7326   1.309   0.411  10.038 -0.4075  0.0276 -0.2581
  493TMC3    C3 7327   1.275   0.408   9.908 -0.4022 -0.0092 -0.0371
  493TMC3    C4 7328   1.261   0.182  10.060 -0.2481 -0.1668  0.1333
  493TMC3    C5 7329   1.242   0.169   9.928  0.2026 -0.2241  0.1275
  493TMC3    C6 7330   1.236   0.283   9.855 -0.5606 -0.2816 -0.6471
  493TMC3     C 7331   1.224   0.320  10.233  0.4031  1.1897 -0.1826
  493TMC3     O 7332   1.112   0.269  10.237  0.1168 -0.0177 -0.5508
  493TMC3     H 7333   1.315   0.508  10.086 -1.3992  0.1488 -0.3936
  493TMC3    H1 7334   1.241   0.108  10.137 -1.0221 -1.0536 -0.9324
  493TMC3    H2 7335   1.196   0.280   9.755 -2.3887 -2.5679  0.1665
  493TMC3    C7 7336   1.168   0.056   9.881 -0.2045 -0.0045  0.2456
  493TMC3    C8 7337   1.201   0.525   9.858 -0.8960 -0.2612 -0.3205
  493TMC3    O1 7338   1.094   0.072   9.788  0.2241  0.3226 -0.2644
  493TMC3    O2 7339   1.130   0.499   9.762  0.2475  0.5466 -0.0058
  494TMC3    C1 7340   2.025   3.089   0.576 -0.1755 -0.0852  0.4202
  494TMC3    C2 7341   2.023   2.989   0.667  0.3696  0.0385  0.0024
  494TMC3    C3 7342   1.961   2.865   0.639  0.6290  0.9201 -0.4182
  494TMC3    C4 7343   1.958   3.070   0.452  0.3515  0.1428  0.1030
  494TMC3    C5 7344   1.891   2.951   0.430  0.1595 -0.6159  0.8331
  494TMC3    C6 7345   1.892   2.844   0.518 -0.6131  0.5905 -0.2078
  494TMC3     C 7346   2.018   3.221   0.645  0.2185  0.4682  0.3485
  494TMC3     O 7347   2.036   3.215   0.766  0.6198 -0.3424 -0.0833
  494TMC3     H 7348   2.093   2.991   0.749 -1.2515 -0.5235  1.4065
  494TMC3    H1 7349   1.949   3.143   0.372  1.2947 -0.9586 -0.9914
  494TMC3    H2 7350   1.859   2.750   0.477  2.3637 -0.7057  0.3747
  494TMC3    C7 7351   1.789   2.966   0.325  0.7692 -0.6869  0.0078
  494TMC3    C8 7352   1.972   2.756   0.744 -0.2614  0.3460  0.7565
  494TMC3    O1 7353   1.800   3.053   0.241  0.3993  0.6146  0.2592
  494TMC3    O2 7354   2.043   2.775   0.842 -0.6764 -0.4320  0.3381
  495TMC3    C1 7355   4.670   4.558  14.306  0.5945 -0.5225 -0.0136
  495TMC3    C2 7356   4.573   4.559  14.205  0.2462  0.2532  0.0342
  495TMC3    C3 7357   4.494   4.672  14.198 -0.4682 -0.1015  0.1447
  495TMC3    C4 7358   4.689   4.668  14.383 -0.1360 -1.0818  0.0766
  495TMC3    C5 7359   4.601   0.048  14.382  0.1817  0.3730  0.0254
  495TMC3    C6 7360   4.499   0.050  14.287 -0.3385 -0.1301  0.6089
  495TMC3     C 7361   4.705   4.434  14.373  0.5647 -0.6221 -0.4629
  495TMC3     O 7362   0.056   4.438  14.462 -0.0312 -0.0092  0.1007
  495TMC3     H 7363   4.551   4.469  14.149 -0.9450 -0.8445  2.2866
  495TMC3    H1 7364   0.040   4.662  14.461 -0.2819  0.1298  0.2993
  495TMC3    H2 7365   4.422   0.125  14.290 -0.6129 -0.3627 -0.5861
  495TMC3    C7 7366   4.557   0.076  14.518 -0.1689  1.1341  0.0613
  495TMC3    C8 7367   4.392   4.675  14.098  0.2910  0.1940  0.3055
  495TMC3    O1 7368   4.647   0.084  14.598 -0.5053 -0.2388  0.0470
  495TMC3    O2 7369   4.286   0.005  14.133  1.1365 -0.0787 -0.4851
  496MPD2     C 7370   1.531   0.208  15.317 -0.7634  0.1024  0.6311
  496MPD2    C1 7371   1.608   0.111  15.382  0.4864 -0.5384 -0.3120
  496MPD2    C2 7372   1.660   0.135  15.508  1.0891 -0.3465 -0.1165
  496MPD2    C3 7373   1.660   0.261  15.562  0.1437 -0.2574 -0.3841
  496MPD2    C4 7374   1.591   0.358  15.491 -0.3361  0.6588  0.3252
  496MPD2    C5 7375   1.515   0.329  15.378  0.4222  0.6995  0.6200
  496MPD2     H 7376   1.720   0.061  15.560  0.6112 -0.3140  0.4736
  496MPD2    H1 7377   1.581   0.461  15.524  1.1393 -0.3595  3.9088
  496MPD2    H2 7378   1.493   0.197  15.216  0.1891 -2.6325  0.5670
  496MPD2    H3 7379   1.475   0.408  15.315 -0.8680 -0.9708 -0.6407
  496MPD2     N 7380   1.722   0.299  15.679 -0.8047  0.9443 -0.4662
  496MPD2    H5 7381   1.743   0.398  15.683 -2.2946  1.2046  1.4956
  496MPD2    N1 7382   1.643   4.715  15.313  0.4916  0.0654 -0.5823
  496MPD2    H7 7383   1.608   4.708  15.218 -0.0875  1.1199 -0.4493
  497TMC3    C1 7384   1.694   0.090  15.822 -0.3805  0.1578  0.0424
  497TMC3    C2 7385   1.565   0.072  15.783 -0.1283 -0.2089  0.1161
  497TMC3    C3 7386   1.506   4.682  15.833  0.9918 -0.2968 -0.0811
  497TMC3    C4 7387   1.751   0.015  15.924  0.0890  0.0071  0.0533
  497TMC3    C5 7388   1.689   4.630  15.980  0.4359  0.1057  0.2985
  497TMC3    C6 7389   1.561   4.607  15.938  0.1732  0.7299 -0.3063
  497TMC3     C 7390   1.760   0.221  15.790 -0.0212 -0.0486 -0.5817
  497TMC3     O 7391   1.838   0.269  15.874 -0.0511  0.0656  0.1568
  497TMC3     H 7392   1.517   0.126  15.702 -0.4219 -0.3691  0.1815
  497TMC3    H1 7393   1.850   0.044  15.959 -0.3395  0.4714  0.8862
  497TMC3    H2 7394   1.509   4.521  15.979  0.2989  1.4298  1.3091
  497TMC3    C7 7395   1.707   4.579  16.116 -0.0000 -0.0493 -0.3148
  497TMC3    C8 7396   1.439   4.589  15.732 -0.4714 -0.4177 -0.2045
  497TMC3    O1 7397   1.643   4.477  16.144 -0.3935  0.6673  0.2686
  497TMC3    O2 7398   1.460   4.468  15.741 -0.8335  0.3675  0.5520
  498MPD2     C 7399   3.685   0.336   9.138  0.3873  0.6552 -0.5504
  498MPD2    C1 7400   3.650   0.374   9.265  0.5073 -0.4974  0.6359
  498MPD2    C2 7401   3.564   0.297   9.333  0.4835  0.7409  0.2068
  498MPD2    C3 7402   3.495   0.190   9.273 -0.0258 -0.2159  0.2221
  498MPD2    C4 7403   3.502   0.168   9.139 -0.0646 -0.4811  0.3736
  498MPD2    C5 7404   3.607   0.235   9.080 -0.4669 -0.3211 -0.6393
  498MPD2     H 7405   3.551   0.332   9.434  0.6407  0.8465  0.1902
  498MPD2    H1 7406   3.449   0.097   9.076  1.2017 -1.6954  0.6791
  498MPD2    H2 7407   3.752   0.396   9.076  0.1789  0.7059 -0.7238
  498MPD2    H3 7408   3.632   0.206   8.978  1.1869  2.2566 -0.9653
  498MPD2     N 7409   3.405   0.121   9.353 -0.4305 -0.4980 -0.1016
  498MPD2    H5 7410   3.395   0.140   9.452  2.4533 -1.2651  0.3356
  498MPD2    N1 7411   3.721   0.483   9.324  0.9498 -0.5242  0.2881
  498MPD2    H7 7412   3.717   0.479   9.426  0.1881 -1.4583  0.2227
  499TMC3    C1 7413   3.888   0.644   9.346 -0.6236  0.0820 -0.1404
  499TMC3    C2 7414   3.899   0.620   9.482 -0.3960 -0.0319  0.4462
  499TMC3    C3 7415   3.938   0.717   9.568  0.2880 -0.8111  0.6300
  499TMC3    C4 7416   3.929   0.770   9.305  0.1276 -0.8854 -0.4365
  499TMC3    C5 7417   3.965   0.867   9.392 -0.1811  0.1293 -0.0471
  499TMC3    C6 7418   3.976   0.845   9.527 -1.0627 -0.7101 -0.0918
  499TMC3     C 7419   3.804   0.570   9.259 -0.1186  0.1000  1.1268
  499TMC3     O 7420   3.820   0.592   9.142 -0.2618 -0.3187 -0.6296
  499TMC3     H 7421   3.863   0.524   9.517  1.2698 -0.8709 -0.0727
  499TMC3    H1 7422   3.939   0.782   9.198 -1.7804  2.0644 -0.2606
  499TMC3    H2 7423   3.986   0.929   9.595 -0.2177 -1.0773  0.2399
  499TMC3    C7 7424   3.957   1.005   9.355 -0.5601  0.3832 -0.7365
  499TMC3    C8 7425   3.914   0.693   9.706  0.1980  0.6976  0.2380
  499TMC3    O1 7426   4.001   1.089   9.432 -0.0684  0.3024 -0.8597
  499TMC3    O2 7427   3.817   0.622   9.741 -0.4105 -0.5251  0.5965
  500MPD2     C 7428   0.454   0.981  10.272  0.2041  0.1781 -0.9906
  500MPD2    C1 7429   0.494   1.079  10.177 -0.8750 -0.0254 -0.3788
  500MPD2    C2 7430   0.425   1.086  10.052 -0.8328 -0.6418  0.4064
  500MPD2    C3 7431   0.316   1.006  10.025 -0.4350  0.8326 -0.1189
  500MPD2    C4 7432   0.287   0.919  10.127  0.2654  0.0528 -0.2993
  500MPD2    C5 7433   0.348   0.908  10.246  0.2110 -0.2969 -0.1315
  500MPD2     H 7434   0.460   1.158   9.979  1.1290 -1.8147  0.1658
  500MPD2    H1 7435   0.205   0.848  10.120  0.2028 -0.0936  1.8785
  500MPD2    H2 7436   0.504   0.977  10.369 -0.7740  1.9732 -0.4144
  500MPD2    H3 7437   0.311   0.843  10.325  0.2632  0.1798  0.2866
  500MPD2     N 7438   0.240   0.990   9.902  0.4183 -0.3897 -0.8265
  500MPD2    H5 7439   0.162   0.926   9.893 -0.3399  0.0161  2.6688
  500MPD2    N1 7440   0.580   1.188  10.203 -0.2160 -0.2053  0.2337
  500MPD2    H7 7441   0.590   1.260  10.133  0.6693  0.4481  1.0461
  501TMC3    C1 7442   0.705   1.338  10.340  0.3737 -0.0288  0.2822
  501TMC3    C2 7443   0.669   1.443  10.262 -1.3354  0.1270  0.1147
  501TMC3    C3 7444   0.755   1.551  10.262  0.3863  0.0580 -0.1862
  501TMC3    C4 7445   0.819   1.338  10.418 -0.3225  0.5167  0.4224
  501TMC3    C5 7446   0.897   1.443  10.407 -0.0034  0.5793 -0.5961
  501TMC3    C6 7447   0.870   1.549  10.331 -0.5154 -0.5895  0.2573
  501TMC3     C 7448   0.631   1.213  10.328 -0.2269  0.3504  0.4586
  501TMC3     O 7449   0.649   1.149  10.431 -0.1105  0.0088  0.4677
  501TMC3     H 7450   0.576   1.445  10.208 -0.9619  0.3596 -0.5197
  501TMC3    H1 7451   0.856   1.248  10.466  0.2832  0.1145 -0.8093
  501TMC3    H2 7452   0.933   1.636  10.324 -2.3960  0.6737 -1.0791
  501TMC3    C7 7453   1.024   1.441  10.485  0.5831  0.4985 -0.3490
  501TMC3    C8 7454   0.720   1.680  10.192 -0.0057 -0.1568 -0.3034
  501TMC3    O1 7455   1.026   1.371  10.583 -0.3733 -0.3025 -0.0208
  501TMC3    O2 7456   0.811   1.757  10.165 -0.0201 -0.2866 -0.1314
  502TMC3    C1 7457   3.822   0.258  14.536  0.2360  0.4975  0.4054
  502TMC3    C2 7458   3.751   0.345  14.454 -0.2462  0.3778 -0.1835
  502TMC3    C3 7459   3.624   0.368  14.480 -0.4422 -0.7385 -0.4619
  502TMC3    C4 7460   3.765   0.186  14.638 -0.0335 -0.5509 -0.1968
  502TMC3    C5 7461   3.633   0.218  14.658  0.3104  0.1121 -0.1642
  502TMC3    C6 7462   3.560   0.302  14.581  0.1802  0.1412 -0.2036
  502TMC3     C 7463   3.945   0.315  14.572  0.0834 -0.4084  0.6282
  502TMC3     O 7464   4.007   0.388  14.496 -0.2542 -0.1329 -0.6605
  502TMC3     H 7465   3.794   0.407  14.376  2.3459 -1.9678 -0.6552
  502TMC3    H1 7466   3.824   0.114  14.694  2.3642  1.5523  0.0178
  502TMC3    H2 7467   3.457   0.329  14.598 -0.0022  0.2183 -1.4770
  502TMC3    C7 7468   3.613   0.253  14.804 -0.7367 -0.2696  0.1866
  502TMC3    C8 7469   3.584   0.499  14.453  0.0074  0.5610 -0.3518
  502TMC3    O1 7470   3.716   0.250  14.873  0.5704  0.3646  0.5873
  502TMC3    O2 7471   3.645   0.562  14.370 -0.0631 -1.0372 -1.0283
  503MPD2     C 7472   1.167   1.782  17.229 -0.1379 -0.5486  0.4634
  503MPD2    C1 7473   1.239   1.836  17.331 -0.4965 -0.0779 -0.0938
  503MPD2    C2 7474   1.305   1.751  17.413  0.0909 -0.2528  0.1790
  503MPD2    C3 7475   1.305   1.613  17.398  0.4169 -0.1056 -0.0075
  503MPD2    C4 7476   1.240   1.564  17.289  0.5271  0.6480  0.5942
  503MPD2    C5 7477   1.166   1.644  17.214 -0.2982  0.5299  0.0173
  503MPD2     H 7478   1.363   1.794  17.493 -0.7076  2.2536 -0.5819
  503MPD2    H1 7479   1.229   1.458  17.269 -1.3862  0.7501  1.0359
  503MPD2    H2 7480   1.103   1.845  17.167  0.9850 -2.0741 -2.2208
  503MPD2    H3 7481   1.109   1.599  17.134  1.7144 -3.3828  0.7639
  503MPD2     N 7482   1.390   1.533  17.485  0.1718  1.4436  0.4559
  503MPD2    H5 7483   1.457   1.572  17.550 -0.6302  2.4517  0.6876
  503MPD2    N1 7484   1.268   1.972  17.331 -0.1490 -0.2471  0.0617
  503MPD2    H7 7485   1.297   2.005  17.423  0.8331 -0.7400 -0.0692
  504TMC3    C1 7486   1.468   1.340  17.593  0.3672 -0.3122 -0.2866
  504TMC3    C2 7487   1.422   1.222  17.643  0.6914  0.9822 -0.2046
  504TMC3    C3 7488   1.517   1.127  17.679  0.1238  0.5039  0.7239
  504TMC3    C4 7489   1.601   1.351  17.554 -0.0929  0.3971 -0.8451
  504TMC3    C5 7490   1.696   1.255  17.585 -0.2754  0.0693  0.0654
  504TMC3    C6 7491   1.650   1.140  17.648 -0.5228  0.0780 -0.7511
  504TMC3     C 7492   1.376   1.399  17.497 -0.2146 -0.3649 -0.4510
  504TMC3     O 7493   1.292   1.325  17.447  0.1497 -0.0752 -0.5872
  504TMC3     H 7494   1.315   1.218  17.664  1.2583 -3.8528  1.8801
  504TMC3    H1 7495   1.633   1.427  17.485 -1.2898  2.0352  0.4272
  504TMC3    H2 7496   1.717   1.055  17.649 -1.1046 -0.3761  0.9441
  504TMC3    C7 7497   1.822   1.264  17.510  0.4794  0.8565 -0.3518
  504TMC3    C8 7498   1.466   1.008   0.047  0.3043 -0.2475  0.8187
  504TMC3    O1 7499   1.829   1.330  17.404 -0.3583 -0.2427 -0.4015
  504TMC3    O2 7500   1.349   0.978   0.025 -0.0854 -0.1443 -0.2767
  505MPD2     C 7501   2.495   4.528  10.179  0.2956 -0.0586 -0.4107
  505MPD2    C1 7502   2.562   4.426  10.241  0.4568  0.2788  0.6517
  505MPD2    C2 7503   2.667   4.450  10.326  0.1082  0.3488 -0.1096
  505MPD2    C3 7504   2.696   4.586  10.365 -0.0624  0.1718  0.4719
  505MPD2    C4 7505   2.629   4.694  10.310 -0.8287 -0.1780  0.8002
  505MPD2    C5 7506   2.538   4.655  10.204 -0.3597 -0.2698 -0.4571
  505MPD2     H 7507   2.724   4.370  10.371 -2.2982 -1.0464  0.4158
  505MPD2    H1 7508   2.650   0.076  10.325 -2.9638  0.3844 -0.1241
  505MPD2    H2 7509   2.414   4.513  10.108 -0.3688  1.2745  0.0533
  505MPD2    H3 7510   2.488   0.005  10.143 -3.5562 -1.3935  0.7610
  505MPD2     N 7511   2.805   4.620  10.451 -0.6759  0.6803  0.4877
  505MPD2    H5 7512   2.828   4.718  10.459  0.0322  0.7664 -2.4351
  505MPD2    N1 7513   2.527   4.291  10.218  0.2541 -0.1943 -0.1828
  505MPD2    H7 7514   2.469   4.265  10.139 -0.2029 -0.4732  0.2435
  506TMC3    C1 7515   2.545   4.061  10.211  0.0758  0.4324  0.6770
  506TMC3    C2 7516   2.567   4.068  10.079 -0.0916 -0.6354 -0.5249
  506TMC3    C3 7517   2.631   3.960  10.026  0.2445 -0.1702 -0.3761
  506TMC3    C4 7518   2.579   3.955  10.288  0.0066  0.2478  0.0316
  506TMC3    C5 7519   2.641   3.849  10.233  0.1666 -0.0915  0.2953
  506TMC3    C6 7520   2.671   3.856  10.100  0.0117 -0.9509  0.3755
  506TMC3     C 7521   2.577   4.183  10.282 -0.1746  0.7437  1.1134
  506TMC3     O 7522   2.639   4.168  10.386  0.1774  0.3588 -0.0697
  506TMC3     H 7523   2.531   4.146  10.014  0.2271 -0.5991 -0.6586
  506TMC3    H1 7524   2.548   3.946  10.391 -0.2985  0.8869 -0.0053
  506TMC3    H2 7525   2.732   3.781  10.052 -1.1581 -0.2730 -2.1493
  506TMC3    C7 7526   2.759   3.813  10.307 -0.1440 -0.3163 -0.2495
  506TMC3    C8 7527   2.647   3.948   9.879 -0.0984 -0.4708  0.0474
  506TMC3    O1 7528   2.814   3.707  10.281  0.0623 -0.0089  0.8127
  506TMC3    O2 7529   2.657   3.832   9.836  0.7816  0.2770  0.2990
  507TMC3    C1 7530   1.972   0.614  14.391  0.3122 -0.4707  0.1071
  507TMC3    C2 7531   1.985   0.650  14.262 -0.7486  0.1476  0.0895
  507TMC3    C3 7532   2.097   0.626  14.197 -0.5053 -0.2283 -0.0492
  507TMC3    C4 7533   2.078   0.580  14.464 -0.3712  0.2054  0.1310
  507TMC3    C5 7534   2.192   0.557  14.394  0.1959  0.1900 -0.4272
  507TMC3    C6 7535   2.199   0.564  14.260  0.2620  0.2594  0.1959
  507TMC3     C 7536   1.845   0.583  14.442 -0.1393 -0.3880 -0.0217
  507TMC3     O 7537   1.748   0.638  14.392 -0.0581 -0.2333 -0.3647
  507TMC3     H 7538   1.908   0.709  14.214 -0.1040 -0.6348 -1.9039
  507TMC3    H1 7539   2.072   0.576  14.572 -0.5297 -1.6304  0.0510
  507TMC3    H2 7540   2.288   0.533  14.207 -1.0934 -0.1911 -1.8186
  507TMC3    C7 7541   2.310   0.630  14.437 -0.6902 -0.7988  0.2954
  507TMC3    C8 7542   2.143   0.725  14.103  0.7160 -0.2072 -0.6687
  507TMC3    O1 7543   2.374   0.683  14.349  0.1835  0.4563 -0.1406
  507TMC3    O2 7544   2.063   0.803  14.056  0.1572  0.0553  0.3136
  508MPD2     C 7545   3.034   3.388  16.005 -0.2324  0.3504 -0.2311
  508MPD2    C1 7546   3.158   3.383  15.968 -0.5584  0.0036 -0.7053
  508MPD2    C2 7547   3.188   3.399  15.838 -0.2602 -0.2716 -0.6012
  508MPD2    C3 7548   3.090   3.405  15.741  0.9699  0.0499 -0.1018
  508MPD2    C4 7549   2.958   3.396  15.786  0.6590  1.3493 -0.1595
  508MPD2    C5 7550   2.934   3.391  15.916  0.2417 -0.3521  0.7365
  508MPD2     H 7551   3.292   3.400  15.805 -0.0006 -2.9928  0.1705
  508MPD2    H1 7552   2.876   3.414  15.718  0.5526 -0.9860 -0.6615
  508MPD2    H2 7553   3.010   3.377  16.110  2.9699 -1.0258  0.3738
  508MPD2    H3 7554   2.834   3.380  15.956 -0.0550  2.3502  0.7465
  508MPD2     N 7555   3.130   3.415  15.607 -0.0669 -0.3164 -0.0196
  508MPD2    H5 7556   3.229   3.425  15.589 -0.0049  0.0476  0.5035
  508MPD2    N1 7557   3.259   3.346  16.069  0.1764 -0.3348  0.3920
  508MPD2    H7 7558   3.238   3.316  16.164 -1.1526  0.1790  0.2500
  509TMC3    C1 7559   3.065   3.606  15.200 -0.0395  0.4803 -0.0214
  509TMC3    C2 7560   3.198   3.648  15.204 -0.4324  0.9442  0.3131
  509TMC3    C3 7561   3.276   3.580  15.288  0.0089 -0.1314 -0.0812
  509TMC3    C4 7562   3.013   3.513  15.281 -0.6870  0.0224  0.0685
  509TMC3    C5 7563   3.097   3.456  15.375 -0.9396 -0.1831  0.6900
  509TMC3    C6 7564   3.228   3.481  15.370  0.0225  0.7014  0.6818
  509TMC3     C 7565   2.976   3.659  15.094 -0.1492 -0.1601  0.0267
  509TMC3     O 7566   2.867   3.607  15.091  0.7462  0.0190 -0.3925
  509TMC3     H 7567   3.245   3.719  15.136  1.1674 -0.7622 -0.3515
  509TMC3    H1 7568   2.907   3.492  15.286 -1.3824  3.5420 -0.0078
  509TMC3    H2 7569   3.302   3.421  15.422  1.3914  0.7272 -1.2115
  509TMC3    C7 7570   3.047   3.409  15.502 -0.2876  0.0739  0.5147
  509TMC3    C8 7571   3.425   3.611  15.289 -0.6634 -0.5328 -0.2444
  509TMC3    O1 7572   2.927   3.390  15.500 -0.0329  0.2711 -0.3344
  509TMC3    O2 7573   3.504   3.523  15.319  0.0489  0.6008  0.9107
  510MPD2     C 7574   1.096   0.411  13.965 -0.4989 -0.3714 -0.1416
  510MPD2    C1 7575   1.173   0.416  14.082 -0.2414  0.8103  0.2588
  510MPD2    C2 7576   1.305   0.414  14.070  0.7324  0.6344 -0.5409
  510MPD2    C3 7577   1.363   0.400  13.943 -1.4713  0.2031  0.2277
  510MPD2    C4 7578   1.286   0.394  13.827  0.0047  0.1220 -0.2525
  510MPD2    C5 7579   1.150   0.393  13.842 -0.3369  0.1915 -0.1065
  510MPD2     H 7580   1.366   0.396  14.159  0.6567  0.5773 -0.4998
  510MPD2    H1 7581   1.322   0.399  13.725 -1.9736 -0.2529 -0.9803
  510MPD2    H2 7582   0.988   0.402  13.968 -0.5215  0.1922  1.0783
  510MPD2    H3 7583   1.082   0.377  13.759 -0.1204  0.7379 -0.3946
  510MPD2     N 7584   1.500   0.376  13.938  0.3358  0.5968  0.6184
  510MPD2    H5 7585   1.541   0.338  14.023  1.0310  1.4199  0.6571
  510MPD2    N1 7586   1.114   0.422  14.207  0.0682  0.2039  0.1925
  510MPD2    H7 7587   1.015   0.400  14.206 -0.0103  0.5115  1.2226
  511TMC3    C1 7588   1.097   0.391  14.442  0.3553  0.4238  0.4766
  511TMC3    C2 7589   1.126   0.446  14.560  0.3003 -0.6198 -0.4855
  511TMC3    C3 7590   1.099   0.368  14.669 -0.7500  0.6207 -0.3187
  511TMC3    C4 7591   1.044   0.267  14.426 -0.5952 -0.2300 -0.0318
  511TMC3    C5 7592   1.028   0.188  14.539  0.3220  0.2823  0.4763
  511TMC3    C6 7593   1.050   0.238  14.662  0.0699 -0.1660 -0.4898
  511TMC3     C 7594   1.173   0.438  14.328 -0.1471  0.1164  0.6541
  511TMC3     O 7595   1.287   0.462  14.355  0.3318 -0.4064  0.1671
  511TMC3     H 7596   1.162   0.548  14.562  1.1622 -0.8613 -3.4852
  511TMC3    H1 7597   1.024   0.228  14.327  0.1807 -1.2050  0.1861
  511TMC3    H2 7598   1.056   0.169  14.745  1.6577 -0.3560 -0.7630
  511TMC3    C7 7599   1.047   0.047  14.512  0.9354  0.3713  0.0541
  511TMC3    C8 7600   1.079   0.439  14.791 -0.7359 -0.6227  0.5664
  511TMC3    O1 7601   1.064   0.018  14.395  0.7278 -0.2234 -0.0931
  511TMC3    O2 7602   1.066   0.560  14.789  0.2987 -0.5021  0.0367
  512TMC3    C1 7603   4.675   4.119  13.079  0.1140  0.0227 -0.5596
  512TMC3    C2 7604   4.642   4.082  13.204  0.6315  0.7039 -0.6715
  512TMC3    C3 7605   4.680   3.959  13.251  0.0977 -0.4338  0.2614
  512TMC3    C4 7606   0.027   4.033  13.006 -0.3656  0.0931 -0.4819
  512TMC3    C5 7607   0.056   3.906  13.052  0.4405 -0.5191 -0.3978
  512TMC3    C6 7608   0.029   3.863  13.177  0.1496  0.1553  0.3429
  512TMC3     C 7609   4.654   4.254  13.033 -0.2131  0.4974  0.5645
  512TMC3     O 7610   0.014   4.297  12.949  0.2728  0.1609  0.7388
  512TMC3     H 7611   4.583   4.153  13.261 -1.8515 -3.8718  2.4772
  512TMC3    H1 7612   0.049   4.053  12.902 -1.0875  2.8129 -0.1312
  512TMC3    H2 7613   0.066   3.774  13.227  1.2229 -0.1172 -0.9317
  512TMC3    C7 7614   0.169   3.844  12.989 -0.8725 -0.0277  0.6215
  512TMC3    C8 7615   4.714   3.943  13.392  0.0754  0.2589 -0.8126
  512TMC3    O1 7616   0.212   3.915  12.900  0.2359  0.0746  0.2777
  512TMC3    O2 7617   4.713   3.825  13.426  0.2851 -0.0495 -0.3886
  513MPD2     C 7618   1.898   4.350  12.765  0.0720 -0.2574  0.4475
  513MPD2    C1 7619   2.004   4.275  12.710  0.6205  0.5064 -0.5404
  513MPD2    C2 7620   2.105   4.245  12.796 -0.6806 -0.5682 -0.3105
  513MPD2    C3 7621   2.109   4.273  12.933 -0.0817  0.4508 -0.4747
  513MPD2    C4 7622   2.007   4.351  12.984  0.2375  0.1014 -0.2118
  513MPD2    C5 7623   1.902   4.379  12.897 -0.2034 -0.0824  0.0820
  513MPD2     H 7624   2.190   4.185  12.766 -1.4821 -2.1657  0.5928
  513MPD2    H1 7625   2.010   4.391  13.084 -0.2747  3.8908 -1.7108
  513MPD2    H2 7626   1.820   4.389  12.700 -0.4691 -3.0939 -0.5787
  513MPD2    H3 7627   1.821   4.439  12.937  0.7218 -1.3162  3.7014
  513MPD2     N 7628   2.215   4.226  13.017 -0.2601 -0.3144  0.5049
  513MPD2    H5 7629   2.287   4.165  12.978 -1.4984  0.2159 -2.5678
  513MPD2    N1 7630   2.007   4.246  12.568 -0.8688  0.0360  0.5582
  513MPD2    H7 7631   1.927   4.275  12.512  0.7885  1.3919 -1.1115
  514TMC3    C1 7632   2.094   4.178  12.351  0.4518  0.6873 -0.2859
  514TMC3    C2 7633   2.060   4.306  12.319  0.0889  0.2165  0.0723
  514TMC3    C3 7634   2.138   4.371  12.231  0.9080 -1.0202  0.9918
  514TMC3    C4 7635   2.201   4.119  12.301  0.4815  0.2918  0.3930
  514TMC3    C5 7636   2.281   4.190  12.214  0.1658  0.5095  0.4899
  514TMC3    C6 7637   2.255   4.318  12.184  0.8175  0.2183  0.1340
  514TMC3     C 7638   2.101   4.167  12.501 -0.0222 -0.0941 -0.1313
  514TMC3     O 7639   2.194   4.096  12.544 -0.1320 -0.1382  0.2739
  514TMC3     H 7640   1.960   4.345  12.336 -0.5750 -1.0809 -0.8209
  514TMC3    H1 7641   2.222   4.016  12.327  1.0889  0.2548 -0.2664
  514TMC3    H2 7642   2.326   4.378  12.129 -0.8240  1.9416 -0.1153
  514TMC3    C7 7643   2.418   4.159  12.251  0.7813 -0.1029 -0.2025
  514TMC3    C8 7644   2.059   4.447  12.130 -0.5745 -0.2402 -0.1581
  514TMC3    O1 7645   2.505   4.186  12.169 -0.5971 -0.5031 -0.0415
  514TMC3    O2 7646   1.940   4.417  12.125 -0.3374  0.0293  0.0003
  515MPD2     C 7647   4.627   1.595  14.607 -0.0753 -0.4018  0.2771
  515MPD2    C1 7648   4.704   1.560  14.494  0.3811  0.1711 -0.0499
  515MPD2    C2 7649   0.114   1.585  14.493  0.5798  0.7876  0.3104
  515MPD2    C3 7650   0.179   1.643  14.604  0.4331 -0.5702 -0.1473
  515MPD2    C4 7651   0.100   1.679  14.714 -0.1706 -0.1805  0.0479
  515MPD2    C5 7652   4.689   1.656  14.713 -0.2733 -0.0129  0.4045
  515MPD2     H 7653   0.176   1.560  14.407  0.2345 -0.5799  0.4495
  515MPD2    H1 7654   0.140   1.721  14.805  0.2750  2.7284 -1.4974
  515MPD2    H2 7655   4.520   1.574  14.611  0.1135 -1.1690  1.3643
  515MPD2    H3 7656   4.626   1.680  14.798 -2.0049 -2.1801 -0.2523
  515MPD2     N 7657   0.315   1.674  14.615 -0.2172  0.7227 -0.3036
  515MPD2    H5 7658   0.341   1.735  14.692  2.8261 -1.3717  0.2975
  515MPD2    N1 7659   4.652   1.485  14.381  0.1388  0.8651 -0.3293
  515MPD2    H7 7660   4.713   1.427  14.324 -1.1369 -1.2367  0.4734
  516TMC3    C1 7661   4.499   1.376  14.266 -0.2595 -0.5967  0.0294
  516TMC3    C2 7662   4.412   1.404  14.166  0.5679 -0.0625 -0.0175
  516TMC3    C3 7663   4.383   1.310  14.078 -0.5777 -0.3775 -0.1503
  516TMC3    C4 7664   4.531   1.244  14.287 -0.0884 -0.2403 -0.4216
  516TMC3    C5 7665   4.489   1.149  14.197 -0.3316 -0.9787  0.3360
  516TMC3    C6 7666   4.425   1.183  14.084 -0.2760  0.2830 -0.0120
  516TMC3     C 7667   4.521   1.474  14.361  0.3256 -0.7848 -0.6536
  516TMC3     O 7668   4.428   1.537  14.402  0.4190  0.4551  0.2287
  516TMC3     H 7669   4.362   1.500  14.156  0.8389  0.0914  0.0862
  516TMC3    H1 7670   4.602   1.221  14.366  0.0879  0.5024 -0.3616
  516TMC3    H2 7671   4.390   1.108  14.014 -0.7658  1.2240 -0.7603
  516TMC3    C7 7672   4.492   1.016  14.238  0.8523 -0.0420 -0.3286
  516TMC3    C8 7673   4.272   1.326  13.984  0.3291  0.2608  0.2106
  516TMC3    O1 7674   4.592   0.969  14.293 -0.1353  0.1375 -0.2498
  516TMC3    O2 7675   4.291   1.271  13.877 -0.7184 -0.1921 -0.2217
  517MPD2     C 7676   4.034   3.204  17.295  0.2765 -0.3451 -0.8183
  517MPD2    C1 7677   4.163   3.204  17.344 -0.9407  0.1300  0.4810
  517MPD2    C2 7678   4.225   3.322  17.375 -0.0789 -1.2035  0.2632
  517MPD2    C3 7679   4.163   3.442  17.360 -0.5678 -0.2998  0.3187
  517MPD2    C4 7680   4.037   3.445  17.301  0.6943  0.3740  0.8088
  517MPD2    C5 7681   3.973   3.322  17.275  0.0811  0.6661 -0.2193
  517MPD2     H 7682   4.322   3.308  17.422  0.8759 -2.6824 -2.1876
  517MPD2    H1 7683   3.991   3.543  17.295 -0.0885 -0.1252 -1.0330
  517MPD2    H2 7684   4.001   3.111  17.249 -0.6536 -0.3560 -0.1086
  517MPD2    H3 7685   3.874   3.323  17.230  0.6893  1.8419 -1.5085
  517MPD2     N 7686   4.224   3.568  17.407  0.1170  0.0317 -0.0680
  517MPD2    H5 7687   4.171   3.651  17.383  0.3414  0.3996  0.7388
  517MPD2    N1 7688   4.240   3.087  17.360 -0.6526 -0.3327  0.1712
  517MPD2    H7 7689   4.318   3.088  17.424 -0.4576  0.0633 -0.0723
  518TMC3    C1 7690   4.298   2.867  17.356 -0.0875  0.1993 -0.2041
  518TMC3    C2 7691   4.247   2.743  17.382  0.3029  0.1413  0.1031
  518TMC3    C3 7692   4.338   2.645  17.396 -0.0346 -0.5772  0.4426
  518TMC3    C4 7693   4.434   2.901  17.352  0.0214 -0.3111 -0.9771
  518TMC3    C5 7694   4.511   2.792  17.351 -0.6671  0.7190 -0.3828
  518TMC3    C6 7695   4.470   2.668  17.382  0.3173  0.1097  0.2287
  518TMC3     C 7696   4.207   2.967  17.311 -0.0757 -0.4826 -0.0293
  518TMC3     O 7697   4.116   2.921  17.247  0.2135  1.0118  0.2430
  518TMC3     H 7698   4.139   2.731  17.386  0.2247  1.4853  1.6981
  518TMC3    H1 7699   4.466   2.999  17.318  0.9364 -0.5881 -0.9354
  518TMC3    H2 7700   4.542   2.592  17.407 -1.2685 -0.8041  1.9509
  518TMC3    C7 7701   4.646   2.830  17.381 -0.1003  0.7136  0.1136
  518TMC3    C8 7702   4.287   2.508  17.381  0.7095 -0.6094  0.0395
  518TMC3    O1 7703   4.662   2.939  17.429 -0.0732 -0.7252 -0.1685
  518TMC3    O2 7704   4.377   2.430  17.352  0.0642 -0.3427 -0.1263
  519MPD2     C 7705   1.495   1.228  14.399 -0.2809  0.3484  0.2299
  519MPD2    C1 7706   1.415   1.218  14.282  0.5068  0.3749 -0.2912
  519MPD2    C2 7707   1.390   1.102  14.207  0.4745 -0.3641 -0.7932
  519MPD2    C3 7708   1.461   0.989  14.241  0.4232  0.3851 -0.0140
  519MPD2    C4 7709   1.539   0.996  14.356  0.3768 -0.5404  0.1805
  519MPD2    C5 7710   1.556   1.109  14.429  0.7060  0.1575  0.1845
  519MPD2     H 7711   1.315   1.102  14.129 -1.9212 -1.1874  1.5180
  519MPD2    H1 7712   1.586   0.907  14.395  1.3162  0.4654  1.3299
  519MPD2    H2 7713   1.510   1.316  14.460  0.7500 -0.7971  1.6305
  519MPD2    H3 7714   1.605   1.105  14.525 -0.8150  1.9667  1.0339
  519MPD2     N 7715   1.458   0.870  14.164  0.0422  0.4873 -0.5021
  519MPD2    H5 7716   1.531   0.802  14.182  1.6883  1.8073 -2.1682
  519MPD2    N1 7717   1.348   1.328  14.223 -0.3101  0.1204  0.4538
  519MPD2    H7 7718   1.293   1.308  14.140 -0.2633 -0.1151  0.4800
  520TMC3    C1 7719   1.425   0.737  13.975 -0.0624 -0.4146 -0.0817
  520TMC3    C2 7720   1.373   0.733  13.848 -0.0752  0.1469 -0.2995
  520TMC3    C3 7721   1.460   0.725  13.737  0.0489 -0.0470  0.4406
  520TMC3    C4 7722   1.562   0.717  13.987 -0.6540  0.0352  0.1463
  520TMC3    C5 7723   1.641   0.711  13.883 -0.2416 -0.3453  0.5261
  520TMC3    C6 7724   1.599   0.721  13.754  0.0251  0.0279 -0.1956
  520TMC3     C 7725   1.368   0.840  14.066  0.7093  0.6001 -0.1400
  520TMC3     O 7726   1.259   0.892  14.044 -0.6037  0.3264 -0.2929
  520TMC3     H 7727   1.266   0.723  13.836 -0.1486  0.1425  0.3535
  520TMC3    H1 7728   1.603   0.707  14.086  0.3644 -0.8596 -0.3606
  520TMC3    H2 7729   1.654   0.713  13.661 -2.6113  1.2145 -1.8672
  520TMC3    C7 7730   1.769   0.655  13.918  0.5407  0.1451  0.6959
  520TMC3    C8 7731   1.414   0.731  13.599  0.3798  0.0585  0.0150
  520TMC3    O1 7732   1.779   0.578  14.013 -0.1444 -0.1574  0.1924
  520TMC3    O2 7733   1.494   0.725  13.510  0.5757  0.0584 -0.1205
  521MPD2     C 7734   2.548   4.028  17.353 -0.7983  0.1616 -0.0459
  521MPD2    C1 7735   2.478   3.953  17.253 -0.3182  0.2151  0.3060
  521MPD2    C2 7736   2.542   3.834  17.218  0.5398 -0.2810 -0.3754
  521MPD2    C3 7737   2.664   3.794  17.265 -0.7595 -0.1471 -0.1147
  521MPD2    C4 7738   2.728   3.867  17.360  0.5256 -0.0702 -1.0583
  521MPD2    C5 7739   2.665   3.979  17.404  0.1505 -0.5722 -0.6642
  521MPD2     H 7740   2.475   3.766  17.166  1.1819 -0.8134 -0.4993
  521MPD2    H1 7741   2.826   3.834  17.394  0.6681 -1.4321 -2.8015
  521MPD2    H2 7742   2.509   4.116  17.403 -0.1686 -0.6258  1.8145
  521MPD2    H3 7743   2.715   4.036  17.482  0.4402 -0.3149 -1.0353
  521MPD2     N 7744   2.717   3.676  17.219 -0.4310 -0.4210 -0.2282
  521MPD2    H5 7745   2.664   3.632  17.145 -0.7360 -1.8493  0.8452
  521MPD2    N1 7746   2.352   3.987  17.198  0.2449  0.5353 -0.0990
  521MPD2    H7 7747   2.317   3.931  17.122  0.5231 -0.4441  0.4964
  522TMC3    C1 7748   2.854   3.486  17.190  0.1951 -0.8397  0.4652
  522TMC3    C2 7749   2.975   3.434  17.196  0.4516  0.2522  0.1815
  522TMC3    C3 7750   3.023   3.364  17.094  0.0640  0.0183 -0.1466
  522TMC3    C4 7751   2.766   3.470  17.089 -0.1098  0.0672 -0.6787
  522TMC3    C5 7752   2.812   3.384  16.996  0.2014  0.2837  0.2696
  522TMC3    C6 7753   2.941   3.334  16.982 -0.4202 -0.7675 -0.3201
  522TMC3     C 7754   2.832   3.608  17.263  0.1018  0.2190  0.3399
  522TMC3     O 7755   2.922   3.636  17.342  0.7419 -0.4648  0.0703
  522TMC3     H 7756   3.046   3.446  17.277  0.6596 -0.0766  0.0455
  522TMC3    H1 7757   2.660   3.487  17.106  0.4535  1.8451  1.0481
  522TMC3    H2 7758   2.970   3.278  16.894  0.0124 -0.5883 -0.2902
  522TMC3    C7 7759   2.715   3.319  16.916 -0.0302 -0.4175 -0.3458
  522TMC3    C8 7760   3.169   3.353  17.086 -0.4051  0.2796 -0.8747
  522TMC3    O1 7761   2.751   3.212  16.874  1.3055 -0.5013  0.4329
  522TMC3    O2 7762   3.233   3.364  17.191 -0.0808 -0.1124  0.2307
  523MPD2     C 7763   0.904   3.682   9.513  0.1551  0.2542 -0.0669
  523MPD2    C1 7764   0.779   3.642   9.556 -1.3562 -0.1887 -0.2698
  523MPD2    C2 7765   0.668   3.727   9.539  0.3287  0.2906  0.4577
  523MPD2    C3 7766   0.678   3.843   9.475 -0.0744 -0.8312 -0.4340
  523MPD2    C4 7767   0.798   3.881   9.428 -1.2315  0.6669  0.3652
  523MPD2    C5 7768   0.915   3.805   9.443  0.1212 -0.2505 -0.0186
  523MPD2     H 7769   0.571   3.700   9.578 -0.4826 -1.2570 -2.6162
  523MPD2    H1 7770   0.798   3.980   9.384 -1.1889  1.5667  2.3905
  523MPD2    H2 7771   0.987   3.614   9.527 -0.0888  0.2188  1.2075
  523MPD2    H3 7772   1.013   3.842   9.416 -0.4124  0.8657 -0.4547
  523MPD2     N 7773   0.577   3.936   9.443  0.6239  0.3680  0.5909
  523MPD2    H5 7774   0.610   4.016   9.390  0.3206  0.6899  0.8908
  523MPD2    N1 7775   0.766   3.523   9.627 -0.4573 -0.2113 -0.5550
  523MPD2    H7 7776   0.849   3.490   9.676 -0.6602 -0.5804 -0.4608
  524TMC3    C1 7777   0.374   4.057   9.460 -0.0903  0.6327  0.0613
  524TMC3    C2 7778   0.240   4.053   9.443  0.2370 -0.2629  0.0841
  524TMC3    C3 7779   0.170   4.173   9.417 -0.7123  0.4696 -0.8882
  524TMC3    C4 7780   0.439   4.180   9.461 -0.4738 -0.7140  0.1485
  524TMC3    C5 7781   0.367   4.293   9.429 -0.9007 -0.1273  0.0943
  524TMC3    C6 7782   0.230   4.290   9.409  0.3714 -0.2982 -0.7551
  524TMC3     C 7783   0.448   3.941   9.507 -1.0886  0.0860 -0.7284
  524TMC3     O 7784   0.388   3.851   9.566  0.6124  0.1933  0.2763
  524TMC3     H 7785   0.178   3.974   9.484 -0.9385  0.7084  0.1778
  524TMC3    H1 7786   0.543   4.198   9.487 -0.5491 -2.8060  1.8828
  524TMC3    H2 7787   0.177   4.382   9.384  0.7948  0.2621  0.4434
  524TMC3    C7 7788   0.446   4.411   9.388 -0.3602  0.7232  0.5022
  524TMC3    C8 7789   0.025   4.160   9.420 -0.0851 -0.4937 -0.4716
  524TMC3    O1 7790   0.564   4.404   9.354  0.5289 -0.1143  0.2113
  524TMC3    O2 7791   4.706   4.049   9.394 -0.6473  0.4132 -0.1550
  525MPD2     C 7792   2.735   0.573  14.042 -0.4491  0.1521  0.0466
  525MPD2    C1 7793   2.868   0.572  14.081  0.3089 -0.8754  0.0471
  525MPD2    C2 7794   2.957   0.671  14.044  1.1741  0.4436  0.0400
  525MPD2    C3 7795   2.906   0.761  13.954 -0.0747 -0.1476 -0.0881
  525MPD2    C4 7796   2.775   0.769  13.917  0.1036 -0.7977 -0.3855
  525MPD2    C5 7797   2.690   0.673  13.965  0.0982 -0.2800 -0.5761
  525MPD2     H 7798   3.060   0.671  14.078  0.1354  1.2086  3.2386
  525MPD2    H1 7799   2.740   0.847  13.849 -0.3259 -0.5448  0.1325
  525MPD2    H2 7800   2.665   0.495  14.069 -4.5912  3.2904 -1.7229
  525MPD2    H3 7801   2.590   0.667  13.924 -0.3152 -0.5982  0.4715
  525MPD2     N 7802   2.985   0.862  13.896  0.0863  0.5092 -0.1541
  525MPD2    H5 7803   2.930   0.920  13.834  1.0027  1.2549 -0.2606
  525MPD2    N1 7804   2.921   0.472  14.168 -0.2002 -0.2016 -0.3007
  525MPD2    H7 7805   3.022   0.467  14.163 -0.2051 -0.1792 -0.4272
  526TMC3    C1 7806   2.941   0.298  14.339 -0.2948  0.4920  0.1175
  526TMC3    C2 7807   2.884   0.243  14.450 -0.4359 -0.3272 -0.3262
  526TMC3    C3 7808   2.969   0.197  14.550  0.2572  0.0164  0.4365
  526TMC3    C4 7809   3.075   0.305  14.317  0.6489  0.6701 -0.0393
  526TMC3    C5 7810   3.150   0.234  14.407 -0.3503  0.8372  0.3451
  526TMC3    C6 7811   3.101   0.181  14.524 -0.7691  0.2889  0.5138
  526TMC3     C 7812   2.854   0.381  14.252  0.0024  0.6569  0.2716
  526TMC3     O 7813   2.736   0.380  14.278 -0.1105 -0.0435  0.0895
  526TMC3     H 7814   2.778   0.257  14.471 -0.7505 -2.4895 -0.4973
  526TMC3    H1 7815   3.114   0.328  14.218  0.5179 -0.6107 -0.3923
  526TMC3    H2 7816   3.168   0.139  14.598 -0.1541  0.8892  0.2906
  526TMC3    C7 7817   3.276   0.179  14.370  0.6151 -0.4396 -0.2621
  526TMC3    C8 7818   2.934   0.234  14.688  0.0466  0.2108  0.1602
  526TMC3    O1 7819   3.312   0.078  14.429  0.2566 -0.3101 -0.1260
  526TMC3    O2 7820   3.026   0.301  14.731  0.7760  0.6097 -0.0006
  527MPD2     C 7821   2.013   4.024   1.405 -0.6464 -0.8484  0.0853
  527MPD2    C1 7822   2.117   3.934   1.433 -0.0683  0.6883  0.4432
  527MPD2    C2 7823   2.187   3.869   1.333  0.0093 -0.7018  0.1813
  527MPD2    C3 7824   2.154   3.910   1.207 -0.8314  0.2456  0.9448
  527MPD2    C4 7825   2.060   4.006   1.181  0.0155  0.5859 -0.1101
  527MPD2    C5 7826   1.999   4.072   1.279  1.2667  0.0421  0.7084
  527MPD2     H 7827   2.270   3.801   1.353 -0.0229 -0.0894  2.2953
  527MPD2    H1 7828   2.060   4.053   1.084  1.6987  1.2719  0.2145
  527MPD2    H2 7829   1.959   4.073   1.485 -2.7611  0.1548 -1.9422
  527MPD2    H3 7830   1.949   4.167   1.268 -1.1184 -1.6951 -3.0420
  527MPD2     N 7831   2.230   3.861   1.096  0.4572  0.0459 -0.4531
  527MPD2    H5 7832   2.313   3.807   1.121  0.2184  0.2089  0.6937
  527MPD2    N1 7833   2.155   3.908   1.564  0.0980 -0.1732 -1.4133
  527MPD2    H7 7834   2.225   3.835   1.573 -1.6032 -1.6004  0.2037
  528TMC3    C1 7835   2.210   3.944   1.790  0.2005 -0.6417 -0.2255
  528TMC3    C2 7836   2.242   4.051   1.870 -0.5638 -0.1572 -0.8758
  528TMC3    C3 7837   2.319   4.035   1.984 -0.2155 -0.3844 -0.2400
  528TMC3    C4 7838   2.233   3.816   1.830  0.3255 -0.7979 -0.1166
  528TMC3    C5 7839   2.310   3.802   1.944 -0.1632  0.7181 -0.1568
  528TMC3    C6 7840   2.353   3.907   2.024  0.1751  0.0738 -0.0046
  528TMC3     C 7841   2.125   3.980   1.675 -0.6289  0.8921  0.3095
  528TMC3     O 7842   2.060   4.083   1.684  0.1874 -0.4467 -0.0400
  528TMC3     H 7843   2.216   4.151   1.836  1.4549  1.6196  2.8538
  528TMC3    H1 7844   2.185   3.733   1.780 -2.6908  0.6526  0.3649
  528TMC3    H2 7845   2.396   3.897   2.123  1.5784  1.4914 -0.4875
  528TMC3    C7 7846   2.301   3.675   2.008  0.2528 -0.3116  0.1225
  528TMC3    C8 7847   2.336   4.149   2.078 -0.1586 -0.2916 -0.2419
  528TMC3    O1 7848   2.211   3.607   1.966 -0.3665  0.0701  0.0662
  528TMC3    O2 7849   2.376   4.124   2.194 -0.1308 -0.1929  0.6391
  529MPD2     C 7850   3.152   2.606   0.884  0.7649  0.3721 -0.3154
  529MPD2    C1 7851   3.236   2.521   0.808 -0.1315  0.1121  0.7295
  529MPD2    C2 7852   3.234   2.524   0.672  0.2841  0.2072 -0.0386
  529MPD2    C3 7853   3.133   2.600   0.608  0.5313 -0.0647  0.1676
  529MPD2    C4 7854   3.045   2.672   0.690 -0.1622 -0.8748 -0.3380
  529MPD2    C5 7855   3.057   2.677   0.820  0.2547 -0.5650  0.6006
  529MPD2     H 7856   3.307   2.472   0.612  1.7522  0.2706  1.7060
  529MPD2    H1 7857   2.967   2.730   0.640 -1.0137 -1.4596  0.3110
  529MPD2    H2 7858   3.156   2.618   0.992 -1.0892 -0.7965 -0.1259
  529MPD2    H3 7859   2.995   2.742   0.882 -0.0856 -0.9518  0.6679
  529MPD2     N 7860   3.128   2.629   0.473  0.0936 -0.2466 -0.0609
  529MPD2    H5 7861   3.045   2.680   0.442  0.8068  0.1295 -1.3080
  529MPD2    N1 7862   3.333   2.434   0.864  0.7294  0.3760 -0.4489
  529MPD2    H7 7863   3.384   2.373   0.801  2.3033  1.4070 -0.1638
  530TMC3    C1 7864   3.476   2.359   1.043  0.8276 -0.1539  0.1702
  530TMC3    C2 7865   3.556   2.388   1.149  0.5771 -0.4044 -0.2509
  530TMC3    C3 7866   3.633   2.291   1.205  0.4084  0.5927 -0.0465
  530TMC3    C4 7867   3.462   2.226   1.004 -0.4754 -0.7096 -0.9588
  530TMC3    C5 7868   3.533   2.127   1.071 -0.1658 -0.3131 -0.4149
  530TMC3    C6 7869   3.621   2.158   1.171 -0.4355  0.5911  0.7125
  530TMC3     C 7870   3.382   2.459   0.993  0.4002  0.5468 -0.7943
  530TMC3     O 7871   3.374   2.561   1.062  0.3695 -0.1937  0.4673
  530TMC3     H 7872   3.568   2.488   1.188  0.6327 -0.9866  1.1954
  530TMC3    H1 7873   3.392   2.197   0.926 -3.3490  0.0888  1.3464
  530TMC3    H2 7874   3.688   2.082   1.210  0.8757  1.8182  0.8546
  530TMC3    C7 7875   3.547   2.006   1.000 -0.4582 -0.7101 -0.4866
  530TMC3    C8 7876   3.737   2.338   1.291  0.6895  0.0224  0.3848
  530TMC3    O1 7877   3.501   1.998   0.889 -0.1475 -0.2510 -0.6230
  530TMC3    O2 7878   3.733   2.453   1.333 -0.0506  0.2162  0.3842
  531MPD2     C 7879   2.762   4.191  12.638  0.5663 -0.5362  0.1010
  531MPD2    C1 7880   2.637   4.167  12.694 -0.4169 -0.0234  0.3399
  531MPD2    C2 7881   2.528   4.140  12.608  0.1507 -0.0311 -0.8913
  531MPD2    C3 7882   2.541   4.153  12.473  0.0640 -0.3458  0.0824
  531MPD2    C4 7883   2.664   4.180  12.417 -0.5170  0.0696 -0.4546
  531MPD2    C5 7884   2.777   4.193  12.502  0.0429 -0.2630 -0.7678
  531MPD2     H 7885   2.429   4.110  12.643  1.0506 -3.8366 -1.6204
  531MPD2    H1 7886   2.684   4.203  12.313 -1.0934 -0.6426 -0.7219
  531MPD2    H2 7887   2.847   4.220  12.699  0.0417  0.0486  0.5739
  531MPD2    H3 7888   2.874   4.214  12.458  1.6233 -0.4443  2.6465
  531MPD2     N 7889   2.425   4.145  12.394 -0.1162  0.2966  0.3190
  531MPD2    H5 7890   2.338   4.148  12.446  1.0370  0.2421  2.2800
  531MPD2    N1 7891   2.634   4.153  12.840 -0.0654  0.1037  0.4686
  531MPD2    H7 7892   2.715   4.175  12.897  0.7444 -3.1763  0.5826
  532TMC3    C1 7893   2.525   4.134  13.044 -0.2250 -0.3881  0.0099
  532TMC3    C2 7894   2.405   4.111  13.106 -0.5126 -0.3850 -0.1580
  532TMC3    C3 7895   2.363   4.207  13.197  0.3191  0.4475 -0.1289
  532TMC3    C4 7896   2.615   4.234  13.093 -0.0060 -0.8637  0.1119
  532TMC3    C5 7897   2.581   4.308  13.207 -0.3122  0.5069  0.3994
  532TMC3    C6 7898   2.452   4.295  13.252 -0.3164  0.1795  0.6960
  532TMC3     C 7899   2.520   4.104  12.906  0.8710 -0.4978 -0.5476
  532TMC3     O 7900   2.411   4.086  12.863  0.6240 -0.4820  0.3940
  532TMC3     H 7901   2.351   4.025  13.068 -1.5282  0.4749 -0.6315
  532TMC3    H1 7902   2.702   4.259  13.034 -0.3900 -1.8733 -0.8955
  532TMC3    H2 7903   2.422   4.366  13.328  1.5243 -1.0361  2.5449
  532TMC3    C7 7904   2.679   4.295  13.305 -0.0366 -0.1137 -0.2842
  532TMC3    C8 7905   2.237   4.255  13.153  0.3133 -0.0119 -0.8395
  532TMC3    O1 7906   2.651   4.354  13.407  0.3738 -0.3422 -0.4381
  532TMC3    O2 7907   2.183   4.334  13.226  0.3847  0.4922  0.8031
  533TMC3    C1 7908   3.168   1.006  13.837  1.0314  1.1895 -0.2936
  533TMC3    C2 7909   3.304   1.019  13.843  0.3552  1.2212  0.0172
  533TMC3    C3 7910   3.360   1.142  13.864  0.1625  0.3457 -0.0646
  533TMC3    C4 7911   3.084   1.110  13.877  0.0372  0.5360 -0.0297
  533TMC3    C5 7912   3.148   1.216  13.941 -0.2084  0.2705  0.0167
  533TMC3    C6 7913   3.285   1.245  13.915 -0.5118 -0.6842  0.2394
  533TMC3     C 7914   3.122   0.876  13.896 -0.3979  0.2926 -0.0982
  533TMC3     O 7915   3.212   0.796  13.932  0.0802  0.2579 -0.0290
  533TMC3     H 7916   3.367   0.933  13.821  0.7348  1.3967  0.4333
  533TMC3    H1 7917   2.976   1.099  13.887  0.2963 -2.2344 -0.4288
  533TMC3    H2 7918   3.323   1.342  13.943  1.0242 -1.3217  0.3657
  533TMC3    C7 7919   3.132   1.201  14.085 -0.3505  0.2185  0.7130
  533TMC3    C8 7920   3.482   1.147  13.942 -0.7165  0.0256 -0.8313
  533TMC3    O1 7921   3.091   1.093  14.128 -0.3279 -0.1027  0.2738
  533TMC3    O2 7922   3.483   1.203  14.048 -0.8357  0.2752  0.1103
  534MPD2     C 7923   1.521   2.431   1.431  0.4298  0.0285 -0.5153
  534MPD2    C1 7924   1.470   2.548   1.492  0.1374  0.7394  0.1680
  534MPD2    C2 7925   1.347   2.593   1.450  0.2499  0.7098 -0.3708
  534MPD2    C3 7926   1.266   2.517   1.369 -0.0862  0.4359  0.1940
  534MPD2    C4 7927   1.309   2.396   1.317  0.6304 -0.8862  0.9865
  534MPD2    C5 7928   1.434   2.356   1.353 -0.6976 -0.0056  1.0630
  534MPD2     H 7929   1.309   2.681   1.500  1.2663  0.8206  0.1917
  534MPD2    H1 7930   1.245   2.327   1.263  0.0623 -0.7896  1.5276
  534MPD2    H2 7931   1.623   2.399   1.447  1.0084  1.9434 -0.3169
  534MPD2    H3 7932   1.470   2.260   1.316  0.5211  0.4414  1.0712
  534MPD2     N 7933   1.143   2.557   1.315 -0.0162 -0.1017 -0.6900
  534MPD2    H5 7934   1.110   2.495   1.242 -0.8718  0.3065 -0.6464
  534MPD2    N1 7935   1.548   2.631   1.573 -0.1453 -0.4066 -0.8687
  534MPD2    H7 7936   1.514   2.720   1.607  2.5403  0.3395 -0.1655
  535TMC3    C1 7937   0.953   2.684   1.288  0.0107  0.8521  0.0839
  535TMC3    C2 7938   0.841   2.679   1.367 -0.2387 -0.1932 -0.0536
  535TMC3    C3 7939   0.719   2.665   1.311  0.4124  0.3905 -0.8758
  535TMC3    C4 7940   0.947   2.664   1.154  0.2482 -0.5172  0.1329
  535TMC3    C5 7941   0.824   2.649   1.100 -0.9330  0.5114  0.6420
  535TMC3    C6 7942   0.711   2.654   1.178  0.0550 -0.8373  0.2538
  535TMC3     C 7943   1.075   2.669   1.358  0.1893  0.0074  0.5541
  535TMC3     O 7944   1.099   2.743   1.452  0.1490 -0.1020 -0.3456
  535TMC3     H 7945   0.850   2.704   1.472  0.9108 -0.1288 -0.1609
  535TMC3    H1 7946   1.040   2.641   1.102 -0.0807 -0.9782 -0.2495
  535TMC3    H2 7947   0.615   2.674   1.131 -0.0050 -1.5851  0.0674
  535TMC3    C7 7948   0.820   2.618   0.960  0.4649 -0.0125  0.2466
  535TMC3    C8 7949   0.606   2.657   1.405 -0.7755  1.0193  0.0427
  535TMC3    O1 7950   0.929   2.631   0.902 -0.2000 -0.3565 -0.0573
  535TMC3    O2 7951   0.628   2.689   1.519 -0.1694 -0.2267  0.0735
  536MPD2     C 7952   0.024   0.350  15.635  0.0190 -0.4113  0.5485
  536MPD2    C1 7953   4.648   0.316  15.722  0.0642  0.1409 -0.5426
  536MPD2    C2 7954   4.521   0.364  15.702  0.0137  0.1324  0.4389
  536MPD2    C3 7955   4.492   0.430  15.584 -0.7741  0.2418  0.5162
  536MPD2    C4 7956   4.595   0.458  15.495 -0.2433  0.4804  1.0946
  536MPD2    C5 7957   4.722   0.431  15.530 -1.0629  0.4447  0.1312
  536MPD2     H 7958   4.439   0.344  15.770  0.2746 -0.5026  0.5620
  536MPD2    H1 7959   4.594   0.507  15.398 -0.6080 -0.6523  0.5373
  536MPD2    H2 7960   0.125   0.315  15.657 -0.1771 -0.4591  1.3819
  536MPD2    H3 7961   0.068   0.452  15.450  0.8480  1.1276  2.0064
  536MPD2     N 7962   4.361   0.463  15.542  0.1060  0.2857 -0.3562
  536MPD2    H5 7963   4.349   0.508  15.452 -1.5840  1.0554  0.2549
  536MPD2    N1 7964   4.688   0.237  15.831 -1.3866  0.0562  0.1576
  536MPD2    H7 7965   0.062   0.208  15.829 -0.8247  2.0656 -1.4454
  537TMC3    C1 7966   4.677   0.076  16.005 -0.0765 -0.4022  0.3707
  537TMC3    C2 7967   0.017   0.142  16.107  0.7064 -0.8659  0.4388
  537TMC3    C3 7968   4.690   0.112  16.229 -0.0894 -1.5177 -0.5648
  537TMC3    C4 7969   4.582   4.703  16.032 -0.0880 -0.6803  0.1341
  537TMC3    C5 7970   4.536   4.686  16.163 -0.1997 -0.3731  0.4482
  537TMC3    C6 7971   4.586   0.035  16.265 -0.2098  0.2587 -0.6350
  537TMC3     C 7972   4.608   0.170  15.926  0.3199 -0.3636 -0.0040
  537TMC3     O 7973   4.485   0.190  15.949 -0.3062 -0.2659  0.9404
  537TMC3     H 7974   0.082   0.226  16.085  0.9875 -1.4349 -0.8818
  537TMC3    H1 7975   4.524   4.655  15.954  1.5067  1.5062 -2.3440
  537TMC3    H2 7976   4.543   0.036  16.365  0.8577  0.4192 -0.1748
  537TMC3    C7 7977   4.403   4.627  16.184 -0.3495  1.3323 -0.3537
  537TMC3    C8 7978   0.027   0.172  16.346  0.2553 -0.0652  0.7390
  537TMC3    O1 7979   4.328   4.628  16.085  0.2276 -0.1657 -0.4816
  537TMC3    O2 7980   4.689   0.183  16.453  0.5295 -0.0932  0.1419
  538TMC3    C1 7981   1.709   3.281  10.704 -0.2373 -0.0311 -0.8234
  538TMC3    C2 7982   1.687   3.211  10.591  0.1581  0.2505 -0.2523
  538TMC3    C3 7983   1.567   3.144  10.590 -0.6845 -0.3819  0.2063
  538TMC3    C4 7984   1.615   3.291  10.808 -0.1057  0.6652 -0.3023
  538TMC3    C5 7985   1.496   3.222  10.796 -0.0317  0.0076  0.3691
  538TMC3    C6 7986   1.478   3.137  10.694  0.0192 -1.1101  0.4344
  538TMC3     C 7987   1.813   3.385  10.695 -0.1701 -0.3041 -0.6015
  538TMC3     O 7988   1.857   3.414  10.582  0.4539 -0.5453  0.5535
  538TMC3     H 7989   1.755   3.193  10.508 -1.2922 -1.2121 -1.1369
  538TMC3    H1 7990   1.623   3.373  10.879  1.3334  1.2086 -1.0944
  538TMC3    H2 7991   1.378   3.099  10.677 -1.2986  2.5955 -0.0201
  538TMC3    C7 7992   1.379   3.274  10.855 -0.0347  0.1508  0.0558
  538TMC3    C8 7993   1.535   3.070  10.468  0.8247 -0.0641 -0.1672
  538TMC3    O1 7994   1.268   3.294  10.799 -0.0532 -0.1102 -0.3242
  538TMC3    O2 7995   1.445   2.986  10.477  0.4248 -0.0073  0.0173
  539MPD2     C 7996   0.877   2.055  10.809  0.1303  0.0352  0.3290
  539MPD2    C1 7997   1.004   2.117  10.801  0.1175 -0.0854  0.5068
  539MPD2    C2 7998   1.019   2.244  10.849 -0.1010 -0.0283 -0.4984
  539MPD2    C3 7999   0.909   2.316  10.890  0.2834 -0.3068 -0.6351
  539MPD2    C4 8000   0.781   2.256  10.879 -0.2656  0.0069 -0.3368
  539MPD2    C5 8001   0.765   2.126  10.842  0.3289  0.0860  0.0976
  539MPD2     H 8002   1.123   2.275  10.856 -0.5783  1.6808 -0.9498
  539MPD2    H1 8003   0.696   2.323  10.867 -1.1087 -0.8303  0.9411
  539MPD2    H2 8004   0.860   1.954  10.775 -0.4314 -0.0092  0.7581
  539MPD2    H3 8005   0.666   2.091  10.815 -1.0493  1.6883  3.0198
  539MPD2     N 8006   0.923   2.451  10.925  0.4288 -0.1820 -0.4258
  539MPD2    H5 8007   0.836   2.499  10.941  1.5452  1.4577  0.6509
  539MPD2    N1 8008   1.119   2.046  10.755  0.3116 -0.0168  0.8634
  539MPD2    H7 8009   1.204   2.101  10.766  0.1349 -0.1344  2.9346
  540TMC3    C1 8010   1.004   2.656  11.009  0.2711  0.0706 -0.3518
  540TMC3    C2 8011   0.880   2.696  10.974 -0.2084  0.3726  0.3109
  540TMC3    C3 8012   0.835   2.815  11.021 -0.0058 -0.0827  0.6845
  540TMC3    C4 8013   1.072   2.712  11.113 -1.0875  0.5598 -0.2100
  540TMC3    C5 8014   1.026   2.828  11.164  0.5747  0.3212  0.6995
  540TMC3    C6 8015   0.910   2.882  11.111  0.2306  0.5878  0.6193
  540TMC3     C 8016   1.034   2.511  10.982  0.2885  0.3062  0.3794
  540TMC3     O 8017   1.153   2.484  11.002  0.1540  0.8997 -0.8238
  540TMC3     H 8018   0.841   2.667  10.877  1.0356 -2.7319  0.7455
  540TMC3    H1 8019   1.145   2.651  11.164 -1.7904  0.5458  0.7895
  540TMC3    H2 8020   0.888   2.985  11.137  0.5513  0.6993  0.4545
  540TMC3    C7 8021   1.083   2.869  11.295  0.3500  0.2893  0.1818
  540TMC3    C8 8022   0.762   2.891  10.926  0.5849  0.0538 -0.0325
  540TMC3    O1 8023   1.203   2.860  11.308 -0.4961  0.3777  0.0538
  540TMC3    O2 8024   0.789   3.009  10.931  0.0866  0.0203 -0.1045
  541MPD2     C 8025   3.945   4.218  12.898 -0.2017  0.4278 -0.0960
  541MPD2    C1 8026   3.985   4.139  12.791  0.2639  0.4246 -0.1015
  541MPD2    C2 8027   4.030   4.200  12.671  0.9960 -0.2591 -0.2585
  541MPD2    C3 8028   4.016   4.335  12.659 -1.3669 -0.0408  0.1917
  541MPD2    C4 8029   3.964   4.407  12.768 -0.3405  0.1346 -0.2075
  541MPD2    C5 8030   3.933   4.355  12.892  0.5266 -0.1119 -0.1450
  541MPD2     H 8031   4.052   4.138  12.585 -1.1930  0.9466 -1.7033
  541MPD2    H1 8032   3.955   4.514  12.759 -3.6657  0.0670  2.3418
  541MPD2    H2 8033   3.922   4.168  12.991  0.9285  2.4101  1.2570
  541MPD2    H3 8034   3.908   4.411  12.981 -2.5802  1.5408 -2.0788
  541MPD2     N 8035   4.046   4.405  12.540  0.7749 -0.6130  0.4464
  541MPD2    H5 8036   4.035   4.505  12.548  1.0182 -0.6529  1.3665
  541MPD2    N1 8037   3.995   4.001  12.823  0.3961 -0.0439  0.3651
  541MPD2    H7 8038   3.956   3.981  12.915  0.1571  0.3834  0.3551
  542TMC3    C1 8039   4.101   4.449  12.311 -0.0458 -0.1925 -0.0518
  542TMC3    C2 8040   4.144   4.399  12.187 -0.3507  0.1531 -0.1536
  542TMC3    C3 8041   4.102   4.460  12.076  0.3973  0.8110  0.1494
  542TMC3    C4 8042   4.010   4.554  12.316 -0.1457 -0.4622  0.5062
  542TMC3    C5 8043   3.976   4.612  12.193  0.0323 -0.3708 -0.1407
  542TMC3    C6 8044   4.012   4.563  12.074  0.4631  0.8822 -0.1213
  542TMC3     C 8045   4.108   4.350  12.425  0.1132 -0.4908  0.0921
  542TMC3     O 8046   4.166   4.244  12.403  0.1156  0.1773  0.5825
  542TMC3     H 8047   4.202   4.307  12.192 -0.3832  0.0487 -1.9032
  542TMC3    H1 8048   3.985   4.601  12.411  1.1513  0.7365  0.2467
  542TMC3    H2 8049   3.997   4.603  11.974  1.7572  0.6747 -0.3979
  542TMC3    C7 8050   3.910   0.016  12.203 -0.1755  0.4516 -0.0513
  542TMC3    C8 8051   4.165   4.420  11.960  0.1157 -0.1986  0.3711
  542TMC3    O1 8052   3.842   0.041  12.300  0.4736  0.2414  0.1961
  542TMC3    O2 8053   4.102   4.424  11.854 -0.3946 -0.2942  0.0538
  543TMC3    C1 8054   3.168   1.373  17.078  0.4472 -0.9614 -0.2495
  543TMC3    C2 8055   3.048   1.308  17.108 -0.3288 -0.0359 -0.1992
  543TMC3    C3 8056   3.000   1.319  17.237  0.8032  0.0082 -0.4315
  543TMC3    C4 8057   3.248   1.438  17.173  0.0852  0.3495 -0.0339
  543TMC3    C5 8058   3.195   1.449  17.299  0.3501 -0.7471 -0.3693
  543TMC3    C6 8059   3.074   1.388  17.334 -0.0477  0.2976 -0.1693
  543TMC3     C 8060   3.216   1.357  16.937  0.0128 -1.1316 -0.1213
  543TMC3     O 8061   3.338   1.354  16.923  0.2111 -0.2751  0.4902
  543TMC3     H 8062   2.991   1.259  17.030 -0.5167 -1.4204  0.8093
  543TMC3    H1 8063   3.336   1.488  17.136  1.6525 -0.9380  1.9821
  543TMC3    H2 8064   3.032   1.417  17.430  1.0538 -0.6540  0.5975
  543TMC3    C7 8065   3.265   1.527  17.399 -0.0438  0.4199  0.3422
  543TMC3    C8 8066   2.888   1.229  17.274 -0.5422  0.2463  0.7520
  543TMC3    O1 8067   3.206   1.546  17.502 -0.4111  0.1540 -0.7609
  543TMC3    O2 8068   2.824   1.185  17.174  0.2990 -0.4198 -0.1854
  544MPD2     C 8069   2.760   0.827  17.566 -0.2604 -0.0183 -0.0651
  544MPD2    C1 8070   2.751   0.844  17.427  0.3125  0.1629 -0.6551
  544MPD2    C2 8071   2.792   0.961  17.376  0.6897  0.3380 -0.1476
  544MPD2    C3 8072   2.832   1.065  17.458  0.0121  0.5663  0.5672
  544MPD2    C4 8073   2.831   1.050  17.593  0.1842  0.0205  0.5021
  544MPD2    C5 8074   2.793   0.932  17.644 -0.1366 -0.4475 -0.0839
  544MPD2     H 8075   2.802   0.975  17.269 -2.1895 -1.5597 -0.6550
  544MPD2    H1 8076   2.857   1.127  17.664  0.8327  1.4939 -1.3270
  544MPD2    H2 8077   2.729   0.740  17.623  1.4984 -1.7499 -1.7553
  544MPD2    H3 8078   2.773   0.928   0.054 -3.0912 -1.9131 -0.7054
  544MPD2     N 8079   2.882   1.190  17.408 -0.4320 -0.2422  0.3560
  544MPD2    H5 8080   2.933   1.238  17.481  1.3600 -0.1402 -0.9521
  544MPD2    N1 8081   2.717   0.729  17.353 -0.0443  0.2178  0.1704
  544MPD2    H7 8082   2.713   0.644  17.407  1.3443 -0.8374 -1.3751
  545TMC3    C1 8083   2.700   0.592  17.164 -0.8887 -0.9146  0.3936
  545TMC3    C2 8084   2.758   0.588  17.042 -0.3805  0.3139  0.8703
  545TMC3    C3 8085   2.748   0.469  16.975 -0.1921 -0.2968 -0.1935
  545TMC3    C4 8086   2.646   0.483  17.224 -0.4098  0.0459 -0.0388
  545TMC3    C5 8087   2.655   0.364  17.165  0.2599 -0.2784 -0.7577
  545TMC3    C6 8088   2.687   0.353  17.032 -0.1822 -0.5095 -0.5136
  545TMC3     C 8089   2.689   0.727  17.219  0.1369  0.5978  0.0824
  545TMC3     O 8090   2.687   0.815  17.136 -0.8870  0.5098  1.0616
  545TMC3     H 8091   2.811   0.673  17.000  0.1723 -0.1908  0.5570
  545TMC3    H1 8092   2.601   0.476  17.322 -0.5370 -0.3353 -0.1254
  545TMC3    H2 8093   2.683   0.262  16.973 -1.4589 -2.3682  2.5034
  545TMC3    C7 8094   2.594   0.255  17.231  0.5815  0.5460  0.2608
  545TMC3    C8 8095   2.806   0.449  16.843 -0.3874 -1.0914 -0.1521
  545TMC3    O1 8096   2.498   0.269  17.301  0.4482  0.8070  0.3417
  545TMC3    O2 8097   2.761   0.347  16.788 -0.4446 -0.1304  0.1113
  546MPD2     C 8098   4.269   1.010  17.576  0.1226  0.3173 -0.5822
  546MPD2    C1 8099   4.279   1.029  17.438  0.4150 -0.1066 -0.0003
  546MPD2    C2 8100   4.290   1.163  17.389 -0.4271  0.0920 -0.6217
  546MPD2    C3 8101   4.295   1.268  17.476 -0.0797 -0.6288  0.1901
  546MPD2    C4 8102   4.286   1.248  17.614 -0.6060  0.8496 -0.4269
  546MPD2    C5 8103   4.273   1.118  17.658 -0.0901  0.2309  0.0493
  546MPD2     H 8104   4.301   1.181  17.283  1.1671  0.6574 -0.3683
  546MPD2    H1 8105   4.297   1.330  17.683 -0.6412 -0.8717  1.6404
  546MPD2    H2 8106   4.264   0.909  17.616  3.3947  0.7280  0.8828
  546MPD2    H3 8107   4.264   1.112   0.069 -1.9823  0.0186 -0.1185
  546MPD2     N 8108   4.317   1.406  17.436  0.2433 -0.0832  0.6785
  546MPD2    H5 8109   4.320   1.475  17.511 -1.4883 -1.6598  2.2140
  546MPD2    N1 8110   4.269   0.915  17.354 -0.1095  0.3079 -0.0140
  546MPD2    H7 8111   4.268   0.829  17.409 -0.4362 -0.2467 -0.8776
  547TMC3    C1 8112   4.245   0.788  17.156 -0.0638  0.0550  0.2764
  547TMC3    C2 8113   4.194   0.805  17.032 -0.2992  0.5933  0.1410
  547TMC3    C3 8114   4.133   0.699  16.974 -0.5574  0.6401 -0.0300
  547TMC3    C4 8115   4.209   0.683  17.235  0.9383 -1.1040  0.1764
  547TMC3    C5 8116   4.154   0.576  17.171  0.8756 -0.7070  0.5687
  547TMC3    C6 8117   4.118   0.576  17.037 -0.8938  0.2478  0.0566
  547TMC3     C 8118   4.268   0.916  17.218 -0.5476  0.5708  0.2872
  547TMC3     O 8119   4.316   0.998  17.141  0.8566  0.1401 -0.1866
  547TMC3     H 8120   4.214   0.895  16.975 -3.2988  0.2110 -1.4999
  547TMC3    H1 8121   4.255   0.660  17.330 -0.6923 -2.1601  0.7145
  547TMC3    H2 8122   4.051   0.501  16.996 -0.0072 -0.0838 -0.7972
  547TMC3    C7 8123   4.083   0.476  17.254  0.3348  0.1312  0.6965
  547TMC3    C8 8124   4.081   0.717  16.838 -0.3531 -0.0400  0.1451
  547TMC3    O1 8125   4.039   0.524  17.356 -0.3140  0.7279 -0.3601
  547TMC3    O2 8126   4.078   0.832  16.795  0.1956 -0.2107 -0.5322
  548MPD2     C 8127   4.465   1.546  12.192  0.3994 -0.1427  0.0143
  548MPD2    C1 8128   4.392   1.441  12.235  0.0306  0.7363  0.0446
  548MPD2    C2 8129   4.455   1.318  12.230 -0.0785  1.1730 -0.0890
  548MPD2    C3 8130   4.582   1.298  12.190 -0.4060 -0.2126 -0.1174
  548MPD2    C4 8131   4.644   1.407  12.128  0.1259 -0.3447 -0.3322
  548MPD2    C5 8132   4.588   1.530  12.124 -0.5561  0.2936 -0.8725
  548MPD2     H 8133   4.387   1.239  12.259  1.2930  0.1759  0.4502
  548MPD2    H1 8134   0.022   1.397  12.092  0.1424 -1.3383 -0.0122
  548MPD2    H2 8135   4.430   1.648  12.201  0.0164 -0.2933  0.2619
  548MPD2    H3 8136   4.634   1.617  12.079  1.1616  0.8988  2.0687
  548MPD2     N 8137   4.641   1.171  12.210 -0.0277 -0.2599 -0.7855
  548MPD2    H5 8138   4.583   1.111  12.269 -0.6217  0.6122 -0.4733
  548MPD2    N1 8139   4.270   1.460  12.297  0.1442  0.3777  0.5608
  548MPD2    H7 8140   4.220   1.540  12.259  0.9019 -0.5763 -2.4973
  549TMC3    C1 8141   4.074   1.397  12.411  0.3768 -0.3997  0.3332
  549TMC3    C2 8142   4.016   1.518  12.397 -0.1053  0.2852  0.1240
  549TMC3    C3 8143   3.878   1.544  12.430  0.4415  0.8893 -0.1231
  549TMC3    C4 8144   3.996   1.295  12.459 -0.7304 -0.4611  0.0423
  549TMC3    C5 8145   3.859   1.323  12.477  0.0656 -0.2573 -0.5315
  549TMC3    C6 8146   3.798   1.442  12.471  0.6871 -0.2772  0.2940
  549TMC3     C 8147   4.209   1.371  12.381  0.3670 -0.6690  0.1222
  549TMC3     O 8148   4.257   1.281  12.449  0.1923  0.6507  0.7404
  549TMC3     H 8149   4.069   1.598  12.346  0.0575  0.8563  1.2048
  549TMC3    H1 8150   4.043   1.200  12.478  2.1456  1.0483  0.5057
  549TMC3    H2 8151   3.691   1.447  12.489  0.0768  0.3151 -3.5257
  549TMC3    C7 8152   3.770   1.207  12.478 -1.1099  0.5189  0.0535
  549TMC3    C8 8153   3.811   1.659  12.371 -0.0354  0.3472 -0.5374
  549TMC3    O1 8154   3.665   1.231  12.531  0.0764  0.2109  0.0182
  549TMC3    O2 8155   3.691   1.653  12.362  0.0429  0.5021 -0.3581
  550TMC3    C1 8156   3.127   0.051  12.507 -0.2657 -0.0930  0.3837
  550TMC3    C2 8157   3.018   4.723  12.573 -0.2129 -0.1563  0.2656
  550TMC3    C3 8158   2.892   0.026  12.523 -0.5716 -0.3020 -0.6238
  550TMC3    C4 8159   3.121   0.101  12.379  0.4668  0.1221  0.0514
  550TMC3    C5 8160   2.994   0.105  12.320 -0.3878  0.0361  0.2790
  550TMC3    C6 8161   2.882   0.080  12.395 -0.0746  0.1520 -0.1301
  550TMC3     C 8162   3.260   0.004  12.544  0.5943  0.2374 -0.1832
  550TMC3     O 8163   3.337   4.708  12.454 -0.0901  0.1413  0.2073
  550TMC3     H 8164   3.036   4.664  12.663 -1.5814 -1.3490 -0.2342
  550TMC3    H1 8165   3.209   0.129  12.322  0.7642  1.0965  0.9930
  550TMC3    H2 8166   2.781   0.086  12.358 -0.6745 -0.6315  1.3710
  550TMC3    C7 8167   2.963   0.099  12.179 -0.7798  0.6922 -0.0046
  550TMC3    C8 8168   2.775   4.694  12.583 -0.3564 -0.0714  0.2584
  550TMC3    O1 8169   2.848   0.103  12.137  0.0770 -0.0687 -0.0448
  550TMC3    O2 8170   2.672   4.690  12.517 -0.0559 -0.2616 -0.4580
  551TMC3    C1 8171   0.998   2.445  13.475 -0.2475 -0.1649  0.6997
  551TMC3    C2 8172   1.002   2.519  13.362  0.0362 -0.1345  0.4579
  551TMC3    C3 8173   1.127   2.572  13.340 -0.0257 -0.3938  0.5918
  551TMC3    C4 8174   1.085   2.436  13.576  0.3547  0.4048 -0.7328
  551TMC3    C5 8175   1.206   2.493  13.550 -0.4450 -0.1615 -0.2771
  551TMC3    C6 8176   1.230   2.555  13.431  0.2330  0.2890 -0.0542
  551TMC3     C 8177   0.892   2.344  13.468  0.6429 -0.2967  0.6628
  551TMC3     O 8178   0.851   2.315  13.356  0.2878  0.3581  0.0833
  551TMC3     H 8179   0.915   2.533  13.299 -0.7431  0.1565  1.6123
  551TMC3    H1 8180   1.065   2.369  13.659 -1.6522  1.2487 -0.5565
  551TMC3    H2 8181   1.332   2.584  13.408  0.1983  0.0818 -0.4749
  551TMC3    C7 8182   1.314   2.460  13.650  0.2830 -0.2180 -0.0054
  551TMC3    C8 8183   1.163   2.647  13.219 -0.0787  0.0492  0.1105
  551TMC3    O1 8184   1.276   2.448  13.765 -0.1963 -0.0366  0.0660
  551TMC3    O2 8185   1.274   2.705  13.217  0.0012  0.2973  0.1475
  552MPD2     C 8186   2.497   4.040  13.639 -1.5059  0.2801  0.3029
  552MPD2    C1 8187   2.440   3.924  13.695  0.1984 -0.2110 -0.0026
  552MPD2    C2 8188   2.467   3.901  13.832  0.0694  0.0414 -0.2266
  552MPD2    C3 8189   2.555   3.983  13.902  0.2901  0.1106 -0.4857
  552MPD2    C4 8190   2.610   4.093  13.837  0.2732 -0.1302 -0.7148
  552MPD2    C5 8191   2.572   4.127  13.712  0.0862 -0.4795 -1.0343
  552MPD2     H 8192   2.423   3.811  13.874  0.3332  0.3362  0.6816
  552MPD2    H1 8193   2.679   4.151  13.896 -1.2176  1.0336 -0.1064
  552MPD2    H2 8194   2.481   4.067  13.535  1.6673 -0.1298 -0.3068
  552MPD2    H3 8195   2.619   4.214  13.667  0.7141 -1.2035 -1.7777
  552MPD2     N 8196   2.608   3.960  14.028  0.1576 -0.1490 -0.5280
  552MPD2    H5 8197   2.692   4.014  14.048  0.4680 -1.0326  0.5827
  552MPD2    N1 8198   2.365   3.835  13.609 -0.2289 -0.2924 -0.4602
  552MPD2    H7 8199   2.304   3.766  13.651 -1.0917  1.5886  1.3827
  553TMC3    C1 8200   2.371   3.675  13.430  0.1198 -1.1757  0.0900
  553TMC3    C2 8201   2.408   3.642  13.302 -0.6909  0.1082 -0.3042
  553TMC3    C3 8202   2.481   3.528  13.276  0.0540  0.0791 -0.8157
  553TMC3    C4 8203   2.374   3.574  13.527  0.4350 -0.4685  0.2689
  553TMC3    C5 8204   2.442   3.461  13.504  0.3830  0.5586  0.0763
  553TMC3    C6 8205   2.495   3.435  13.378  0.4194 -0.1180  0.4873
  553TMC3     C 8206   2.385   3.810  13.476  0.0362  0.2731 -0.5725
  553TMC3     O 8207   2.430   3.889  13.397 -0.4454 -0.1069 -0.1076
  553TMC3     H 8208   2.418   3.719  13.226  0.3791  0.1819 -0.0956
  553TMC3    H1 8209   2.360   3.600  13.631  0.4516 -1.5685  0.5454
  553TMC3    H2 8210   2.540   3.340  13.350  0.4945  0.1402 -0.2602
  553TMC3    C7 8211   2.515   3.416  13.616  0.2630  0.1714 -0.1002
  553TMC3    C8 8212   2.579   3.522  13.172 -0.1469  0.1372 -0.3352
  553TMC3    O1 8213   2.460   3.410  13.723  0.0108 -0.5454  0.3745
  553TMC3    O2 8214   2.670   3.450  13.202  0.2407  0.6317  0.6067
  554TMC3    C1 8215   4.675   2.293  11.145  0.7130 -0.1874 -1.0518
  554TMC3    C2 8216   4.662   2.250  11.010  0.1578  0.5763 -0.2959
  554TMC3    C3 8217   0.026   2.295  10.919 -0.6035  0.2290 -0.2674
  554TMC3    C4 8218   0.056   2.381  11.177  0.1511 -0.7992 -0.8750
  554TMC3    C5 8219   0.144   2.418  11.077 -0.5654 -0.1470  0.9177
  554TMC3    C6 8220   0.125   2.380  10.948 -0.0863  0.1023 -0.4286
  554TMC3     C 8221   4.599   2.230  11.251 -0.5484 -0.4759 -0.2963
  554TMC3     O 8222   4.485   2.191  11.232 -0.5528  0.1105 -0.0422
  554TMC3     H 8223   4.578   2.199  10.965 -0.5538  0.3999  1.2391
  554TMC3    H1 8224   0.055   2.419  11.278 -1.7764  0.3998 -1.3485
  554TMC3    H2 8225   0.178   2.426  10.866  0.3885  1.5048  0.6499
  554TMC3    C7 8226   0.201   2.548  11.110  0.2944 -0.4891 -0.1090
  554TMC3    C8 8227   0.016   2.271  10.782  0.5227  0.3382  1.1324
  554TMC3    O1 8228   0.215   2.632  11.019  0.0316 -0.3191  0.6444
  554TMC3    O2 8229   0.118   2.286  10.717  0.1191  0.1443 -0.2485
  555TMC3    C1 8230   3.473   2.683  14.867  0.4825  0.8412  0.2580
  555TMC3    C2 8231   3.483   2.785  14.956  0.2021 -0.6345 -0.3849
  555TMC3    C3 8232   3.454   2.762  15.085 -0.8130  0.0442  1.1878
  555TMC3    C4 8233   3.442   2.563  14.904  0.1304 -0.0934 -0.3173
  555TMC3    C5 8234   3.403   2.542  15.038 -0.0824 -1.0029  0.4342
  555TMC3    C6 8235   3.419   2.638  15.129  0.7854  0.0091 -0.3299
  555TMC3     C 8236   3.511   2.700  14.728  0.8090 -0.3730 -0.0343
  555TMC3     O 8237   3.562   2.603  14.675 -0.0418  0.3156 -0.5490
  555TMC3     H 8238   3.520   2.884  14.930 -1.6692  0.1787  0.0922
  555TMC3    H1 8239   3.445   2.476  14.840  0.6552 -1.3424  1.3978
  555TMC3    H2 8240   3.386   2.617  15.230  1.9329  0.4928  0.1350
  555TMC3    C7 8241   3.405   2.405  15.080  0.7618 -0.1759 -0.2899
  555TMC3    C8 8242   3.435   2.876  15.173 -0.0836 -0.2181 -0.0582
  555TMC3    O1 8243   3.376   2.321  15.003 -0.2475 -0.0573 -0.1641
  555TMC3    O2 8244   3.417   2.984  15.122 -0.3598 -0.0336  0.2400
  556MPD2     C 8245   2.288   3.974   9.965 -0.4822 -0.2906  0.3468
  556MPD2    C1 8246   2.236   3.898  10.062 -0.4002 -0.2900 -0.1474
  556MPD2    C2 8247   2.204   3.769  10.020 -0.1917  0.5275  0.1400
  556MPD2    C3 8248   2.227   3.723   9.896 -0.3393  0.6512  0.1178
  556MPD2    C4 8249   2.290   3.802   9.807  0.3255 -0.2869 -0.3714
  556MPD2    C5 8250   2.313   3.933   9.840  0.0076  0.5478  0.0741
  556MPD2     H 8251   2.150   3.708  10.091  0.7255 -0.1215  0.2857
  556MPD2    H1 8252   2.309   3.758   9.710 -0.7840  1.2814 -1.2992
  556MPD2    H2 8253   2.318   4.076   9.987  1.5663 -0.9113  0.4343
  556MPD2    H3 8254   2.362   4.007   9.778  1.9317 -1.7994 -1.1652
  556MPD2     N 8255   2.180   3.595   9.863 -0.0411 -0.1233  0.6687
  556MPD2    H5 8256   2.116   3.547   9.926 -0.8903  0.7168  0.4437
  556MPD2    N1 8257   2.205   3.929  10.196 -0.1796 -0.3440  0.1799
  556MPD2    H7 8258   2.178   3.857  10.262 -0.5407  0.1562  0.5775
  557TMC3    C1 8259   2.122   3.408   9.735 -0.3209 -0.0361  0.0846
  557TMC3    C2 8260   2.118   3.337   9.612  0.4594 -0.0563 -0.0600
  557TMC3    C3 8261   2.023   3.247   9.594  0.3231 -0.4237 -0.0352
  557TMC3    C4 8262   2.051   3.366   9.841 -0.2344 -0.3061  1.1135
  557TMC3    C5 8263   1.950   3.272   9.815  0.3022 -0.3239 -0.4368
  557TMC3    C6 8264   1.929   3.211   9.690  1.1332 -0.0800 -0.0604
  557TMC3     C 8265   2.207   3.530   9.742 -0.7680 -0.3933 -0.1576
  557TMC3     O 8266   2.291   3.550   9.652 -0.2798 -0.2888 -0.0225
  557TMC3     H 8267   2.181   3.361   9.527  0.5748 -0.3847 -0.0634
  557TMC3    H1 8268   2.069   3.401   9.942  0.6835 -0.4605  0.9974
  557TMC3    H2 8269   1.843   3.149   9.666 -0.8970  1.7152  2.5434
  557TMC3    C7 8270   1.872   3.235   9.938 -0.1393 -0.1306 -0.0261
  557TMC3    C8 8271   2.026   3.166   9.475  0.9708  0.0682 -0.3899
  557TMC3    O1 8272   1.881   3.315  10.030 -0.1465  0.2071  0.3262
  557TMC3    O2 8273   2.072   3.216   9.375 -0.3294  0.0538  0.4700
  558TMC3    C1 8274   0.180   1.050   9.666  0.3901  0.3614  0.3550
  558TMC3    C2 8275   0.055   1.002   9.679  0.3871  0.2335 -0.3544
  558TMC3    C3 8276   4.686   1.019   9.579  0.4934  0.4062 -0.4806
  558TMC3    C4 8277   0.218   1.120   9.554 -0.0850  0.5712 -0.4918
  558TMC3    C5 8278   0.120   1.144   9.462  0.0268  0.2420 -0.4525
  558TMC3    C6 8279   4.714   1.094   9.468 -0.7756 -0.3892 -0.3338
  558TMC3     C 8280   0.266   1.078   9.790 -0.2689  0.1428 -0.8757
  558TMC3     O 8281   0.342   1.175   9.785  0.5870 -0.3182 -0.1135
  558TMC3     H 8282   0.037   0.951   9.773  0.9508  0.4458 -0.1295
  558TMC3    H1 8283   0.318   1.158   9.540  0.3822 -0.3113  0.4124
  558TMC3    H2 8284   4.629   1.108   9.402 -0.3229 -1.6690 -1.1834
  558TMC3    C7 8285   0.136   1.275   9.384  0.4167 -0.5432 -0.0571
  558TMC3    C8 8286   4.543   1.001   9.608  0.0565  0.1163 -0.5772
  558TMC3    O1 8287   0.249   1.317   9.377 -0.4466  0.3960  0.0969
  558TMC3    O2 8288   4.464   0.949   9.531 -0.5672 -0.3903  0.0576
  559MPD2     C 8289   4.513   2.283   9.987  0.5358  0.0358 -0.4558
  559MPD2    C1 8290   4.443   2.199  10.067 -0.3957  0.7541 -0.0233
  559MPD2    C2 8291   4.510   2.152  10.176 -0.3495  0.1376 -0.0882
  559MPD2    C3 8292   4.639   2.195  10.208 -0.1938  0.3539  0.1701
  559MPD2    C4 8293   4.705   2.284  10.123 -0.3378  0.3613 -0.1041
  559MPD2    C5 8294   4.639   2.327  10.005  0.6815  0.1685 -0.3740
  559MPD2     H 8295   4.457   2.084  10.242  0.3374 -0.9374 -0.6370
  559MPD2    H1 8296   0.087   2.305  10.138  0.3418 -2.7959 -0.4814
  559MPD2    H2 8297   4.460   2.322   9.901 -1.1907 -0.0878  0.5625
  559MPD2    H3 8298   4.689   2.391   9.933  0.4780 -0.2803 -0.9117
  559MPD2     N 8299   4.713   2.130  10.312 -0.2356 -0.2298  0.4363
  559MPD2    H5 8300   4.659   2.064  10.367 -0.5092  2.9838  4.0337
  559MPD2    N1 8301   4.311   2.148  10.037  0.4875 -0.0577 -0.5001
  559MPD2    H7 8302   4.258   2.206   9.972 -1.7939  1.2283  2.4626
  560TMC3    C1 8303   0.164   2.067  10.464  0.6442 -0.2511  0.2941
  560TMC3    C2 8304   0.084   1.960  10.502 -0.3543  0.3991  0.1471
  560TMC3    C3 8305   0.153   1.858  10.565  0.3115 -0.0729  0.3410
  560TMC3    C4 8306   0.298   2.071  10.489 -0.1654  0.0286  0.5917
  560TMC3    C5 8307   0.364   1.973  10.569  0.2136  0.3890  0.0523
  560TMC3    C6 8308   0.292   1.858  10.594 -0.2434  0.1580 -0.0165
  560TMC3     C 8309   0.118   2.158  10.363 -0.0993  0.0177 -0.2527
  560TMC3     O 8310   0.192   2.244  10.318  0.2151  0.1412  0.0858
  560TMC3     H 8311   4.705   1.951  10.470  0.2515 -0.1299 -1.6663
  560TMC3    H1 8312   0.339   2.169  10.468  0.4745 -0.5065 -0.6767
  560TMC3    H2 8313   0.328   1.779  10.658  0.7413 -1.2176 -2.3064
  560TMC3    C7 8314   0.511   1.968  10.548  0.5299 -0.0269  0.1956
  560TMC3    C8 8315   0.089   1.727  10.541  0.1864  0.9569 -0.0719
  560TMC3    O1 8316   0.561   1.855  10.547  0.0626 -0.1362 -0.1165
  560TMC3    O2 8317   4.694   1.726  10.505 -0.3889 -0.6636  0.2856
  561TMC3    C1 8318   2.327   0.907  10.857  0.2676  0.0492 -0.2281
  561TMC3    C2 8319   2.225   0.863  10.931  0.3926 -0.4660 -0.1504
  561TMC3    C3 8320   2.220   0.900  11.061  0.4354 -0.3982  0.0888
  561TMC3    C4 8321   2.412   1.008  10.902  0.4592  0.5349 -0.1019
  561TMC3    C5 8322   2.398   1.042  11.031  0.0735  0.0182 -0.2958
  561TMC3    C6 8323   2.308   0.985  11.116 -0.3592 -0.0787  0.4889
  561TMC3     C 8324   2.328   0.882  10.719  0.5801 -0.1503  0.0812
  561TMC3     O 8325   2.218   0.876  10.667 -1.0527  0.6695 -0.0507
  561TMC3     H 8326   2.160   0.782  10.902 -0.5091  0.7702 -1.5821
  561TMC3    H1 8327   2.472   1.059  10.827  0.1449 -1.6289 -1.8310
  561TMC3    H2 8328   2.308   1.013  11.221  1.1480  1.1104  0.1794
  561TMC3    C7 8329   2.411   1.184  11.063 -0.2124  0.3285  0.1132
  561TMC3    C8 8330   2.083   0.916  11.113 -0.0851  0.0717 -0.6764
  561TMC3    O1 8331   2.333   1.221  11.150  0.6614 -0.1039 -0.1338
  561TMC3    O2 8332   1.992   0.835  11.082 -0.4441  0.3902  0.0009
  562TMC3    C1 8333   3.130   2.982  16.080 -0.0549 -0.1670  0.0491
  562TMC3    C2 8334   2.999   3.025  16.081 -0.3745  0.1364 -0.3262
  562TMC3    C3 8335   2.925   3.006  15.964  0.6390 -0.0216 -0.6088
  562TMC3    C4 8336   3.188   2.928  15.964  0.2746 -0.3505  0.0771
  562TMC3    C5 8337   3.112   2.909  15.852 -0.1425 -1.2218  0.0173
  562TMC3    C6 8338   2.978   2.951  15.853  0.2106  0.2879 -0.3817
  562TMC3     C 8339   3.195   2.939  16.202  0.2456 -0.0765 -0.4825
  562TMC3     O 8340   3.297   2.872  16.183  0.0938 -0.3909  0.0957
  562TMC3     H 8341   2.951   3.072  16.166  1.0561 -1.1172  1.1943
  562TMC3    H1 8342   3.294   2.907  15.958  0.3200 -0.0264 -0.2519
  562TMC3    H2 8343   2.919   2.937  15.763 -1.6153 -0.6801  0.9786
  562TMC3    C7 8344   3.155   2.808  15.752 -0.2901 -0.6944 -0.3287
  562TMC3    C8 8345   2.788   3.059  15.955 -0.1170 -0.1808  0.4250
  562TMC3    O1 8346   3.087   2.809  15.653 -0.1600 -0.1617 -0.2374
  562TMC3    O2 8347   2.707   3.034  16.047  0.1462  0.4118  0.1390
  563MPD2     C 8348   0.885   3.941  15.341  0.5304  0.3140 -0.1957
  563MPD2    C1 8349   0.863   3.953  15.470 -0.2552 -1.0583  0.6746
  563MPD2    C2 8350   0.965   4.013  15.542  0.6188  0.4055  0.4479
  563MPD2    C3 8351   1.081   4.061  15.491 -0.0536  0.8677  0.1682
  563MPD2    C4 8352   1.091   4.051  15.353  0.7054  0.1165 -0.1319
  563MPD2    C5 8353   1.001   3.975  15.281 -0.2615  0.1353 -0.9117
  563MPD2     H 8354   0.961   4.030  15.648 -0.4365  0.6523  0.3649
  563MPD2    H1 8355   1.185   4.069  15.303  0.1460  1.6819 -0.6064
  563MPD2    H2 8356   0.821   3.881  15.278  0.1555 -1.4612  1.8711
  563MPD2    H3 8357   1.016   3.961  15.175 -0.4555 -2.0395 -0.6632
  563MPD2     N 8358   1.184   4.111  15.580  0.2441 -0.2953  0.0497
  563MPD2    H5 8359   1.155   4.110  15.677 -1.8731 -1.5950 -0.6006
  563MPD2    N1 8360   0.743   3.908  15.519  0.6749 -0.1895  0.1544
  563MPD2    H7 8361   0.680   3.866  15.451  0.2243  1.4512 -0.4410
  564TMC3    C1 8362   0.583   3.850  15.683 -0.3215  0.2953 -0.1098
  564TMC3    C2 8363   0.502   3.799  15.589  0.3093  0.4963 -0.3093
  564TMC3    C3 8364   0.395   3.731  15.642  0.4105  0.1058  0.0339
  564TMC3    C4 8365   0.564   3.844  15.820  0.0757  0.7795  0.1112
  564TMC3    C5 8366   0.471   3.746  15.863 -0.3832  0.2255 -0.6678
  564TMC3    C6 8367   0.383   3.692  15.770  0.7899  0.2123  0.6562
  564TMC3     C 8368   0.706   3.920  15.649  0.1079 -0.3708  0.1970
  564TMC3     O 8369   0.776   3.960  15.742  0.0580 -0.4310 -0.2331
  564TMC3     H 8370   0.508   3.823  15.483  0.4312 -3.8785 -1.2945
  564TMC3    H1 8371   0.642   3.873  15.889  0.1597  0.2875  0.2253
  564TMC3    H2 8372   0.297   3.635  15.805  1.0828 -0.5658  0.1176
  564TMC3    C7 8373   0.531   3.650  15.950 -0.5333  0.0198  0.3256
  564TMC3    C8 8374   0.312   3.651  15.561  0.1650  0.3236 -0.3279
  564TMC3    O1 8375   0.592   3.692  16.047 -0.3511  0.0873 -0.3060
  564TMC3    O2 8376   0.200   3.628  15.602  0.6766 -0.9263  0.3869
  565TMC3    C1 8377   1.222   0.136   9.316 -0.2019  0.2335  0.7420
  565TMC3    C2 8378   1.302   0.043   9.270  0.8834  0.8013 -0.2896
  565TMC3    C3 8379   1.261   4.686   9.170 -0.2827 -0.0534 -0.2736
  565TMC3    C4 8380   1.106   0.170   9.249 -0.4420 -0.4018 -0.3246
  565TMC3    C5 8381   1.073   0.101   9.135 -0.1516  0.4740  0.6122
  565TMC3    C6 8382   1.136   4.706   9.109  0.3683  0.4276 -0.7182
  565TMC3     C 8383   1.279   0.250   9.387  0.0895 -0.0870  0.0035
  565TMC3     O 8384   1.229   0.355   9.355 -0.2349 -0.1488 -0.5363
  565TMC3     H 8385   1.400   0.036   9.317  1.1033  1.6857 -0.6180
  565TMC3    H1 8386   1.055   0.262   9.277  1.0326  0.4749 -0.5226
  565TMC3    H2 8387   1.125   4.665   9.009  1.5682 -1.8383  0.0718
  565TMC3    C7 8388   0.944   0.129   9.074 -0.2073  0.5178 -0.4569
  565TMC3    C8 8389   1.288   4.556   9.220  0.4340 -0.7221  0.1028
  565TMC3    O1 8390   0.908   0.045   8.996 -0.1292  0.0399 -0.2124
  565TMC3    O2 8391   1.404   4.533   9.260  0.1179 -0.3208  0.6938
  566MPD2     C 8392   2.877   2.723  14.408 -0.8182  0.2192 -0.7002
  566MPD2    C1 8393   2.894   2.753  14.276  0.4220 -0.2506 -0.7246
  566MPD2    C2 8394   2.856   2.655  14.183  0.5154  0.5064  0.2789
  566MPD2    C3 8395   2.830   2.525  14.219 -0.0018 -0.2276 -0.0950
  566MPD2    C4 8396   2.822   2.494  14.352 -0.1642  0.6441 -0.6535
  566MPD2    C5 8397   2.844   2.597  14.442 -0.1308  0.4617 -0.1467
  566MPD2     H 8398   2.866   2.674  14.077 -2.2385 -0.0219 -0.0730
  566MPD2    H1 8399   2.789   2.398  14.391  2.1867 -0.6970 -2.0335
  566MPD2    H2 8400   2.889   2.795  14.488  0.2147  1.1416 -1.6979
  566MPD2    H3 8401   2.826   2.579  14.548 -2.4811  2.6287 -0.1776
  566MPD2     N 8402   2.821   2.434  14.112  0.3447  0.6954 -0.2031
  566MPD2    H5 8403   2.809   2.473  14.019 -0.1480  3.2254  0.9173
  566MPD2    N1 8404   2.947   2.877  14.234 -0.3992  0.2391 -0.0518
  566MPD2    H7 8405   2.991   2.935  14.304 -1.0040 -0.2448  0.7353
  567TMC3    C1 8406   3.057   3.007  14.073  0.5290  0.2871  0.1730
  567TMC3    C2 8407   3.065   3.030  13.936 -0.8644 -1.1198  0.3904
  567TMC3    C3 8408   3.191   3.022  13.877  0.2040  0.1418 -0.1178
  567TMC3    C4 8409   3.168   2.976  14.148 -1.4016  0.2097  0.2778
  567TMC3    C5 8410   3.283   2.937  14.083  0.3132 -0.3540  0.1066
  567TMC3    C6 8411   3.301   2.962  13.948 -0.3471  0.3912 -0.5210
  567TMC3     C 8412   2.943   2.923  14.100 -0.4665 -0.1238 -0.8242
  567TMC3     O 8413   2.865   2.894  14.011 -0.5707  0.4791  0.5774
  567TMC3     H 8414   2.972   3.054  13.886  0.4951  3.1586 -0.1629
  567TMC3    H1 8415   3.177   2.978  14.256 -0.8339  4.8316  0.1693
  567TMC3    H2 8416   3.388   2.925  13.895 -0.3417 -0.0617 -0.1910
  567TMC3    C7 8417   3.325   2.804  14.128 -0.1373 -0.8469 -0.7121
  567TMC3    C8 8418   3.185   3.019  13.734  0.2595  0.0057 -0.0779
  567TMC3    O1 8419   3.406   2.747  14.049  0.0211  0.3253 -0.0813
  567TMC3    O2 8420   3.088   2.973  13.684 -0.1204 -0.7364 -0.3063
  568MPD2     C 8421   0.373   2.421  16.413  0.3495  0.2602  0.3005
  568MPD2    C1 8422   0.395   2.547  16.460 -0.3291 -0.0352 -0.0881
  568MPD2    C2 8423   0.401   2.657  16.378  0.1932  0.0004 -0.2927
  568MPD2    C3 8424   0.403   2.637  16.238 -0.1676  0.3854 -0.0923
  568MPD2    C4 8425   0.379   2.511  16.185  0.1417 -0.6906  0.3803
  568MPD2    C5 8426   0.362   2.403  16.273  0.0406  0.5373  0.5004
  568MPD2     H 8427   0.411   2.758  16.417  2.1480 -0.8517  1.4149
  568MPD2    H1 8428   0.345   2.502  16.083 -1.1862  0.8489  0.6822
  568MPD2    H2 8429   0.355   2.336  16.477  2.1374 -0.2612  0.1364
  568MPD2    H3 8430   0.336   2.307  16.231  1.0749 -0.4676  2.1738
  568MPD2     N 8431   0.384   2.753  16.161  0.5295  0.7945  0.1296
  568MPD2    H5 8432   0.374   2.835  16.220 -1.4216  1.5454 -1.2405
  568MPD2    N1 8433   0.416   2.557  16.603  0.0210 -0.4050  0.2034
  568MPD2    H7 8434   0.361   2.495  16.661 -3.9957  1.3195 -1.7098
  569TMC3    C1 8435   0.350   2.889  15.971  0.2661 -0.1586  0.0572
  569TMC3    C2 8436   0.314   2.990  16.053 -0.0225  0.0533 -0.2233
  569TMC3    C3 8437   0.233   3.091  16.001 -0.0466 -0.5657  0.4031
  569TMC3    C4 8438   0.321   2.893  15.839 -0.4429  0.5268  0.0710
  569TMC3    C5 8439   0.252   2.998  15.789  0.0151 -0.4324 -0.3660
  569TMC3    C6 8440   0.203   3.098  15.869 -0.2380  0.3195 -0.3170
  569TMC3     C 8441   0.374   2.759  16.022 -0.5463 -0.7538 -0.1182
  569TMC3     O 8442   0.401   2.674  15.939  0.4634 -0.3198 -0.2677
  569TMC3     H 8443   0.348   3.002  16.155  2.0875  0.2430 -0.9483
  569TMC3    H1 8444   0.359   2.816  15.774 -1.4652 -1.7577  2.1850
  569TMC3    H2 8445   0.126   3.164  15.830 -0.0130  0.9217  0.2567
  569TMC3    C7 8446   0.255   3.021  15.648 -0.2839 -0.1941 -0.2698
  569TMC3    C8 8447   0.195   3.209  16.079  0.2061  0.7401 -0.4060
  569TMC3    O1 8448   0.307   2.936  15.577  0.1473 -0.2275  0.0418
  569TMC3    O2 8449   0.100   3.279  16.052  0.4350 -0.1554  0.0478
  570TMC3    C1 8450   4.454   1.823  15.976 -0.2863  0.7250  0.6449
  570TMC3    C2 8451   4.538   1.822  15.862 -0.4224 -0.0176 -0.7377
  570TMC3    C3 8452   4.642   1.912  15.868 -0.1816  0.4447  1.0741
  570TMC3    C4 8453   4.468   1.909  16.082  0.1870 -0.1093 -0.2140
  570TMC3    C5 8454   4.573   1.995  16.075 -0.2226 -0.2692 -0.1774
  570TMC3    C6 8455   4.661   1.999  15.972 -0.3306 -0.0749  0.6106
  570TMC3     C 8456   4.363   1.709  15.990 -0.2615  0.1759 -0.1423
  570TMC3     O 8457   4.334   1.632  15.894  0.1433 -0.1672 -0.0271
  570TMC3     H 8458   4.529   1.747  15.785 -0.7934 -0.0750 -0.6348
  570TMC3    H1 8459   4.404   1.914  16.169 -0.6419 -1.4262 -0.7492
  570TMC3    H2 8460   0.026   2.061  15.973 -0.4998  0.1724  0.0950
  570TMC3    C7 8461   4.569   2.101  16.173  0.4163 -0.8043  0.1429
  570TMC3    C8 8462   0.021   1.902  15.772 -0.2562  0.0206 -0.2702
  570TMC3    O1 8463   4.520   2.075  16.283 -0.5490 -0.1369 -0.5852
  570TMC3    O2 8464   0.103   1.993  15.773  0.7878  0.1963  0.1749
  571MPD2     C 8465   2.303   3.422  17.156  0.1348 -0.2135  0.2441
  571MPD2    C1 8466   2.399   3.370  17.242  0.3984 -0.0528  0.0081
  571MPD2    C2 8467   2.431   3.449  17.355  0.0866  0.0721  0.3242
  571MPD2    C3 8468   2.373   3.571  17.375  0.1317 -0.3463  0.6434
  571MPD2    C4 8469   2.293   3.621  17.274 -0.1851  0.3348  0.4607
  571MPD2    C5 8470   2.251   3.548  17.167 -0.2060 -0.0367 -0.7121
  571MPD2     H 8471   2.509   3.418  17.422 -0.3689 -1.6779  0.0593
  571MPD2    H1 8472   2.256   3.722  17.279  0.3923  0.5736 -0.0852
  571MPD2    H2 8473   2.278   3.364  17.068  0.3362  0.4434 -0.2542
  571MPD2    H3 8474   2.185   3.590  17.092  2.1579  0.9918 -2.2280
  571MPD2     N 8475   2.393   3.648  17.492 -0.2144  0.8887  0.0943
  571MPD2    H5 8476   2.343   3.736  17.502 -0.8996  0.4912  0.1413
  571MPD2    N1 8477   2.457   3.247  17.218  0.8634  0.4633 -0.3698
  571MPD2    H7 8478   2.393   3.181  17.176  0.1961  0.6224  0.4048
  572TMC3    C1 8479   2.496   3.706   0.004 -0.3499 -0.6252 -0.6071
  572TMC3    C2 8480   2.551   3.662   0.120 -0.1896  0.7255 -0.4928
  572TMC3    C3 8481   2.612   3.760   0.192 -0.6653 -0.1709  1.1963
  572TMC3    C4 8482   2.469   3.834  17.675 -0.0993 -0.5438  0.7840
  572TMC3    C5 8483   2.529   3.925   0.066  0.9464 -0.6910  0.2284
  572TMC3    C6 8484   2.596   3.887   0.178 -0.6428  0.1266  0.0347
  572TMC3     C 8485   2.468   3.602  17.604  0.0259 -0.0895 -0.2227
  572TMC3     O 8486   2.521   3.495  17.627 -0.0204  0.2039  0.3607
  572TMC3     H 8487   2.569   3.556   0.138  0.2130  0.9192  0.2393
  572TMC3    H1 8488   2.422   3.870  17.584  0.9800 -2.3051 -0.4818
  572TMC3    H2 8489   2.654   3.964   0.229 -0.5110 -0.2594  0.4708
  572TMC3    C7 8490   2.539   4.059   0.025  0.3830 -0.0956  0.3026
  572TMC3    C8 8491   2.692   3.714   0.309 -0.3891  0.1191  0.0925
  572TMC3    O1 8492   2.440   4.105  17.666 -0.4203  0.0756  0.1758
  572TMC3    O2 8493   2.741   3.808   0.373 -0.5198  0.4431  0.4023
  573MPD2     C 8494   3.280   3.697   0.026 -0.6317  0.1194  0.8771
  573MPD2    C1 8495   3.272   3.839   0.035  0.0167 -0.4273 -0.6588
  573MPD2    C2 8496   3.208   3.906  17.630  0.0575 -0.0034 -0.3510
  573MPD2    C3 8497   3.154   3.841  17.515  0.4781  0.1783 -0.1646
  573MPD2    C4 8498   3.161   3.701  17.513  0.3458  0.0286  0.0592
  573MPD2    C5 8499   3.223   3.629  17.616  1.2241  0.1133 -0.4117
  573MPD2     H 8500   3.206   4.014  17.633 -0.2026  0.0282 -1.5984
  573MPD2    H1 8501   3.122   3.646  17.428 -1.0901 -2.8278  2.5959
  573MPD2    H2 8502   3.332   3.636   0.100 -0.7126  0.7313  1.4374
  573MPD2    H3 8503   3.234   3.522  17.610  0.4189 -0.1307  2.6684
  573MPD2     N 8504   3.098   3.904  17.401 -0.2053 -0.8426  0.8795
  573MPD2    H5 8505   3.076   3.840  17.325  3.2595 -0.9974  0.0421
  573MPD2    N1 8506   3.331   3.896   0.149  0.2739  0.2109 -0.4325
  573MPD2    H7 8507   3.373   3.821   0.204 -0.1611 -1.2388 -2.0615
  574TMC3    C1 8508   3.001   4.063  17.253 -0.3013 -0.6031  0.6651
  574TMC3    C2 8509   2.904   4.164  17.253  0.1065 -0.5641  0.0789
  574TMC3    C3 8510   2.811   4.167  17.156 -0.0069 -0.3853  0.1867
  574TMC3    C4 8511   3.013   3.970  17.148 -0.0198 -0.2894  0.6776
  574TMC3    C5 8512   2.918   3.980  17.049  0.5311  0.1136 -0.7501
  574TMC3    C6 8513   2.811   4.073  17.052  0.6811  0.3292  0.2161
  574TMC3     C 8514   3.067   4.035  17.383 -0.8884  0.8235 -0.5307
  574TMC3     O 8515   3.075   4.128  17.470  0.4476 -0.4965  0.9768
  574TMC3     H 8516   2.907   4.235  17.334 -1.0200 -1.4579  0.8915
  574TMC3    H1 8517   3.087   3.891  17.152 -0.7588 -1.0528 -0.5436
  574TMC3    H2 8518   2.735   4.068  16.975  2.8692  0.7751 -1.9670
  574TMC3    C7 8519   2.910   3.871  16.960  0.4000 -0.1575  0.1874
  574TMC3    C8 8520   2.703   4.263  17.158 -0.6430 -0.4978 -0.1721
  574TMC3    O1 8521   2.804   3.861  16.899 -0.2207 -0.3181  0.1259
  574TMC3    O2 8522   2.597   4.224  17.116  0.4990 -0.4100  0.0325
  575TMC3    C1 8523   1.714   4.016   9.732 -0.0550  0.0465 -0.4058
  575TMC3    C2 8524   1.662   3.908   9.794  0.3721  0.5462 -0.5544
  575TMC3    C3 8525   1.535   3.872   9.748 -0.4032  0.3042  0.4017
  575TMC3    C4 8526   1.664   4.075   9.620 -0.0422 -0.4522 -0.0788
  575TMC3    C5 8527   1.535   4.041   9.579  0.4618  0.5845  0.1001
  575TMC3    C6 8528   1.472   3.934   9.642 -0.1351  0.1061  0.2636
  575TMC3     C 8529   1.826   4.077   9.801 -0.2490  0.9454  0.9255
  575TMC3     O 8530   1.837   4.062   9.925 -0.1578  0.1252 -0.3604
  575TMC3     H 8531   1.710   3.859   9.878 -0.5860 -0.9815 -0.9101
  575TMC3    H1 8532   1.704   4.169   9.583 -0.1149  0.7323  2.8668
  575TMC3    H2 8533   1.365   3.921   9.631  0.1751 -2.7003  0.3732
  575TMC3    C7 8534   1.465   4.132   9.491  0.1167 -0.2341 -0.5226
  575TMC3    C8 8535   1.459   3.780   9.833  0.0848  0.0949  0.3940
  575TMC3    O1 8536   1.497   4.252   9.494  0.1394  0.1197  0.5153
  575TMC3    O2 8537   1.486   3.779   9.953 -0.2571  0.1168  0.8891
  576MPD2     C 8538   1.879   1.996  12.002  0.5148 -0.7378 -0.2094
  576MPD2    C1 8539   1.909   2.055  11.881  0.4262 -0.3145  0.3168
  576MPD2    C2 8540   1.901   2.194  11.869  0.2119  0.2989  0.0717
  576MPD2    C3 8541   1.863   2.275  11.973 -0.1007  0.4246  0.0280
  576MPD2    C4 8542   1.839   2.208  12.098  0.2728 -0.0333  0.2275
  576MPD2    C5 8543   1.855   2.073  12.106  0.2779 -0.0558 -0.1033
  576MPD2     H 8544   1.918   2.245  11.775  1.2069  0.1491  0.1768
  576MPD2    H1 8545   1.822   2.265  12.188 -1.8318  1.9297 -1.4240
  576MPD2    H2 8546   1.887   1.891  12.028 -1.6637 -0.9412 -0.4056
  576MPD2    H3 8547   1.844   2.032  12.205 -0.6458  2.4974  0.8346
  576MPD2     N 8548   1.851   2.414  11.951  0.2474  0.9640  0.5897
  576MPD2    H5 8549   1.887   2.447  11.862 -0.0174  1.5031  0.6791
  576MPD2    N1 8550   1.940   1.976  11.765  0.0039  0.3142 -0.7555
  576MPD2    H7 8551   1.954   2.019  11.674 -1.0602  0.0800 -1.0222
  577TMC3    C1 8552   1.974   1.775  11.636  0.0065 -0.3884  0.2041
  577TMC3    C2 8553   1.900   1.654  11.606  0.4390  0.0675  0.0569
  577TMC3    C3 8554   1.875   1.620  11.484  0.3018  0.1748  0.1272
  577TMC3    C4 8555   2.014   1.853  11.532  0.0935 -0.3325 -0.0622
  577TMC3    C5 8556   1.980   1.812  11.407 -0.1813  0.4114  0.1762
  577TMC3    C6 8557   1.916   1.695  11.379  0.3632  0.4826 -0.1860
  577TMC3     C 8558   1.933   1.838  11.757  0.2947 -0.3606 -0.2864
  577TMC3     O 8559   1.885   1.760  11.839 -0.5487  0.0268 -0.3475
  577TMC3     H 8560   1.848   1.603  11.686 -1.0481 -0.1474 -1.0532
  577TMC3    H1 8561   2.073   1.942  11.553  0.7848 -0.5030 -1.2878
  577TMC3    H2 8562   1.893   1.654  11.282  0.3644 -0.8834  0.3989
  577TMC3    C7 8563   1.999   1.909  11.299 -0.2055  0.2474  0.2010
  577TMC3    C8 8564   1.814   1.492  11.463  0.5553  0.0382 -0.0929
  577TMC3    O1 8565   2.059   2.012  11.330  0.1380  0.2398  0.1113
  577TMC3    O2 8566   1.729   1.445  11.540 -0.4466  0.4220 -0.3296
  578MPD2     C 8567   3.669   2.678   0.977 -0.0154 -0.0626  0.2694
  578MPD2    C1 8568   3.723   2.568   0.914 -0.3457 -0.9448 -0.6342
  578MPD2    C2 8569   3.842   2.513   0.965 -0.3013 -0.4867  0.5193
  578MPD2    C3 8570   3.914   2.573   1.072 -0.2617 -0.3545  0.3692
  578MPD2    C4 8571   3.857   2.676   1.140  0.3285  0.2592  0.3361
  578MPD2    C5 8572   3.740   2.731   1.085 -0.4853  0.3145  0.8702
  578MPD2     H 8573   3.883   2.432   0.906  0.0008  0.1627 -0.1574
  578MPD2    H1 8574   3.917   2.726   1.215  0.3285  0.1087  0.4367
  578MPD2    H2 8575   3.571   2.715   0.951  0.2751  1.3190  1.1254
  578MPD2    H3 8576   3.698   2.811   1.145 -0.9460  1.4654 -1.0030
  578MPD2     N 8577   4.042   2.518   1.095  0.0551  0.0942 -0.3810
  578MPD2    H5 8578   4.059   2.428   1.052  2.1372 -0.1119  0.8225
  578MPD2    N1 8579   3.671   2.542   0.782  0.2060  0.1349 -0.4013
  578MPD2    H7 8580   3.601   2.600   0.737  1.3933  2.0482  0.2448
  579TMC3    C1 8581   4.265   2.491   1.197 -0.6144 -0.4961 -0.1971
  579TMC3    C2 8582   4.362   2.538   1.279 -0.1817 -0.6013  0.4265
  579TMC3    C3 8583   4.493   2.502   1.264 -0.8421  0.6189 -0.2765
  579TMC3    C4 8584   4.295   2.407   1.091  0.3197  0.8161 -0.1751
  579TMC3    C5 8585   4.428   2.375   1.082  0.3726  0.2137 -0.2214
  579TMC3    C6 8586   4.525   2.411   1.175 -0.5943 -0.1736 -0.7130
  579TMC3     C 8587   4.140   2.565   1.185 -0.7262 -0.4360  0.8869
  579TMC3     O 8588   4.137   2.660   1.256 -0.3859  0.3643 -0.1901
  579TMC3     H 8589   4.334   2.607   1.358 -0.2024  0.1440 -0.2368
  579TMC3    H1 8590   4.222   2.383   1.016  1.1439  0.5041 -0.8809
  579TMC3    H2 8591   4.621   2.359   1.176 -0.7775 -0.5204 -1.2176
  579TMC3    C7 8592   4.463   2.257   1.002 -0.7544 -0.2729 -0.5526
  579TMC3    C8 8593   4.593   2.519   1.372 -0.3982  0.3746 -0.3773
  579TMC3    O1 8594   4.578   2.251   0.967  0.0223 -0.2247  0.2519
  579TMC3    O2 8595   4.546   2.552   1.482  0.7469 -0.0044  0.3344
  580TMC3    C1 8596   4.465   1.366  11.773  0.4410  0.2303 -0.0183
  580TMC3    C2 8597   4.587   1.385  11.708  0.3993  0.1798  0.2305
  580TMC3    C3 8598   4.690   1.289  11.723 -0.1897 -0.0210 -0.0504
  580TMC3    C4 8599   4.445   1.253  11.851 -0.7806  0.1884 -0.0147
  580TMC3    C5 8600   4.544   1.164  11.853 -0.3036 -0.0294  0.3917
  580TMC3    C6 8601   4.662   1.173  11.788 -0.0709 -0.3371 -0.0098
  580TMC3     C 8602   4.354   1.396  11.681 -0.2382 -0.5767  0.0442
  580TMC3     O 8603   4.245   1.383  11.734 -0.4066  0.3863 -0.1664
  580TMC3     H 8604   4.606   1.478  11.656  0.7826  0.3028  0.5884
  580TMC3    H1 8605   4.352   1.229  11.901 -1.5608  1.3686 -0.8856
  580TMC3    H2 8606   0.019   1.107  11.815  0.6689  0.7996  0.5645
  580TMC3    C7 8607   4.508   1.032  11.910  0.2543 -0.5706  0.0309
  580TMC3    C8 8608   0.040   1.243  11.607  0.5207 -0.9618 -0.2368
  580TMC3    O1 8609   4.396   1.011  11.954 -0.0960  0.0981 -0.6014
  580TMC3    O2 8610   0.043   1.122  11.586  0.3455 -0.1420 -0.2035
  581MPD2     C 8611   1.821   1.231  15.259  0.1850 -1.0132 -1.0590
  581MPD2    C1 8612   1.773   1.116  15.197  0.6093  0.0063 -0.2288
  581MPD2    C2 8613   1.680   1.136  15.090  0.8174  0.7621  0.1085
  581MPD2    C3 8614   1.645   1.262  15.050  0.2322  0.4705  0.2676
  581MPD2    C4 8615   1.699   1.369  15.115 -0.4825  0.2922 -0.8839
  581MPD2    C5 8616   1.785   1.353  15.216  0.0636 -0.2431 -0.0560
  581MPD2     H 8617   1.640   1.050  15.037  1.3200  1.5485 -1.5442
  581MPD2    H1 8618   1.675   1.471  15.087 -0.9878  0.6871  0.9721
  581MPD2    H2 8619   1.891   1.225  15.341 -0.5279 -3.3537 -0.6258
  581MPD2    H3 8620   1.825   1.442  15.264 -1.1111  0.7296 -0.8916
  581MPD2     N 8621   1.553   1.293  14.946 -0.0131  0.0050 -0.0225
  581MPD2    H5 8622   1.535   1.391  14.924 -0.1989  0.0555  0.3633
  581MPD2    N1 8623   1.823   0.985  15.219 -0.6559 -0.3514  0.0910
  581MPD2    H7 8624   1.782   0.915  15.159  0.2721  0.0711 -1.0253
  582TMC3    C1 8625   1.924   0.805  15.333  0.3354 -0.8639  0.1139
  582TMC3    C2 8626   1.959   0.753  15.457  0.4403  0.3616 -0.1834
  582TMC3    C3 8627   1.923   0.629  15.498  0.0034  0.2177 -0.0802
  582TMC3    C4 8628   1.865   0.722  15.244  0.0651 -0.3788  0.0728
  582TMC3    C5 8629   1.854   0.585  15.277 -0.5021  0.1811 -0.2629
  582TMC3    C6 8630   1.867   0.543  15.410  0.5202  0.7839 -0.1989
  582TMC3     C 8631   1.904   0.945  15.321 -0.3806 -0.2379  0.4305
  582TMC3     O 8632   1.945   1.008  15.418 -0.2183 -0.0349 -0.6264
  582TMC3     H 8633   2.026   0.810  15.520  2.3832 -2.1273 -0.0145
  582TMC3    H1 8634   1.872   0.746  15.139 -0.2032  0.9059  0.3423
  582TMC3    H2 8635   1.830   0.448  15.446  2.2267 -0.0144 -0.5128
  582TMC3    C7 8636   1.725   0.530  15.221  0.0920 -0.4051 -0.3268
  582TMC3    C8 8637   1.882   0.618  15.639  0.7678 -0.6490 -0.6157
  582TMC3    O1 8638   1.732   0.432  15.149 -0.3121 -0.5891  0.0094
  582TMC3    O2 8639   1.765   0.598  15.671  0.4152 -0.6462  0.1638
  583MPD2     C 8640   1.783   2.361  16.907  0.5443  0.3726  0.0054
  583MPD2    C1 8641   1.753   2.469  16.833  0.5772  0.2380  0.0995
  583MPD2    C2 8642   1.693   2.579  16.884 -0.0736  0.1506 -0.5758
  583MPD2    C3 8643   1.646   2.577  17.015 -0.5183 -0.4765  1.3482
  583MPD2    C4 8644   1.672   2.467  17.088 -0.6855 -0.6469  0.4757
  583MPD2    C5 8645   1.741   2.362  17.036  0.3321 -0.6712 -0.5966
  583MPD2     H 8646   1.671   2.668  16.826 -0.7826  0.6582  0.4722
  583MPD2    H1 8647   1.639   2.461  17.191 -2.3264  0.3739  0.0061
  583MPD2    H2 8648   1.851   2.284  16.874  0.4417 -0.8186  2.6133
  583MPD2    H3 8649   1.766   2.276  17.098  0.2952  0.0033  0.3527
  583MPD2     N 8650   1.588   2.691  17.057  0.1177  0.2317 -0.2298
  583MPD2    H5 8651   1.571   2.768  16.993  1.4058 -0.6466 -1.6255
  583MPD2    N1 8652   1.807   2.473  16.703 -0.2648  0.3293  0.0381
  583MPD2    H7 8653   1.792   2.557  16.648 -2.5528 -0.0166  0.1163
  584TMC3    C1 8654   1.554   2.854  17.215  0.1256 -0.3315  0.7697
  584TMC3    C2 8655   1.644   2.932  17.153 -0.0862  0.5113 -0.2492
  584TMC3    C3 8656   1.677   3.051  17.209 -0.4963  0.0293 -0.3118
  584TMC3    C4 8657   1.510   2.884  17.347  0.1397 -0.0409  0.3220
  584TMC3    C5 8658   1.557   3.003  17.397  0.1006 -0.5678  0.2359
  584TMC3    C6 8659   1.641   3.086  17.334  0.5835  0.0769 -0.2759
  584TMC3     C 8660   1.558   2.713  17.187 -0.9706 -1.2212  0.3259
  584TMC3     O 8661   1.562   2.636  17.284  0.0098  0.1107  0.4367
  584TMC3     H 8662   1.671   2.916  17.050  1.8129 -1.4937  0.5631
  584TMC3    H1 8663   1.445   2.814  17.399 -0.0464 -0.0350  0.0985
  584TMC3    H2 8664   1.664   3.175  17.391 -0.5993  0.1187  0.1351
  584TMC3    C7 8665   1.569   3.002  17.541  0.6204  0.2928 -0.8708
  584TMC3    C8 8666   1.792   3.113  17.157  0.3364 -0.1992 -0.3883
  584TMC3    O1 8667   1.672   3.055  17.587 -0.2951  0.1322  0.4192
  584TMC3    O2 8668   1.859   3.040  17.083  0.8148  0.0149  0.1079
  585MPD2     C 8669   0.747   2.003  17.503  0.2637 -0.7244  0.3419
  585MPD2    C1 8670   0.807   1.912  17.590  0.4624 -0.3812  0.2364
  585MPD2    C2 8671   0.841   1.780  17.543 -0.3542 -0.2021  0.3683
  585MPD2    C3 8672   0.796   1.747  17.420  0.7527  0.2950 -0.6043
  585MPD2    C4 8673   0.735   1.835  17.333 -0.1090  0.6982 -0.4513
  585MPD2    C5 8674   0.706   1.958  17.382 -1.0150 -0.5220 -0.0640
  585MPD2     H 8675   0.906   1.716  17.602  0.1568 -1.0650 -1.1335
  585MPD2    H1 8676   0.710   1.798  17.234  0.8507 -1.5462  0.1335
  585MPD2    H2 8677   0.738   2.106  17.533 -0.1150 -1.5683  3.0986
  585MPD2    H3 8678   0.644   2.024  17.322 -1.7655 -0.7774  0.4471
  585MPD2     N 8679   0.817   1.620  17.371  0.5921 -0.1945 -0.8126
  585MPD2    H5 8680   0.774   1.599  17.282 -0.4577 -0.9054 -0.1347
  585MPD2    N1 8681   0.845   1.964   0.023  0.5299 -0.2684 -0.4705
  585MPD2    H7 8682   0.823   2.063   0.032 -0.3688 -0.4393 -0.7280
  586TMC3    C1 8683   0.865   1.392  17.349 -0.3234 -0.5363  0.4469
  586TMC3    C2 8684   0.970   1.304  17.345 -0.0491 -0.2452 -0.0040
  586TMC3    C3 8685   0.939   1.181  17.293 -0.1547  0.7709 -0.1983
  586TMC3    C4 8686   0.734   1.366  17.309  0.1788 -0.5125  0.7242
  586TMC3    C5 8687   0.709   1.243  17.259  0.2935  0.7958  0.3530
  586TMC3    C6 8688   0.810   1.153  17.259  0.4385  0.0838 -0.4351
  586TMC3     C 8689   0.884   1.517  17.430  0.0293 -0.0002 -0.2438
  586TMC3     O 8690   0.969   1.520  17.518 -0.6809  0.4170 -0.5359
  586TMC3     H 8691   1.067   1.340  17.377 -0.1950  0.5575 -0.4525
  586TMC3    H1 8692   0.651   1.426  17.342 -0.6880 -0.0578 -2.2867
  586TMC3    H2 8693   0.804   1.057  17.210  0.5508 -0.1650  0.0329
  586TMC3    C7 8694   0.577   1.187  17.231 -0.3162  0.1970  0.3541
  586TMC3    C8 8695   1.039   1.076  17.284  0.5351 -0.4487  0.1634
  586TMC3    O1 8696   0.580   1.075  17.177  0.4158 -0.0590 -0.2583
  586TMC3    O2 8697   1.010   0.964  17.238 -0.5853  0.3901  0.0466
  587TMC3    C1 8698   3.092   0.726  16.243  0.6694 -0.0866  0.1577
  587TMC3    C2 8699   3.088   0.783  16.365 -0.4728  0.1849  0.2849
  587TMC3    C3 8700   3.212   0.803  16.427  0.4079 -0.0313 -0.9384
  587TMC3    C4 8701   3.211   0.701  16.178 -0.6427 -0.1006 -0.0950
  587TMC3    C5 8702   3.326   0.731  16.243 -0.4092 -0.6263 -0.3348
  587TMC3    C6 8703   3.332   0.782  16.365  0.2255  0.0720  0.1166
  587TMC3     C 8704   2.981   0.661  16.187  0.5270  0.7630 -0.4665
  587TMC3     O 8705   2.981   0.636  16.069 -0.2912 -0.1284 -0.3478
  587TMC3     H 8706   2.996   0.797  16.420 -0.2989 -4.0729  1.6960
  587TMC3    H1 8707   3.207   0.661  16.078  3.2914 -2.6732  0.7713
  587TMC3    H2 8708   3.427   0.802  16.412  0.4584 -1.7501  0.4155
  587TMC3    C7 8709   3.447   0.669  16.200 -0.0589  0.1883 -0.3303
  587TMC3    C8 8710   3.224   0.856  16.560  0.1897  0.7684 -0.2268
  587TMC3    O1 8711   3.543   0.708  16.260  0.4636  0.4005 -0.3231
  587TMC3    O2 8712   3.334   0.868  16.611 -0.1220 -0.1632  0.1377
  588TMC3    C1 8713   1.033   2.390   9.438 -0.4992  0.1759 -0.1118
  588TMC3    C2 8714   1.023   2.253   9.416  0.1407 -0.0538  0.8346
  588TMC3    C3 8715   1.131   2.175   9.378  0.5901  0.2795  0.1581
  588TMC3    C4 8716   1.155   2.446   9.435 -0.0822 -0.2387 -1.2492
  588TMC3    C5 8717   1.268   2.360   9.421  0.2436 -0.0746 -0.1476
  588TMC3    C6 8718   1.256   2.224   9.387  0.0007 -0.8445 -0.0142
  588TMC3     C 8719   0.925   2.457   9.511 -0.0695 -0.0672 -0.4691
  588TMC3     O 8720   0.860   2.391   9.586 -0.8317  0.1210 -0.0234
  588TMC3     H 8721   0.922   2.214   9.410  0.3511 -0.6305  1.0355
  588TMC3    H1 8722   1.182   2.551   9.439  2.0581 -0.8437  0.7020
  588TMC3    H2 8723   1.339   2.161   9.357 -0.8692 -1.5510 -0.9347
  588TMC3    C7 8724   1.393   2.423   9.411  1.1643  0.0678 -0.1049
  588TMC3    C8 8725   1.092   2.032   9.391 -0.6612 -0.0429  0.0346
  588TMC3    O1 8726   1.454   2.413   9.306 -0.7541  0.1292 -0.0922
  588TMC3    O2 8727   0.978   2.007   9.351  0.1046 -0.2243  0.3645
  589TMC3    C1 8728   4.115   4.717   0.999 -0.1108 -0.3220 -0.3680
  589TMC3    C2 8729   4.212   4.657   1.076  0.0107 -0.4545 -0.0346
  589TMC3    C3 8730   4.292   4.568   1.010  0.7103 -0.4834 -0.2480
  589TMC3    C4 8731   4.102   4.699   0.865  0.1856 -0.0171  0.2733
  589TMC3    C5 8732   4.184   4.603   0.814  0.0067  0.0936  0.2834
  589TMC3    C6 8733   4.284   4.541   0.879 -0.9507 -0.2061  0.3229
  589TMC3     C 8734   4.037   0.099   1.060 -0.1201 -0.3373 -0.5029
  589TMC3     O 8735   4.010   0.199   0.987 -0.2741  0.5433  0.5419
  589TMC3     H 8736   4.226   4.685   1.179 -0.2102 -0.5415  0.0205
  589TMC3    H1 8737   4.020   0.024   0.813 -0.3280 -1.2520 -0.0550
  589TMC3    H2 8738   4.339   4.461   0.830  1.0630  1.0390  0.5459
  589TMC3    C7 8739   4.154   4.542   0.686 -0.9265  0.6135 -0.4302
  589TMC3    C8 8740   4.388   4.489   1.090 -0.2056 -0.0641  0.3712
  589TMC3    O1 8741   4.188   4.424   0.683 -0.7474  0.2946  0.4400
  589TMC3    O2 8742   4.360   4.485   1.207  0.5333  0.1470 -0.4516
  590MPD2     C 8743   4.130   3.145  16.362  0.0078  0.3420 -0.2759
  590MPD2    C1 8744   4.049   3.210  16.271 -0.3358 -0.1854 -0.3216
  590MPD2    C2 8745   4.116   3.266  16.162 -0.8596 -0.7708  0.0414
  590MPD2    C3 8746   4.255   3.256  16.151 -0.1090 -0.1187 -0.1380
  590MPD2    C4 8747   4.333   3.190  16.248 -0.0339 -0.1270 -0.3681
  590MPD2    C5 8748   4.263   3.129  16.350 -0.0954 -0.1116  0.6884
  590MPD2     H 8749   4.053   3.315  16.089  0.6101 -0.2513 -0.8786
  590MPD2    H1 8750   4.441   3.193  16.251 -0.1529  2.6705  1.2331
  590MPD2    H2 8751   4.097   3.096  16.452 -1.1468  1.4095 -0.1098
  590MPD2    H3 8752   4.313   3.078  16.432 -0.2815 -2.1469 -0.4598
  590MPD2     N 8753   4.307   3.325  16.042  0.1118 -0.0720 -0.0383
  590MPD2    H5 8754   4.239   3.373  15.984 -1.1452  0.8983  2.2500
  590MPD2    N1 8755   3.908   3.216  16.283 -0.4496  0.4707  0.4314
  590MPD2    H7 8756   3.869   3.162  16.360  0.3191  0.9198  1.1419
  591TMC3    C1 8757   4.466   3.415  15.900  0.0538 -0.2496  0.0761
  591TMC3    C2 8758   4.566   3.381  15.815  0.1307  0.0295  0.8500
  591TMC3    C3 8759   4.579   3.448  15.693  0.3522  0.5409  0.8561
  591TMC3    C4 8760   4.384   3.520  15.874 -0.0585  0.1558 -1.0427
  591TMC3    C5 8761   4.393   3.581  15.748 -0.6371  0.4601 -0.3262
  591TMC3    C6 8762   4.487   3.541  15.653  0.6665 -0.0937  0.1318
  591TMC3     C 8763   4.438   3.320  16.005 -0.0269  0.1856  0.2926
  591TMC3     O 8764   4.534   3.264  16.054 -0.2514 -0.0570  0.3926
  591TMC3     H 8765   4.644   3.308  15.834 -0.1983 -0.6741 -0.5185
  591TMC3    H1 8766   4.330   3.566  15.956  0.4237  0.5783 -0.9642
  591TMC3    H2 8767   4.475   3.583  15.554 -0.6064 -2.4046 -0.6943
  591TMC3    C7 8768   4.304   3.688  15.726  0.5613 -0.0069 -0.7913
  591TMC3    C8 8769   4.641   3.361  15.596 -0.8182  0.1798  0.6225
  591TMC3    O1 8770   4.195   3.681  15.780 -0.0074  0.2531  0.5170
  591TMC3    O2 8771   4.639   3.238  15.619  0.1779 -0.7508  0.0443
  592MPD2     C 8772   0.594   1.017  11.338  0.2064  0.0331  0.2126
  592MPD2    C1 8773   0.495   1.029  11.429 -0.5423  0.1372 -0.4229
  592MPD2    C2 8774   0.409   0.919  11.456 -0.1585  0.8103  0.1467
  592MPD2    C3 8775   0.438   0.801  11.391 -0.0590 -0.1105 -0.4742
  592MPD2    C4 8776   0.541   0.790  11.296 -0.3728 -0.6777 -0.2371
  592MPD2    C5 8777   0.610   0.901  11.274  0.4321 -0.0934 -0.4387
  592MPD2     H 8778   0.321   0.920  11.520 -0.7932 -2.5583 -0.6752
  592MPD2    H1 8779   0.568   0.706  11.234 -1.1277 -0.7267 -0.5116
  592MPD2    H2 8780   0.662   1.100  11.322 -0.2370  0.1667 -0.9839
  592MPD2    H3 8781   0.689   0.894  11.201 -0.8420 -3.6242 -1.4866
  592MPD2     N 8782   0.367   0.690  11.432 -0.2031 -0.1484  0.3155
  592MPD2    H5 8783   0.313   0.700  11.517 -0.3386 -1.4955  0.3951
  592MPD2    N1 8784   0.487   1.159  11.497 -0.1238  0.4496 -0.0933
  592MPD2    H7 8785   0.542   1.235  11.458  1.7406 -1.3422 -0.9643
  593TMC3    C1 8786   0.432   1.330  11.639 -0.0489  0.3377 -0.1107
  593TMC3    C2 8787   0.354   1.380  11.737  0.1921  0.1317  0.0433
  593TMC3    C3 8788   0.394   1.499  11.797  0.7354 -0.6112  0.2150
  593TMC3    C4 8789   0.559   1.382  11.618 -1.2769 -0.1643  0.7193
  593TMC3    C5 8790   0.606   1.487  11.697 -0.0312 -0.8198 -0.0171
  593TMC3    C6 8791   0.520   1.553  11.784  0.3046  0.1828 -0.2279
  593TMC3     C 8792   0.404   1.194  11.599 -0.3455 -0.0296 -0.3266
  593TMC3     O 8793   0.323   1.123  11.654 -0.0598 -0.2072  0.2779
  593TMC3     H 8794   0.271   1.318  11.770 -0.7139  1.2861 -0.0684
  593TMC3    H1 8795   0.633   1.333  11.557 -0.9985  1.5107 -0.3055
  593TMC3    H2 8796   0.543   1.646  11.835  1.7437 -0.5006  0.3562
  593TMC3    C7 8797   0.723   1.559  11.651  0.2004 -0.2792 -0.2710
  593TMC3    C8 8798   0.329   1.529  11.923 -1.5241  0.0970 -0.1399
  593TMC3    O1 8799   0.751   1.541  11.534 -0.0642 -0.6266 -0.2988
  593TMC3    O2 8800   0.210   1.516  11.922 -0.0743  0.1325 -0.2596
  594MPD2     C 8801   3.334   3.811  14.459 -0.3277 -0.1772  0.2377
  594MPD2    C1 8802   3.250   3.876  14.369  0.3266  0.4400  0.2699
  594MPD2    C2 8803   3.306   3.966  14.283 -1.1017  0.3498 -0.1028
  594MPD2    C3 8804   3.441   3.993  14.288 -0.0675  0.1249 -0.1048
  594MPD2    C4 8805   3.520   3.923  14.373  0.2720 -0.2145  0.0701
  594MPD2    C5 8806   3.471   3.832  14.459 -0.2320  0.3292  0.2295
  594MPD2     H 8807   3.247   4.026  14.214 -0.5761 -0.0241 -0.8903
  594MPD2    H1 8808   3.627   3.943  14.374  0.2791  0.0376 -3.3517
  594MPD2    H2 8809   3.302   3.732  14.527  0.4996 -0.4044  0.3635
  594MPD2    H3 8810   3.540   3.780  14.524 -1.5260 -0.6873  0.7927
  594MPD2     N 8811   3.491   4.085  14.201  0.0446 -0.4594 -0.0818
  594MPD2    H5 8812   3.434   4.164  14.171  0.4551 -0.1913 -0.1549
  594MPD2    N1 8813   3.108   3.848  14.374 -0.5749 -0.3426 -0.2240
  594MPD2    H7 8814   3.079   3.786  14.449  0.4070  1.1790  1.4028
  595TMC3    C1 8815   3.779   4.325  13.933 -0.2697 -0.5800  0.1804
  595TMC3    C2 8816   3.737   4.207  13.991 -0.1746 -0.4591 -0.2984
  595TMC3    C3 8817   3.651   4.214  14.091  0.0323 -0.4906  0.2889
  595TMC3    C4 8818   3.744   4.449  13.989  0.0112 -0.0768 -0.1092
  595TMC3    C5 8819   3.649   4.453  14.085 -0.4184 -0.3702 -0.0977
  595TMC3    C6 8820   3.603   4.334  14.132  0.4561  1.1535 -0.5264
  595TMC3     C 8821   3.901   4.315  13.855  0.6304  0.3417  0.7336
  595TMC3     O 8822   3.911   4.239  13.764 -0.2143 -0.2612 -0.3769
  595TMC3     H 8823   3.772   4.110  13.958 -0.0349  0.9199 -4.1103
  595TMC3    H1 8824   3.767   4.544  13.943  0.4842 -0.0545  0.1740
  595TMC3    H2 8825   3.532   4.328  14.213  0.9427 -2.3444 -0.3499
  595TMC3    C7 8826   3.569   4.571  14.115 -0.0722 -0.6063  0.4556
  595TMC3    C8 8827   3.617   4.087  14.151  0.2203  0.3884 -0.2041
  595TMC3    O1 8828   3.475   4.560  14.190 -0.7972  0.0800  0.2435
  595TMC3    O2 8829   3.693   3.995  14.141  0.0129  0.8724 -0.2792
  596MPD2     C 8830   2.462   1.987  16.669 -0.0524 -0.2151  0.2755
  596MPD2    C1 8831   2.516   2.113  16.639 -0.0414 -0.2265 -0.1361
  596MPD2    C2 8832   2.552   2.146  16.510  0.3467  1.1703 -0.4601
  596MPD2    C3 8833   2.516   2.062  16.411 -0.4452 -0.4383 -0.0179
  596MPD2    C4 8834   2.462   1.939  16.437  1.0807  0.4197 -0.1366
  596MPD2    C5 8835   2.428   1.901  16.570  0.0921 -0.2231 -0.6127
  596MPD2     H 8836   2.606   2.237  16.487 -0.5457  1.2547 -2.2804
  596MPD2    H1 8837   2.433   1.860  16.368 -0.0718 -0.8980  1.8536
  596MPD2    H2 8838   2.442   1.961  16.772  3.6849  1.2246  1.3479
  596MPD2    H3 8839   2.372   1.810  16.590  0.5655 -0.0560  1.4427
  596MPD2     N 8840   2.528   2.085  16.268 -0.6997 -0.1170  0.6149
  596MPD2    H5 8841   2.476   2.022  16.207 -2.3951  1.4161  0.4802
  596MPD2    N1 8842   2.534   2.214  16.741  0.7605 -0.7015 -0.4443
  596MPD2    H7 8843   2.583   2.302  16.723 -0.2522 -0.0966 -0.2291
  597TMC3    C1 8844   2.549   2.293  16.948 -0.2819 -0.2653  0.3188
  597TMC3    C2 8845   2.683   2.327  16.924  0.6219  0.6070 -0.0546
  597TMC3    C3 8846   2.736   2.442  16.976 -0.0657  0.3347  0.1994
  597TMC3    C4 8847   2.467   2.371  17.022  0.1378 -0.2862 -0.0314
  597TMC3    C5 8848   2.523   2.488  17.072 -0.3895 -0.5170 -0.7857
  597TMC3    C6 8849   2.656   2.519  17.053  0.0096 -0.1513  0.0785
  597TMC3     C 8850   2.481   2.199  16.864  0.2676  0.1548  0.9136
  597TMC3     O 8851   2.391   2.134  16.918  0.4022  0.3726  0.2114
  597TMC3     H 8852   2.743   2.254  16.870  2.0087  1.3705  0.4583
  597TMC3    H1 8853   2.363   2.346  17.039  0.6856 -0.9132  2.4271
  597TMC3    H2 8854   2.695   2.611  17.093  2.0962 -1.2845  0.6276
  597TMC3    C7 8855   2.430   2.587  17.126  0.4555 -0.0885  0.5469
  597TMC3    C8 8856   2.881   2.433  17.014 -0.0005  0.6600  0.0364
  597TMC3    O1 8857   2.331   2.544  17.191  0.2091 -0.3831 -0.1729
  597TMC3    O2 8858   2.920   2.515  17.094  0.1101  0.2527 -0.0482
  598TMC3    C1 8859   0.814   4.289  15.262 -0.5094  0.5990 -0.3828
  598TMC3    C2 8860   0.705   4.221  15.298 -0.4396 -0.5269 -0.5362
  598TMC3    C3 8861   0.636   4.138  15.210  0.1653 -0.7413 -0.5376
  598TMC3    C4 8862   0.865   4.276  15.136 -0.1290 -0.1956 -0.3381
  598TMC3    C5 8863   0.804   4.179  15.054  0.1488 -0.2788  0.5724
  598TMC3    C6 8864   0.689   4.108  15.080 -0.1042  0.4524  0.8114
  598TMC3     C 8865   0.904   4.361  15.356  0.7659 -0.2334 -0.7811
  598TMC3     O 8866   0.950   4.465  15.308 -0.3228 -0.2734  0.2755
  598TMC3     H 8867   0.666   4.234  15.398 -1.8445  0.4955 -1.2088
  598TMC3    H1 8868   0.967   4.306  15.116  0.6709 -2.4195  0.3812
  598TMC3    H2 8869   0.631   4.055  15.005 -1.0627 -0.5899  2.2740
  598TMC3    C7 8870   0.840   4.190  14.907  0.3558  0.5489  0.0556
  598TMC3    C8 8871   0.512   4.077  15.248  0.3771  0.2401 -0.0224
  598TMC3    O1 8872   0.840   4.087  14.841 -0.3905  0.0170 -0.0497
  598TMC3    O2 8873   0.476   4.116  15.359 -0.2117 -0.0615  1.2039
  599MPD2     C 8874   0.904   1.778  15.681  0.1171  0.1344 -0.4585
  599MPD2    C1 8875   0.847   1.652  15.675  0.4814  0.2129  0.1380
  599MPD2    C2 8876   0.719   1.634  15.700  0.5550 -0.2936 -0.1190
  599MPD2    C3 8877   0.642   1.750  15.736  0.4660  0.2038 -0.2284
  599MPD2    C4 8878   0.706   1.874  15.747 -0.0890  0.2080  0.8284
  599MPD2    C5 8879   0.839   1.890  15.717  0.6240  0.6932 -0.2198
  599MPD2     H 8880   0.679   1.534  15.690  2.5971 -1.1644  0.4851
  599MPD2    H1 8881   0.646   1.958  15.779  1.4664  1.4088  0.5767
  599MPD2    H2 8882   1.008   1.793  15.654  0.5071 -2.4860 -0.3793
  599MPD2    H3 8883   0.893   1.983  15.731  0.2381  0.5498  2.1676
  599MPD2     N 8884   0.504   1.762  15.773 -0.0657 -0.3053 -0.5645
  599MPD2    H5 8885   0.465   1.846  15.813  0.1714 -0.4964  0.0626
  599MPD2    N1 8886   0.946   1.552  15.640 -0.2375  0.2093 -0.1318
  599MPD2    H7 8887   1.045   1.573  15.634 -0.1804  0.2955  1.1430
  600TMC3    C1 8888   0.301   1.669  15.880 -0.3258 -0.1532  0.4032
  600TMC3    C2 8889   0.213   1.563  15.887 -0.5280 -0.1005 -0.2063
  600TMC3    C3 8890   0.123   1.564  15.984 -0.0620  0.0930 -0.5191
  600TMC3    C4 8891   0.307   1.766  15.980  0.1169 -0.2181 -0.1693
  600TMC3    C5 8892   0.208   1.755  16.076  0.0213  0.1781  0.5312
  600TMC3    C6 8893   0.112   1.661  16.076 -0.2492 -0.5474  0.2151
  600TMC3     C 8894   0.420   1.654  15.782 -0.0209 -0.5861  0.5485
  600TMC3     O 8895   0.433   1.543  15.732  0.9667 -0.1996 -0.2488
  600TMC3     H 8896   0.217   1.483  15.814 -0.0713 -2.2231  2.1353
  600TMC3    H1 8897   0.392   1.832  15.996 -0.3145  0.5642 -1.0957
  600TMC3    H2 8898   0.028   1.656  16.145 -1.1642 -0.0044 -0.8575
  600TMC3    C7 8899   0.198   1.853  16.185 -0.1219 -0.5093 -0.0234
  600TMC3    C8 8900   0.028   1.456  15.994  0.8055 -0.7999  0.2733
  600TMC3    O1 8901   0.088   1.892  16.223  0.1238  0.5719 -0.0352
  600TMC3    O2 8902   4.712   1.415  15.889 -0.3786 -0.5119 -0.2034
  601MPD2     C 8903   2.788   4.505  17.638 -0.0671 -0.4447 -0.4944
  601MPD2    C1 8904   2.656   4.477  17.643  0.3414  0.0818 -0.5277
  601MPD2    C2 8905   2.616   4.349  17.672  0.0343 -0.6453 -0.5344
  601MPD2    C3 8906   2.702   4.246   0.008 -0.8847  0.4073 -0.0237
  601MPD2    C4 8907   2.839   4.277  17.692  1.0742 -0.3227  0.3295
  601MPD2    C5 8908   2.879   4.405  17.659 -0.4139 -0.3089  0.3758
  601MPD2     H 8909   2.510   4.330  17.680  0.2757 -0.1927  3.5553
  601MPD2    H1 8910   2.914   4.206   0.029  1.5345  1.0065  2.0899
  601MPD2    H2 8911   2.825   4.593  17.585 -0.6748 -0.6671 -1.3002
  601MPD2    H3 8912   2.984   4.431  17.653 -0.3274 -0.5382  0.9323
  601MPD2     N 8913   2.667   4.113   0.042 -0.4986 -0.0076  0.3377
  601MPD2    H5 8914   2.733   4.039   0.062 -1.6305 -1.0860  0.1213
  601MPD2    N1 8915   2.551   4.570  17.619 -1.0972  0.3526  0.0583
  601MPD2    H7 8916   2.455   4.538  17.632 -0.7842 -1.5693 -2.5308
  602TMC3    C1 8917   2.447   0.056  17.599  0.5184 -0.4288 -0.1585
  602TMC3    C2 8918   2.451   0.193  17.625  0.2081  0.5596  0.3362
  602TMC3    C3 8919   2.336   0.271  17.609 -0.6805  0.7243 -0.0604
  602TMC3    C4 8920   2.326   4.712  17.580  0.2483 -0.6565  0.5487
  602TMC3    C5 8921   2.216   0.070  17.559  0.9169 -0.4755 -0.2616
  602TMC3    C6 8922   2.217   0.208  17.575  0.5500 -0.1279  0.3180
  602TMC3     C 8923   2.574   4.706  17.609 -0.6512  0.2619 -0.1307
  602TMC3     O 8924   2.681   0.041  17.628  0.0904  0.2240  0.2237
  602TMC3     H 8925   2.544   0.239  17.655  0.2286  0.9113 -0.2772
  602TMC3    H1 8926   2.316   4.606  17.560  0.8334 -0.5126 -0.5201
  602TMC3    H2 8927   2.127   0.268  17.569  1.8632  2.0896  3.3523
  602TMC3    C7 8928   2.102   0.022  17.482  0.0988  0.4862  0.9397
  602TMC3    C8 8929   2.357   0.421  17.599 -0.7675 -0.1273 -0.1498
  602TMC3    O1 8930   2.065   4.633  17.498 -0.1723  0.2271 -0.2556
  602TMC3    O2 8931   2.451   0.475  17.659 -0.4464  0.2247  0.1551
  603TMC3    C1 8932   1.757   4.113  10.349  0.6254  0.7872  0.4933
  603TMC3    C2 8933   1.746   4.172  10.469 -0.8158 -0.4745  0.4829
  603TMC3    C3 8934   1.767   4.303  10.480  0.2844 -0.4360  0.4781
  603TMC3    C4 8935   1.786   4.188  10.240 -0.0975 -0.5641  0.2251
  603TMC3    C5 8936   1.812   4.319  10.256  1.3293 -0.8264  0.1166
  603TMC3    C6 8937   1.815   4.377  10.377  0.2463  0.7544  0.8377
  603TMC3     C 8938   1.649   4.013  10.322 -0.2335  0.0042 -0.0258
  603TMC3     O 8939   1.657   3.941  10.222  0.4162 -0.9236 -0.2144
  603TMC3     H 8940   1.740   4.105  10.554 -0.3362  0.9596  1.6395
  603TMC3    H1 8941   1.780   4.144  10.142 -0.9107  0.4634 -0.1818
  603TMC3    H2 8942   1.825   4.485  10.376 -0.8950  0.8087 -2.5377
  603TMC3    C7 8943   1.819   4.396  10.141 -0.5810  0.2929 -0.4567
  603TMC3    C8 8944   1.769   4.359  10.616 -0.5523  0.5202 -0.0597
  603TMC3    O1 8945   1.886   4.499  10.148  0.4954  0.2822 -1.2057
  603TMC3    O2 8946   1.782   4.278  10.708 -0.3087  0.5204 -0.0665
  604MPD2     C 8947   1.480   2.872  16.289 -0.1143 -0.0296 -0.6046
  604MPD2    C1 8948   1.423   2.986  16.234 -1.0351 -0.9457  0.2782
  604MPD2    C2 8949   1.454   3.022  16.106 -0.2660  0.2639  0.3092
  604MPD2    C3 8950   1.551   2.951  16.035  0.1679 -0.2892  0.7383
  604MPD2    C4 8951   1.612   2.840  16.086 -0.1980  0.0893  0.5673
  604MPD2    C5 8952   1.578   2.801  16.214 -0.2699 -0.1360 -0.6519
  604MPD2     H 8953   1.404   3.106  16.059  1.2807  1.8574  1.5263
  604MPD2    H1 8954   1.688   2.779  16.037 -0.1992 -0.2856  1.0222
  604MPD2    H2 8955   1.459   2.845  16.392  0.5646 -1.0802 -0.7445
  604MPD2    H3 8956   1.633   2.718  16.257 -0.7427 -0.4330 -0.6172
  604MPD2     N 8957   1.593   3.016  15.918  0.2557  0.2549 -0.4170
  604MPD2    H5 8958   1.551   3.107  15.901 -0.2893  0.3900  1.6221
  604MPD2    N1 8959   1.317   3.040  16.310 -0.5061  0.0828  0.0094
  604MPD2    H7 8960   1.305   2.999  16.402  1.8620  1.1252  0.7833
  605TMC3    C1 8961   1.121   3.158  16.368  0.1204 -0.1904  0.4026
  605TMC3    C2 8962   1.179   3.235  16.468 -0.0070  0.2015  0.2369
  605TMC3    C3 8963   1.098   3.334  16.522 -1.2756 -0.2096  0.0638
  605TMC3    C4 8964   0.989   3.169  16.325  0.5627 -0.2440  0.1124
  605TMC3    C5 8965   0.920   3.280  16.381 -0.7639 -0.0627 -0.3540
  605TMC3    C6 8966   0.975   3.363  16.476 -0.5603  0.0545  0.3622
  605TMC3     C 8967   1.217   3.128  16.268  0.5275 -0.9661  0.2365
  605TMC3     O 8968   1.191   3.160  16.153 -0.5428  0.5888  0.9435
  605TMC3     H 8969   1.278   3.214  16.506  0.3888  1.2130 -0.2478
  605TMC3    H1 8970   0.956   3.107  16.243 -0.7030 -0.0582  0.4802
  605TMC3    H2 8971   0.924   3.448  16.519 -2.2510 -0.7408 -0.0939
  605TMC3    C7 8972   0.803   3.336  16.307  0.2654  1.2594  0.3550
  605TMC3    C8 8973   1.149   3.420  16.627  0.2362 -0.4577 -0.4660
  605TMC3    O1 8974   0.760   3.442  16.350 -0.9160  0.1513  0.3611
  605TMC3    O2 8975   1.074   3.467  16.717  0.0473  0.0509 -0.3908
  606TMC3    C1 8976   2.766   1.942  17.051  0.8578 -0.3467  0.2798
  606TMC3    C2 8977   2.796   2.038  17.140  0.0850 -0.2491  0.5765
  606TMC3    C3 8978   2.700   2.073  17.228 -0.2162  0.0761 -0.1279
  606TMC3    C4 8979   2.640   1.899  17.018 -0.0590  0.4811 -0.1400
  606TMC3    C5 8980   2.549   1.929  17.121 -0.0148 -0.9464 -0.1775
  606TMC3    C6 8981   2.580   2.015  17.220 -0.0964  0.1274  0.2755
  606TMC3     C 8982   2.865   1.926  16.945 -0.0487 -0.0006  0.0979
  606TMC3     O 8983   2.817   1.923  16.827  0.4667 -0.3419  0.0110
  606TMC3     H 8984   2.891   2.088  17.148  0.7818 -1.2482 -1.5067
  606TMC3    H1 8985   2.614   1.834  16.936 -0.0003  0.6117 -0.2610
  606TMC3    H2 8986   2.508   2.020  17.300  0.9759  1.9745  1.1236
  606TMC3    C7 8987   2.460   1.819  17.146  0.1089  0.1421 -0.2938
  606TMC3    C8 8988   2.741   2.142  17.350  0.1628  0.2508 -0.3179
  606TMC3    O1 8989   2.497   1.713  17.093  0.4251  0.6750  0.0277
  606TMC3    O2 8990   2.811   2.243  17.333 -0.0678  0.0939  0.3907
  607MPD2     C 8991   0.630   4.445  10.923 -0.2963  0.6350  0.0247
  607MPD2    C1 8992   0.572   4.545  10.994  0.0008  0.2739  0.6716
  607MPD2    C2 8993   0.528   4.527  11.126  0.3654  0.2465 -0.2620
  607MPD2    C3 8994   0.544   4.405  11.185 -0.1387 -0.1864  0.6653
  607MPD2    C4 8995   0.589   4.297  11.104 -0.1322 -0.9844  0.1454
  607MPD2    C5 8996   0.644   4.323  10.982  0.2104  0.0847  0.8977
  607MPD2     H 8997   0.496   4.606  11.193 -1.8169 -0.8440 -0.0002
  607MPD2    H1 8998   0.601   4.200  11.152  1.9837 -1.4199 -1.3024
  607MPD2    H2 8999   0.691   4.456  10.834  0.5595  1.3941  0.6957
  607MPD2    H3 9000   0.701   4.250  10.926 -0.3537 -0.6358  1.2532
  607MPD2     N 9001   0.507   4.396  11.318 -0.3711  0.2083 -0.2586
  607MPD2    H5 9002   0.483   4.487  11.355 -2.5991 -0.6291  0.3350
  607MPD2    N1 9003   0.566   4.682  10.954  0.1826 -0.2590 -0.3554
  607MPD2    H7 9004   0.513   0.026  11.008  1.6611 -0.6327  1.5495
  608TMC3    C1 9005   0.604   0.139  10.811 -0.1835 -0.1831  0.1443
  608TMC3    C2 9006   0.571   0.213  10.916 -0.3789 -0.2960 -0.6666
  608TMC3    C3 9007   0.622   0.339  10.926  0.2836  0.5755  0.4475
  608TMC3    C4 9008   0.673   0.184  10.704 -0.1337  0.5282  1.3282
  608TMC3    C5 9009   0.734   0.309  10.725 -0.7823 -0.9709 -0.1792
  608TMC3    C6 9010   0.702   0.394  10.828 -0.3450 -0.0523  0.0571
  608TMC3     C 9011   0.611   4.724  10.831 -0.0147 -0.2592 -0.4776
  608TMC3     O 9012   0.662   4.657  10.741 -0.5007  0.0476  0.2428
  608TMC3     H 9013   0.499   0.168  10.984  0.6901 -0.5395  0.3173
  608TMC3    H1 9014   0.703   0.127  10.617 -0.1655 -1.6060  2.7090
  608TMC3    H2 9015   0.747   0.492  10.833  0.0510 -0.2550  0.3988
  608TMC3    C7 9016   0.845   0.330  10.636 -0.1704 -0.9316  0.9188
  608TMC3    C8 9017   0.661   0.388  11.057  0.4026 -0.8286  0.2943
  608TMC3    O1 9018   0.841   0.281  10.524  0.4092 -0.3614  0.4551
  608TMC3    O2 9019   0.743   0.482  11.067 -0.1359  0.4370 -0.1812
  609TMC3    C1 9020   3.155   2.949   8.769  0.3279  0.2450  0.2578
  609TMC3    C2 9021   3.024   2.966   8.740 -0.2819 -0.0905 -0.9591
  609TMC3    C3 9022   2.986   2.914   8.619  0.3843  0.2512  0.6791
  609TMC3    C4 9023   3.250   2.892   8.684 -0.3323 -0.3052 -0.1922
  609TMC3    C5 9024   3.200   2.844   8.569 -0.1729 -0.2926  0.7491
  609TMC3    C6 9025   3.068   2.856   8.533 -0.2563 -0.7623  0.9738
  609TMC3     C 9026   3.198   3.006   8.892 -0.3963  0.8235  0.3340
  609TMC3     O 9027   3.135   3.103   8.941  0.1290  0.7079  0.0303
  609TMC3     H 9028   2.955   2.998   8.818  0.9722 -2.1231  0.9843
  609TMC3    H1 9029   3.357   2.900   8.695 -0.1592 -0.3493 -1.8511
  609TMC3    H2 9030   3.045   2.823   8.433  0.9506  3.1631 -0.5839
  609TMC3    C7 9031   3.289   2.779   8.470 -0.0080  0.0103 -0.5943
  609TMC3    C8 9032   2.849   2.955   8.586 -0.6650  0.3530  0.3885
  609TMC3    O1 9033   3.402   2.825   8.476  0.2505 -0.1412  0.2284
  609TMC3    O2 9034   2.813   3.057   8.637 -0.4518  0.0723 -0.2191
  610TMC3    C1 9035   1.072   0.669  12.174  0.5940 -0.6412 -0.3735
  610TMC3    C2 9036   1.183   0.718  12.116  0.2548 -0.2526  0.0642
  610TMC3    C3 9037   1.306   0.661  12.150  0.4283 -0.3609 -0.0176
  610TMC3    C4 9038   1.075   0.580  12.277  0.0020  1.1784 -0.4980
  610TMC3    C5 9039   1.199   0.536  12.313 -0.2634 -0.5903  0.2352
  610TMC3    C6 9040   1.315   0.578  12.258  0.3127 -0.3252 -0.0947
  610TMC3     C 9041   0.948   0.736  12.152 -0.3346 -0.4546  0.4110
  610TMC3     O 9042   0.861   0.731  12.234  0.0188 -0.2266  0.8825
  610TMC3     H 9043   1.189   0.813  12.063  1.6170 -0.7589 -0.6877
  610TMC3    H1 9044   0.989   0.565  12.341  1.0834  0.2717  0.7397
  610TMC3    H2 9045   1.415   0.553  12.292  0.5375  1.3978  0.5242
  610TMC3    C7 9046   1.202   0.411  12.385  0.0002 -0.8045  0.2252
  610TMC3    C8 9047   1.421   0.715  12.085  0.0651  0.2913 -0.2941
  610TMC3    O1 9048   1.305   0.366  12.436  0.1683  0.2721 -0.1389
  610TMC3    O2 9049   1.521   0.739  12.152 -0.0266 -0.0053 -0.3569
  611MPD2     C 9050   0.843   3.854   9.867 -0.0529 -0.5381 -0.1080
  611MPD2    C1 9051   0.770   3.960   9.814 -0.1060  0.0062  0.1711
  611MPD2    C2 9052   0.832   4.048   9.722  0.9096 -0.0949 -0.3915
  611MPD2    C3 9053   0.969   4.038   9.689  0.1686 -0.0661  0.0874
  611MPD2    C4 9054   1.041   3.945   9.759 -0.1218  0.0345  0.2120
  611MPD2    C5 9055   0.978   3.851   9.841 -0.2093  0.1731  0.0332
  611MPD2     H 9056   0.781   4.128   9.670 -0.3149 -0.6812 -0.1091
  611MPD2    H1 9057   1.149   3.952   9.762 -0.1352  0.3094  0.1117
  611MPD2    H2 9058   0.799   3.784   9.937 -0.4623 -0.6005 -0.4295
  611MPD2    H3 9059   1.034   3.775   9.895  0.7491 -0.6994 -2.1455
  611MPD2     N 9060   1.039   4.145   9.631 -0.2273 -0.1785  0.6858
  611MPD2    H5 9061   1.139   4.158   9.641  0.0346 -0.7920 -1.1749
  611MPD2    N1 9062   0.628   3.966   9.842  0.3203 -0.7552 -0.5736
  611MPD2    H7 9063   0.592   3.885   9.892 -1.6458 -1.6815 -3.4934
  612TMC3    C1 9064   1.042   4.362   9.541  0.8264  0.8100 -0.2352
  612TMC3    C2 9065   1.153   4.404   9.618  0.3182 -0.0752  0.7282
  612TMC3    C3 9066   1.193   4.536   9.599  0.5133 -0.7586  0.0440
  612TMC3    C4 9067   0.961   4.454   9.469  0.3792 -0.4144  0.3892
  612TMC3    C5 9068   1.003   4.584   9.479 -0.3132  0.3218  0.8032
  612TMC3    C6 9069   1.118   4.626   9.537 -0.9239 -0.2488 -1.0431
  612TMC3     C 9070   0.974   4.236   9.557 -0.1356 -0.8125  0.2836
  612TMC3     O 9071   0.866   4.228   9.501 -0.4864  0.2785  0.0821
  612TMC3     H 9072   1.221   4.336   9.669 -1.7468 -0.9896  2.2281
  612TMC3    H1 9073   0.863   4.437   9.427  1.0079 -0.0290 -1.2560
  612TMC3    H2 9074   1.158   0.002   9.522  0.5965 -0.7562 -0.3011
  612TMC3    C7 9075   0.908   4.690   9.449  0.0247 -0.1893  0.2407
  612TMC3    C8 9076   1.330   4.580   9.633  0.3097  0.0311 -0.0991
  612TMC3    O1 9077   0.844   4.676   9.346 -0.2681 -0.3353  0.6088
  612TMC3    O2 9078   1.375   4.686   9.594 -0.0752 -0.2159 -0.7597
  613MPD2     C 9079   3.740   2.585  16.553 -0.3234 -0.1278 -0.4889
  613MPD2    C1 9080   3.678   2.605  16.437  0.4892  0.7584  0.6829
  613MPD2    C2 9081   3.613   2.500  16.371 -0.0943 -0.1508 -0.4698
  613MPD2    C3 9082   3.625   2.372  16.427  0.0866 -0.2095  0.4396
  613MPD2    C4 9083   3.685   2.355  16.547 -0.7155  0.2579  0.1579
  613MPD2    C5 9084   3.744   2.461  16.607  1.3245 -0.1336  0.4667
  613MPD2     H 9085   3.555   2.519  16.281  0.1126  2.6802 -0.0195
  613MPD2    H1 9086   3.698   2.254  16.583  0.5389 -0.3934 -2.1227
  613MPD2    H2 9087   3.780   2.669  16.608  0.9641 -0.9004 -0.2388
  613MPD2    H3 9088   3.784   2.447  16.706 -1.0077 -0.8123  1.3236
  613MPD2     N 9089   3.579   2.258  16.367  0.2996 -0.2148 -0.3626
  613MPD2    H5 9090   3.579   2.171  16.419  0.0480  1.1878  1.9904
  613MPD2    N1 9091   3.696   2.734  16.385  0.0243 -0.4930 -0.1809
  613MPD2    H7 9092   3.768   2.791  16.428 -1.4415 -0.2969  2.0274
  614TMC3    C1 9093   3.714   2.893  16.210 -0.1783  0.4172  0.0012
  614TMC3    C2 9094   3.825   2.831  16.170 -0.5949 -0.7356  0.1283
  614TMC3    C3 9095   3.846   2.810  16.036 -0.3132 -1.1448  0.4988
  614TMC3    C4 9096   3.632   2.952  16.118 -0.1005 -0.5180 -0.0134
  614TMC3    C5 9097   3.644   2.912  15.983 -0.2849 -0.2718 -0.4419
  614TMC3    C6 9098   3.753   2.850  15.944 -0.2642 -1.2083  0.1514
  614TMC3     C 9099   3.634   2.795  16.281  0.3899 -0.4082  0.0998
  614TMC3     O 9100   3.541   2.744  16.225 -0.6039 -0.6641  0.0490
  614TMC3     H 9101   3.888   2.774  16.237 -0.6097  1.5907  2.1242
  614TMC3    H1 9102   3.535   2.986  16.153 -0.4407 -2.5640  1.0334
  614TMC3    H2 9103   3.763   2.838  15.837  0.6227  0.0991  0.0837
  614TMC3    C7 9104   3.557   2.963  15.885 -0.3176 -0.3002  0.2381
  614TMC3    C8 9105   3.927   2.693  16.013 -0.1761 -0.2377  0.4308
  614TMC3    O1 9106   3.495   3.057  15.931  0.0328 -0.5349  0.2449
  614TMC3    O2 9107   3.963   2.630  16.109  0.3169 -0.1431  0.4702
  615MPD2     C 9108   3.233   3.886  15.719  0.7119 -0.7469 -0.0847
  615MPD2    C1 9109   3.194   3.952  15.603 -0.4671  0.1371  0.4311
  615MPD2    C2 9110   3.078   3.909  15.534 -1.0511  0.2132 -0.4561
  615MPD2    C3 9111   3.005   3.802  15.580  0.1318  0.6394 -0.1941
  615MPD2    C4 9112   3.050   3.732  15.689 -0.0709 -0.0625  0.3681
  615MPD2    C5 9113   3.166   3.769  15.753  0.2026 -0.1151  0.2174
  615MPD2     H 9114   3.050   3.972  15.450 -1.0771 -0.8586 -1.2469
  615MPD2    H1 9115   2.983   3.656  15.727 -1.7759  1.0922 -0.3188
  615MPD2    H2 9116   3.321   3.908  15.778  1.8686  1.3694 -2.5847
  615MPD2    H3 9117   3.201   3.707  15.835  0.2483 -3.3493 -2.2464
  615MPD2     N 9118   2.882   3.774  15.514  0.7084 -0.0457  0.0238
  615MPD2    H5 9119   2.855   3.841  15.443  2.2522  1.8781  1.2322
  615MPD2    N1 9120   3.262   4.063  15.541  0.3296  0.1626 -0.4431
  615MPD2    H7 9121   3.210   4.100  15.463 -0.3031  3.2254  1.4165
  616TMC3    C1 9122   3.414   4.238  15.504 -0.3386 -0.0809 -0.6243
  616TMC3    C2 9123   3.438   4.351  15.582  0.6965  0.0021 -0.2622
  616TMC3    C3 9124   3.411   4.468  15.511  0.0794  0.0131 -0.4670
  616TMC3    C4 9125   3.368   4.229  15.383 -0.3914 -0.2881  0.0668
  616TMC3    C5 9126   3.341   4.352  15.320  0.6739 -0.4688 -0.3392
  616TMC3    C6 9127   3.361   4.472  15.381 -0.0656  0.4715  0.5037
  616TMC3     C 9128   3.374   4.127  15.595  0.1843  0.3354  0.5187
  616TMC3     O 9129   3.422   4.117  15.706 -0.2289 -0.4262  0.3847
  616TMC3     H 9130   3.455   4.354  15.689  1.0139 -1.3619 -0.2750
  616TMC3    H1 9131   3.351   4.136  15.330  3.1610 -1.7255  1.4561
  616TMC3    H2 9132   3.344   4.566  15.330 -1.9067  0.1701  0.5432
  616TMC3    C7 9133   3.267   4.344  15.199  0.1255  0.2949 -0.1094
  616TMC3    C8 9134   3.498   4.580  15.535 -0.3143 -0.4112  0.6116
  616TMC3    O1 9135   3.281   4.245  15.133  0.0466 -0.7905 -0.5277
  616TMC3    O2 9136   3.476   4.685  15.484  0.0056  0.2355 -0.1779
  617MPD2     C 9137   1.747   2.077  13.707  0.0497  0.4663 -0.9111
  617MPD2    C1 9138   1.702   2.062  13.835  0.4076 -1.1224 -0.4893
  617MPD2    C2 9139   1.566   2.062  13.848  0.2059 -0.3079 -0.5152
  617MPD2    C3 9140   1.473   2.078  13.749  0.4556  0.4080 -0.0618
  617MPD2    C4 9141   1.522   2.087  13.622  0.7638 -0.3858 -0.2980
  617MPD2    C5 9142   1.662   2.090  13.600 -0.0345  0.1894 -0.1262
  617MPD2     H 9143   1.532   2.049  13.951  3.0394  1.7683  0.6917
  617MPD2    H1 9144   1.456   2.091  13.537  1.2246 -0.6313 -0.6670
  617MPD2    H2 9145   1.853   2.069  13.684  1.0175  1.9584  3.0762
  617MPD2    H3 9146   1.693   2.097  13.497 -3.0532 -1.4083 -1.1301
  617MPD2     N 9147   1.334   2.084  13.773  0.8442 -0.0188 -0.2272
  617MPD2    H5 9148   1.269   2.095  13.696  1.0342  0.3722 -0.3341
  617MPD2    N1 9149   1.794   2.051  13.946 -0.3967 -0.5094 -0.1754
  617MPD2    H7 9150   1.893   2.053  13.926 -0.4716  0.6577 -0.4294
  618TMC3    C1 9151   1.868   1.977  14.154 -0.6513  0.5101  0.7290
  618TMC3    C2 9152   1.886   1.843  14.139 -0.2149 -0.0294 -0.5172
  618TMC3    C3 9153   2.011   1.801  14.103 -0.5589 -0.3193  0.3370
  618TMC3    C4 9154   1.980   2.064  14.148 -0.3905 -0.1614  0.5077
  618TMC3    C5 9155   2.104   2.018  14.121 -0.4196  0.4529 -0.3204
  618TMC3    C6 9156   2.118   1.886  14.092 -0.0178  0.4932 -0.0533
  618TMC3     C 9157   1.759   2.023  14.077  0.5422  0.3928  0.1233
  618TMC3     O 9158   1.657   2.040  14.139  0.1701 -0.3955  0.1295
  618TMC3     H 9159   1.803   1.775  14.151 -1.6814  1.6241 -1.3621
  618TMC3    H1 9160   1.959   2.168  14.170 -0.6036  0.5508 -2.9832
  618TMC3    H2 9161   2.217   1.843  14.093  0.0955  0.7591  0.2068
  618TMC3    C7 9162   2.214   2.101  14.181 -0.5119  0.4406 -0.2674
  618TMC3    C8 9163   2.027   1.667  14.054 -0.2458  0.1041 -0.0910
  618TMC3    O1 9164   2.182   2.156  14.286 -0.1930  0.3806 -0.1210
  618TMC3    O2 9165   1.945   1.589  14.091 -0.6798  0.2544  0.4168
  619MPD2     C 9166   2.974   3.164  13.437 -0.0301 -0.6420  0.1102
  619MPD2    C1 9167   2.953   3.210  13.305  0.2338  0.0365  0.1618
  619MPD2    C2 9168   2.842   3.175  13.232  0.2814 -0.2573  0.3463
  619MPD2    C3 9169   2.745   3.091  13.286 -0.0803  0.4895 -0.4897
  619MPD2    C4 9170   2.758   3.063  13.415  0.1742 -0.4869  0.1947
  619MPD2    C5 9171   2.865   3.093  13.488 -0.2073 -0.1502 -0.5546
  619MPD2     H 9172   2.836   3.206  13.128 -1.9851 -0.2349  0.4900
  619MPD2    H1 9173   2.678   3.009  13.463 -0.2159  0.2424  0.3733
  619MPD2    H2 9174   3.051   3.189  13.510 -0.2990 -0.8606  0.4728
  619MPD2    H3 9175   2.866   3.063  13.593  2.2649 -0.6935 -0.7487
  619MPD2     N 9176   2.624   3.061  13.221 -0.2998  0.4355  0.1765
  619MPD2    H5 9177   2.537   3.043  13.271 -1.3947  1.5098 -1.3528
  619MPD2    N1 9178   3.047   3.304  13.248  0.0453  0.7835 -0.2731
  619MPD2    H7 9179   3.020   3.338  13.157  1.2791 -0.2040 -1.0050
  620TMC3    C1 9180   3.196   3.478  13.223 -0.2537 -0.1567  0.3532
  620TMC3    C2 9181   3.199   3.441  13.090 -0.5151  0.8144  0.1517
  620TMC3    C3 9182   3.170   3.538  12.998 -0.9197 -0.3125  0.1995
  620TMC3    C4 9183   3.167   3.605  13.264 -0.1614 -0.0530 -0.2490
  620TMC3    C5 9184   3.159   3.694  13.165  0.0552 -0.2522  0.5324
  620TMC3    C6 9185   3.164   3.673  13.029 -0.8410  0.3792  0.7480
  620TMC3     C 9186   3.141   3.380  13.317 -1.1602  0.2068  0.2917
  620TMC3     O 9187   3.165   3.400  13.433 -0.1418  0.1572  0.7580
  620TMC3     H 9188   3.210   3.339  13.056 -2.2888  0.5916  0.2396
  620TMC3    H1 9189   3.186   3.633  13.367  0.7057 -1.0543 -0.1387
  620TMC3    H2 9190   3.155   3.753  12.957 -0.6575  0.0030  0.3049
  620TMC3    C7 9191   3.116   3.825  13.200 -0.5322  0.5732  0.2314
  620TMC3    C8 9192   3.056   3.484  12.933 -0.6519  0.4193  0.5331
  620TMC3    O1 9193   3.108   3.909  13.110  0.1832 -0.7720 -0.1571
  620TMC3    O2 9194   2.995   3.389  12.980 -0.1900  0.5521  0.4967
  621MPD2     C 9195   3.890   3.050   9.429  0.0332 -0.9898  0.0931
  621MPD2    C1 9196   3.908   3.027   9.565  0.1348  0.5675 -0.7109
  621MPD2    C2 9197   3.998   3.107   9.638 -0.2261 -0.0646 -0.1069
  621MPD2    C3 9198   4.070   3.213   9.574  0.0703  0.0673  0.2217
  621MPD2    C4 9199   4.055   3.234   9.435  0.0117 -0.4425 -0.2727
  621MPD2    C5 9200   3.964   3.151   9.364 -1.0739  0.2298 -0.2335
  621MPD2     H 9201   4.020   3.105   9.743 -0.0264 -1.0515 -0.1720
  621MPD2    H1 9202   4.081   3.325   9.383  0.0771 -0.1400  0.2946
  621MPD2    H2 9203   3.817   2.997   9.369  1.5332 -0.4769 -2.1867
  621MPD2    H3 9204   3.951   3.169   9.258 -0.4922 -0.6834 -0.4619
  621MPD2     N 9205   4.147   3.298   9.657 -0.1793 -0.0719 -0.4179
  621MPD2    H5 9206   4.132   3.300   9.758  1.4805  0.5266 -0.1798
  621MPD2    N1 9207   3.817   2.935   9.624  0.0420 -0.2334  0.6645
  621MPD2    H7 9208   3.758   2.886   9.558  1.5337 -1.2310  0.0835
  622TMC3    C1 9209   3.698   2.818   9.781 -0.5316 -0.2147  0.0715
  622TMC3    C2 9210   3.627   2.825   9.901 -0.0516 -0.6735  0.3064
  622TMC3    C3 9211   3.536   2.730   9.935 -0.2266 -0.1085  0.2631
  622TMC3    C4 9212   3.696   2.702   9.706 -1.2719  0.0031 -0.2671
  622TMC3    C5 9213   3.593   2.613   9.741 -0.5133 -0.3667 -0.2597
  622TMC3    C6 9214   3.514   2.629   9.852 -0.2384  0.1766  0.0400
  622TMC3     C 9215   3.802   2.909   9.755 -0.1565 -1.1914 -0.1734
  622TMC3     O 9216   3.851   2.962   9.856  0.1635  0.9012 -0.7355
  622TMC3     H 9217   3.643   2.913   9.963 -1.6229 -0.0772 -0.1383
  622TMC3    H1 9218   3.751   2.696   9.613  0.5348  0.8338  0.7563
  622TMC3    H2 9219   3.455   2.541   9.875 -1.1879  1.3358  2.0226
  622TMC3    C7 9220   3.553   2.515   9.645 -0.5719 -0.6210  0.0101
  622TMC3    C8 9221   3.500   2.710  10.068 -0.1808 -0.3874  0.3670
  622TMC3    O1 9222   3.639   2.457   9.579  0.3086 -0.3719 -0.1066
  622TMC3    O2 9223   3.481   2.598  10.114 -0.0966 -0.2459  1.3481
  623MPD2     C 9224   1.955   4.057  15.797 -0.5969 -0.8849 -0.2931
  623MPD2    C1 9225   1.854   3.963  15.841 -0.3719  0.0019  0.0866
  623MPD2    C2 9226   1.868   3.893  15.958  0.1286  0.9147 -0.5530
  623MPD2    C3 9227   1.977   3.922  16.039 -0.6476 -0.3556 -0.3220
  623MPD2    C4 9228   2.073   4.012  15.998 -0.0264  0.2289 -0.3687
  623MPD2    C5 9229   2.063   4.070  15.870  0.0569  0.6769 -0.0840
  623MPD2     H 9230   1.783   3.837  15.994 -0.4382  2.2071  0.1103
  623MPD2    H1 9231   2.158   4.029  16.063  0.4353 -0.2948 -0.8385
  623MPD2    H2 9232   1.941   4.127  15.716  0.8435  1.1685  1.2335
  623MPD2    H3 9233   2.142   4.140  15.842 -0.1407  0.9411  0.0168
  623MPD2     N 9234   1.977   3.855  16.165 -0.2558  0.0426 -0.5517
  623MPD2    H5 9235   1.899   3.791  16.174 -0.5174  0.4523  0.1178
  623MPD2    N1 9236   1.726   3.973  15.777 -0.2396 -0.4280  0.1022
  623MPD2    H7 9237   1.703   4.059  15.728  1.9209 -0.8764 -1.7003
  624TMC3    C1 9238   2.099   3.701  16.587  0.0227 -0.5128  0.3331
  624TMC3    C2 9239   1.981   3.634  16.597 -0.9341 -0.2817 -0.1351
  624TMC3    C3 9240   1.881   3.669  16.504  0.5392 -0.6752  0.2744
  624TMC3    C4 9241   2.120   3.785  16.480  0.5692  0.1406  0.8950
  624TMC3    C5 9242   2.017   3.805  16.384 -0.1487  0.6109 -0.9864
  624TMC3    C6 9243   1.895   3.747  16.395  0.6702  0.7819  0.1357
  624TMC3     C 9244   2.219   3.644  16.634  0.8095  0.4185  0.1190
  624TMC3     O 9245   2.299   3.725  16.681 -0.3241 -0.1920 -0.0781
  624TMC3     H 9246   1.959   3.580  16.688  1.6976  1.3617  1.5034
  624TMC3    H1 9247   2.218   3.826  16.462  0.2932  1.0185  1.3891
  624TMC3    H2 9248   1.812   3.772  16.331 -2.0552 -0.2032  3.2419
  624TMC3    C7 9249   2.064   3.878  16.268  0.0839  0.8920 -0.3602
  624TMC3    C8 9250   1.749   3.639  16.536  0.9588 -0.1126 -0.5981
  624TMC3    O1 9251   2.170   3.946  16.273 -0.2722 -0.3104 -0.1623
  624TMC3    O2 9252   1.675   3.624  16.436  0.6294  0.0124  0.2833
  625MPD2     C 9253   2.592   0.680   0.662  0.4055 -0.1490  0.2579
  625MPD2    C1 9254   2.539   0.558   0.700  0.5032 -0.0129 -0.3096
  625MPD2    C2 9255   2.626   0.448   0.725 -0.0477  0.1274 -1.0767
  625MPD2    C3 9256   2.760   0.476   0.725 -0.6947 -0.0136  0.1552
  625MPD2    C4 9257   2.807   0.608   0.700  0.0050  0.1222 -0.6648
  625MPD2    C5 9258   2.719   0.706   0.665 -0.0762  0.4077 -0.2641
  625MPD2     H 9259   2.591   0.349   0.751 -2.8475  1.0406 -1.2858
  625MPD2    H1 9260   2.907   0.648   0.711  0.5874 -1.9627  1.4516
  625MPD2    H2 9261   2.526   0.767   0.657  1.0669  0.3303 -0.0138
  625MPD2    H3 9262   2.752   0.806   0.640 -0.1442  0.4407 -0.2250
  625MPD2     N 9263   2.846   0.376   0.767 -0.5097  0.0984  0.3345
  625MPD2    H5 9264   2.809   0.287   0.798  1.3674 -0.7389  0.1702
  625MPD2    N1 9265   2.401   0.535   0.698 -0.1120 -0.9785 -0.5799
  625MPD2    H7 9266   2.377   0.442   0.732  0.3223 -1.1076 -0.6231
  626TMC3    C1 9267   2.174   0.583   0.642  0.1174 -0.5753  0.8855
  626TMC3    C2 9268   2.091   0.638   0.543 -0.2749 -0.0959  0.1640
  626TMC3    C3 9269   1.954   0.606   0.551  0.0470  0.0365  0.2544
  626TMC3    C4 9270   2.131   0.482   0.729  0.2277  0.4953  0.5950
  626TMC3    C5 9271   1.997   0.450   0.729 -0.2713  0.1067 -0.4552
  626TMC3    C6 9272   1.911   0.526   0.655 -0.7410  0.5006  0.3676
  626TMC3     C 9273   2.311   0.620   0.643  0.3372 -0.2406  0.0165
  626TMC3     O 9274   2.327   0.725   0.587  0.5028  0.5121 -0.0875
  626TMC3     H 9275   2.128   0.706   0.468  0.5838 -1.2585 -0.4655
  626TMC3    H1 9276   2.195   0.451   0.811  0.1197  1.3118  0.9868
  626TMC3    H2 9277   1.807   0.532   0.684 -0.5318 -1.8253  1.5950
  626TMC3    C7 9278   1.929   0.385   0.843  0.0058 -0.5174  0.3297
  626TMC3    C8 9279   1.859   0.683   0.467  0.1722  0.0941  0.0666
  626TMC3    O1 9280   1.981   0.401   0.954  0.1185 -0.4532 -0.1537
  626TMC3    O2 9281   1.905   0.789   0.423  0.2389  0.7100 -0.3143
  627MPD2     C 9282   1.072   0.937  14.363  0.5060  0.1889 -0.2996
  627MPD2    C1 9283   1.058   0.948  14.498 -0.1440 -0.5891 -0.4670
  627MPD2    C2 9284   0.999   0.848  14.569 -0.3379 -0.0315 -0.0543
  627MPD2    C3 9285   0.941   0.736  14.508 -0.1174  0.6723 -0.6213
  627MPD2    C4 9286   0.947   0.734  14.367  0.1353  0.3505  0.3940
  627MPD2    C5 9287   1.016   0.834  14.296  0.3166  0.2420  1.1111
  627MPD2     H 9288   0.998   0.857  14.677  0.5760 -0.7779  0.0172
  627MPD2    H1 9289   0.895   0.654  14.317 -0.3228  1.1459 -0.4011
  627MPD2    H2 9290   1.126   1.013  14.308 -2.2481  0.8885 -2.0392
  627MPD2    H3 9291   1.015   0.820  14.189  0.2670 -0.6440  1.2255
  627MPD2     N 9292   0.875   0.648  14.593  0.7247  0.2376  0.7077
  627MPD2    H5 9293   0.889   0.661  14.693  1.6400  0.0815  0.5960
  627MPD2    N1 9294   1.126   1.051  14.569  1.3385  0.8518  0.3699
  627MPD2    H7 9295   1.154   1.038  14.666  1.0988  0.4847  0.3886
  628TMC3    C1 9296   1.244   1.250  14.600  0.2325 -0.4800  0.3425
  628TMC3    C2 9297   1.310   1.190  14.705 -0.5306  1.0368 -0.5841
  628TMC3    C3 9298   1.391   1.272  14.777  0.1663  0.2399  0.2658
  628TMC3    C4 9299   1.241   1.386  14.572 -0.0723  0.6011  0.7725
  628TMC3    C5 9300   1.324   1.462  14.645  0.3554 -0.2357  0.9827
  628TMC3    C6 9301   1.396   1.407  14.748 -0.0851 -0.6160  0.5275
  628TMC3     C 9302   1.164   1.168  14.511  0.1532 -0.2432 -0.2539
  628TMC3     O 9303   1.091   1.221  14.425 -0.0045 -0.4130  0.0663
  628TMC3     H 9304   1.319   1.083  14.718  0.9280  1.4410  1.7009
  628TMC3    H1 9305   1.177   1.415  14.490  0.6182 -0.1934 -0.0533
  628TMC3    H2 9306   1.469   1.469  14.800  0.1175 -1.1167  0.8402
  628TMC3    C7 9307   1.301   1.607  14.653  0.1743 -0.3685 -0.8332
  628TMC3    C8 9308   1.483   1.206  14.868 -0.1220 -0.2564 -0.6969
  628TMC3    O1 9309   1.376   1.663  14.734 -0.5128  0.0953  0.1894
  628TMC3    O2 9310   1.494   1.085  14.872  0.5975  0.1611  0.2652
  629MPD2     C 9311   3.943   0.037  15.711  0.0757  0.7275  0.2520
  629MPD2    C1 9312   3.935   4.626  15.734  0.1211 -0.2885 -0.2643
  629MPD2    C2 9313   3.821   4.556  15.693 -0.3338 -0.0030  0.1619
  629MPD2    C3 9314   3.719   4.625  15.634 -0.1768  0.3624  0.0845
  629MPD2    C4 9315   3.715   0.036  15.626 -0.0904  0.4319  0.5791
  629MPD2    C5 9316   3.828   0.100  15.664  0.4232 -0.1223  0.0432
  629MPD2     H 9317   3.815   4.448  15.699 -0.6913  0.0611  0.9938
  629MPD2    H1 9318   3.638   0.096  15.580 -0.8496 -1.2113 -0.2885
  629MPD2    H2 9319   4.032   0.093  15.737 -0.9583  0.3338  4.6259
  629MPD2    H3 9320   3.818   0.207  15.657  0.8427 -0.1134 -0.3997
  629MPD2     N 9321   3.609   4.540  15.596  0.3636  1.3886  1.1064
  629MPD2    H5 9322   3.630   4.442  15.616 -3.7382 -0.1755 -2.3780
  629MPD2    N1 9323   4.053   4.569  15.783  0.2066 -0.7335  0.2443
  629MPD2    H7 9324   4.122   4.643  15.788 -0.4361 -0.0547 -1.0009
  630TMC3    C1 9325   4.206   4.393  15.822  0.4114  0.1444  0.0820
  630TMC3    C2 9326   4.305   4.471  15.764  0.1644 -0.2106 -0.5689
  630TMC3    C3 9327   4.432   4.416  15.764 -0.4241  0.1954 -0.0950
  630TMC3    C4 9328   4.235   4.283  15.894 -0.0965 -0.0310  0.3854
  630TMC3    C5 9329   4.367   4.248  15.911 -0.3208  0.5199  0.0279
  630TMC3    C6 9330   4.464   4.311  15.844 -0.5102  0.0788 -0.6266
  630TMC3     C 9331   4.073   4.434  15.813  0.6426  0.2419 -0.1398
  630TMC3     O 9332   3.981   4.352  15.818  0.1644  0.2113  0.1501
  630TMC3     H 9333   4.273   4.556  15.705 -0.1336  0.0016 -0.1041
  630TMC3    H1 9334   4.162   4.241  15.962 -1.9921 -1.3073 -2.4493
  630TMC3    H2 9335   4.555   4.253  15.834  0.0655  1.0162 -0.7916
  630TMC3    C7 9336   4.402   4.214  16.044 -0.2042  0.4037  0.8014
  630TMC3    C8 9337   4.546   4.498  15.739  0.3031  0.2096  0.0986
  630TMC3    O1 9338   4.331   4.137  16.111  0.3689 -0.7234 -0.3027
  630TMC3    O2 9339   4.633   4.494  15.827  0.3813  0.2941  1.1238
  631MPD2     C 9340   1.852   3.938  15.462 -0.2676 -0.2514  0.5283
  631MPD2    C1 9341   1.941   4.017  15.392  0.2007  0.0570 -0.2997
  631MPD2    C2 9342   2.070   3.977  15.386  0.7299  1.2871  1.1870
  631MPD2    C3 9343   2.112   3.860  15.452  0.3568  0.6757 -0.2724
  631MPD2    C4 9344   2.024   3.780  15.524  0.0159 -0.4671 -0.2159
  631MPD2    C5 9345   1.895   3.827  15.523 -0.2914 -0.1375  0.5908
  631MPD2     H 9346   2.141   4.033  15.326 -0.1061  0.0065 -0.9979
  631MPD2    H1 9347   2.050   3.681  15.560  2.7673 -0.0943 -1.1730
  631MPD2    H2 9348   1.748   3.971  15.468 -0.1908  0.0009  0.4818
  631MPD2    H3 9349   1.823   3.762  15.571 -0.7938 -0.5326 -0.6817
  631MPD2     N 9350   2.249   3.822  15.434  0.1915  0.5064 -0.0107
  631MPD2    H5 9351   2.301   3.887  15.376 -0.1393  1.3082  0.5954
  631MPD2    N1 9352   1.897   4.133  15.326 -0.1892  0.3609  0.5473
  631MPD2    H7 9353   1.797   4.146  15.320 -0.1059  0.3253 -0.7876
  632TMC3    C1 9354   1.892   4.340  15.207 -0.1988  0.1011  0.2719
  632TMC3    C2 9355   1.811   4.402  15.295  0.5821  0.8207  0.4742
  632TMC3    C3 9356   1.752   4.515  15.246  0.6285 -0.1094 -0.1890
  632TMC3    C4 9357   1.924   4.380  15.083  0.5183  0.1915 -0.3093
  632TMC3    C5 9358   1.856   4.487  15.035  0.1994 -0.1567  0.3315
  632TMC3    C6 9359   1.775   4.558  15.121 -0.5481  0.1736  0.1867
  632TMC3     C 9360   1.967   4.234  15.260  0.3815 -0.2978 -0.0092
  632TMC3     O 9361   2.089   4.239  15.239  0.8431 -0.5343  0.0572
  632TMC3     H 9362   1.788   4.367  15.395 -0.3496  2.1742  0.7288
  632TMC3    H1 9363   1.991   4.324  15.018  1.3032  0.0284  0.6504
  632TMC3    H2 9364   1.744   4.651  15.076  0.0030  0.4619  0.3985
  632TMC3    C7 9365   1.909   4.558  14.924  0.2293  0.5418 -0.2086
  632TMC3    C8 9366   1.728   4.615  15.350 -0.0728  0.5169 -0.4575
  632TMC3    O1 9367   1.840   4.606  14.835 -0.2445  0.3860 -0.0045
  632TMC3    O2 9368   1.791   4.594  15.454  0.1774  0.5585  0.1011
  633MPD2     C 9369   1.987   2.520  17.501 -0.9297  0.7602  0.3837
  633MPD2    C1 9370   1.957   2.443  17.394 -0.2702 -0.3955  0.5448
  633MPD2    C2 9371   1.905   2.317  17.404  0.0995  0.0341 -0.0802
  633MPD2    C3 9372   1.863   2.279  17.529  0.4611  0.0481  0.2452
  633MPD2    C4 9373   1.894   2.354  17.638 -0.0726 -0.2188  0.4591
  633MPD2    C5 9374   1.960   2.472  17.620  0.3892  0.0069 -0.4933
  633MPD2     H 9375   1.889   2.262  17.312  0.1938  0.5487 -0.4051
  633MPD2    H1 9376   1.856   2.333   0.041  1.2144  0.7514  1.1605
  633MPD2    H2 9377   2.023   2.622  17.499  0.5290  0.1974 -1.6138
  633MPD2    H3 9378   1.989   2.530   0.010 -1.2200 -0.4659  0.3791
  633MPD2     N 9379   1.783   2.163  17.547  0.6617  0.3249  0.2459
  633MPD2    H5 9380   1.757   2.141  17.643 -1.3642  0.2175 -0.3208
  633MPD2    N1 9381   1.979   2.496  17.261 -0.1784  0.3526 -0.3274
  633MPD2    H7 9382   1.978   2.423  17.191  2.3671  1.0860 -1.1184
  634TMC3    C1 9383   2.034   2.638  17.086  0.2295  0.3136  0.4288
  634TMC3    C2 9384   2.090   2.523  17.027  0.2931 -0.1203  0.2683
  634TMC3    C3 9385   2.139   2.540  16.899  0.7355  0.7104  0.2184
  634TMC3    C4 9386   2.007   2.749  17.015  0.0428  0.0717 -0.0489
  634TMC3    C5 9387   2.036   2.749  16.882  0.1596 -0.5082  0.4342
  634TMC3    C6 9388   2.116   2.652  16.821  0.3839  0.5141  0.0364
  634TMC3     C 9389   2.004   2.624  17.227  0.7101 -1.0109 -0.3324
  634TMC3     O 9390   1.991   2.725  17.301 -1.3821  0.1662  0.1031
  634TMC3     H 9391   2.111   2.433  17.082 -0.1328 -1.2493 -1.4021
  634TMC3    H1 9392   1.956   2.828  17.069 -1.9469 -0.7694 -0.7148
  634TMC3    H2 9393   2.152   2.669  16.720 -0.2806  0.9786 -0.1188
  634TMC3    C7 9394   1.971   2.830  16.782  0.3042  0.1192  0.4453
  634TMC3    C8 9395   2.165   2.418  16.824  0.4084 -0.5473  0.2548
  634TMC3    O1 9396   1.980   2.802  16.664  0.6951 -0.2662 -0.3678
  634TMC3    O2 9397   2.126   2.311  16.873 -0.0915 -0.9988 -0.3032
  635TMC3    C1 9398   2.603   3.069  17.263  0.6987  0.0802 -0.3000
  635TMC3    C2 9399   2.732   3.020  17.244 -0.3269 -0.3434 -0.2007
  635TMC3    C3 9400   2.776   2.912  17.315 -0.6254  0.4420 -0.1085
  635TMC3    C4 9401   2.526   3.004  17.357  0.4883  0.0728 -0.4358
  635TMC3    C5 9402   2.578   2.897  17.429  0.2425 -0.1077  0.1083
  635TMC3    C6 9403   2.701   2.844  17.408 -0.0844  0.3699 -0.6542
  635TMC3     C 9404   2.583   3.210  17.257 -0.5877 -1.5295 -0.3234
  635TMC3     O 9405   2.673   3.282  17.290  0.1231  0.2108  0.3072
  635TMC3     H 9406   2.800   3.081  17.185 -1.7962  0.1154 -1.4330
  635TMC3    H1 9407   2.436   3.052  17.393  1.4058  0.1708  1.7270
  635TMC3    H2 9408   2.751   2.762  17.459  0.4569  1.3092  0.3146
  635TMC3    C7 9409   2.495   2.835  17.533 -0.2274  0.3974 -0.4439
  635TMC3    C8 9410   2.921   2.912  17.351 -0.0669  0.3915 -0.4929
  635TMC3    O1 9411   2.398   2.894  17.568 -0.1849 -0.6102 -0.1813
  635TMC3    O2 9412   2.959   2.887  17.462  0.0924 -0.0055 -0.2443
  636MPD2     C 9413   3.310   2.597  15.614  0.0932  0.0743  0.6337
  636MPD2    C1 9414   3.292   2.605  15.754 -0.6538  0.2361  0.1463
  636MPD2    C2 9415   3.339   2.502  15.835  0.0706 -0.0545  0.1840
  636MPD2    C3 9416   3.394   2.384  15.784  0.5316  0.0986 -0.2472
  636MPD2    C4 9417   3.416   2.378  15.645  0.4472  0.6780  0.1332
  636MPD2    C5 9418   3.374   2.484  15.564  0.1274  0.0992  0.6643
  636MPD2     H 9419   3.335   2.511  15.943 -0.0345 -2.2263  0.3769
  636MPD2    H1 9420   3.456   2.291  15.594  2.1334  1.6925 -0.2809
  636MPD2    H2 9421   3.284   2.683  15.554 -0.8819  0.6184  1.8368
  636MPD2    H3 9422   3.392   2.478  15.457  1.5160  0.2917  0.8820
  636MPD2     N 9423   3.430   2.283  15.877  0.7595  0.1733  0.3044
  636MPD2    H5 9424   3.420   2.299  15.977 -1.8462 -2.3093  0.4241
  636MPD2    N1 9425   3.244   2.725  15.812 -0.1014 -0.0740 -0.0896
  636MPD2    H7 9426   3.271   2.742  15.908 -1.1779 -0.2128  0.2363
  637TMC3    C1 9427   3.524   2.088  15.948 -0.4838  0.0160 -0.5104
  637TMC3    C2 9428   3.465   2.121  16.069 -0.3222  0.5283  0.0045
  637TMC3    C3 9429   3.542   2.124  16.180 -0.1635  0.1888 -0.1563
  637TMC3    C4 9430   3.661   2.061  15.940 -0.3794  0.4619  0.2359
  637TMC3    C5 9431   3.740   2.089  16.052 -0.1886 -0.3163 -0.5548
  637TMC3    C6 9432   3.680   2.105  16.172 -0.7458 -0.2160 -0.2601
  637TMC3     C 9433   3.471   2.160  15.836 -0.2171 -0.2524 -0.1479
  637TMC3     O 9434   3.519   2.125  15.727 -0.1714  0.5814 -0.0907
  637TMC3     H 9435   3.359   2.143  16.078 -0.7082 -1.4949  0.5512
  637TMC3    H1 9436   3.705   2.059  15.841  0.8192 -1.3346  0.8022
  637TMC3    H2 9437   3.741   2.121  16.260 -0.3675 -0.8394 -0.4152
  637TMC3    C7 9438   3.835   2.193  16.026 -0.2217 -0.2216  0.0780
  637TMC3    C8 9439   3.521   2.251  16.243  0.7594 -0.6708  0.6634
  637TMC3    O1 9440   3.866   2.266  16.120  0.0977  0.0375 -0.4751
  637TMC3    O2 9441   3.477   2.331  16.162  0.3082 -0.0715  0.1852
  638MPD2     C 9442   3.129   1.479  14.338  0.1997  0.1712 -0.3047
  638MPD2    C1 9443   3.122   1.350  14.287 -0.4400 -0.8369  0.2891
  638MPD2    C2 9444   3.106   1.246  14.378  0.1156 -0.4786  0.0966
  638MPD2    C3 9445   3.074   1.266  14.506 -0.0003 -0.2644  0.0203
  638MPD2    C4 9446   3.064   1.395  14.554 -0.3053  0.3694 -0.7238
  638MPD2    C5 9447   3.091   1.498  14.466  0.3103 -0.1673  0.3279
  638MPD2     H 9448   3.118   1.141  14.350 -0.7102 -0.8127  0.9762
  638MPD2    H1 9449   3.030   1.426  14.652  1.1432 -0.7260  0.1223
  638MPD2    H2 9450   3.157   1.560  14.273  0.2585 -0.7602 -1.4456
  638MPD2    H3 9451   3.090   1.596  14.511  2.2244 -0.0815  0.1760
  638MPD2     N 9452   3.054   1.148  14.581  0.5962  0.1474 -0.0977
  638MPD2    H5 9453   3.036   1.060  14.534  1.0691  0.2253 -0.4233
  638MPD2    N1 9454   3.140   1.323  14.144  0.2136 -0.1439  0.3868
  638MPD2    H7 9455   3.165   1.398  14.080 -1.9701 -0.7137 -1.1506
  639TMC3    C1 9456   3.020   1.015  14.765  0.3157 -0.4927 -0.4224
  639TMC3    C2 9457   2.936   0.932  14.694 -0.0423 -0.3907 -0.9547
  639TMC3    C3 9458   2.910   0.810  14.748  0.4023 -0.1714 -0.3814
  639TMC3    C4 9459   3.085   0.983  14.885  0.0222 -0.5281  1.0685
  639TMC3    C5 9460   3.066   0.852  14.920  0.0781  0.1332 -0.3403
  639TMC3    C6 9461   2.980   0.765  14.862 -0.0553 -0.3352 -0.4688
  639TMC3     C 9462   3.049   1.149  14.719  0.6725  0.0887  0.7741
  639TMC3     O 9463   3.110   1.227  14.795 -0.1510  0.6379  0.4860
  639TMC3     H 9464   2.891   0.966  14.601 -0.5086 -1.2982 -1.0591
  639TMC3    H1 9465   3.150   1.055  14.932  0.1622 -0.1640  0.3139
  639TMC3    H2 9466   2.989   0.658  14.876  1.6066 -0.1277  0.0481
  639TMC3    C7 9467   3.176   0.797  14.991  0.6630 -1.0788 -0.3026
  639TMC3    C8 9468   2.845   0.707  14.669  0.8818  1.2271  0.7459
  639TMC3    O1 9469   3.260   0.880  15.024  0.5838 -0.2375 -0.7568
  639TMC3    O2 9470   2.823   0.723  14.549 -0.4283  0.5395 -0.7472
  640MPD2     C 9471   3.139   3.662   9.110 -0.4565  0.6193  0.2358
  640MPD2    C1 9472   3.271   3.626   9.103 -0.0307  0.3709  0.0897
  640MPD2    C2 9473   3.354   3.691   9.190  0.8110  0.5992 -0.1609
  640MPD2    C3 9474   3.304   3.782   9.278 -0.2691 -0.2705  0.1664
  640MPD2    C4 9475   3.171   3.789   9.297  0.3257 -0.0160 -0.0716
  640MPD2    C5 9476   3.080   3.730   9.215 -0.1446  0.0124 -0.5157
  640MPD2     H 9477   3.459   3.668   9.170  0.5028 -2.3617  1.5502
  640MPD2    H1 9478   3.135   3.848   9.380  1.5104  0.7103 -0.0905
  640MPD2    H2 9479   3.067   3.613   9.045  1.2732 -2.1234  0.3719
  640MPD2    H3 9480   2.974   3.747   9.220  0.4064  2.8131  1.6895
  640MPD2     N 9481   3.384   3.864   9.366  0.4839 -0.0433 -0.2817
  640MPD2    H5 9482   3.320   3.919   9.421  0.1642  0.7455 -1.4403
  640MPD2    N1 9483   3.313   3.525   9.010 -0.4143 -0.0603  0.4364
  640MPD2    H7 9484   3.244   3.493   8.942 -1.6136 -0.1989  1.7387
  641TMC3    C1 9485   3.461   3.391   8.869 -0.9159  0.2445 -1.0634
  641TMC3    C2 9486   3.570   3.305   8.876 -0.2263 -0.1290  1.1493
  641TMC3    C3 9487   3.578   3.209   8.777 -1.1390  0.0934 -0.7102
  641TMC3    C4 9488   3.364   3.386   8.779 -0.8452 -0.1293  0.4043
  641TMC3    C5 9489   3.383   3.299   8.673  0.3529  0.2256  0.5986
  641TMC3    C6 9490   3.484   3.204   8.674  0.1126  0.2955 -0.2462
  641TMC3     C 9491   3.444   3.477   8.988 -0.2213  0.2135  0.5600
  641TMC3     O 9492   3.548   3.499   9.047 -0.4480  0.0796 -0.2393
  641TMC3     H 9493   3.635   3.305   8.963  2.0009 -0.3463 -0.5061
  641TMC3    H1 9494   3.300   3.474   8.769 -1.1409 -0.5142 -1.0449
  641TMC3    H2 9495   3.499   3.127   8.599 -0.2449 -0.1436  0.1335
  641TMC3    C7 9496   3.282   3.272   8.573  0.6928 -0.3213 -0.0286
  641TMC3    C8 9497   3.662   3.093   8.785 -0.6773  0.3184  0.0839
  641TMC3    O1 9498   3.325   3.197   8.485 -0.0387 -0.8861 -0.0320
  641TMC3    O2 9499   3.642   3.000   8.705  0.0282 -0.2135  0.8491
  642TMC3    C1 9500   0.091   1.027  12.243  0.1861  0.1704  0.1844
  642TMC3    C2 9501   0.051   1.000  12.368 -0.1631  0.3268  0.1967
  642TMC3    C3 9502   0.128   0.900  12.426 -0.4540  0.1358 -0.2124
  642TMC3    C4 9503   0.202   0.965  12.179  0.1548 -0.1242 -0.8404
  642TMC3    C5 9504   0.271   0.870  12.246 -0.0023 -0.6180 -0.1112
  642TMC3    C6 9505   0.231   0.826  12.366 -0.7544  0.2888 -0.5214
  642TMC3     C 9506   0.039   1.140  12.166  0.3642  0.9326  0.2780
  642TMC3     O 9507   0.103   1.187  12.075 -0.0985 -0.4518 -0.1740
  642TMC3     H 9508   4.702   1.056  12.425 -0.3988 -2.1806  2.3788
  642TMC3    H1 9509   0.234   0.998  12.081  2.4010 -1.7748 -0.6510
  642TMC3    H2 9510   0.279   0.746  12.422 -0.1425 -0.1723 -1.6838
  642TMC3    C7 9511   0.360   0.794  12.161  0.0884 -0.0086 -0.9284
  642TMC3    C8 9512   0.096   0.865  12.568 -0.6225  0.5731 -0.1787
  642TMC3    O1 9513   0.333   0.802  12.042  0.1986 -0.3804 -0.1983
  642TMC3    O2 9514   0.185   0.813  12.634 -0.7183  0.2835 -0.2451
  643TMC3    C1 9515   3.474   0.376   0.070 -0.6107  0.3986  0.5445
  643TMC3    C2 9516   3.367   0.354  17.682  0.2689  0.4889 -0.5549
  643TMC3    C3 9517   3.386   0.265  17.577 -0.3974  0.5107  0.4573
  643TMC3    C4 9518   3.596   0.319   0.044  0.2710  0.6494  0.3223
  643TMC3    C5 9519   3.606   0.224  17.637  0.3816 -0.6366 -0.5202
  643TMC3    C6 9520   3.500   0.198  17.562 -0.8680  0.2542 -0.3729
  643TMC3     C 9521   3.478   0.520   0.098  0.1457 -0.0297  0.0917
  643TMC3     O 9522   3.391   0.589   0.044  0.0713  0.0621  0.0944
  643TMC3     H 9523   3.271   0.403  17.689 -1.5731 -2.8528 -2.2438
  643TMC3    H1 9524   3.683   0.352   0.100  0.6642 -1.4758  1.0013
  643TMC3    H2 9525   3.510   0.148  17.466  2.0543 -1.8153  1.0172
  643TMC3    C7 9526   3.737   0.245  17.568  0.9769 -0.1082 -0.0953
  643TMC3    C8 9527   3.347   0.321  17.450 -0.3212 -0.3128 -0.3505
  643TMC3    O1 9528   3.792   0.352  17.588  0.0468 -0.2557 -0.4416
  643TMC3    O2 9529   3.336   0.248  17.355  0.1515 -0.1796 -0.5030
  644MPD2     C 9530   4.248   0.451   9.715 -0.3920  0.0663  0.2060
  644MPD2    C1 9531   4.300   0.395   9.603  0.0989  0.4688 -0.5404
  644MPD2    C2 9532   4.221   0.310   9.527 -0.4015  0.7825 -0.6408
  644MPD2    C3 9533   4.087   0.289   9.556 -0.4660  0.9560 -0.2108
  644MPD2    C4 9534   4.043   0.346   9.675  0.8999  0.7791  0.5025
  644MPD2    C5 9535   4.117   0.430   9.750  0.3101 -0.7725  0.0562
  644MPD2     H 9536   4.256   0.253   9.440  2.0393  0.8347  0.2985
  644MPD2    H1 9537   3.942   0.326   9.709  0.9046 -0.1454 -0.0004
  644MPD2    H2 9538   4.310   0.524   9.767 -0.4007 -0.9163  1.6133
  644MPD2    H3 9539   4.070   0.469   9.839 -0.6902  0.2458 -0.9237
  644MPD2     N 9540   4.011   0.206   9.472  0.2892 -0.5601  0.1112
  644MPD2    H5 9541   4.048   0.182   9.381  1.5639 -0.4934  0.6195
  644MPD2    N1 9542   4.431   0.440   9.562  0.7034 -0.1137  0.3462
  644MPD2    H7 9543   4.480   0.501   9.626  4.4108 -0.0072 -2.5510
  645TMC3    C1 9544   3.812   0.059   9.429 -0.1289  0.1313 -0.5248
  645TMC3    C2 9545   3.734   4.683   9.470 -0.3011 -0.0014  0.0470
  645TMC3    C3 9546   3.699   4.584   9.381 -0.1920  0.0581 -0.5034
  645TMC3    C4 9547   3.845   0.079   9.302 -0.1291  0.1064 -0.2231
  645TMC3    C5 9548   3.807   4.707   9.209  0.3696 -0.5671  0.3820
  645TMC3    C6 9549   3.725   4.594   9.245 -0.9590  0.2527  0.1209
  645TMC3     C 9550   3.895   0.135   9.531  0.0636 -0.6846  0.2067
  645TMC3     O 9551   3.858   0.135   9.645  0.2409 -0.3928  0.2545
  645TMC3     H 9552   3.724   4.669   9.577 -1.0737  1.1309  0.1294
  645TMC3    H1 9553   3.890   0.165   9.256  0.4558  0.9052  1.8369
  645TMC3    H2 9554   3.708   4.509   9.181  1.6596  0.4736 -0.8921
  645TMC3    C7 9555   3.851   4.715   9.073  0.4488  0.9249  0.0122
  645TMC3    C8 9556   3.586   4.511   9.430  0.2645 -0.2150  0.2437
  645TMC3    O1 9557   3.961   0.038   9.047 -0.2308 -0.0576 -0.4444
  645TMC3    O2 9558   3.543   4.525   9.547  0.3277 -0.0488  0.1447
  646MPD2     C 9559   3.224   4.718  14.085 -0.2150  0.0270  0.1879
  646MPD2    C1 9560   3.144   4.643  14.177 -0.3049  0.3060  0.2428
  646MPD2    C2 9561   3.009   4.667  14.182 -0.1764  0.0691  0.0073
  646MPD2    C3 9562   2.943   0.022  14.091  0.4357  0.2440 -0.4060
  646MPD2    C4 9563   3.023   0.105  14.015 -0.7509  0.1277  0.2999
  646MPD2    C5 9564   3.162   0.098  14.011 -0.2149  1.1988  0.6231
  646MPD2     H 9565   2.939   4.619  14.249  1.8649  1.1713  2.9365
  646MPD2    H1 9566   2.977   0.171  13.942  0.7907 -0.1656 -0.9462
  646MPD2    H2 9567   3.332   4.712  14.093 -0.1955 -0.5743 -0.4602
  646MPD2    H3 9568   3.223   0.170  13.957 -2.5195  2.6262 -0.0797
  646MPD2     N 9569   2.805   0.037  14.107  0.1946 -1.0903  0.0650
  646MPD2    H5 9570   2.756   4.716  14.184 -1.5868  0.6963 -0.0179
  646MPD2    N1 9571   3.212   4.550  14.265 -0.5161  0.7294  1.0242
  646MPD2    H7 9572   3.313   4.556  14.262 -0.6690  1.2869 -2.3495
  647TMC3    C1 9573   3.247   4.380  14.441  0.2530  0.2599  0.6070
  647TMC3    C2 9574   3.201   4.266  14.497  0.1921  0.2700  0.5780
  647TMC3    C3 9575   3.293   4.179  14.557  0.0690  0.4241  0.0504
  647TMC3    C4 9576   3.381   4.414  14.457  0.6630 -0.0061  0.2967
  647TMC3    C5 9577   3.476   4.330  14.514 -0.7425 -0.4145  0.5929
  647TMC3    C6 9578   3.428   4.207  14.564 -0.0894  0.6601  0.0456
  647TMC3     C 9579   3.150   4.463  14.359 -0.8730 -0.6920 -0.3447
  647TMC3     O 9580   3.032   4.422  14.355 -0.4090 -0.2395 -0.3135
  647TMC3     H 9581   3.095   4.247  14.484  0.2902  0.6342 -0.7122
  647TMC3    H1 9582   3.415   4.507  14.412  1.3378  0.2458  1.3428
  647TMC3    H2 9583   3.490   4.130  14.608 -0.4184 -0.7562 -1.9710
  647TMC3    C7 9584   3.620   4.355  14.522 -0.0502  0.1331 -0.3868
  647TMC3    C8 9585   3.234   4.086  14.649 -0.2886 -0.2404  0.0412
  647TMC3    O1 9586   3.682   4.285  14.598 -0.2452  0.0319  0.2012
  647TMC3    O2 9587   3.312   4.036  14.728  0.9177 -0.8593  0.7026
  648TMC3    C1 9588   2.563   2.192  16.061 -0.1274 -0.2298  0.3189
  648TMC3    C2 9589   2.615   2.075  16.011  0.0298  0.1533  0.0313
  648TMC3    C3 9590   2.601   2.064  15.875 -0.3752 -0.7732  0.0429
  648TMC3    C4 9591   2.506   2.299  15.987  0.0948  0.2572  0.1192
  648TMC3    C5 9592   2.491   2.274  15.853 -0.3239  0.6902  0.4429
  648TMC3    C6 9593   2.544   2.161  15.796  0.4840  0.5849  0.6637
  648TMC3     C 9594   2.554   2.200  16.209  0.3272 -0.1711 -0.3103
  648TMC3     O 9595   2.570   2.313  16.254  0.4568  0.1155  1.0741
  648TMC3     H 9596   2.667   1.996  16.065 -0.0123 -1.7575 -2.7517
  648TMC3    H1 9597   2.463   2.386  16.036  0.5926 -0.0026  1.0198
  648TMC3    H2 9598   2.544   2.146  15.689  1.4346 -2.0794  1.0314
  648TMC3    C7 9599   2.431   2.368  15.754  0.5073 -0.5219 -0.4580
  648TMC3    C8 9600   2.635   1.931  15.817  0.6384  0.7464  0.1048
  648TMC3    O1 9601   2.437   2.348  15.633  0.1199 -0.5694  0.2414
  648TMC3    O2 9602   2.645   1.840  15.898  0.5966 -0.0120 -0.6383
  649TMC3    C1 9603   1.876   3.498  12.443 -0.2699  0.4620  0.1892
  649TMC3    C2 9604   1.985   3.469  12.371  0.4148 -0.0399 -0.0707
  649TMC3    C3 9605   2.066   3.370  12.422  0.0367  0.0308 -0.6461
  649TMC3    C4 9606   1.839   3.421  12.549 -0.4172  0.5402 -0.2446
  649TMC3    C5 9607   1.918   3.326  12.591 -0.5953 -0.6722 -0.5170
  649TMC3    C6 9608   2.034   3.290  12.529 -1.0334  0.5072  0.5123
  649TMC3     C 9609   1.773   3.586  12.385  0.2110 -0.2794  0.0425
  649TMC3     O 9610   1.684   3.634  12.452 -0.5891 -0.0690 -0.5978
  649TMC3     H 9611   2.032   3.551  12.318 -0.5330  0.7803  0.3634
  649TMC3    H1 9612   1.744   3.441  12.598 -0.1940  2.2698 -0.5346
  649TMC3    H2 9613   2.110   3.229  12.575  0.1876  0.6919 -1.2559
  649TMC3    C7 9614   1.893   3.274  12.722  0.2329 -0.2756 -0.5331
  649TMC3    C8 9615   2.201   3.353  12.367  0.1530 -0.5957 -0.2060
  649TMC3    O1 9616   1.819   3.341  12.794 -0.3222 -0.7137 -0.1681
  649TMC3    O2 9617   2.268   3.269  12.427  0.2063 -0.5798  0.7944
  650TMC3    C1 9618   4.159   0.280  12.349  0.1021 -0.3942  0.2615
  650TMC3    C2 9619   4.074   0.387  12.371 -0.1287  0.1675 -0.3886
  650TMC3    C3 9620   4.064   0.482  12.282  0.6526 -0.4414 -0.3333
  650TMC3    C4 9621   4.251   0.284  12.255  0.2350  0.0257 -0.6640
  650TMC3    C5 9622   4.247   0.389  12.161  0.0572  0.2257  0.4802
  650TMC3    C6 9623   4.153   0.487  12.170 -0.6715  0.1250  0.0378
  650TMC3     C 9624   4.149   0.165  12.441 -0.3276 -0.0280 -0.6838
  650TMC3     O 9625   4.100   0.193  12.548 -0.1558  0.1591  0.5270
  650TMC3     H 9626   3.999   0.392  12.449  0.9082  3.0224  0.4019
  650TMC3    H1 9627   4.330   0.209  12.250 -1.0948 -1.4771  0.7343
  650TMC3    H2 9628   4.144   0.567  12.096  1.0796  1.1795  0.9698
  650TMC3    C7 9629   4.377   0.416  12.099 -0.5970  0.7922  0.2364
  650TMC3    C8 9630   4.007   0.609  12.318 -0.4653 -0.0389  0.2050
  650TMC3    O1 9631   4.460   0.327  12.093  0.4078  0.3731  0.0532
  650TMC3    O2 9632   4.053   0.706  12.255 -0.6610  0.1153 -0.4434
  651MPD2     C 9633   3.418   1.559  10.273  0.5096 -0.0296  1.0633
  651MPD2    C1 9634   3.408   1.677  10.335 -0.2005  0.0052 -0.8454
  651MPD2    C2 9635   3.499   1.779  10.302 -0.1699  0.2236  0.2554
  651MPD2    C3 9636   3.602   1.754  10.212  0.0623 -0.3334  0.3610
  651MPD2    C4 9637   3.613   1.632  10.158  0.3603 -0.9314 -0.3611
  651MPD2    C5 9638   3.526   1.534  10.181 -0.7051 -0.3054 -0.7298
  651MPD2     H 9639   3.500   1.879  10.346  4.2823  1.3934 -2.5272
  651MPD2    H1 9640   3.691   1.616  10.084 -0.3487 -2.5030 -0.7501
  651MPD2    H2 9641   3.362   1.472  10.304 -1.6047  0.2039 -2.0473
  651MPD2    H3 9642   3.543   1.431  10.151  1.6607  0.4660 -2.0266
  651MPD2     N 9643   3.696   1.854  10.187  0.6622 -0.2648  0.4192
  651MPD2    H5 9644   3.674   1.948  10.218 -0.2799  0.5028 -2.6075
  651MPD2    N1 9645   3.317   1.705  10.438  0.0471  0.8474 -1.2600
  651MPD2    H7 9646   3.316   1.801  10.473  0.1800  0.5743 -0.5076
  652TMC3    C1 9647   4.086   2.047  10.069  0.5552  0.6915  0.0921
  652TMC3    C2 9648   4.015   1.931  10.095  0.0318 -0.1353  0.1637
  652TMC3    C3 9649   3.885   1.950  10.121 -0.4544 -0.6502  0.8462
  652TMC3    C4 9650   4.022   2.166  10.036  0.6090  0.3448  0.0589
  652TMC3    C5 9651   3.887   2.174  10.049  0.5817  0.4217 -0.6780
  652TMC3    C6 9652   3.818   2.073  10.091 -0.2009 -0.6099 -0.2469
  652TMC3     C 9653   4.234   2.044  10.098  0.6907  0.7090  0.5397
  652TMC3     O 9654   4.281   1.955  10.162  0.6026  0.6527  0.0437
  652TMC3     H 9655   4.068   1.839  10.120  1.6672  0.5720 -0.6662
  652TMC3    H1 9656   4.075   2.260  10.024 -0.9569  1.1694 -0.3120
  652TMC3    H2 9657   3.715   2.097  10.118 -0.3600  0.4899 -1.8086
  652TMC3    C7 9658   3.837   2.305  10.083  0.3361 -0.2170  0.8640
  652TMC3    C8 9659   3.816   1.832  10.125 -0.5775  0.4373 -0.2693
  652TMC3    O1 9660   3.723   2.337  10.046  0.2155  0.4602  0.0666
  652TMC3    O2 9661   3.875   1.730  10.102  0.6356 -0.5879  0.4190
  653MPD2     C 9662   1.756   2.639   0.137 -0.6341 -0.0074 -0.5258
  653MPD2    C1 9663   1.755   2.695   0.015 -0.5479 -0.1785 -0.2053
  653MPD2    C2 9664   1.667   2.646  17.614  0.2699  0.0196 -0.0227
  653MPD2    C3 9665   1.584   2.541  17.636 -0.6129  0.6031 -0.1135
  653MPD2    C4 9666   1.567   2.497   0.073  0.2821  0.0264 -0.1457
  653MPD2    C5 9667   1.655   2.552   0.167 -0.3771 -0.1561  0.1326
  653MPD2     H 9668   1.682   2.688  17.515  0.5927  0.9817  0.4378
  653MPD2    H1 9669   1.499   2.416   0.097  0.3075 -0.3974 -1.5232
  653MPD2    H2 9670   1.812   2.675   0.222 -1.7334  2.6769 -0.9186
  653MPD2    H3 9671   1.668   2.511   0.267  1.3267  0.9254  0.3480
  653MPD2     N 9672   1.521   2.481  17.529  0.3416 -0.5473  0.3418
  653MPD2    H5 9673   1.534   2.525  17.439  0.6528  0.2533  0.7722
  653MPD2    N1 9674   1.853   2.795  17.676  0.3283  0.2370  0.7351
  653MPD2    H7 9675   1.841   2.847  17.590 -0.6447 -0.3922  0.4939
  654TMC3    C1 9676   1.400   2.338  17.402  0.9039 -0.0855  0.4560
  654TMC3    C2 9677   1.311   2.437  17.364 -0.5241  0.4859  0.3241
  654TMC3    C3 9678   1.226   2.405  17.262  0.3432  0.2328  0.6770
  654TMC3    C4 9679   1.385   2.208  17.366  0.4169 -0.7068  0.4961
  654TMC3    C5 9680   1.293   2.185  17.260  0.6459  0.2480  0.2196
  654TMC3    C6 9681   1.224   2.282  17.205 -0.3838 -0.1880  0.0848
  654TMC3     C 9682   1.466   2.360  17.531  0.3643 -0.1520  0.4573
  654TMC3     O 9683   1.465   2.266  17.609 -0.1958  0.3715 -0.4056
  654TMC3     H 9684   1.316   2.537  17.404  2.0398 -0.3496  2.1464
  654TMC3    H1 9685   1.444   2.130  17.414 -0.7096 -1.2383  1.0120
  654TMC3    H2 9686   1.145   2.248  17.139  1.1071 -1.2515 -1.1529
  654TMC3    C7 9687   1.261   2.055  17.225  0.1853 -0.4205  0.2719
  654TMC3    C8 9688   1.116   2.495  17.230  0.4093  0.6169  0.3367
  654TMC3    O1 9689   1.245   2.027  17.104  0.0126 -0.4652 -0.3044
  654TMC3    O2 9690   1.049   2.467  17.136  0.6136  0.1812 -0.1595
  655MPD2     C 9691   3.052   2.312  15.684  0.2626  0.5917  0.0835
  655MPD2    C1 9692   2.967   2.389  15.606  0.5288 -0.4825 -0.0649
  655MPD2    C2 9693   2.973   2.379  15.471 -0.4732 -0.3738 -0.5105
  655MPD2    C3 9694   3.066   2.292  15.412 -0.1202  0.1048 -0.3223
  655MPD2    C4 9695   3.143   2.204  15.493 -1.0898 -0.0355  0.0238
  655MPD2    C5 9696   3.125   2.208  15.627 -0.2665 -0.2932 -0.3142
  655MPD2     H 9697   2.909   2.434  15.403 -2.9780  0.5704  2.6561
  655MPD2    H1 9698   3.224   2.145  15.452  0.4343  0.9976  1.5456
  655MPD2    H2 9699   3.051   2.321  15.792 -0.1089 -0.7223  0.1887
  655MPD2    H3 9700   3.192   2.151  15.690 -1.4781 -1.3084  0.0632
  655MPD2     N 9701   3.084   2.295  15.268 -0.1833 -0.4237 -0.2639
  655MPD2    H5 9702   3.141   2.219  15.231  0.9065  0.4355 -0.3223
  655MPD2    N1 9703   2.873   2.479  15.659 -0.2190 -0.8974  0.0010
  655MPD2    H7 9704   2.813   2.533  15.596  0.2244 -0.9191 -0.4422
  656TMC3    C1 9705   2.766   2.622  15.804 -0.2743  0.0756  0.6430
  656TMC3    C2 9706   2.689   2.636  15.913  0.1847  0.5308 -0.2858
  656TMC3    C3 9707   2.605   2.745  15.929  0.4598  0.0711 -0.0697
  656TMC3    C4 9708   2.763   2.711  15.701 -0.1735 -0.2351 -0.4945
  656TMC3    C5 9709   2.660   2.800  15.704  0.1885 -0.5213 -0.5802
  656TMC3    C6 9710   2.587   2.824  15.821 -0.8442  0.6623 -0.0797
  656TMC3     C 9711   2.848   2.510  15.790  0.6412  0.4291 -0.0605
  656TMC3     O 9712   2.892   2.454  15.894  0.3470  0.2636  0.4715
  656TMC3     H 9713   2.693   2.557  15.988 -1.1169  0.2018 -0.5697
  656TMC3    H1 9714   2.816   2.702  15.607  0.0293  0.7201 -0.4676
  656TMC3    H2 9715   2.513   2.902  15.835 -0.9984  0.2806  1.3166
  656TMC3    C7 9716   2.615   2.859  15.574  0.0908 -0.2674 -0.5126
  656TMC3    C8 9717   2.499   2.740  16.027 -0.7989  0.9868  0.2251
  656TMC3    O1 9718   2.688   2.875  15.478 -0.2335  0.5442 -0.4723
  656TMC3    O2 9719   2.476   2.620  16.064 -0.0805  0.0657  0.6230
  657TMC3    C1 9720   2.097   1.448  15.278  0.0814 -0.3688  0.3722
  657TMC3    C2 9721   2.084   1.398  15.407  0.3664 -0.4814  0.0444
  657TMC3    C3 9722   2.070   1.488  15.509 -0.0172  0.1428 -0.2021
  657TMC3    C4 9723   2.089   1.581  15.259  0.4350 -0.4037  0.5047
  657TMC3    C5 9724   2.046   1.662  15.358  0.1614 -0.0849 -0.2208
  657TMC3    C6 9725   2.047   1.621  15.488  0.4934 -0.7406 -0.2227
  657TMC3     C 9726   2.104   1.356  15.165  0.8078 -0.0951 -0.6827
  657TMC3     O 9727   2.059   1.396  15.060  0.0379  0.1425  0.6021
  657TMC3     H 9728   2.092   1.292  15.425 -2.6208 -0.7471 -0.2216
  657TMC3    H1 9729   2.082   1.614  15.156  1.0103  0.3986  0.7287
  657TMC3    H2 9730   2.021   1.681  15.575  2.3242 -0.1561 -0.0867
  657TMC3    C7 9731   2.007   1.790  15.314  0.0426  0.0338  0.5974
  657TMC3    C8 9732   2.111   1.445  15.639 -0.4897  0.6783  0.5883
  657TMC3    O1 9733   2.032   1.823  15.200 -0.4388 -0.0744 -0.1617
  657TMC3    O2 9734   2.111   1.323  15.654  0.1900  0.6793  0.6149
  658MPD2     C 9735   3.285   2.384  14.416  0.3099 -0.4345 -0.3093
  658MPD2    C1 9736   3.240   2.483  14.491  0.0023  0.2624 -0.3541
  658MPD2    C2 9737   3.246   2.610  14.434  0.2613  0.7290 -0.6261
  658MPD2    C3 9738   3.304   2.632  14.307 -0.7107  0.0463 -0.5059
  658MPD2    C4 9739   3.347   2.524  14.234 -0.1893  0.3474  0.2292
  658MPD2    C5 9740   3.336   2.400  14.290  0.0500  0.0888  0.0398
  658MPD2     H 9741   3.211   2.697  14.489 -1.1697  0.8891 -1.8003
  658MPD2    H1 9742   3.378   2.519  14.130  0.4723  0.2252  0.4330
  658MPD2    H2 9743   3.269   2.284  14.456 -1.2925  0.1767  0.6036
  658MPD2    H3 9744   3.377   2.319  14.231  0.0945  0.5527 -0.5784
  658MPD2     N 9745   3.287   2.766  14.256  0.4120  0.1582  0.0417
  658MPD2    H5 9746   3.228   2.827  14.311  2.8476 -0.0790  2.8795
  658MPD2    N1 9747   3.190   2.445  14.619  0.7800 -0.8927 -0.6197
  658MPD2    H7 9748   3.181   2.345  14.635  0.7488 -1.0393 -1.5461
  659TMC3    C1 9749   3.089   2.424  14.825 -0.9204  0.4232 -0.8638
  659TMC3    C2 9750   3.099   2.463  14.957 -0.0803 -0.1947  0.5702
  659TMC3    C3 9751   3.065   2.362  15.048  0.1515 -0.1065  0.5533
  659TMC3    C4 9752   3.040   2.301  14.791 -0.2957  0.0467  0.4893
  659TMC3    C5 9753   3.012   2.205  14.888 -0.8460 -0.4441  0.6617
  659TMC3    C6 9754   3.033   2.235  15.022 -0.6822 -0.4106  0.5165
  659TMC3     C 9755   3.142   2.518  14.720  0.4871  0.8194 -0.2206
  659TMC3     O 9756   3.181   2.632  14.746 -0.3150 -0.1190 -0.4009
  659TMC3     H 9757   3.128   2.566  14.972 -2.7181  0.5935  0.2714
  659TMC3    H1 9758   3.020   2.284  14.686 -1.6253  0.8281  0.6172
  659TMC3    H2 9759   2.980   2.172  15.093 -0.0049 -0.7919  0.6921
  659TMC3    C7 9760   2.924   2.095  14.861 -0.3845 -0.4305  0.4891
  659TMC3    C8 9761   3.054   2.403  15.184  0.0490  0.6013  0.0196
  659TMC3    O1 9762   2.928   2.007  14.948 -0.5563 -0.8187 -0.3142
  659TMC3    O2 9763   3.019   2.518  15.205  0.0340 -0.2820 -0.2597
  660MPD2     C 9764   1.112   0.927  12.851  0.0338 -0.5050 -0.4790
  660MPD2    C1 9765   0.992   0.979  12.807  0.2050  0.0656  0.2732
  660MPD2    C2 9766   0.876   0.900  12.827  0.1162  0.1337 -0.5274
  660MPD2    C3 9767   0.875   0.778  12.886  0.8219 -0.2279  0.3776
  660MPD2    C4 9768   0.998   0.726  12.927 -0.5788  0.1544 -1.2748
  660MPD2    C5 9769   1.110   0.810  12.909 -0.3985  0.4369  0.1068
  660MPD2     H 9770   0.780   0.936  12.790  0.4489 -0.0817 -1.5859
  660MPD2    H1 9771   0.995   0.628  12.974 -0.0410  0.2868 -0.9672
  660MPD2    H2 9772   1.209   0.972  12.831  0.0711 -0.6383 -0.6004
  660MPD2    H3 9773   1.209   0.787  12.948 -0.2034 -0.6870 -1.0201
  660MPD2     N 9774   0.770   0.688  12.908  0.2135 -0.0882  0.1065
  660MPD2    H5 9775   0.797   0.595  12.938  0.4218  0.4322  1.5485
  660MPD2    N1 9776   0.986   1.099  12.738 -0.2118  0.2650  0.5705
  660MPD2    H7 9777   1.078   1.141  12.734 -0.2427  0.2929  0.1772
  661TMC3    C1 9778   0.897   1.299  12.641  0.1233 -0.3861 -0.4765
  661TMC3    C2 9779   1.025   1.341  12.613  0.0429 -0.0497 -0.9174
  661TMC3    C3 9780   1.032   1.472  12.556  0.7982  0.0072  0.1110
  661TMC3    C4 9781   0.781   1.370  12.608  0.7787 -0.2480  0.0024
  661TMC3    C5 9782   0.799   1.495  12.556 -0.0662  0.2394  0.1667
  661TMC3    C6 9783   0.923   1.550  12.538  0.7955 -0.0024  0.0984
  661TMC3     C 9784   0.872   1.168  12.687  0.2024  0.7786  0.4384
  661TMC3     O 9785   0.755   1.128  12.671  0.1604  0.1673 -0.4727
  661TMC3     H 9786   1.114   1.281  12.622  0.9650  1.2886 -1.0897
  661TMC3    H1 9787   0.686   1.324  12.632  1.7474 -1.4950  1.4353
  661TMC3    H2 9788   0.932   1.649  12.495  0.9265  0.0561  0.2596
  661TMC3    C7 9789   0.702   1.557  12.466  0.0402 -0.7696  0.6860
  661TMC3    C8 9790   1.137   1.498  12.465  0.0078  0.4260  0.1161
  661TMC3    O1 9791   0.749   1.596  12.362  0.2049 -0.3581  0.0087
  661TMC3    O2 9792   1.108   1.536  12.354 -0.5109  0.1006  0.0173
  662MPD2     C 9793   1.522   0.916  17.220  0.2181  0.1570 -0.2468
  662MPD2    C1 9794   1.407   0.841  17.231  0.1204 -0.7171  0.2417
  662MPD2    C2 9795   1.290   0.908  17.264 -0.0709  0.3069 -0.4673
  662MPD2    C3 9796   1.285   1.046  17.276 -0.3459  0.4816 -0.0284
  662MPD2    C4 9797   1.404   1.114  17.262  0.4166 -0.0425 -0.0817
  662MPD2    C5 9798   1.517   1.049  17.238 -0.1278 -0.5590  0.1124
  662MPD2     H 9799   1.199   0.850  17.278  0.5799 -1.1714 -2.2860
  662MPD2    H1 9800   1.418   1.221  17.275  0.1908 -0.1176  0.8058
  662MPD2    H2 9801   1.619   0.870  17.203  0.0979 -0.8373  1.7782
  662MPD2    H3 9802   1.607   1.107  17.224  0.1323 -0.5927  1.6710
  662MPD2     N 9803   1.170   1.122  17.302 -0.3051 -0.2575  0.3702
  662MPD2    H5 9804   1.179   1.223  17.314  0.3275 -0.2435 -0.2616
  662MPD2    N1 9805   1.404   0.699  17.227 -0.0421  0.4254 -0.9952
  662MPD2    H7 9806   1.312   0.657  17.237 -0.0988  1.0801  1.3281
  663TMC3    C1 9807   1.441   0.479  17.179  0.0180 -0.0603  0.2483
  663TMC3    C2 9808   1.332   0.459  17.259  1.5881  0.1187 -0.2381
  663TMC3    C3 9809   1.217   0.405  17.209  0.2500 -0.1164  0.1437
  663TMC3    C4 9810   1.433   0.439  17.048  0.1465 -0.3603  0.7519
  663TMC3    C5 9811   1.322   0.388  16.996 -0.3449  0.1022 -0.4872
  663TMC3    C6 9812   1.214   0.362  17.077 -0.2370  0.4886 -0.5194
  663TMC3     C 9813   1.501   0.609  17.199  0.2565  0.2022  0.0834
  663TMC3     O 9814   1.602   0.632  17.132  0.5268  0.0045 -0.2297
  663TMC3     H 9815   1.317   0.522  17.346  1.4287  1.1657 -1.0131
  663TMC3    H1 9816   1.513   0.475  16.984 -2.5087 -0.4644 -2.6277
  663TMC3    H2 9817   1.120   0.358  17.023 -0.1187 -0.4926 -0.6509
  663TMC3    C7 9818   1.337   0.289  16.887  0.1478  0.0141 -0.2127
  663TMC3    C8 9819   1.106   0.494  17.238  0.4835  0.4662  0.3741
  663TMC3    O1 9820   1.422   0.300  16.807  0.4009  0.0365 -0.1569
  663TMC3    O2 9821   1.117   0.604  17.184  0.3289 -0.4247  0.1652
  664MPD2     C 9822   3.923   3.643  16.892  0.5134  0.0167 -0.3906
  664MPD2    C1 9823   3.916   3.774  16.930  0.6314  0.3555  0.5291
  664MPD2    C2 9824   3.848   3.801  17.051  0.6764 -0.1370  0.0166
  664MPD2    C3 9825   3.786   3.703  17.126 -0.1395 -0.2186 -0.2819
  664MPD2    C4 9826   3.798   3.571  17.078  0.8834 -0.7145  0.1557
  664MPD2    C5 9827   3.862   3.542  16.959 -0.6484  0.7798 -0.3103
  664MPD2     H 9828   3.845   3.905  17.083  2.7190 -0.4179  1.0965
  664MPD2    H1 9829   3.761   3.486  17.133 -1.3164  1.2028  1.6494
  664MPD2    H2 9830   3.989   3.614  16.811  0.8362 -0.3238 -0.0051
  664MPD2    H3 9831   3.877   3.439  16.926  1.4834  1.2518 -0.7971
  664MPD2     N 9832   3.724   3.731  17.256  0.7216  0.1052  0.1866
  664MPD2    H5 9833   3.741   3.824  17.292 -0.4314 -0.5867  2.5093
  664MPD2    N1 9834   4.002   3.881  16.879  0.0680 -0.0860  0.7655
  664MPD2    H7 9835   3.995   3.969  16.929 -0.3936 -1.1539  2.5894
  665TMC3    C1 9836   3.644   3.691  17.479 -0.0692 -0.4104 -0.1794
  665TMC3    C2 9837   3.628   3.603  17.581  0.4463  0.0018  0.0744
  665TMC3    C3 9838   3.625   3.641   0.014 -0.2808  0.8124  0.2388
  665TMC3    C4 9839   3.671   3.823  17.508 -0.2191 -0.3558 -0.0462
  665TMC3    C5 9840   3.670   3.862  17.643  0.2369 -0.3906 -0.9997
  665TMC3    C6 9841   3.645   3.772   0.050 -0.3621  0.1071 -0.1410
  665TMC3     C 9842   3.662   3.641  17.343 -0.1176  0.1860 -0.3226
  665TMC3     O 9843   3.649   3.519  17.330 -0.1271  0.3294  0.2834
  665TMC3     H 9844   3.619   3.500  17.549 -1.0959 -0.4157  1.8665
  665TMC3    H1 9845   3.673   3.905  17.436  2.9704  0.8084  1.3481
  665TMC3    H2 9846   3.637   3.807   0.152 -0.7220 -4.0804  1.2557
  665TMC3    C7 9847   3.666   4.003  17.663 -0.1218 -0.1321 -0.0992
  665TMC3    C8 9848   3.609   3.540   0.119 -0.7691  0.6193 -0.6716
  665TMC3    O1 9849   3.638   4.064  17.558 -0.0065  0.0175 -0.0211
  665TMC3    O2 9850   3.592   3.582   0.234  0.0929  0.1433  0.1452
  666TMC3    C1 9851   4.306   3.455   9.715 -0.0500 -1.0950  0.8132
  666TMC3    C2 9852   4.354   3.380   9.819  0.2500 -0.0836 -0.7451
  666TMC3    C3 9853   4.372   3.428   9.942 -0.1826  0.5707  0.2615
  666TMC3    C4 9854   4.259   3.581   9.758 -0.0922 -0.6207  0.1499
  666TMC3    C5 9855   4.270   3.626   9.881 -0.3910  0.1357 -0.4820
  666TMC3    C6 9856   4.322   3.550   9.978 -0.3749  0.5448 -0.0088
  666TMC3     C 9857   4.236   3.398   9.607  0.3780 -0.6673  0.0924
  666TMC3     O 9858   4.261   3.446   9.496 -0.3382  0.5702  0.3688
  666TMC3     H 9859   4.393   3.280   9.800  1.3870  0.1673  0.2378
  666TMC3    H1 9860   4.193   3.643   9.698  1.4771  1.3017  0.4206
  666TMC3    H2 9861   4.305   3.578  10.082  0.0149  0.2832  0.1232
  666TMC3    C7 9862   4.191   3.743   9.925  0.3151  0.3480 -0.3313
  666TMC3    C8 9863   4.429   3.347  10.050 -0.4217 -0.0211  0.2966
  666TMC3    O1 9864   4.140   3.740  10.035 -0.6983 -0.3082 -0.5544
  666TMC3    O2 9865   4.407   3.228  10.056  0.7793 -0.6317  0.3609
  667MPD2     C 9866   0.117   3.474  14.727 -0.2671 -0.2055 -0.9723
  667MPD2    C1 9867   0.018   3.566  14.696  0.4371 -0.0047 -0.0298
  667MPD2    C2 9868   4.657   3.538  14.586  0.0215 -0.1071  0.0604
  667MPD2    C3 9869   4.685   3.431  14.506 -0.4877 -0.4491  0.1909
  667MPD2    C4 9870   0.062   3.342  14.535 -0.5969 -0.9196 -0.1149
  667MPD2    C5 9871   0.143   3.361  14.650 -0.6183  0.1990 -0.0086
  667MPD2     H 9872   4.575   3.609  14.574  1.5343  1.6504  0.1630
  667MPD2    H1 9873   0.075   3.250  14.478 -1.2434 -0.7863 -0.4705
  667MPD2    H2 9874   0.180   3.501  14.811  2.5763 -1.7587 -2.6034
  667MPD2    H3 9875   0.220   3.290  14.680  0.6927  1.3056 -0.7382
  667MPD2     N 9876   4.610   3.411  14.385  0.7593 -0.1091 -0.2865
  667MPD2    H5 9877   4.648   3.336  14.329  1.2539 -0.6112  0.7250
  667MPD2    N1 9878   0.010   3.693  14.766 -0.7588 -0.1845 -0.1009
  667MPD2    H7 9879   4.651   3.746  14.739 -0.4996  0.8525  1.0953
  668TMC3    C1 9880   0.071   3.877  14.912  0.2127  0.2770  0.5668
  668TMC3    C2 9881   0.165   3.961  14.952 -1.1613  0.4516  0.2521
  668TMC3    C3 9882   0.133   4.063  15.036  0.1006 -0.3818  0.1094
  668TMC3    C4 9883   4.676   3.884  14.984 -0.3680  0.0449  0.4575
  668TMC3    C5 9884   4.650   3.971  15.087 -0.4586  0.0089 -0.2166
  668TMC3    C6 9885   0.018   4.070  15.106 -0.1308  0.7679  0.5201
  668TMC3     C 9886   0.110   3.752  14.842 -0.0721  0.3343 -0.0147
  668TMC3     O 9887   0.225   3.719  14.848  0.2662  0.0273 -0.2497
  668TMC3     H 9888   0.270   3.949  14.927 -1.3287  1.6243 -1.0049
  668TMC3    H1 9889   4.607   3.806  14.957 -1.2254 -0.3942  3.9026
  668TMC3    H2 9890   0.000   4.147  15.181  2.3203  1.5609  0.2928
  668TMC3    C7 9891   4.514   3.996  15.124 -0.8859  0.4166 -0.0720
  668TMC3    C8 9892   0.232   4.172  15.050 -0.4674 -0.4658  0.0884
  668TMC3    O1 9893   4.460   3.897  15.164  0.1220 -0.3248 -0.5915
  668TMC3    O2 9894   0.204   4.245  15.146  0.2187 -0.8404  0.3673
  669TMC3    C1 9895   2.730   3.696  14.385 -0.3957  0.6386  0.1678
  669TMC3    C2 9896   2.627   3.762  14.320  0.3775 -0.1916  0.1466
  669TMC3    C3 9897   2.657   3.869  14.240 -0.0666 -1.1074 -0.1502
  669TMC3    C4 9898   2.864   3.735  14.370  0.5786 -0.6045 -0.0688
  669TMC3    C5 9899   2.883   3.848  14.298 -0.4637  0.3488 -0.5062
  669TMC3    C6 9900   2.786   3.918  14.231 -0.3045 -0.3009  0.2632
  669TMC3     C 9901   2.707   3.584  14.476  0.2502  0.6800  0.3477
  669TMC3     O 9902   2.589   3.561  14.508  0.3412  0.0210  0.2034
  669TMC3     H 9903   2.527   3.719  14.323  0.1160  0.3629 -0.5875
  669TMC3    H1 9904   2.947   3.678  14.410  0.2523 -0.3238  1.0034
  669TMC3    H2 9905   2.808   4.002  14.166  0.8758 -0.0835  0.9514
  669TMC3    C7 9906   3.020   3.896  14.279  0.1648  0.0614 -0.6424
  669TMC3    C8 9907   2.567   3.875  14.125  0.1325 -0.1712 -0.0812
  669TMC3    O1 9908   3.040   3.964  14.181  0.1228  0.2282 -0.0489
  669TMC3    O2 9909   2.457   3.821  14.133 -0.2447 -0.5739  0.5469
  670MPD2     C 9910   1.504   1.776  13.417  0.7844  0.4477  0.1275
  670MPD2    C1 9911   1.591   1.764  13.524  0.2755 -0.3412 -0.1653
  670MPD2    C2 9912   1.542   1.763  13.653  0.1036 -0.5066  0.6079
  670MPD2    C3 9913   1.406   1.755  13.679 -0.4519  0.4883  0.4251
  670MPD2    C4 9914   1.324   1.765  13.564 -0.2176 -0.5790 -0.3632
  670MPD2    C5 9915   1.372   1.788  13.434 -0.4580  0.3911 -0.6508
  670MPD2     H 9916   1.611   1.759  13.736  3.1675 -1.7459 -1.9893
  670MPD2    H1 9917   1.221   1.797  13.571 -1.1682 -3.2545 -1.8277
  670MPD2    H2 9918   1.538   1.772  13.314 -0.7187  0.5182 -0.3786
  670MPD2    H3 9919   1.314   1.818  13.347 -1.9992  0.8715  0.5392
  670MPD2     N 9920   1.360   1.726  13.810 -0.1663 -0.0190  0.2630
  670MPD2    H5 9921   1.424   1.740  13.887  0.0914 -0.0489  0.0517
  670MPD2    N1 9922   1.732   1.754  13.505 -0.0365  0.8992 -0.5996
  670MPD2    H7 9923   1.781   1.748  13.594 -0.2228 -0.4324 -0.5772
  671TMC3    C1 9924   1.207   1.658  13.981 -0.5621 -0.5184 -0.1738
  671TMC3    C2 9925   1.300   1.611  14.068 -0.5664 -0.0759 -0.4111
  671TMC3    C3 9926   1.266   1.531  14.173  0.2837  0.0484 -0.4637
  671TMC3    C4 9927   1.075   1.629  14.005  0.4151  0.1878  0.2742
  671TMC3    C5 9928   1.039   1.548  14.111 -0.2512  0.1158 -0.0019
  671TMC3    C6 9929   1.133   1.502  14.202  0.2074  0.8692 -0.7197
  671TMC3     C 9930   1.233   1.692  13.839 -0.1763 -0.0003  0.4732
  671TMC3     O 9931   1.156   1.640  13.762  0.7068 -0.1547  0.5800
  671TMC3     H 9932   1.407   1.606  14.052 -0.5989  0.2202 -0.7140
  671TMC3    H1 9933   1.002   1.658  13.930  0.8119 -1.0020 -0.5627
  671TMC3    H2 9934   1.117   1.445  14.293 -0.0438 -2.1696 -2.6781
  671TMC3    C7 9935   0.931   1.466  14.070  0.3367 -0.0042 -0.8224
  671TMC3    C8 9936   1.364   1.460  14.245  0.0010  0.2207 -0.1638
  671TMC3    O1 9937   0.835   1.517  14.014  0.1962  0.7073 -0.5582
  671TMC3    O2 9938   1.454   1.514  14.309  0.7064  0.4890 -0.0454
  672MPD2     C 9939   2.161   2.877   1.690 -0.5296 -0.1806  0.1110
  672MPD2    C1 9940   2.256   2.790   1.650  0.2384  0.0513  0.5329
  672MPD2    C2 9941   2.390   2.824   1.661 -0.1434  0.4104 -0.7574
  672MPD2    C3 9942   2.431   2.954   1.667  0.3411  0.0537 -0.4549
  672MPD2    C4 9943   2.328   3.048   1.684 -0.4016  0.2102  0.5249
  672MPD2    C5 9944   2.193   3.008   1.703 -0.1229 -0.0784  0.4536
  672MPD2     H 9945   2.461   2.743   1.654 -1.3750 -1.0346  3.2495
  672MPD2    H1 9946   2.349   3.154   1.688  1.2809 -0.0075 -2.5983
  672MPD2    H2 9947   2.058   2.844   1.689  0.2797 -2.6969  0.9457
  672MPD2    H3 9948   2.111   3.079   1.696 -1.1315 -1.3463 -0.6244
  672MPD2     N 9949   2.559   2.999   1.657 -0.4833  0.6252  0.2590
  672MPD2    H5 9950   2.571   3.099   1.666  2.7431  0.2655  0.1112
  672MPD2    N1 9951   2.225   2.660   1.612  0.3538  0.2315 -0.0217
  672MPD2    H7 9952   2.294   2.586   1.613  0.0892 -0.0246 -1.3924
  673TMC3    C1 9953   2.092   2.495   1.507 -0.0450 -0.5738  0.5364
  673TMC3    C2 9954   2.136   2.390   1.584  0.2583 -0.3328  0.0088
  673TMC3    C3 9955   2.095   2.261   1.543  0.2605  0.1060  0.2562
  673TMC3    C4 9956   2.019   2.475   1.393 -0.1746  0.0303 -0.2554
  673TMC3    C5 9957   1.989   2.348   1.348 -0.1723 -0.9681 -0.7032
  673TMC3    C6 9958   2.018   2.240   1.424  0.6198  0.2964 -0.6478
  673TMC3     C 9959   2.102   2.628   1.560  0.7499 -0.2062  0.2724
  673TMC3     O 9960   2.013   2.704   1.515  0.4949  0.3462 -0.1843
  673TMC3     H 9961   2.187   2.396   1.679 -1.6193  0.9629  0.9462
  673TMC3    H1 9962   1.998   2.560   1.329 -1.1032 -1.2037 -1.5831
  673TMC3    H2 9963   1.981   2.141   1.402 -0.6295  1.5480 -4.0814
  673TMC3    C7 9964   1.900   2.334   1.238 -0.2081 -0.1136  0.2568
  673TMC3    C8 9965   2.155   2.144   1.603 -0.2803  0.4153  0.5294
  673TMC3    O1 9966   1.813   2.247   1.246 -0.1462  0.6915 -0.5490
  673TMC3    O2 9967   2.098   2.035   1.570  0.0486  0.6079 -0.8012
  674MPD2     C 9968   1.370   1.538   0.726 -0.4782 -0.2286  0.2241
  674MPD2    C1 9969   1.334   1.521   0.592 -0.0597  0.1574  0.0665
  674MPD2    C2 9970   1.271   1.620   0.526  0.1378 -0.3283 -0.9762
  674MPD2    C3 9971   1.250   1.739   0.585 -0.6045  0.0359  0.1228
  674MPD2    C4 9972   1.290   1.760   0.712  0.8360 -0.1117  0.1718
  674MPD2    C5 9973   1.346   1.658   0.785 -0.6120 -0.0762 -0.2496
  674MPD2     H 9974   1.240   1.602   0.424  1.2736 -1.4171 -1.1316
  674MPD2    H1 9975   1.285   1.861   0.752  0.8847  1.1402 -2.9594
  674MPD2    H2 9976   1.431   1.465   0.779 -0.9223 -2.0494 -1.7655
  674MPD2    H3 9977   1.380   1.676   0.887 -0.5809  0.8249 -0.4206
  674MPD2     N 9978   1.187   1.826   0.494  0.2305 -1.0089 -0.9867
  674MPD2    H5 9979   1.140   1.778   0.418  0.0415 -2.2622 -0.0828
  674MPD2    N1 9980   1.347   1.387   0.539  0.0001 -0.3017 -0.4858
  674MPD2    H7 9981   1.396   1.327   0.605  0.0547  1.8809  1.4342
  675TMC3    C1 9982   1.339   1.195   0.405  0.3241  0.1926  0.5020
  675TMC3    C2 9983   1.235   1.117   0.355 -0.8559 -0.3050 -0.3525
  675TMC3    C3 9984   1.236   0.982   0.377  0.1314 -0.3387 -0.7677
  675TMC3    C4 9985   1.432   1.131   0.479  0.6009  0.4848 -0.2553
  675TMC3    C5 9986   1.418   1.001   0.508  0.2805 -0.4024  0.5303
  675TMC3    C6 9987   1.323   0.915   0.460 -0.1704 -0.2285 -0.0084
  675TMC3     C 9988   1.302   1.335   0.422  0.1344 -0.1230 -0.2582
  675TMC3     O 9989   1.236   1.381   0.330 -0.2506  0.8221 -0.1666
  675TMC3     H 9990   1.150   1.161   0.304 -0.7315  2.2366  1.6684
  675TMC3    H1 9991   1.519   1.191   0.504 -0.0837  0.6744  1.6698
  675TMC3    H2 9992   1.334   0.807   0.465  1.9253  0.0509  2.0773
  675TMC3    C7 9993   1.528   0.939   0.576  0.7707  0.3836 -0.8693
  675TMC3    C8 9994   1.129   0.903   0.310  0.4570  0.3891 -1.5203
  675TMC3    O1 9995   1.640   0.988   0.581 -0.0364  0.0317  0.6520
  675TMC3    O2 9996   1.048   0.954   0.236 -0.0151 -0.5146  0.0857
  676MPD2     C 9997   4.410   4.451  10.446 -0.6584 -0.1482 -0.2101
  676MPD2    C1 9998   4.395   4.411  10.576 -0.6268 -0.5080  0.2489
  676MPD2    C2 9999   4.363   4.279  10.605 -0.5506  0.4115 -0.7886
  676MPD2    C310000   4.368   4.181  10.507 -0.4286 -0.3897  0.0952
  676MPD2    C410001   4.402   4.223  10.380 -0.7009  1.3226  0.7217
  676MPD2    C510002   4.418   4.357  10.348  0.1268  0.1189 -0.3192
  676MPD2     H10003   4.341   4.251  10.707 -1.6126 -1.8282 -1.6411
  676MPD2    H110004   4.404   4.158  10.294  0.6456  0.9236  1.0569
  676MPD2    H210005   4.422   4.553  10.414 -1.4824  0.0313  0.0597
  676MPD2    H310006   4.451   4.395  10.251 -2.8805  1.5701 -0.7591
  676MPD2     N10007   4.355   4.034  10.527 -1.0723 -1.1040  0.3968
  676MPD2    H510008   4.363   3.977  10.444 -1.2600 -0.1996 -0.2395
  676MPD2    N110009   4.375   4.505  10.685  0.8533 -0.1559  0.1024
  676MPD2    H710010   4.339   4.477  10.775  1.1171 -0.9349 -0.0309
  677TMC3    C110011   4.420   4.695  10.832  0.1129 -0.4765  0.2851
  677TMC3    C210012   4.426   4.604  10.934 -0.1680 -0.7120  0.2100
  677TMC3    C310013   4.385   4.634  11.061  0.0192  0.0017 -0.6343
  677TMC3    C410014   4.368   0.091  10.861  0.4591  0.8269 -0.1326
  677TMC3    C510015   4.326   0.121  10.987  0.3752  0.8526  0.0315
  677TMC3    C610016   4.323   0.029  11.090  0.2614  0.8045  0.3067
  677TMC3     C10017   4.414   4.639  10.692 -0.0449 -0.3851 -0.2115
  677TMC3     O10018   4.459   4.712  10.607 -0.3469 -0.2157  0.1328
  677TMC3     H10019   4.481   4.512  10.918  3.3040  1.1965  1.3249
  677TMC3    H110020   4.365   0.170  10.786  0.9597  0.4177 -0.5828
  677TMC3    H210021   4.295   0.061  11.189 -0.8968 -3.2623  1.2667
  677TMC3    C710022   4.320   0.257  11.034  0.3315 -0.6428  1.2400
  677TMC3    C810023   4.495   4.617  11.160  0.2319 -0.3073  0.1908
  677TMC3    O110024   4.217   0.289  11.091 -0.3058  0.6501  0.4525
  677TMC3    O210025   4.605   4.602  11.111 -0.6104  0.2007 -0.2542
  678MPD2     C10026   0.054   4.166   1.118 -1.0705  0.5484 -0.1138
  678MPD2    C110027   0.084   4.256   1.014  0.2463 -0.2981  0.2493
  678MPD2    C210028   4.712   4.346   0.988 -0.1112  0.1013  0.2397
  678MPD2    C310029   4.597   4.362   1.068 -0.2349 -0.0062 -0.0842
  678MPD2    C410030   4.570   4.268   1.162  0.3585 -0.2696 -0.2555
  678MPD2    C510031   4.662   4.170   1.191 -0.0594  0.2233 -0.2528
  678MPD2     H10032   0.007   4.423   0.915  1.5692  0.1810  0.7432
  678MPD2    H110033   4.484   4.269   1.227  1.1423 -0.4461  0.7851
  678MPD2    H210034   0.117   4.079   1.133 -0.5671  1.0377  0.6037
  678MPD2    H310035   4.649   4.090   1.263 -1.0748  1.2659  0.6999
  678MPD2     N10036   4.501   4.453   1.024 -0.3463 -0.7125  0.0927
  678MPD2    H510037   4.519   4.503   0.937  2.0155  1.6365  1.9095
  678MPD2    N110038   0.206   4.267   0.943  0.1405 -0.5583 -0.3173
  678MPD2    H710039   0.211   4.346   0.879 -0.5838  0.0314  0.3459
  679TMC3    C110040   0.673   4.229   0.878 -0.0566  0.2289  0.1150
  679TMC3    C210041   0.557   4.190   0.942  0.4323  0.5326  0.2043
  679TMC3    C310042   0.435   4.232   0.892 -0.1641 -0.1199  0.3419
  679TMC3    C410043   0.661   4.313   0.763 -0.0636  0.6428  0.6718
  679TMC3    C510044   0.535   4.339   0.716  0.1419  0.1739  0.4219
  679TMC3    C610045   0.419   4.307   0.781  0.2877  0.1781  0.2164
  679TMC3     C10046   0.803   4.221   0.944 -0.3191  0.0665  0.4670
  679TMC3     O10047   0.897   4.288   0.898 -0.3671  0.6881 -0.0032
  679TMC3     H10048   0.556   4.131   1.033 -1.2232 -1.4179 -1.0752
  679TMC3    H110049   0.746   4.356   0.711  0.0170 -1.2043 -0.6834
  679TMC3    H210050   0.329   4.328   0.724 -0.9204  2.0934  2.8217
  679TMC3    C710051   0.513   4.407   0.584  0.1174 -0.0186 -0.2648
  679TMC3    C810052   0.320   4.186   0.964 -0.2939  0.1869 -0.3452
  679TMC3    O110053   0.414   4.473   0.570 -0.1100  0.4330 -0.0542
  679TMC3    O210054   0.325   4.081   1.023 -0.3281 -0.8443  0.4350
  680MPD2     C10055   1.723   3.866  13.452  0.7184 -0.4822  0.1348
  680MPD2    C110056   1.659   3.792  13.551  0.4010  0.5760 -0.5015
  680MPD2    C210057   1.565   3.859  13.629  0.5069  0.7361  0.3379
  680MPD2    C310058   1.534   3.996  13.606  0.4135 -0.4252  0.7930
  680MPD2    C410059   1.603   4.061  13.511  0.0843 -0.2511  0.1544
  680MPD2    C510060   1.699   3.997  13.435  0.3310  0.0421  0.5166
  680MPD2     H10061   1.516   3.809  13.711 -0.7658  0.1337 -0.7981
  680MPD2    H110062   1.594   4.168  13.495  0.5259 -0.2321  0.0495
  680MPD2    H210063   1.791   3.815  13.385 -0.2009  0.0351 -1.1820
  680MPD2    H310064   1.730   4.058  13.350 -3.4949 -0.0012 -0.9186
  680MPD2     N10065   1.441   4.070  13.680  0.6174 -0.5598 -0.3037
  680MPD2    H510066   1.436   4.170  13.660 -0.1083 -0.1926  1.7697
  680MPD2    N110067   1.673   3.651  13.566  0.0146  0.1496  0.0426
  680MPD2    H710068   1.618   3.614  13.642 -1.6011 -0.7984 -1.5965
  681TMC3    C110069   1.768   3.427  13.528 -0.8553 -0.0333 -0.7937
  681TMC3    C210070   1.708   3.384  13.647  0.9191  0.4402  0.1670
  681TMC3    C310071   1.692   3.247  13.665  0.5535 -0.5669 -0.8298
  681TMC3    C410072   1.796   3.335  13.425 -0.6066  0.3829 -0.1235
  681TMC3    C510073   1.775   3.198  13.440  1.8450  0.0662  0.0177
  681TMC3    C610074   1.731   3.157  13.563 -0.1486  0.0356  0.1897
  681TMC3     C10075   1.754   3.567  13.483  0.5176 -0.4006 -0.0990
  681TMC3     O10076   1.814   3.595  13.380  0.2197 -0.5587  0.2250
  681TMC3     H10077   1.700   3.455  13.728 -0.4391  1.9605 -1.3022
  681TMC3    H110078   1.833   3.382  13.335 -1.7670  0.8602 -0.3529
  681TMC3    H210079   1.705   3.052  13.577 -0.0115 -0.0001  0.1730
  681TMC3    C710080   1.843   3.111  13.356 -0.3195  0.4078 -0.0339
  681TMC3    C810081   1.673   3.196  13.794 -0.3610  0.1634  0.2054
  681TMC3    O110082   1.892   3.009  13.408  0.3336  0.0622  0.4272
  681TMC3    O210083   1.758   3.123  13.839  0.4113 -0.4695 -0.3350
  682MPD2     C10084   3.628   4.611  10.698  0.3031 -0.1273  0.0884
  682MPD2    C110085   3.594   4.486  10.727  0.2473 -0.1425 -0.4316
  682MPD2    C210086   3.555   4.449  10.857 -0.1988 -0.1859  0.0983
  682MPD2    C310087   3.557   4.542  10.957 -0.2408 -0.4248 -0.2332
  682MPD2    C410088   3.588   4.669  10.927  0.6318 -0.4207  0.2078
  682MPD2    C510089   3.629   4.699  10.802  0.9250  0.1900 -0.0511
  682MPD2     H10090   3.519   4.348  10.862 -0.3366 -0.1262  0.3138
  682MPD2    H110091   3.574   0.018  11.007  0.9952 -1.0184  0.8094
  682MPD2    H210092   3.657   4.651  10.602  0.5737 -1.3090 -0.3131
  682MPD2    H310093   3.665   0.076  10.783  0.0395  0.1279 -2.0635
  682MPD2     N10094   3.510   4.522  11.086 -0.0050 -0.2262  0.4706
  682MPD2    H510095   3.533   4.591  11.157  1.1622 -1.3934  1.2201
  682MPD2    N110096   3.613   4.377  10.639  0.0224 -0.1486 -0.1758
  682MPD2    H710097   3.569   4.289  10.665 -0.6243 -0.3265 -1.8763
  683TMC3    C110098   3.470   4.499  11.488 -1.1025 -0.3857  1.1422
  683TMC3    C210099   3.462   4.374  11.548  0.1428  0.5205 -0.1133
  683TMC3    C310100   3.446   4.263  11.474  0.3339  0.2008  0.0321
  683TMC3    C410101   3.455   4.519  11.353 -0.4711  0.0471  0.1828
  683TMC3    C510102   3.443   4.399  11.277 -0.2435 -0.1282  0.3146
  683TMC3    C610103   3.446   4.271  11.334  0.3409  0.3007 -0.0891
  683TMC3     C10104   3.491   4.623  11.567  0.0409  0.2460  0.3450
  683TMC3     O10105   3.437   0.005  11.536 -0.1067 -0.0907  0.4382
  683TMC3     H10106   3.442   4.364  11.654  1.0475 -1.1976 -0.1164
  683TMC3    H110107   3.451   4.617  11.307 -2.4489 -0.9166 -1.7042
  683TMC3    H210108   3.436   4.182  11.273 -0.4878  1.1247 -1.1458
  683TMC3    C710109   3.464   4.402  11.131  0.1685 -0.0280 -0.8557
  683TMC3    C810110   3.488   4.131  11.525  0.3090 -0.8033  0.1417
  683TMC3    O110111   3.435   4.300  11.070 -0.7785 -0.2271 -0.8374
  683TMC3    O210112   3.449   4.033  11.466  0.0926  0.7084  0.4376
  684MPD2     C10113   1.331   4.334  16.254  0.2361 -0.1462  1.0917
  684MPD2    C110114   1.309   4.366  16.120  0.1354  0.3530  0.0477
  684MPD2    C210115   1.279   4.498  16.083 -0.6163  0.1669 -0.6877
  684MPD2    C310116   1.293   4.599  16.179 -0.9373 -0.5901  0.6448
  684MPD2    C410117   1.317   4.563  16.309  0.1835 -0.3100 -0.9525
  684MPD2    C510118   1.335   4.432  16.348 -0.2407 -0.6248 -0.4713
  684MPD2     H10119   1.256   4.529  15.982 -0.2815 -0.4297 -0.9493
  684MPD2    H110120   1.325   4.634  16.390  0.7629  1.0625 -2.2032
  684MPD2    H210121   1.339   4.229  16.277  1.3927 -0.4014 -0.4814
  684MPD2    H310122   1.346   4.394  16.449  1.0704  0.5184 -0.1872
  684MPD2     N10123   1.288   0.017  16.162  0.2811 -0.4833 -0.2258
  684MPD2    H510124   1.303   0.082  16.239 -0.8271  0.6215 -0.9318
  684MPD2    N110125   1.299   4.279  16.015 -0.0252  0.1134  0.0651
  684MPD2    H710126   1.295   4.323  15.924  1.5125 -0.0214 -0.0676
  685TMC3    C110127   1.350   4.077  15.884  0.1643  0.2520 -0.4787
  685TMC3    C210128   1.327   4.159  15.778 -0.8821  0.2332 -0.3636
  685TMC3    C310129   1.397   4.134  15.660 -0.1644 -0.2226  0.3708
  685TMC3    C410130   1.441   3.975  15.890 -0.0254 -0.6521 -0.2701
  685TMC3    C510131   1.494   3.942  15.770 -0.0844  0.4186 -0.6592
  685TMC3    C610132   1.484   4.028  15.660  0.1767 -0.1543 -0.5054
  685TMC3     C10133   1.316   4.136  16.018 -1.2275  0.5109 -0.5495
  685TMC3     O10134   1.330   4.068  16.120  0.3574 -0.4687  0.0300
  685TMC3     H10135   1.250   4.236  15.782  1.2069  2.3004  0.1690
  685TMC3    H110136   1.462   3.918  15.980 -1.7476 -0.3998  0.2935
  685TMC3    H210137   1.516   3.981  15.568  0.6863 -0.5643 -0.1234
  685TMC3    C710138   1.627   3.882  15.787 -0.4544  0.4995  0.6302
  685TMC3    C810139   1.316   4.130  15.545  0.1327  0.1490 -0.8174
  685TMC3    O110140   1.631   3.773  15.847  0.1967  0.6273  0.3688
  685TMC3    O210141   1.378   4.113  15.443  0.1688 -0.1915 -0.2667
  686MPD2     C10142   2.853   4.204  15.454 -0.0373  0.3382 -0.6261
  686MPD2    C110143   2.736   4.125  15.468 -0.9626  0.0743  0.0183
  686MPD2    C210144   2.688   4.045  15.366  0.8014  0.0337  0.3717
  686MPD2    C310145   2.754   4.033  15.247  1.1446  0.2826  1.0612
  686MPD2    C410146   2.864   4.115  15.229  0.0870  0.4448  0.1368
  686MPD2    C510147   2.912   4.202  15.329  0.1567  0.5803 -0.3013
  686MPD2     H10148   2.590   3.999  15.374  0.8561 -0.0776  0.4124
  686MPD2    H110149   2.916   4.123  15.134  1.8560 -2.0481  0.8929
  686MPD2    H210150   2.893   4.252  15.542 -0.4437  0.0908 -0.3094
  686MPD2    H310151   2.984   4.278  15.299 -1.0812  1.6932 -0.4827
  686MPD2     N10152   2.710   3.957  15.138  0.6448 -0.1512 -0.6034
  686MPD2    H510153   2.754   3.977  15.049  1.6317  1.5482  0.2482
  686MPD2    N110154   2.668   4.131  15.594  0.5386  0.1777  0.0557
  686MPD2    H710155   2.707   4.193  15.663 -0.6329  0.6135  0.3325
  687TMC3    C110156   2.589   3.785  15.260 -0.1501  0.2541 -0.6637
  687TMC3    C210157   2.462   3.755  15.296  0.4297  0.1698  0.7003
  687TMC3    C310158   2.444   3.695  15.418 -0.3957 -0.2084 -1.2235
  687TMC3    C410159   2.693   3.745  15.335 -0.1937 -0.6162  0.0004
  687TMC3    C510160   2.671   3.670  15.451 -0.4638  0.4359 -0.1950
  687TMC3    C610161   2.547   3.665  15.504 -0.6379  0.1441  0.4815
  687TMC3     C10162   2.613   3.854  15.136  0.2330 -0.4026  0.3322
  687TMC3     O10163   2.558   3.816  15.037 -0.3301 -0.6485 -0.3701
  687TMC3     H10164   2.378   3.769  15.229  1.0618 -0.9520 -0.3190
  687TMC3    H110165   2.791   3.747  15.289 -1.5413 -1.4462 -2.8629
  687TMC3    H210166   2.525   3.607  15.593 -0.0402  2.2929  2.0363
  687TMC3    C710167   2.782   3.677  15.551 -0.1019  0.1697 -0.5725
  687TMC3    C810168   2.317   3.716  15.483 -0.9205 -0.3525 -0.2885
  687TMC3    O110169   2.772   3.621  15.660 -0.0168  0.0050 -0.3685
  687TMC3    O210170   2.278   3.638  15.570 -0.4524  0.5330  0.3214
  688MPD2     C10171   2.214   3.047  17.093  0.0515 -0.4730  0.8962
  688MPD2    C110172   2.214   2.952  17.195 -0.4271 -0.0499 -0.2685
  688MPD2    C210173   2.286   2.839  17.179 -0.9978 -0.8092  0.2659
  688MPD2    C310174   2.376   2.831  17.073  0.4304 -0.2473  0.9596
  688MPD2    C410175   2.389   2.938  16.989 -1.1031  0.0295  0.4232
  688MPD2    C510176   2.295   3.040  16.988 -0.6064  0.2724 -0.3309
  688MPD2     H10177   2.286   2.762  17.255  1.4080 -0.8044  0.2699
  688MPD2    H110178   2.465   2.942  16.911 -0.6131 -4.0500  0.6609
  688MPD2    H210179   2.151   3.135  17.105  1.1012  0.3303  0.5125
  688MPD2    H310180   2.297   3.121  16.916 -1.9603  0.5057 -0.1052
  688MPD2     N10181   2.456   2.710  17.057 -0.3060 -0.5795  0.6454
  688MPD2    H510182   2.524   2.717  16.981  1.3704 -1.3619  2.0709
  688MPD2    N110183   2.149   2.972  17.322 -0.4044 -0.4667  0.2729
  688MPD2    H710184   2.141   2.894  17.386  1.7600  0.0911  1.2459
  689TMC3    C110185   2.061   3.087  17.497 -0.2092  0.1648 -0.2437
  689TMC3    C210186   2.119   3.184  17.579 -0.0619 -0.4250 -0.4678
  689TMC3    C310187   2.136   3.155   0.012 -0.1241 -0.4200 -0.3264
  689TMC3    C410188   2.008   2.975  17.549 -0.1068 -0.3092  0.3669
  689TMC3    C510189   2.027   2.948  17.680 -0.2874 -0.6090  0.1676
  689TMC3    C610190   2.093   3.038   0.067  0.0995 -0.1857 -0.5312
  689TMC3     C10191   2.105   3.090  17.364  0.1324  0.0207  0.7533
  689TMC3     O10192   2.108   3.202  17.313  0.0685 -0.1673 -0.0553
  689TMC3     H10193   2.184   3.260  17.538  2.1660 -0.8723  2.2560
  689TMC3    H110194   1.959   2.916  17.472 -1.4059  1.6501 -0.3271
  689TMC3    H210195   2.104   3.018   0.173  0.1435 -1.2872 -0.7431
  689TMC3    C710196   1.963   2.842   0.050  0.3631  0.2420 -0.3893
  689TMC3    C810197   2.158   3.257   0.113 -0.3713  0.6037  0.3200
  689TMC3    O110198   2.005   2.805   0.161 -0.1860 -0.7926  0.1382
  689TMC3    O210199   2.172   3.226   0.232 -0.0800  0.0912  0.0968
  690MPD2     C10200   4.228   0.143  15.350  0.6592  0.0392  0.0054
  690MPD2    C110201   4.149   0.127  15.240  0.4705 -0.1971 -0.7510
  690MPD2    C210202   4.197   0.172  15.119 -0.1480  0.3016  0.1710
  690MPD2    C310203   4.314   0.241  15.113  0.7574  0.4588  0.3147
  690MPD2    C410204   4.391   0.271  15.231 -0.2408  0.1975  0.8794
  690MPD2    C510205   4.342   0.219  15.346  0.0183 -0.7100  0.0672
  690MPD2     H10206   4.145   0.156  15.025  0.1213 -3.6237  0.6835
  690MPD2    H110207   4.478   0.335  15.229  2.6646 -3.7215  0.6098
  690MPD2    H210208   4.205   0.104  15.448  0.2937  1.3211  0.4311
  690MPD2    H310209   4.393   0.238  15.440 -0.4727  1.1894 -0.0502
  690MPD2     N10210   4.373   0.267  14.989  0.1736  0.2763  0.3205
  690MPD2    H510211   4.326   0.248  14.901  0.4287  0.4136  0.1580
  690MPD2    N110212   4.028   0.052  15.239  0.2453  0.3329 -0.0006
  690MPD2    H710213   3.986   0.050  15.147  0.8537  0.0851 -0.2725
  691TMC3    C110214   3.881   4.598  15.301  0.2598 -0.9935 -0.1725
  691TMC3    C210215   3.782   4.637  15.216  0.6908 -0.4682  0.0168
  691TMC3    C310216   3.693   4.544  15.177  0.6704 -0.5530  0.5820
  691TMC3    C410217   3.875   4.473  15.362 -0.1519  0.0461  0.8865
  691TMC3    C510218   3.779   4.386  15.330 -0.2351  0.2903 -0.3503
  691TMC3    C610219   3.695   4.418  15.228  0.2490  0.3285 -0.0797
  691TMC3     C10220   4.000   4.677  15.330  0.6670  0.1177  0.8859
  691TMC3     O10221   4.069   4.630  15.419  0.3463  0.1755 -0.4403
  691TMC3     H10222   3.776   0.015  15.182  2.4428 -0.6078 -0.6843
  691TMC3    H110223   3.941   4.447  15.443  0.2847 -3.8994 -0.7538
  691TMC3    H210224   3.630   4.340  15.192 -0.4233  0.5202  0.7134
  691TMC3    C710225   3.777   4.252  15.394 -0.3011 -0.7310 -0.2654
  691TMC3    C810226   3.575   4.586  15.111 -0.2332 -0.1831  0.3870
  691TMC3    O110227   3.840   4.239  15.497  0.1177  0.4025  0.7742
  691TMC3    O210228   3.504   4.493  15.075 -0.3004 -0.0356  0.3796
  692TMC3    C110229   1.027   1.327  15.624 -0.1177 -0.1813 -0.0450
  692TMC3    C210230   1.133   1.358  15.701 -0.3683 -0.6858 -0.4850
  692TMC3    C310231   1.201   1.253  15.764  0.6536  0.6852  0.2429
  692TMC3    C410232   1.006   1.197  15.576 -0.5482  0.6147 -0.5560
  692TMC3    C510233   1.097   1.099  15.620  0.4334  0.7472 -0.8059
  692TMC3    C610234   1.199   1.131  15.701 -0.2880 -0.0122  0.0920
  692TMC3     C10235   0.917   1.421  15.614  0.3144  0.0480  0.5397
  692TMC3     O10236   0.814   1.375  15.583  0.4864 -0.5179 -0.3079
  692TMC3     H10237   1.144   1.459  15.739 -0.7991 -1.0599  0.6292
  692TMC3    H110238   0.929   1.175  15.504 -1.5139 -1.2925  1.0580
  692TMC3    H210239   1.263   1.053  15.742 -0.3847  0.0479  0.3548
  692TMC3    C710240   1.097   0.970  15.544 -0.1771  0.2936  0.1247
  692TMC3    C810241   1.166   1.260  15.901  0.3346  0.2858 -0.4760
  692TMC3    O110242   1.043   0.961  15.435 -0.2464 -0.2457  0.0510
  692TMC3    O210243   1.155   1.379  15.938  0.2210 -0.1994  0.5664
  693MPD2     C10244   1.104   3.241  11.292 -0.5017 -0.7000  0.6042
  693MPD2    C110245   1.062   3.285  11.169  0.0458 -0.8259  0.3995
  693MPD2    C210246   1.160   3.295  11.070  0.0266  0.0930 -0.2522
  693MPD2    C310247   1.296   3.268  11.097 -0.3759 -0.3903  0.0443
  693MPD2    C410248   1.336   3.251  11.231  0.9684  1.0818  0.1459
  693MPD2    C510249   1.237   3.237  11.319 -0.0962  0.0480 -0.2838
  693MPD2     H10250   1.127   3.312  10.969  1.1262 -0.6737 -0.7388
  693MPD2    H110251   1.432   3.212  11.264  0.0006  0.4612  2.2295
  693MPD2    H210252   1.041   3.242  11.380  1.9068 -1.0770  2.3345
  693MPD2    H310253   1.261   3.211  11.421 -1.0919 -0.7098 -0.2488
  693MPD2     N10254   1.395   3.262  10.995 -0.1201  0.0938 -0.3813
  693MPD2    H510255   1.487   3.235  11.027  0.3193  0.4777 -1.3240
  693MPD2    N110256   0.929   3.313  11.146  0.2033 -0.4417  0.0182
  693MPD2    H710257   0.864   3.303  11.224 -0.7637 -2.6683 -1.0578
  694TMC3    C110258   0.724   3.333  11.022 -0.4482 -0.9685  0.5445
  694TMC3    C210259   0.660   3.330  10.897 -1.1323 -0.8744 -0.8269
  694TMC3    C310260   0.544   3.252  10.889  0.3973 -0.0962 -0.2198
  694TMC3    C410261   0.667   3.277  11.136 -0.5331  0.2824 -0.1644
  694TMC3    C510262   0.562   3.197  11.111  0.2814 -0.1886  0.3622
  694TMC3    C610263   0.509   3.168  10.987  0.5553 -1.1986  0.7254
  694TMC3     C10264   0.870   3.337  11.023  0.0195 -0.6207  0.2992
  694TMC3     O10265   0.916   3.331  10.910  0.9505 -0.5421 -0.3200
  694TMC3     H10266   0.703   3.385  10.814 -0.6279  1.6330  1.1038
  694TMC3    H110267   0.711   3.271  11.235 -0.3412  1.0401 -0.2005
  694TMC3    H210268   0.418   3.109  10.982  1.0014 -1.7382 -0.9605
  694TMC3    C710269   0.531   3.110  11.224  0.0568 -0.2024  0.2878
  694TMC3    C810270   0.477   3.219  10.762 -0.1958  0.5400 -0.0224
  694TMC3    O110271   0.565   3.151  11.335 -0.1583 -0.0845 -0.0717
  694TMC3    O210272   0.398   3.125  10.759 -0.7179 -0.2034 -0.4486
  695MPD2     C10273   1.226   0.731  13.376  0.0955 -0.0478  0.1642
  695MPD2    C110274   1.187   0.769  13.500  0.4930  0.2667 -0.1082
  695MPD2    C210275   1.067   0.836  13.506  0.5470  0.4763  0.0895
  695MPD2    C310276   0.978   0.862  13.405  0.3795 -0.4342 -0.0460
  695MPD2    C410277   1.022   0.824  13.284  0.9133 -0.1456  0.5092
  695MPD2    C510278   1.144   0.758  13.274  0.5250  0.1813 -0.5061
  695MPD2     H10279   1.028   0.877  13.599 -1.1755  1.4612 -1.0669
  695MPD2    H110280   0.963   0.843  13.195  0.4165 -1.6711  0.5052
  695MPD2    H210281   1.322   0.684  13.353  0.0653  0.8742 -1.8924
  695MPD2    H310282   1.169   0.722  13.175 -0.6907  0.1138 -0.7820
  695MPD2     N10283   0.858   0.932  13.438  0.1954 -0.0624 -0.2274
  695MPD2    H510284   0.857   0.967  13.533 -1.9800  2.6693 -1.2431
  695MPD2    N110285   1.281   0.768  13.605 -0.4475  0.6362  0.1375
  695MPD2    H710286   1.254   0.796  13.699  0.5429  1.0144  0.3078
  696TMC3    C110287   0.673   1.073  13.390 -0.6964 -0.2535 -0.1966
  696TMC3    C210288   0.659   1.077  13.528 -0.6102 -0.2182  0.4632
  696TMC3    C310289   0.612   1.198  13.575  0.2231  0.0349  0.8724
  696TMC3    C410290   0.639   1.179  13.309  0.5248  0.4871 -0.0728
  696TMC3    C510291   0.593   1.296  13.364 -0.1048  0.4597  0.4764
  696TMC3    C610292   0.578   1.302  13.503 -0.7076  0.3818  0.3533
  696TMC3     C10293   0.766   0.978  13.340  0.5517 -0.3679 -0.4064
  696TMC3     O10294   0.757   0.953  13.221 -0.4939 -0.1249  0.1492
  696TMC3     H10295   0.673   0.995  13.597 -1.9616 -1.4167 -0.6856
  696TMC3    H110296   0.646   1.172  13.201  2.8196 -1.1651  0.1900
  696TMC3    H210297   0.531   1.388  13.550 -0.2601  1.0024 -0.3387
  696TMC3    C710298   0.649   1.411  13.297  0.2320 -0.0803 -0.1200
  696TMC3    C810299   0.618   1.226  13.719 -0.0226 -0.2888 -0.2166
  696TMC3    O110300   0.661   1.399  13.172  0.0684  0.4478 -0.0653
  696TMC3    O210301   0.616   1.343  13.748 -0.4017 -0.0913  0.1770
  697MPD2     C10302   0.960   2.549  15.591  0.6678 -0.6535  0.2696
  697MPD2    C110303   0.909   2.524  15.466 -0.2990 -1.0110  0.1658
  697MPD2    C210304   0.903   2.625  15.365  0.3116 -0.0495  0.2494
  697MPD2    C310305   0.954   2.755  15.388 -0.4174  0.4500  0.7981
  697MPD2    C410306   1.014   2.771  15.513 -0.7580  0.6645  0.6409
  697MPD2    C510307   1.012   2.672  15.616  0.3052 -0.1021 -0.2838
  697MPD2     H10308   0.843   2.613  15.276 -0.3233  0.1305  0.6529
  697MPD2    H110309   1.056   2.868  15.535  0.1036  0.2653  0.7494
  697MPD2    H210310   0.966   2.475  15.670 -0.7369 -1.3000 -0.2210
  697MPD2    H310311   1.055   2.695  15.713  1.6732  2.7180 -1.5691
  697MPD2     N10312   0.967   2.860  15.292 -0.3128  0.3407  0.5502
  697MPD2    H510313   1.001   2.949  15.327  0.3000 -0.0198  0.8675
  697MPD2    N110314   0.865   2.402  15.427  0.4075 -1.1790  0.0303
  697MPD2    H710315   0.841   2.399  15.328 -0.0195  2.6673  0.0227
  698TMC3    C110316   0.957   2.989  15.099  0.2552 -0.3722 -0.1680
  698TMC3    C210317   1.069   3.061  15.139  0.7953 -0.1197  0.4873
  698TMC3    C310318   1.137   3.136  15.051  0.2100 -0.5269 -0.7274
  698TMC3    C410319   0.905   3.010  14.977  0.8664  0.5726  0.0456
  698TMC3    C510320   0.971   3.092  14.888 -0.1274  0.5623 -0.3113
  698TMC3    C610321   1.086   3.165  14.925 -0.1081  0.9682  0.5282
  698TMC3     C10322   0.927   2.861  15.160  0.0781  0.1504  0.3794
  698TMC3     O10323   0.884   2.769  15.089  0.3801  0.3469  0.8612
  698TMC3     H10324   1.135   3.029  15.219  0.6448 -0.6778  0.3878
  698TMC3    H110325   0.809   2.968  14.949  0.6279  1.6125 -0.7224
  698TMC3    H210326   1.147   3.202  14.843  0.5653  1.5580  1.2942
  698TMC3    C710327   0.914   3.112  14.753  0.7563  1.0790  0.5280
  698TMC3    C810328   1.276   3.149  15.077 -1.2328  0.1478  0.4226
  698TMC3    O110329   0.816   3.045  14.724 -0.5447  0.1758 -0.2932
  698TMC3    O210330   1.325   3.072  15.157  0.4275  0.0448 -0.1379
  699TMC3    C110331   0.559   0.587  12.900 -0.3640 -0.2372 -0.2199
  699TMC3    C210332   0.592   0.501  12.999 -0.0883 -0.3201  0.6629
  699TMC3    C310333   0.498   0.413  13.042 -0.7172  0.2568 -0.4903
  699TMC3    C410334   0.444   0.583  12.835 -0.6162 -0.4250  0.2086
  699TMC3    C510335   0.354   0.491  12.882  0.0347  0.3070 -0.3543
  699TMC3    C610336   0.380   0.405  12.983 -0.3203  0.5890  0.2243
  699TMC3     C10337   0.636   0.707  12.891 -0.1152  0.5942 -0.4374
  699TMC3     O10338   0.578   0.797  12.834 -0.5809  0.3475  0.2690
  699TMC3     H10339   0.682   0.505  13.059  0.6965  1.4979 -0.6601
  699TMC3    H110340   0.416   0.657  12.762  1.1690  0.5921  0.5729
  699TMC3    H210341   0.323   0.313  12.992  2.2568 -1.2701 -2.3496
  699TMC3    C710342   0.217   0.495  12.832 -0.6248 -0.8236 -0.5542
  699TMC3    C810343   0.522   0.323  13.151  0.7434 -1.0774  0.7376
  699TMC3    O110344   0.121   0.473  12.903 -0.0452 -0.2140  0.5383
  699TMC3    O210345   0.419   0.275  13.191  0.4888  0.0619  0.0648
  700TMC3    C110346   4.228   3.415  16.888 -0.0967  0.2139  0.0467
  700TMC3    C210347   4.263   3.295  16.937  0.1754  0.2900  0.2451
  700TMC3    C310348   4.340   3.293  17.050  0.3127  0.5464 -0.6720
  700TMC3    C410349   4.259   3.531  16.951 -0.2213  0.0244  0.5214
  700TMC3    C510350   4.331   3.523  17.069  0.0071 -0.2207 -0.0406
  700TMC3    C610351   4.373   3.405  17.118  0.3141 -0.1487 -0.4998
  700TMC3     C10352   4.212   3.417  16.743  0.0023 -0.5373  0.2653
  700TMC3     O10353   4.107   3.384  16.698  0.3338 -0.4711 -0.4097
  700TMC3     H10354   4.257   3.204  16.878  1.5240  1.7371 -2.1390
  700TMC3    H110355   4.233   3.626  16.905  0.0877  0.9029  2.1712
  700TMC3    H210356   4.434   3.405  17.207  0.7144  1.3735 -0.7721
  700TMC3    C710357   4.359   3.647  17.129 -0.4301 -0.7162 -0.7525
  700TMC3    C810358   4.420   3.179  17.086  0.2905 -0.3053 -0.1758
  700TMC3    O110359   4.449   3.657  17.211 -0.0749  0.7550 -0.5332
  700TMC3    O210360   4.508   3.190  17.164 -0.3230  0.4467  0.4379
  701TMC3    C110361   4.345   1.717  15.404  0.1378  0.5541  1.2362
  701TMC3    C210362   4.397   1.638  15.302 -0.1209  0.0725  0.8226
  701TMC3    C310363   4.493   1.695  15.223 -0.2045 -0.4893 -0.2684
  701TMC3    C410364   4.406   1.831  15.443  0.0303  0.1760 -0.6779
  701TMC3    C510365   4.512   1.873  15.373  0.2436  0.6747 -0.0949
  701TMC3    C610366   4.567   1.806  15.263  0.1678 -0.0974 -0.6441
  701TMC3     C10367   4.245   1.664  15.486  0.2122 -0.6310  0.5192
  701TMC3     O10368   4.250   1.668  15.610  0.2890  1.0295 -0.3731
  701TMC3     H10369   4.353   1.543  15.274 -0.5960  0.0161  1.7615
  701TMC3    H110370   4.368   1.874  15.534  0.6842  1.1087 -0.8411
  701TMC3    H210371   4.650   1.833  15.199  0.0085 -0.0570 -0.8315
  701TMC3    C710372   4.566   2.004  15.393 -0.2731  0.3565 -0.7683
  701TMC3    C810373   4.553   1.605  15.125  0.1970 -0.1902 -0.9163
  701TMC3    O110374   4.652   2.033  15.311  0.4458  0.5297 -0.7134
  701TMC3    O210375   4.675   1.614  15.103  0.8251  0.5786 -0.0892
  702MPD2     C10376   0.221   3.681  10.548 -0.4113  0.8420  0.3437
  702MPD2    C110377   0.112   3.700  10.468 -0.0179 -0.3911  0.6511
  702MPD2    C210378   0.140   3.745  10.342  0.0295  0.5093 -0.1694
  702MPD2    C310379   0.269   3.774  10.291  0.5015  0.7159 -0.6260
  702MPD2    C410380   0.369   3.752  10.382 -0.1772  0.2523  0.1492
  702MPD2    C510381   0.347   3.707  10.509 -0.8372 -0.1715 -0.1817
  702MPD2     H10382   0.051   3.756  10.281  0.4683  0.6385 -0.7851
  702MPD2    H110383   0.466   3.783  10.344 -0.1582  0.6856  0.5444
  702MPD2    H210384   0.212   3.645  10.650  2.7830  0.3471  0.4386
  702MPD2    H310385   0.432   3.703  10.577 -0.1903  2.0774 -0.8505
  702MPD2     N10386   0.297   3.833  10.160 -0.2048 -0.4196  0.6988
  702MPD2    H510387   0.391   3.868  10.150  0.2913 -1.8599  0.4422
  702MPD2    N110388   4.702   3.693  10.502 -0.3169 -0.1838  0.4172
  702MPD2    H710389   4.638   3.707  10.425  0.4280  0.9909  0.0225
  703TMC3    C110390   0.241   3.925   9.941  0.2040  0.8330 -0.1992
  703TMC3    C210391   0.152   4.023   9.897  0.3224  0.4037 -0.2563
  703TMC3    C310392   0.194   4.123   9.819  0.8630 -0.6838  0.7368
  703TMC3    C410393   0.377   3.943   9.920  0.6333  0.3887  0.1579
  703TMC3    C510394   0.414   4.046   9.843  0.2386 -0.5633 -0.3322
  703TMC3    C610395   0.325   4.135   9.786  0.4889 -0.0097 -0.4015
  703TMC3     C10396   0.198   3.849  10.059 -0.4303 -0.0040  0.0331
  703TMC3     O10397   0.076   3.838  10.072  0.2445 -0.1682 -0.0167
  703TMC3     H10398   0.048   4.017   9.928  0.1968  0.2516 -0.7101
  703TMC3    H110399   0.453   3.880   9.965  1.2453 -0.4375 -2.0386
  703TMC3    H210400   0.341   4.217   9.718 -0.0404  0.6060  0.2113
  703TMC3    C710401   0.547   4.075   9.816  0.5177  0.7101  0.4132
  703TMC3    C810402   0.112   4.238   9.782  0.6224  0.6435  0.3630
  703TMC3    O110403   0.567   4.189   9.783 -0.0595 -0.1343  0.4433
  703TMC3    O210404   0.155   4.328   9.707 -1.3995 -0.0456  0.0417
  704TMC3    C110405   2.574   2.716  12.220  0.8198  0.2901  0.6134
  704TMC3    C210406   2.672   2.659  12.146  0.3973 -0.1659 -0.0399
  704TMC3    C310407   2.764   2.586  12.203 -0.1377  0.0890 -0.9120
  704TMC3    C410408   2.568   2.686  12.354  0.3959  0.9487  0.1918
  704TMC3    C510409   2.658   2.597  12.412 -0.0645 -0.2305 -0.1732
  704TMC3    C610410   2.767   2.555  12.338 -0.6215  0.3937 -0.3362
  704TMC3     C10411   2.449   2.684  12.163 -0.6314 -0.5016 -0.0358
  704TMC3     O10412   2.341   2.711  12.221  0.7611  0.3410 -0.4851
  704TMC3     H10413   2.691   2.687  12.043 -2.6390  1.6601 -0.1222
  704TMC3    H110414   2.501   2.743  12.416  0.8980  0.4061  1.2264
  704TMC3    H210415   2.827   2.471  12.371  2.1982  2.3688 -0.4515
  704TMC3    C710416   2.589   2.470  12.420  0.1869 -0.6292  0.4825
  704TMC3    C810417   2.843   2.521  12.113 -0.6069  0.1029 -0.7349
  704TMC3    O110418   2.643   2.360  12.410  0.1134 -0.3388  0.3884
  704TMC3    O210419   2.794   2.501  12.000 -0.4480 -0.1727 -0.5850
  705MPD2     C10420   1.360   1.077  16.782  0.0941 -0.4079 -0.1782
  705MPD2    C110421   1.289   1.118  16.672  0.6492  0.2252 -0.5130
  705MPD2    C210422   1.177   1.189  16.683 -0.4807 -0.7910 -0.3012
  705MPD2    C310423   1.120   1.224  16.801 -0.3855 -0.0427 -0.5743
  705MPD2    C410424   1.192   1.194  16.919 -0.6027  0.0367  0.4335
  705MPD2    C510425   1.303   1.104  16.907 -0.2623  0.0468 -0.1477
  705MPD2     H10426   1.118   1.205  16.593  2.1094  0.7800 -1.7257
  705MPD2    H110427   1.153   1.222  17.016  1.9816 -0.7661  1.7036
  705MPD2    H210428   1.452   1.020  16.783 -0.1720 -0.8562 -1.6508
  705MPD2    H310429   1.356   1.083  16.998  1.3884 -0.1840 -1.1694
  705MPD2     N10430   0.992   1.278  16.805  0.4474 -0.7025  0.1528
  705MPD2    H510431   0.945   1.282  16.714 -1.6400 -1.0117  1.2046
  705MPD2    N110432   1.348   1.106  16.542  0.1346 -1.1600 -0.4336
  705MPD2    H710433   1.313   1.180  16.483  0.4958 -0.1999  0.5607
  706TMC3    C110434   1.678   0.971  16.243  0.4921 -0.4215  0.3000
  706TMC3    C210435   1.616   1.031  16.132 -0.5215 -0.7381 -0.1315
  706TMC3    C310436   1.515   1.117  16.167 -0.1420 -0.2901  0.9629
  706TMC3    C410437   1.635   0.982  16.369 -0.0904  0.3386 -0.4199
  706TMC3    C510438   1.516   1.051  16.385  0.2689  0.7836 -0.0762
  706TMC3    C610439   1.453   1.126  16.289 -0.3811 -0.3197 -0.3614
  706TMC3     C10440   1.787   0.877  16.220  0.9137 -0.5249 -0.3666
  706TMC3     O10441   1.857   0.849  16.317  0.2804 -0.2680  0.0139
  706TMC3     H10442   1.657   1.039  16.032  0.0888 -0.9223  0.1034
  706TMC3    H110443   1.677   0.907  16.436  1.2547  1.5468  0.0710
  706TMC3    H210444   1.358   1.179  16.294 -0.7379 -0.9396 -0.5208
  706TMC3    C710445   1.460   1.031  16.514 -0.2496  0.0600  0.0631
  706TMC3    C810446   1.501   1.235  16.077  0.6592 -0.1775  0.0493
  706TMC3    O110447   1.529   0.958  16.583 -0.7042 -0.0999  0.2515
  706TMC3    O210448   1.524   1.207  15.960  0.2352 -0.3009 -0.5932
  707TMC3    C110449   2.965   4.307   1.135  0.2575  0.8305 -0.3005
  707TMC3    C210450   3.001   4.184   1.188  0.3276  0.0236 -0.2318
  707TMC3    C310451   2.914   4.127   1.272  0.1159 -0.2456  0.2023
  707TMC3    C410452   2.851   4.369   1.178  0.4301  0.1394 -0.3374
  707TMC3    C510453   2.768   4.301   1.256  0.1755 -0.3127  0.3557
  707TMC3    C610454   2.794   4.179   1.318 -0.4668  1.1694 -0.1559
  707TMC3     C10455   3.029   4.334   1.005  0.6434  0.5512  0.1268
  707TMC3     O10456   3.128   4.272   0.970 -0.1879 -0.4826 -0.0372
  707TMC3     H10457   3.089   4.134   1.149  0.7888  0.2504  0.5138
  707TMC3    H110458   2.826   4.470   1.145  0.0042  0.3740  0.7108
  707TMC3    H210459   2.743   4.136   1.403  2.1226 -1.8615 -0.1643
  707TMC3    C710460   2.694   4.384   1.356  0.9898 -0.7534 -0.4470
  707TMC3    C810461   2.953   3.991   1.323  0.5618 -0.0546 -0.3486
  707TMC3    O110462   2.712   4.375   1.477  0.1353 -0.9152  0.0577
  707TMC3    O210463   2.919   3.967   1.437  0.6513 -0.1380  0.1103
  708MPD2     C10464   4.471   4.137  13.558  0.5699 -0.5307  0.4340
  708MPD2    C110465   4.358   4.056  13.537 -0.5455 -0.2846  0.0362
  708MPD2    C210466   4.332   3.952  13.629 -0.0104 -0.8267 -0.1252
  708MPD2    C310467   4.409   3.950  13.744 -0.0955 -1.2084 -0.6288
  708MPD2    C410468   4.503   4.042  13.775 -0.2683  0.2556  1.5192
  708MPD2    C510469   4.537   4.138  13.681  0.4622  0.3459  0.4379
  708MPD2     H10470   4.256   3.880  13.601 -0.3069 -0.0217 -1.3611
  708MPD2    H110471   4.574   4.041  13.857 -0.0599 -1.1315  1.3321
  708MPD2    H210472   4.474   4.225  13.495  1.6836 -0.5149  0.5055
  708MPD2    H310473   4.605   4.220  13.701  0.0383  0.6987  0.4347
  708MPD2     N10474   4.391   3.848  13.834  0.7192  0.4250  0.3171
  708MPD2    H510475   4.431   3.862  13.927  0.8805 -0.5418  0.3955
  708MPD2    N110476   4.268   4.076  13.435  0.1911 -0.1605 -0.2404
  708MPD2    H710477   4.187   4.016  13.441  1.0030 -1.5485 -3.5370
  709TMC3    C110478   4.167   4.137  13.239 -0.7074  0.2078  0.1298
  709TMC3    C210479   4.212   4.082  13.126 -0.4717  0.4916  0.3227
  709TMC3    C310480   4.169   3.955  13.102  0.3772  0.4599  0.4050
  709TMC3    C410481   4.071   4.080  13.312 -0.2243  0.9678  0.2362
  709TMC3    C510482   4.014   3.963  13.272  0.0295  0.0006  0.2413
  709TMC3    C610483   4.076   3.889  13.177  0.5420  0.2484 -0.0158
  709TMC3     C10484   4.281   4.163  13.327 -0.1766 -0.3292  0.2433
  709TMC3     O10485   4.374   4.228  13.286  0.0596 -0.0587  0.2472
  709TMC3     H10486   4.297   4.126  13.074  0.2609 -0.0923  1.0230
  709TMC3    H110487   4.031   4.138  13.395  1.3172  1.0871  0.9094
  709TMC3    H210488   4.058   3.784  13.160 -0.3071  0.5983 -1.3060
  709TMC3    C710489   3.971   3.873  13.388  0.5314  0.0645 -0.5112
  709TMC3    C810490   4.277   3.870  13.056 -0.6128 -0.2399 -0.3880
  709TMC3    O110491   4.039   3.773  13.416  0.5641  0.5211 -0.5421
  709TMC3    O210492   4.278   3.761  13.106 -0.2788  0.2977  0.0250
  710TMC3    C110493   0.444   0.403   0.265  0.2596  0.2560 -0.3062
  710TMC3    C210494   0.507   0.435   0.145 -0.7547  0.4053 -0.9865
  710TMC3    C310495   0.508   0.339   0.052  0.5370  0.9237 -0.9189
  710TMC3    C410496   0.369   0.281   0.284  0.1993  0.2764 -0.3467
  710TMC3    C510497   0.381   0.187   0.178 -0.1342  0.0090 -0.1320
  710TMC3    C610498   0.445   0.212   0.061 -0.1237  0.3458 -0.1338
  710TMC3     C10499   0.521   0.418   0.394 -0.2306 -0.0485  0.1610
  710TMC3     O10500   0.500   0.337   0.483 -0.2116  0.4295  0.2169
  710TMC3     H10501   0.582   0.513   0.142 -0.3960  0.2293  2.7380
  710TMC3    H110502   0.335   0.255   0.383  0.0395  1.1697 -0.1675
  710TMC3    H210503   0.446   0.137  17.679 -0.4457 -0.0143  0.2079
  710TMC3    C710504   0.403   0.052   0.218 -0.1870  0.5162 -0.4303
  710TMC3    C810505   0.600   0.351  17.635  0.3784 -0.5220  0.1989
  710TMC3    O110506   0.340   0.026   0.321  0.4161  0.0490 -0.1468
  710TMC3    O210507   0.639   0.243  17.586 -0.3043 -0.0013  0.4610
  711TMC3    C110508   0.549   1.688  14.559  0.1057  0.0587 -0.7887
  711TMC3    C210509   0.573   1.709  14.691 -0.3351 -0.7656 -0.4360
  711TMC3    C310510   0.698   1.696  14.736 -0.5855 -0.3170 -0.3001
  711TMC3    C410511   0.647   1.650  14.477  0.4680  0.1358  0.0659
  711TMC3    C510512   0.770   1.632  14.523  0.1165  0.3702 -0.2795
  711TMC3    C610513   0.802   1.668  14.653  0.2148  0.5274  0.5149
  711TMC3     C10514   0.410   1.645  14.522 -0.4230 -0.2472  0.1366
  711TMC3     O10515   0.398   1.613  14.402 -0.0084 -0.5304 -0.1200
  711TMC3     H10516   0.498   1.716  14.768  0.1300  2.7946 -0.3411
  711TMC3    H110517   0.625   1.626  14.374 -1.8595 -0.7681  0.7839
  711TMC3    H210518   0.901   1.635  14.684 -0.0134 -0.7427 -0.1334
  711TMC3    C710519   0.862   1.545  14.448  0.2129  0.0812  0.1472
  711TMC3    C810520   0.707   1.668  14.877  0.5222  0.2062 -0.0215
  711TMC3    O110521   0.979   1.544  14.480  0.0722 -0.6635  0.9169
  711TMC3    O210522   0.609   1.616  14.928  0.8210  0.3255  0.2526
  712MPD2     C10523   2.419   2.929  13.815  0.0513  0.0564  0.3375
  712MPD2    C110524   2.425   2.810  13.740 -0.3059 -0.4806  0.2296
  712MPD2    C210525   2.417   2.827  13.607 -0.3003 -0.5470 -0.2778
  712MPD2    C310526   2.395   2.951  13.552  0.0405 -0.2763  0.1967
  712MPD2    C410527   2.400   3.062  13.627  0.2528  0.3237  0.4531
  712MPD2    C510528   2.413   3.057  13.760 -0.6905  0.0347 -0.0508
  712MPD2     H10529   2.392   2.739  13.548  4.6730 -2.0866 -0.0238
  712MPD2    H110530   2.379   3.162  13.591  0.2458  0.5310  1.0343
  712MPD2    H210531   2.426   2.936  13.923 -0.7673 -0.1613  0.4028
  712MPD2    H310532   2.422   3.144  13.824  0.7601  0.8843 -1.4158
  712MPD2     N10533   2.344   2.955  13.418 -0.1744  0.4802  0.2701
  712MPD2    H510534   2.329   2.866  13.373  0.3228  0.5320  0.0006
  712MPD2    N110535   2.419   2.679  13.788  0.0703 -0.1424  0.4424
  712MPD2    H710536   2.424   2.602  13.723 -0.9930  1.4236 -1.4809
  713TMC3    C110537   2.277   3.049  13.207  0.2396 -0.4574  0.3459
  713TMC3    C210538   2.397   2.989  13.162 -0.1606 -0.8331 -0.4762
  713TMC3    C310539   2.461   3.048  13.050  0.5817  0.2701  0.2156
  713TMC3    C410540   2.236   3.168  13.146 -0.6147  0.0142  0.1428
  713TMC3    C510541   2.302   3.216  13.034 -0.4602 -0.1720  0.5566
  713TMC3    C610542   2.411   3.154  12.977  0.4102  0.2099  0.2827
  713TMC3     C10543   2.299   3.068  13.352  0.6850  0.1335  0.9636
  713TMC3     O10544   2.289   3.184  13.393  0.0869  0.2396 -0.1256
  713TMC3     H10545   2.440   2.901  13.209 -1.4210 -0.3877  1.5214
  713TMC3    H110546   2.138   3.203  13.178 -0.1818 -1.3408  2.9806
  713TMC3    H210547   2.471   3.200  12.899 -0.7095  0.0377 -0.6747
  713TMC3    C710548   2.249   3.329  12.966 -0.1195 -0.5597  0.0712
  713TMC3    C810549   2.604   3.073  13.083 -0.0220 -0.5705 -1.0898
  713TMC3    O110550   2.308   3.357  12.862 -0.8030 -0.0108  0.2220
  713TMC3    O210551   2.666   3.128  12.994  0.4977 -0.5443 -0.0604
  714MPD2     C10552   4.185   2.250   1.541 -0.5114 -0.2269  0.1877
  714MPD2    C110553   4.164   2.152   1.440 -0.3689 -0.9452  0.8953
  714MPD2    C210554   4.052   2.150   1.364 -0.1785 -0.6728 -0.2723
  714MPD2    C310555   3.954   2.252   1.378 -0.5062  0.3472  0.4804
  714MPD2    C410556   3.983   2.356   1.468  0.2206 -0.2105  0.0860
  714MPD2    C510557   4.097   2.353   1.542  0.1885 -0.0927 -0.5528
  714MPD2     H10558   4.031   2.077   1.286 -0.0086 -1.4889  0.4558
  714MPD2    H110559   3.917   2.442   1.479 -0.0890 -0.1627 -2.1894
  714MPD2    H210560   4.270   2.243   1.608 -0.1050 -1.1409 -0.4128
  714MPD2    H310561   4.094   2.430   1.618 -0.9170  0.3485 -1.0481
  714MPD2     N10562   3.834   2.240   1.302  0.4265  0.0330  0.0069
  714MPD2    H510563   3.825   2.154   1.249  3.4841  0.0526 -0.5656
  714MPD2    N110564   4.274   2.069   1.406  0.6715 -0.2754 -0.5304
  714MPD2    H710565   4.360   2.075   1.458 -0.5195  0.7393  1.3241
  715TMC3    C110566   4.358   1.884   1.277 -0.4631  0.0823  0.3151
  715TMC3    C210567   4.324   1.763   1.212  0.1441  0.1584 -0.3173
  715TMC3    C310568   4.425   1.721   1.134 -0.1995  0.0631  0.1750
  715TMC3    C410569   4.471   1.956   1.264 -0.5068 -0.2429 -0.3759
  715TMC3    C510570   4.569   1.902   1.193 -0.7848 -0.6308  0.0622
  715TMC3    C610571   4.544   1.792   1.121 -0.6092  0.6532 -0.1208
  715TMC3     C10572   4.246   1.949   1.342  0.5849  0.3636  0.2761
  715TMC3     O10573   4.141   1.889   1.342 -0.5103  0.5188 -0.3225
  715TMC3     H10574   4.236   1.702   1.228  0.8993 -0.1250  2.7875
  715TMC3    H110575   4.477   2.057   1.305 -1.3655 -0.7609  1.0278
  715TMC3    H210576   4.632   1.751   1.072 -1.7954  1.0315 -2.5935
  715TMC3    C710577   4.708   1.957   1.208  0.0578  0.6965  0.5301
  715TMC3    C810578   4.396   1.605   1.057  0.6363 -0.7698 -0.8291
  715TMC3    O110579   0.063   1.923   1.123  0.0583 -0.0542 -0.6629
  715TMC3    O210580   4.313   1.527   1.100  0.3247  0.2387 -0.0574
  716MPD2     C10581   3.963   3.029   8.995 -0.4521  0.0180  0.4977
  716MPD2    C110582   3.865   3.003   8.900 -0.1070 -0.3644  0.4201
  716MPD2    C210583   3.878   2.888   8.825 -0.3289  0.3081  0.0615
  716MPD2    C310584   3.980   2.802   8.846  0.7954  0.4521 -0.3622
  716MPD2    C410585   4.073   2.822   8.950  0.4468 -0.5764  0.0131
  716MPD2    C510586   4.062   2.939   9.023  0.7226  0.3917 -0.2507
  716MPD2     H10587   3.795   2.856   8.763 -0.0268  0.4754 -0.4289
  716MPD2    H110588   4.157   2.756   8.972  0.7052 -0.2374  0.0575
  716MPD2    H210589   3.970   3.120   9.054  0.3360  1.4458 -1.8106
  716MPD2    H310590   4.139   2.963   9.095 -0.6826  1.7513  0.8207
  716MPD2     N10591   3.985   2.689   8.760  0.1337  0.1578  0.4305
  716MPD2    H510592   3.916   2.692   8.685  1.2345 -2.7671 -0.7066
  716MPD2    N110593   3.762   3.100   8.879 -0.1154  0.8334 -0.8300
  716MPD2    H710594   3.771   3.182   8.938 -1.7501  0.0988  0.4318
  717TMC3    C110595   4.059   2.484   8.671  0.3798 -0.5276 -0.4581
  717TMC3    C210596   3.951   2.513   8.594  0.4434  0.3143 -0.0111
  717TMC3    C310597   3.861   2.415   8.565 -0.4917 -0.2587 -0.1203
  717TMC3    C410598   4.070   2.352   8.714  0.0358 -0.7555 -0.7571
  717TMC3    C510599   3.982   2.257   8.675 -0.0901  0.3746  0.0287
  717TMC3    C610600   3.864   2.288   8.606 -0.2694 -0.3126 -0.7176
  717TMC3     C10601   4.092   2.596   8.759 -0.0894 -0.8909  0.3887
  717TMC3     O10602   4.169   2.566   8.847  0.0395 -0.1958 -0.0988
  717TMC3     H10603   3.964   2.603   8.535  1.1981 -0.1280 -0.5199
  717TMC3    H110604   4.144   2.324   8.788 -0.9837 -2.1815 -0.2676
  717TMC3    H210605   3.784   2.218   8.585 -0.7669  0.2497 -0.6801
  717TMC3    C710606   4.007   2.117   8.709  0.0122  0.2148  0.1939
  717TMC3    C810607   3.739   2.477   8.514  0.5438  0.1599 -0.1074
  717TMC3    O110608   3.916   2.041   8.674  0.2722  0.1522  0.2129
  717TMC3    O210609   3.720   2.597   8.534  0.6301  0.3581  0.2165
  718MPD2     C10610   4.225   3.002  13.012  0.8042 -0.2401  0.2129
  718MPD2    C110611   4.219   2.889  12.935 -0.2349 -0.0816  0.2099
  718MPD2    C210612   4.097   2.836  12.898 -0.5752  0.0427 -0.2592
  718MPD2    C310613   3.980   2.908  12.923  0.5891 -0.3834  0.1340
  718MPD2    C410614   3.989   3.033  12.988  0.1824 -0.1906 -0.1436
  718MPD2    C510615   4.107   3.075  13.033 -0.5711 -0.0546  0.4218
  718MPD2     H10616   4.083   2.752  12.831  0.0475 -0.2239 -0.0499
  718MPD2    H110617   3.900   3.079  13.030  0.2357 -2.1802  2.1703
  718MPD2    H210618   4.317   3.037  13.058 -0.1782  4.4890 -1.4477
  718MPD2    H310619   4.110   3.157  13.104 -0.9417 -0.6555  1.1184
  718MPD2     N10620   3.855   2.838  12.894  0.1652  0.7822 -0.4795
  718MPD2    H510621   3.872   2.746  12.854  2.6125  1.4994 -1.0722
  718MPD2    N110622   4.343   2.831  12.893 -0.3655 -0.0670  0.3872
  718MPD2    H710623   4.425   2.885  12.919 -0.7744 -0.2916  2.1574
  719TMC3    C110624   4.477   2.672  12.774 -0.9648  0.4381 -0.4605
  719TMC3    C210625   4.462   2.554  12.704 -0.1404 -0.4061  0.0055
  719TMC3    C310626   4.496   2.537  12.573  0.4240  0.4973 -0.2546
  719TMC3    C410627   4.569   2.764  12.729 -0.6066 -1.1043  0.9838
  719TMC3    C510628   4.617   2.738  12.604 -0.5336 -0.4614  0.3866
  719TMC3    C610629   4.575   2.636  12.524  0.3754 -0.2274  0.1721
  719TMC3     C10630   4.347   2.717  12.818 -0.2502  0.4329 -0.3111
  719TMC3     O10631   4.255   2.643  12.785  0.3122 -0.3975 -0.3477
  719TMC3     H10632   4.403   2.476  12.753 -1.5244 -0.2709 -1.4452
  719TMC3    H110633   4.603   2.842  12.796 -1.7213  0.5964 -0.4372
  719TMC3    H210634   4.610   2.617  12.423 -1.2254  0.7931 -0.5830
  719TMC3    C710635   4.722   2.820  12.554 -0.0240 -0.2085 -0.4000
  719TMC3    C810636   4.399   2.500  12.480  0.3419 -0.0495  0.2427
  719TMC3    O110637   0.027   2.795  12.437 -0.0100 -0.7300  0.2829
  719TMC3    O210638   4.418   2.516  12.360 -0.4612  0.3059 -0.6559
  720MPD2     C10639   1.575   4.718  13.732 -0.4693  0.0161  1.0538
  720MPD2    C110640   1.699   4.713  13.668  0.4847 -0.3071 -0.2143
  720MPD2    C210641   1.811   4.653  13.736 -0.3265  0.0040  0.2770
  720MPD2    C310642   1.793   4.611  13.868 -0.2617  0.1121 -0.1997
  720MPD2    C410643   1.677   4.624  13.935 -0.1974 -0.0564  0.3918
  720MPD2    C510644   1.570   4.684  13.862 -0.7843  0.1496  0.0265
  720MPD2     H10645   1.904   4.645  13.682 -1.1235 -2.1054 -0.8056
  720MPD2    H110646   1.659   4.595  14.038  0.1360  1.4529  0.8763
  720MPD2    H210647   1.493   0.044  13.683  0.3658  0.9487  0.5957
  720MPD2    H310648   1.472   4.670  13.907 -0.9304  0.6821 -0.1272
  720MPD2     N10649   1.907   4.562  13.939  0.1441 -0.0824 -0.4111
  720MPD2    H510650   1.995   4.567  13.889  0.0506  0.6555 -0.5148
  720MPD2    N110651   1.712   0.039  13.538 -0.2392 -0.2002 -0.0992
  720MPD2    H710652   1.796   0.021  13.485 -0.1406  1.2644 -0.4517
  721TMC3    C110653   2.050   4.505  14.113 -0.6070 -0.2091  0.5595
  721TMC3    C210654   2.071   4.580  14.229 -0.5521  0.0638  0.3655
  721TMC3    C310655   2.196   4.639  14.239  0.7469  0.1765  0.4128
  721TMC3    C410656   2.147   4.485  14.015 -0.4588  0.3491  0.0126
  721TMC3    C510657   2.273   4.540  14.037  0.1855  0.5386 -0.0956
  721TMC3    C610658   2.294   4.615  14.141  0.0710  0.0081  0.0794
  721TMC3     C10659   1.911   4.521  14.069  0.5117  0.2163 -0.1846
  721TMC3     O10660   1.824   4.510  14.160  0.1725  0.6365  0.2249
  721TMC3     H10661   1.984   4.597  14.291 -0.0866  0.9877  0.7521
  721TMC3    H110662   2.134   4.423  13.928 -2.5666  0.4501  0.2555
  721TMC3    H210663   2.398   4.641  14.157  0.4635 -0.5147 -1.6403
  721TMC3    C710664   2.380   4.442  14.036  0.8811 -1.2204 -0.1948
  721TMC3    C810665   2.254   4.619  14.371 -0.1782 -0.3729  0.6756
  721TMC3    O110666   2.356   4.339  14.091 -0.7116 -0.0730 -0.2682
  721TMC3    O210667   2.377   4.601  14.374  0.4263  0.5437  0.0822
  722MPD2     C10668   1.248   3.326  13.538 -0.0019  0.7533 -0.4342
  722MPD2    C110669   1.180   3.403  13.448 -0.0608  0.7047  0.1095
  722MPD2    C210670   1.055   3.365  13.418 -0.4284 -0.4945 -0.2187
  722MPD2    C310671   0.986   3.270  13.496 -0.2881 -0.6469  0.7950
  722MPD2    C410672   1.054   3.218  13.608 -0.0963  0.3255  0.1684
  722MPD2    C510673   1.187   3.246  13.624  0.1116  0.6793 -0.2845
  722MPD2     H10674   1.008   3.428  13.343 -0.9330 -1.4116 -0.6732
  722MPD2    H110675   1.008   3.153  13.682 -0.8777  0.4602 -0.1955
  722MPD2    H210676   1.352   3.351  13.556  0.0392 -0.0436  0.4496
  722MPD2    H310677   1.245   3.203  13.706 -0.7342 -0.4195 -0.2620
  722MPD2     N10678   0.849   3.242  13.464  0.1579 -0.4437 -0.1462
  722MPD2    H510679   0.808   3.282  13.380  1.4014 -0.2135 -0.6541
  722MPD2    N110680   1.243   3.507  13.378  0.4552  0.6369 -0.4208
  722MPD2    H710681   1.173   3.573  13.345 -0.9576 -0.7744 -0.2381
  723TMC3    C110682   0.639   3.134  13.460 -0.0700  0.4634 -0.4572
  723TMC3    C210683   0.558   3.026  13.501  0.4272 -0.0123  0.1355
  723TMC3    C310684   0.448   3.000  13.422 -0.5724  0.8512  0.7058
  723TMC3    C410685   0.604   3.206  13.345 -0.3555 -0.4891 -0.2856
  723TMC3    C510686   0.493   3.167  13.270  0.0711  0.2227 -0.2937
  723TMC3    C610687   0.415   3.067  13.307 -0.7033  0.2879 -0.0350
  723TMC3     C10688   0.765   3.156  13.534 -0.5511 -0.3422  0.3153
  723TMC3     O10689   0.775   3.112  13.647 -0.1128 -0.0712 -0.3200
  723TMC3     H10690   0.573   2.965  13.589  0.0153  1.0938  0.9689
  723TMC3    H110691   0.668   3.286  13.308  0.1072 -0.7415 -0.0257
  723TMC3    H210692   0.323   3.047  13.254  1.3772 -1.2943 -3.0285
  723TMC3    C710693   0.421   3.266  13.193 -0.2894 -0.2502 -0.5492
  723TMC3    C810694   0.375   2.887  13.460 -0.7750  0.6312 -0.3139
  723TMC3    O110695   0.299   3.259  13.176  0.6547 -0.1691 -0.0056
  723TMC3    O210696   0.372   2.861  13.579  0.2924  0.1096  0.1317
  724TMC3    C110697   1.659   0.699   9.210  0.3299  0.2477 -0.5994
  724TMC3    C210698   1.592   0.813   9.183 -0.2367 -0.6901  0.5186
  724TMC3    C310699   1.655   0.933   9.205  0.1296 -0.1471 -0.7668
  724TMC3    C410700   1.795   0.701   9.226  0.4969  0.1859 -0.2336
  724TMC3    C510701   1.859   0.822   9.222  0.4787 -0.0828  0.1367
  724TMC3    C610702   1.792   0.945   9.225 -0.7128 -0.4325 -0.3735
  724TMC3     C10703   1.603   0.575   9.177  0.6501  0.6870  0.0575
  724TMC3     O10704   1.536   0.583   9.075  0.0986  0.1235 -0.2656
  724TMC3     H10705   1.486   0.812   9.164  0.0286  1.1224 -1.0196
  724TMC3    H110706   1.853   0.608   9.225 -0.8597 -0.6656  0.4217
  724TMC3    H210707   1.833   1.044   9.209  0.9132 -0.9882  0.3226
  724TMC3    C710708   1.991   0.837   9.269  0.2622 -0.1881  0.3202
  724TMC3    C810709   1.571   1.049   9.221  0.5642  0.0139  0.7838
  724TMC3    O110710   2.028   0.944   9.317  0.2935  0.4107  0.4410
  724TMC3    O210711   1.457   1.037   9.183 -0.1422  0.0258  0.2256
  725TMC3    C110712   2.124   0.152  12.706 -0.2945  0.5356  0.7474
  725TMC3    C210713   2.025   0.131  12.613 -0.4652  0.2217  0.0538
  725TMC3    C310714   1.999   0.002  12.578  0.7974  1.1425 -0.5432
  725TMC3    C410715   2.186   0.047  12.767  0.1175 -0.6250 -0.4668
  725TMC3    C510716   2.169   4.648  12.716  0.3009 -0.1632 -0.9745
  725TMC3    C610717   2.074   4.619  12.623  0.1244  0.0801  0.3039
  725TMC3     C10718   2.194   0.273  12.693 -0.1446 -0.1567  0.1130
  725TMC3     O10719   2.183   0.325  12.584  0.2952  0.4845 -0.3040
  725TMC3     H10720   1.970   0.220  12.584 -0.8471 -0.6066 -1.8044
  725TMC3    H110721   2.278   0.071  12.818 -2.3179  2.4656  2.4077
  725TMC3    H210722   2.069   4.523  12.573 -0.3837  0.7482 -0.9625
  725TMC3    C710723   2.287   4.551  12.721  0.1257 -0.6284 -0.0612
  725TMC3    C810724   1.933   4.720  12.451 -0.0326  0.2862 -0.1116
  725TMC3    O110725   2.325   4.499  12.618  1.1475 -0.8133 -0.3546
  725TMC3    O210726   1.896   4.613  12.406 -0.3201  0.0367 -0.0261
  726MPD2     C10727   1.099   1.450  10.085 -0.5524  0.0537 -0.7651
  726MPD2    C110728   0.983   1.452  10.004 -0.3498 -0.2880 -0.1883
  726MPD2    C210729   0.909   1.338   9.980 -0.4318  0.4205  0.7954
  726MPD2    C310730   0.945   1.218  10.047 -0.0067  0.6241 -0.0740
  726MPD2    C410731   1.050   1.218  10.135  0.0467  0.5392  0.1996
  726MPD2    C510732   1.130   1.331  10.146 -0.0479 -0.0545  0.1010
  726MPD2     H10733   0.818   1.346   9.921  0.2804 -1.7283 -0.5864
  726MPD2    H110734   1.076   1.127  10.189 -0.0610  0.4478  0.0980
  726MPD2    H210735   1.177   1.527  10.086 -0.9696  0.4706 -0.3786
  726MPD2    H310736   1.225   1.317  10.195 -0.5128  1.4881  1.4444
  726MPD2     N10737   0.881   1.093  10.027 -0.1190 -0.0540 -0.4610
  726MPD2    H510738   0.909   1.010  10.077 -1.1692  1.0188  1.9170
  726MPD2    N110739   0.930   1.561   9.932 -0.2253  0.1104  0.1565
  726MPD2    H710740   0.851   1.554   9.868 -0.7511  0.1715  0.8079
  727TMC3    C110741   0.931   1.766   9.821  1.2315  0.1460  0.5455
  727TMC3    C210742   1.017   1.841   9.749  0.6141  0.4571 -0.1089
  727TMC3    C310743   0.983   1.961   9.710  0.3919 -0.6753 -0.6227
  727TMC3    C410744   0.800   1.805   9.837 -0.0811 -0.1852 -0.2047
  727TMC3    C510745   0.762   1.927   9.780 -0.1610 -0.5831 -0.0674
  727TMC3    C610746   0.854   2.006   9.713  0.0316 -0.0310 -0.2900
  727TMC3     C10747   0.994   1.677   9.918  0.1443  0.3272  0.7113
  727TMC3     O10748   1.107   1.712   9.956  0.0772  0.5113 -0.3896
  727TMC3     H10749   1.120   1.807   9.740  0.4463 -0.0184 -0.2498
  727TMC3    H110750   0.732   1.757   9.907  3.4529 -3.1002  1.2620
  727TMC3    H210751   0.824   2.096   9.662 -3.3305 -0.0896  1.5789
  727TMC3    C710752   0.625   1.979   9.805 -0.7667  0.1073 -0.1926
  727TMC3    C810753   1.092   2.057   9.738  0.2195  0.3202 -0.1448
  727TMC3    O110754   0.621   2.101   9.820 -0.2631  0.2763  0.6850
  727TMC3    O210755   1.201   2.007   9.744 -0.0755 -0.0674 -0.5113
  728TMC3    C110756   4.561   0.316  14.833  0.4032  0.2135 -0.2088
  728TMC3    C210757   4.690   0.352  14.811  0.0881  0.2482  0.1982
  728TMC3    C310758   0.008   0.406  14.696  0.1549  0.8858 -0.0312
  728TMC3    C410759   4.469   0.344  14.732 -0.2502  0.3241 -0.1756
  728TMC3    C510760   4.517   0.409  14.622  0.0445 -0.0471 -0.4916
  728TMC3    C610761   4.648   0.427  14.593 -0.2950 -0.2626  0.3888
  728TMC3     C10762   4.512   0.292  14.973 -0.6757  0.0314  0.0707
  728TMC3     O10763   4.598   0.292  15.057  0.1781 -0.5142 -0.5107
  728TMC3     H10764   0.042   0.332  14.886  0.1601  0.0958  0.0845
  728TMC3    H110765   4.367   0.309  14.727  0.3572 -1.5986  0.8693
  728TMC3    H210766   4.679   0.459  14.494 -1.7433 -2.0526 -0.6527
  728TMC3    C710767   4.416   0.435  14.523 -1.2504  0.0296  0.3300
  728TMC3    C810768   0.143   0.473  14.697  0.0063  0.0114 -0.0914
  728TMC3    O110769   4.348   0.345  14.476 -0.4148  0.0699  0.1103
  728TMC3    O210770   0.190   0.486  14.811 -0.6392 -0.0521 -0.3129
  729MPD2     C10771   1.543   1.790  16.751  0.3509 -0.1676 -0.1584
  729MPD2    C110772   1.655   1.743  16.819  0.1992  0.2516 -0.3014
  729MPD2    C210773   1.654   1.737  16.958 -0.3191  0.0149  0.2280
  729MPD2    C310774   1.541   1.776  17.023 -0.6578  0.0618 -0.6706
  729MPD2    C410775   1.428   1.823  16.953  0.6650  0.1190  0.8254
  729MPD2    C510776   1.429   1.830  16.821  0.0058 -0.1016  0.0814
  729MPD2     H10777   1.745   1.709  17.009  0.1875  3.1206  1.0259
  729MPD2    H110778   1.336   1.852  17.003  0.3237  4.0192 -2.0490
  729MPD2    H210779   1.539   1.796  16.643 -0.7408  1.8777 -0.0159
  729MPD2    H310780   1.342   1.856  16.762  0.1623  0.7204  0.2119
  729MPD2     N10781   1.525   1.773  17.166 -0.0382  0.0715  0.2267
  729MPD2    H510782   1.448   1.823  17.210 -1.0276 -3.2138  2.2101
  729MPD2    N110783   1.763   1.708  16.738 -0.2597  0.5432  0.0338
  729MPD2    H710784   1.746   1.733  16.641  2.2895 -0.1701 -0.5819
  730TMC3    C110785   1.625   1.770  17.382  0.6706  0.2065  0.2180
  730TMC3    C210786   1.690   1.696  17.477  0.1351 -0.3878 -0.2343
  730TMC3    C310787   1.764   1.766  17.561  0.0186 -0.5126  0.1366
  730TMC3    C410788   1.606   1.906  17.396  0.3449 -0.0952 -0.7175
  730TMC3    C510789   1.683   1.965  17.488  0.1332 -0.0342 -0.2008
  730TMC3    C610790   1.768   1.897  17.566 -0.6235  0.2307  0.2392
  730TMC3     C10791   1.620   1.711  17.249  0.4386 -0.2202 -0.1923
  730TMC3     O10792   1.705   1.626  17.221 -0.0511 -0.1418 -0.2668
  730TMC3     H10793   1.697   1.589  17.459 -0.4993 -0.5226  0.3256
  730TMC3    H110794   1.570   1.972  17.317 -1.1198 -1.9064 -1.5621
  730TMC3    H210795   1.842   1.954  17.621 -0.3945 -0.8046  0.9836
  730TMC3    C710796   1.731   2.092  17.446 -0.4803 -0.4722  0.2063
  730TMC3    C810797   1.892   1.700  17.582 -0.0489  0.2801  0.7755
  730TMC3    O110798   1.706   2.131  17.331  0.1751  0.4663  0.2026
  730TMC3    O210799   1.872   1.581  17.612  0.1728  0.2750  0.2552
  731MPD2     C10800   2.046   0.034  11.735 -0.6937  0.2522 -0.4383
  731MPD2    C110801   2.179   0.011  11.759  0.3934 -0.6970  0.2813
  731MPD2    C210802   2.207   4.656  11.869 -0.4036  0.1025  0.2690
  731MPD2    C310803   2.108   4.602  11.945  0.0885 -0.3439 -0.0847
  731MPD2    C410804   1.971   4.623  11.917 -0.1172  0.0387  0.1810
  731MPD2    C510805   1.944   4.710  11.812 -0.0033  0.1615  0.2447
  731MPD2     H10806   2.309   4.628  11.890  0.2414  1.8685 -0.5631
  731MPD2    H110807   1.882   4.573  11.954  2.0006 -1.7147  2.8811
  731MPD2    H210808   2.020   0.096  11.650  2.4951 -1.4763 -2.7047
  731MPD2    H310809   1.846   0.011  11.775 -0.2975 -1.8371 -0.2939
  731MPD2     N10810   2.143   4.516  12.046  0.0752  0.2240 -0.1545
  731MPD2    H510811   2.241   4.504  12.072  0.0033  0.0968  0.0696
  731MPD2    N110812   2.270   0.062  11.669 -0.0768 -0.2240 -0.0581
  731MPD2    H710813   2.232   0.110  11.588  0.3933  0.6436  0.2358
  732TMC3    C110814   2.482   0.053  11.566  0.6901  0.0163 -0.3046
  732TMC3    C210815   2.439   4.705  11.464  0.0118  0.8363  0.7057
  732TMC3    C310816   2.523   4.643  11.377  0.0236 -0.0362 -0.6721
  732TMC3    C410817   2.617   0.060  11.587  0.1358  0.0445 -0.2753
  732TMC3    C510818   2.705   4.720  11.502  0.2132 -0.0186  0.3353
  732TMC3    C610819   2.665   4.656  11.392  0.3898 -0.2456  0.2380
  732TMC3     C10820   2.403   0.039  11.683 -0.0879  0.6320 -0.1470
  732TMC3     O10821   2.466   0.003  11.783  0.0220  0.0691 -0.6223
  732TMC3     H10822   2.335   4.719  11.436  0.7943  1.6232 -1.7472
  732TMC3    H110823   2.653   0.112  11.675  0.6200 -0.8680  0.0728
  732TMC3    H210824   2.740   4.601  11.334  0.2585 -0.0103 -0.1555
  732TMC3    C710825   2.845   4.719  11.537 -0.3639  0.0262 -0.6025
  732TMC3    C810826   2.492   4.508  11.354 -0.1785  0.1681 -0.1284
  732TMC3    O110827   2.926   4.694  11.447  0.2401  0.1524  0.0805
  732TMC3    O210828   2.578   4.431  11.312 -0.2164  0.2038  0.9311
  733TMC3    C110829   3.427   2.716  12.768 -0.9492 -0.0886 -0.1904
  733TMC3    C210830   3.505   2.800  12.849 -0.8324 -0.9534  0.0844
  733TMC3    C310831   3.637   2.813  12.817  0.2964 -0.0416 -0.8575
  733TMC3    C410832   3.485   2.636  12.669  0.1001 -0.4096 -0.5199
  733TMC3    C510833   3.620   2.635  12.663 -0.5288 -0.1748 -0.4462
  733TMC3    C610834   3.695   2.735  12.720  1.2308  0.5595  0.3726
  733TMC3     C10835   3.323   2.652  12.840 -0.1362 -0.8770 -0.7537
  733TMC3     O10836   3.232   2.610  12.775  0.1783  0.1798 -0.7673
  733TMC3     H10837   3.461   2.864  12.925  1.5781  0.7228  0.0719
  733TMC3    H110838   3.431   2.558  12.617  2.4423 -1.9257 -0.6681
  733TMC3    H210839   3.794   2.755  12.680  1.4888 -1.3860  0.0549
  733TMC3    C710840   3.678   2.562  12.558 -0.4570  0.1520 -0.9998
  733TMC3    C810841   3.726   2.883  12.904 -0.3229 -0.1827  0.4106
  733TMC3    O110842   3.602   2.531  12.467 -0.0410  0.0661  0.0900
  733TMC3    O210843   3.684   2.950  12.996  0.4077  0.0676 -0.0504
  734MPD2     C10844   0.725   0.276  11.551 -0.1451 -0.6348 -0.0073
  734MPD2    C110845   0.674   0.165  11.482  0.4415  0.0484  0.4854
  734MPD2    C210846   0.646   0.180  11.350  0.7925  0.3778 -0.4004
  734MPD2    C310847   0.674   0.290  11.280  0.0089 -0.2571 -0.8169
  734MPD2    C410848   0.740   0.397  11.350  0.8962 -0.4912 -0.2752
  734MPD2    C510849   0.760   0.390  11.486 -0.5346 -0.1924  0.1420
  734MPD2     H10850   0.600   0.100  11.294 -1.0475 -0.8429  2.8872
  734MPD2    H110851   0.771   0.491  11.305  2.8819 -1.2110 -0.4071
  734MPD2    H210852   0.759   0.261  11.653  2.1292 -0.8082 -0.7891
  734MPD2    H310853   0.819   0.463  11.540  1.4650  0.0052 -2.3173
  734MPD2     N10854   0.639   0.291  11.151 -0.3096  0.2108 -0.6852
  734MPD2    H510855   0.601   0.202  11.123  2.1348 -1.5278  1.4881
  734MPD2    N110856   0.657   0.043  11.553  0.1130  0.6510  1.0688
  734MPD2    H710857   0.691   0.033  11.648  1.8082 -0.5212  0.3403
  735TMC3    C110858   0.580   4.546  11.599  0.0499  0.6798 -0.0163
  735TMC3    C210859   0.479   4.458  11.566  0.4393  0.5864 -0.2086
  735TMC3    C310860   0.514   4.325  11.542 -0.6266 -0.2375 -0.0825
  735TMC3    C410861   0.707   4.508  11.635 -0.5607  0.6350  0.4329
  735TMC3    C510862   0.722   4.371  11.634 -0.0525 -1.0525  0.4407
  735TMC3    C610863   0.636   4.285  11.585  0.2769 -0.8382  0.0724
  735TMC3     C10864   0.573   4.665  11.513 -0.3219  0.0957  0.7529
  735TMC3     O10865   0.485   4.677  11.433 -0.0690  1.1572  0.6513
  735TMC3     H10866   0.385   4.506  11.542 -0.0113  0.8326  1.9896
  735TMC3    H110867   0.780   4.568  11.687  0.5254  0.9231 -1.4162
  735TMC3    H210868   0.670   4.186  11.558 -2.5185 -1.0302 -2.7089
  735TMC3    C710869   0.859   4.342  11.655  0.6099 -0.3190  0.0736
  735TMC3    C810870   0.501   4.286  11.399  0.5313  0.1776 -0.0609
  735TMC3    O110871   0.940   4.432  11.625 -0.5417  0.0299 -0.4237
  735TMC3    O210872   0.520   4.167  11.368  0.5028  0.5083 -0.3565
  736MPD2     C10873   0.997   4.035  11.799  0.1779 -0.2555  0.2477
  736MPD2    C110874   0.997   4.157  11.746  0.8042 -0.3193 -0.0305
  736MPD2    C210875   1.115   4.205  11.694 -0.2475 -0.1059 -0.9067
  736MPD2    C310876   1.227   4.129  11.708  1.2670  0.2617 -0.8683
  736MPD2    C410877   1.226   4.014  11.788 -0.3423  0.0927  1.0624
  736MPD2    C510878   1.108   3.967  11.830  0.2350  0.2597 -0.6019
  736MPD2     H10879   1.126   4.306  11.656 -1.1209 -0.1048 -1.1401
  736MPD2    H110880   1.319   3.961  11.797  0.6285  1.3092 -1.8239
  736MPD2    H210881   0.903   3.983  11.816 -0.1547  0.4113  0.4644
  736MPD2    H310882   1.112   3.881  11.895 -1.0014 -0.7367 -1.8580
  736MPD2     N10883   1.351   4.163  11.650  0.6820 -0.3267  0.2641
  736MPD2    H510884   1.433   4.105  11.656  1.9452  1.4060 -0.2169
  736MPD2    N110885   0.876   4.222  11.716 -0.2065  0.2316 -0.2736
  736MPD2    H710886   0.797   4.183  11.768 -0.4190 -0.6710 -1.2753
  737TMC3    C110887   1.513   4.273  11.505  0.6685 -0.1652  0.7714
  737TMC3    C210888   1.533   4.379  11.423  0.1154 -0.6262  0.0717
  737TMC3    C310889   1.570   4.373  11.295 -0.1957 -0.2121 -0.1638
  737TMC3    C410890   1.529   4.147  11.446 -0.5176  0.2145 -0.2659
  737TMC3    C510891   1.572   4.136  11.312  0.4129  0.3831  0.1200
  737TMC3    C610892   1.581   4.250  11.230 -0.5540  0.3883 -0.1839
  737TMC3     C10893   1.387   4.280  11.579 -0.3026 -0.4562 -0.1892
  737TMC3     O10894   1.326   4.383  11.561 -0.1772  0.1093  0.4199
  737TMC3     H10895   1.500   4.475  11.462 -0.1319 -0.2084 -1.1606
  737TMC3    H110896   1.507   4.058  11.503  0.8270  0.6294  0.9072
  737TMC3    H210897   1.606   4.240  11.126 -0.9016  0.9078 -0.3175
  737TMC3    C710898   1.628   4.005  11.275  0.1645 -0.0188 -0.3816
  737TMC3    C810899   1.558   4.489  11.207 -0.7696 -0.1081  0.3971
  737TMC3    O110900   1.586   3.901  11.327 -0.2666  0.6173  0.2712
  737TMC3    O210901   1.527   4.594  11.257 -0.5126  0.1738  0.3079
  738MPD2     C10902   1.547   3.247  15.110  0.0381 -0.1810  0.6494
  738MPD2    C110903   1.451   3.307  15.032  0.3614  1.2471 -0.4931
  738MPD2    C210904   1.477   3.440  14.987 -0.5342  0.2535  0.1284
  738MPD2    C310905   1.589   3.508  15.026 -0.4569 -0.4500 -0.7015
  738MPD2    C410906   1.674   3.449  15.113  0.3978 -0.6566 -0.7849
  738MPD2    C510907   1.653   3.322  15.159 -0.0182 -0.5689 -0.5309
  738MPD2     H10908   1.401   3.488  14.925 -0.1016 -1.1258 -1.4680
  738MPD2    H110909   1.768   3.491  15.148 -0.3658  0.5876 -0.2130
  738MPD2    H210910   1.532   3.151  15.157 -0.9304 -1.4914 -2.3400
  738MPD2    H310911   1.733   3.284  15.222  0.9731  1.0432 -0.7947
  738MPD2     N10912   1.623   3.638  14.978 -0.1405 -0.1518 -0.0364
  738MPD2    H510913   1.707   3.683  15.014  0.4905 -2.5060  1.3764
  738MPD2    N110914   1.321   3.257  15.007  0.0797  0.4159 -0.3514
  738MPD2    H710915   1.264   3.318  14.949 -1.6604 -0.9964 -0.1268
  739TMC3    C110916   1.601   3.836  14.863 -0.0435 -0.1176 -0.2937
  739TMC3    C210917   1.531   3.916  14.782 -0.1419 -0.1067 -0.0880
  739TMC3    C310918   1.587   4.031  14.734  0.3546 -0.0785  0.4735
  739TMC3    C410919   1.734   3.861  14.894 -0.1581  0.2286  0.2187
  739TMC3    C510920   1.791   3.974  14.841 -0.9400 -0.3568 -0.1275
  739TMC3    C610921   1.717   4.058  14.761  0.1117  0.1710  0.3902
  739TMC3     C10922   1.543   3.714  14.893  0.0555  0.2056 -1.7093
  739TMC3     O10923   1.454   3.667  14.819  0.7178  0.1056 -0.8936
  739TMC3     H10924   1.429   3.885  14.763 -0.5426  1.6407 -0.8045
  739TMC3    H110925   1.803   3.793  14.942  1.3985  1.4478 -0.2895
  739TMC3    H210926   1.763   4.153  14.734 -0.6517  0.0977 -1.1657
  739TMC3    C710927   1.928   4.011  14.883 -0.2580 -0.0515 -0.0165
  739TMC3    C810928   1.507   4.111  14.643  0.2991 -0.1345  0.0329
  739TMC3    O110929   1.967   3.970  14.991 -0.0709 -0.1439 -0.1198
  739TMC3    O210930   1.395   4.063  14.627 -0.1880  0.2205 -0.2163
  740TMC3    C110931   1.719   0.333  13.827 -0.4988 -0.3885 -0.3252
  740TMC3    C210932   1.760   0.276  13.944  0.2350 -0.0267 -0.3930
  740TMC3    C310933   1.882   0.217  13.944 -0.2954 -0.4306 -0.0727
  740TMC3    C410934   1.793   0.328  13.712 -0.6497  0.4134 -0.3299
  740TMC3    C510935   1.907   0.258  13.722 -0.5774 -0.1911  0.6843
  740TMC3    C610936   1.960   0.208  13.839  0.3420 -0.4094  0.3096
  740TMC3     C10937   1.580   0.387  13.822  0.6116 -0.0050  0.0280
  740TMC3     O10938   1.554   0.443  13.716  0.2931  0.6047 -0.3819
  740TMC3     H10939   1.706   0.298  14.036  1.2437 -0.4497  0.3049
  740TMC3    H110940   1.753   0.352  13.615 -1.2566  2.5083  0.4361
  740TMC3    H210941   2.058   0.163  13.852  1.4617  2.4490  1.7793
  740TMC3    C710942   1.984   0.224  13.604  0.5199  0.2613  0.5605
  740TMC3    C810943   1.942   0.199  14.076 -0.1006  0.3824  0.4077
  740TMC3    O110944   2.052   0.120  13.616  0.4230  0.7662 -0.4994
  740TMC3    O210945   2.060   0.233  14.097 -0.3034 -0.8148 -0.1939
  741TMC3    C110946   1.145   3.841  15.002  0.2358 -0.0975  0.6120
  741TMC3    C210947   1.055   3.854  14.901 -0.3130 -0.0648  0.2069
  741TMC3    C310948   0.963   3.753  14.889  0.3906  0.4548  0.1889
  741TMC3    C410949   1.156   3.733  15.090 -0.2966  0.2225  0.1307
  741TMC3    C510950   1.048   3.648  15.077 -0.3009 -0.7068 -0.1229
  741TMC3    C610951   0.948   3.655  14.983 -0.2204  0.3504  0.2568
  741TMC3     C10952   1.263   3.928  15.000 -0.4837 -0.2617  0.1642
  741TMC3     O10953   1.354   3.886  15.062  0.1859 -0.3996 -0.3306
  741TMC3     H10954   1.085   3.917  14.818 -1.4269  0.0835 -0.0853
  741TMC3    H110955   1.222   3.746  15.175  0.0868 -0.5767 -0.0460
  741TMC3    H210956   0.860   3.593  14.988 -0.5891  0.9017  0.6548
  741TMC3    C710957   1.024   3.547  15.180  0.3574 -0.2063 -0.0338
  741TMC3    C810958   0.912   3.728  14.761 -0.3416 -0.0349 -0.6756
  741TMC3    O110959   0.919   3.490  15.168  0.1246 -0.5418  0.1660
  741TMC3    O210960   0.901   3.611  14.741  0.1423 -0.1201 -0.4387
  742TMC3    C110961   1.677   2.582  15.554 -0.2458  0.0151 -0.3028
  742TMC3    C210962   1.654   2.641  15.430 -0.5885  0.2720  0.1070
  742TMC3    C310963   1.731   2.595  15.326  0.3283 -0.6076  0.3694
  742TMC3    C410964   1.790   2.510  15.578 -0.2156 -0.0359  0.2207
  742TMC3    C510965   1.878   2.490  15.472  0.2011  0.0644 -0.2327
  742TMC3    C610966   1.844   2.533  15.347  0.4960 -0.3265  0.0745
  742TMC3     C10967   1.566   2.609  15.651 -0.2619  0.2774 -0.1883
  742TMC3     O10968   1.479   2.693  15.622  0.2642  0.5579  0.2654
  742TMC3     H10969   1.566   2.700  15.410 -0.0086  2.0452  2.7255
  742TMC3    H110970   1.818   2.483  15.679 -0.7135 -0.0304  0.3622
  742TMC3    H210971   1.906   2.512  15.260 -0.7148  0.7421 -1.0382
  742TMC3    C710972   1.996   2.406  15.482 -0.4800 -0.3529  0.2478
  742TMC3    C810973   1.682   2.598  15.188 -0.2396  0.6239  0.2547
  742TMC3    O110974   2.058   2.396  15.378 -0.4897 -0.1342 -0.5386
  742TMC3    O210975   1.757   2.558  15.101  0.8507  0.1048 -0.1254
  743MPD2     C10976   3.736   2.998   0.853 -0.1012 -0.2191 -0.1890
  743MPD2    C110977   3.695   3.116   0.926 -0.0235  0.5713 -0.4072
  743MPD2    C210978   3.795   3.189   0.996 -0.0913  0.5681  0.2619
  743MPD2    C310979   3.923   3.135   1.018 -0.7671  0.5849 -0.3122
  743MPD2    C410980   3.956   3.015   0.963 -0.4078 -1.1548  0.6767
  743MPD2    C510981   3.861   2.952   0.885  0.0681  0.3867 -0.0472
  743MPD2     H10982   3.776   3.289   1.031 -0.3332  0.7295 -0.3309
  743MPD2    H110983   4.046   2.955   0.972  0.6292  0.2562 -0.2423
  743MPD2    H210984   3.674   2.937   0.788  0.5484 -0.5972 -0.4521
  743MPD2    H310985   3.882   2.856   0.840 -3.1057  0.2214 -1.1534
  743MPD2     N10986   4.019   3.219   1.078  0.7315 -0.1581 -0.6356
  743MPD2    H510987   3.990   3.311   1.111  1.6401  0.3112 -1.1432
  743MPD2    N110988   3.572   3.174   0.907  0.0225 -0.0392 -0.4392
  743MPD2    H710989   3.565   3.272   0.935  0.1911 -0.5600  1.3671
  744TMC3    C110990   3.374   3.214   0.809  0.2817  0.7827 -0.5905
  744TMC3    C210991   3.350   3.324   0.890  0.3976 -0.0461 -0.5513
  744TMC3    C310992   3.281   3.431   0.841  0.0929  0.2823 -0.4255
  744TMC3    C410993   3.322   3.208   0.683 -0.2955 -0.2037 -0.4021
  744TMC3    C510994   3.254   3.318   0.637 -0.3089 -0.0929  0.2877
  744TMC3    C610995   3.231   3.434   0.708 -0.0223 -0.5713 -0.8795
  744TMC3     C10996   3.464   3.113   0.848  0.0614 -0.4984 -0.4927
  744TMC3     O10997   3.449   3.001   0.803  0.2151 -0.1666  0.4495
  744TMC3     H10998   3.396   3.326   0.989  0.3648 -1.1018 -0.5202
  744TMC3    H110999   3.339   3.122   0.620 -0.9773 -0.1073 -0.7203
  744TMC3    H211000   3.171   3.512   0.664 -2.8946 -2.7364 -0.7973
  744TMC3    C711001   3.251   3.343   0.494  0.1512  0.5642 -0.2119
  744TMC3    C811002   3.215   3.532   0.926 -0.6113 -0.8516 -0.0565
  744TMC3    O111003   3.246   3.456   0.451  0.0333  0.6068  0.3742
  744TMC3    O211004   3.179   3.636   0.871  0.0683 -0.0953 -0.3811
  745TMC3    C111005   2.352   2.512  13.944 -0.4682 -0.3282  0.1548
  745TMC3    C211006   2.282   2.494  14.063  0.1648  0.5448  0.3436
  745TMC3    C311007   2.171   2.428  14.075  0.4759 -0.0923 -0.4186
  745TMC3    C411008   2.303   2.447  13.835 -0.0320  0.3098  0.0206
  745TMC3    C511009   2.199   2.361  13.847  0.1730  0.5091  0.3305
  745TMC3    C611010   2.136   2.346  13.971 -0.3732 -0.6501 -0.5146
  745TMC3     C11011   2.408   2.650  13.923  0.4347  0.2248 -0.2124
  745TMC3     O11012   2.416   2.726  14.015  0.0795 -0.1729  0.0753
  745TMC3     H11013   2.325   2.548  14.147 -0.1824 -0.3152  1.0746
  745TMC3    H111014   2.340   2.471  13.736  3.3937  1.0951  1.4766
  745TMC3    H211015   2.049   2.281  13.981 -0.7776 -0.2827 -1.6054
  745TMC3    C711016   2.149   2.282  13.734  0.6722  0.2781  0.1425
  745TMC3    C811017   2.061   2.518  14.093 -0.3045  0.3887 -0.3164
  745TMC3    O111018   2.042   2.231  13.758  0.6005 -0.1204 -0.5658
  745TMC3    O211019   1.952   2.471  14.115 -0.0328  0.6325  0.0519
  746TMC3    C111020   4.349   3.835  10.645 -0.5058 -0.0387  0.4924
  746TMC3    C211021   4.469   3.794  10.595 -0.5848 -0.1846  0.0851
  746TMC3    C311022   4.523   3.676  10.642  0.2689  0.2753 -1.1647
  746TMC3    C411023   4.276   3.763  10.738  0.3356  0.1857  0.0193
  746TMC3    C511024   4.333   3.641  10.767  0.2282  0.1883  0.4198
  746TMC3    C611025   4.453   3.594  10.728  0.8131  0.6328  0.5703
  746TMC3     C11026   4.319   3.977  10.639 -0.7049 -0.5463 -0.3033
  746TMC3     O11027   4.302   4.025  10.749 -0.7371 -0.9031 -0.4621
  746TMC3     H11028   4.524   3.849  10.519 -1.8307  2.1514  0.8697
  746TMC3    H111029   4.179   3.801  10.769  1.5949  2.0267  1.7023
  746TMC3    H211030   4.494   3.498  10.758 -0.2139 -0.0384 -0.2099
  746TMC3    C711031   4.241   3.544  10.803  0.0021 -0.5211 -0.0733
  746TMC3    C811032   4.656   3.642  10.618  0.6090  0.0021 -0.7683
  746TMC3    O111033   4.124   3.571  10.775 -0.0904 -0.3509  0.0601
  746TMC3    O211034   4.717   3.593  10.710  0.5298 -0.3304 -0.4535
  747TMC3    C111035   2.173   4.068  10.383 -0.1622 -0.0573 -0.1338
  747TMC3    C211036   2.076   3.978  10.433 -1.0747  0.3009  0.0707
  747TMC3    C311037   2.023   4.017  10.558 -0.2136  0.1165 -0.0034
  747TMC3    C411038   2.201   4.191  10.440 -0.3393  0.0028  0.1460
  747TMC3    C511039   2.147   4.213  10.567 -0.2187 -0.4985  0.5256
  747TMC3    C611040   2.064   4.128  10.632  0.2584  0.0326  0.6622
  747TMC3     C11041   2.215   4.059  10.247  0.2562  0.8062  0.2188
  747TMC3     O11042   2.262   4.166  10.204 -0.1978  0.2278  0.0453
  747TMC3     H11043   2.023   3.904  10.374 -0.4690  0.9195 -1.2365
  747TMC3    H111044   2.271   4.266  10.405 -0.1154  0.1520  0.9102
  747TMC3    H211045   2.023   4.162  10.726 -3.3490  1.2655 -1.3673
  747TMC3    C711046   2.178   4.341  10.636 -0.1132 -0.6803  0.5474
  747TMC3    C811047   1.918   3.928  10.616 -0.3989  0.1745  0.8390
  747TMC3    O111048   2.154   4.344  10.762  0.5058 -0.1192 -0.5526
  747TMC3    O211049   1.856   3.844  10.543  0.6266  0.2974  0.2099
  748MPD2     C11050   2.612   0.751   1.156  0.5484 -0.2114  1.5127
  748MPD2    C111051   2.669   0.691   1.269 -0.1339 -0.1157 -0.0783
  748MPD2    C211052   2.802   0.657   1.266 -0.1173  0.0182 -0.3861
  748MPD2    C311053   2.888   0.691   1.162 -1.0437 -0.3829  0.0314
  748MPD2    C411054   2.824   0.744   1.053  0.1269 -0.3833  0.3159
  748MPD2    C511055   2.694   0.780   1.050  0.1808 -0.7213 -0.0504
  748MPD2     H11056   2.856   0.602   1.343 -0.7610 -2.6339 -1.8234
  748MPD2    H111057   2.873   0.763   0.958  1.2046 -1.5790  0.6266
  748MPD2    H211058   2.507   0.780   1.155  0.6566  0.1297 -1.2557
  748MPD2    H311059   2.648   0.835   0.968  0.9581  1.1422  0.7685
  748MPD2     N11060   3.024   0.665   1.172  1.1734  0.4138  0.5231
  748MPD2    H511061   3.049   0.643   1.268 -0.3353  1.0934  1.0821
  748MPD2    N111062   2.581   0.652   1.377 -0.0338  0.3975 -0.0643
  748MPD2    H711063   2.484   0.680   1.374  0.6834  2.7465 -0.9867
  749TMC3    C111064   3.252   0.662   1.129  0.5945 -0.2899 -0.1521
  749TMC3    C211065   3.272   0.535   1.174 -0.2654 -0.0105  0.0030
  749TMC3    C311066   3.404   0.503   1.205 -0.4609  0.5105 -0.3990
  749TMC3    C411067   3.355   0.742   1.088 -0.0582 -1.3121 -0.2638
  749TMC3    C511068   3.484   0.704   1.112 -0.1733 -0.1620 -0.5842
  749TMC3    C611069   3.507   0.584   1.174 -0.1653  0.2057  0.2718
  749TMC3     C11070   3.121   0.689   1.078  0.2325 -0.0748 -0.7265
  749TMC3     O11071   3.107   0.757   0.980  0.3004 -0.7130  0.0250
  749TMC3     H11072   3.198   0.477   1.229 -0.0137 -0.0444  0.3081
  749TMC3    H111073   3.335   0.842   1.051  1.2121 -2.0696 -3.0069
  749TMC3    H211074   3.611   0.566   1.197  0.2268  3.2197  0.9585
  749TMC3    C711075   3.587   0.804   1.092  0.0437  0.4119  0.1451
  749TMC3    C811076   3.416   0.374   1.262  0.0313 -0.2035 -0.0261
  749TMC3    O111077   3.553   0.907   1.042  0.1624  0.2398 -0.2694
  749TMC3    O211078   3.354   0.354   1.367 -0.0282  0.0764  0.4902
  750MPD2     C11079   0.240   0.982  10.714  0.4516  0.4218  0.0305
  750MPD2    C111080   0.108   0.992  10.749 -0.2800 -0.5867  0.5402
  750MPD2    C211081   0.025   0.878  10.724 -0.1018 -0.5025  0.2008
  750MPD2    C311082   0.079   0.766  10.661 -0.5699 -0.4703  0.7533
  750MPD2    C411083   0.211   0.762  10.629  1.2980 -0.6923  0.5007
  750MPD2    C511084   0.286   0.872  10.647  0.0705 -0.2142 -0.3092
  750MPD2     H11085   4.640   0.883  10.730 -0.0084 -0.1395  1.4760
  750MPD2    H111086   0.256   0.675  10.583  0.2137 -1.2891  0.5797
  750MPD2    H211087   0.311   1.062  10.730 -0.3438  0.7917  1.7280
  750MPD2    H311088   0.390   0.876  10.617  0.0692 -0.6960 -0.3745
  750MPD2     N11089   0.023   0.634  10.646 -0.3514 -0.3026  0.0520
  750MPD2    H511090   0.072   0.567  10.587 -1.7008  0.1623 -1.5892
  750MPD2    N111091   0.059   1.114  10.792  0.1735  0.1418  0.4332
  750MPD2    H711092   0.125   1.191  10.790 -0.2094  0.3742 -3.2572
  751TMC3    C111093   4.585   0.462  10.636  0.3416 -0.8267 -0.6270
  751TMC3    C211094   4.455   0.439  10.594  0.5157 -0.0453 -0.1651
  751TMC3    C311095   4.432   0.341  10.493  0.2624  0.3822 -0.0718
  751TMC3    C411096   4.689   0.379  10.586  0.3543 -0.1422  0.0105
  751TMC3    C511097   4.659   0.285  10.487  0.2509  0.3321 -0.2656
  751TMC3    C611098   4.531   0.269  10.437  0.4190 -0.1601  0.2131
  751TMC3     C11099   4.613   0.600  10.674  0.7183  0.3603 -0.2083
  751TMC3     O11100   4.525   0.665  10.733 -0.6145  0.3886 -0.2522
  751TMC3     H11101   4.376   0.509  10.617 -0.3817 -1.0576 -0.1835
  751TMC3    H111102   0.071   0.398  10.603  0.6294 -0.2246 -1.5474
  751TMC3    H211103   4.513   0.198  10.357  0.8011 -1.7360  1.5317
  751TMC3    C711104   0.032   0.193  10.442  0.5380  0.0482 -0.9345
  751TMC3    C811105   4.307   0.275  10.479  0.3288  0.1100  0.3829
  751TMC3    O111106   0.148   0.231  10.419 -0.0875 -0.3363  0.2222
  751TMC3    O211107   4.295   0.213  10.377  0.9588  0.6252 -0.2559
  752TMC3    C111108   2.830   1.609  17.187 -0.1476  0.3048  0.0498
  752TMC3    C211109   2.724   1.594  17.270 -0.3384 -0.3623 -0.6554
  752TMC3    C311110   2.735   1.648  17.395 -0.1407  0.2143  0.5698
  752TMC3    C411111   2.939   1.678  17.223 -0.0386  0.2572  0.3296
  752TMC3    C511112   2.948   1.724  17.355 -0.6179 -0.2696  0.3824
  752TMC3    C611113   2.844   1.707  17.447  0.0929  0.4950  0.2059
  752TMC3     C11114   2.823   1.557  17.052  0.4916 -0.1975 -0.5027
  752TMC3     O11115   2.929   1.546  16.990 -0.3889 -0.4152  0.3635
  752TMC3     H11116   2.629   1.547  17.247 -0.3958  0.4189 -1.9771
  752TMC3    H111117   3.026   1.689  17.159  0.8137 -0.8680  1.2864
  752TMC3    H211118   2.831   1.764  17.539 -2.7666  0.5440 -0.2490
  752TMC3    C711119   3.019   1.851  17.369  0.1278  0.2865 -0.4202
  752TMC3    C811120   2.614   1.705  17.447  0.0543  0.3816  0.2422
  752TMC3    O111121   3.055   1.913  17.273  0.6822 -0.0794 -0.1265
  752TMC3    O211122   2.603   1.826  17.439  0.0507 -0.6955 -0.2099
  753TMC3    C111123   0.512   2.456  13.429 -0.3450 -0.1702 -0.1054
  753TMC3    C211124   0.497   2.436  13.558 -0.1630 -0.3439 -0.6089
  753TMC3    C311125   0.414   2.332  13.598 -0.1822 -0.1965  0.0025
  753TMC3    C411126   0.474   2.365  13.339  1.0234  0.0792  0.2858
  753TMC3    C511127   0.397   2.264  13.383 -0.0838  0.0192  0.0365
  753TMC3    C611128   0.366   2.247  13.510 -0.4491  0.2049 -0.2541
  753TMC3     C11129   0.589   2.573  13.388  0.6084 -0.1535  0.3760
  753TMC3     O11130   0.677   2.614  13.465 -0.3016 -0.1965 -0.0627
  753TMC3     H11131   0.542   2.509  13.624 -1.5652 -1.1356  1.2276
  753TMC3    H111132   0.488   2.370  13.232  0.6739  1.1077  0.2859
  753TMC3    H211133   0.300   2.167  13.542 -0.4635 -0.0865 -1.0151
  753TMC3    C711134   0.348   2.161  13.289  0.1497  0.3205 -0.5355
  753TMC3    C811135   0.377   2.321  13.739 -0.6828  0.0978  0.6044
  753TMC3    O111136   0.421   2.149  13.190  0.5212 -0.0808 -0.8451
  753TMC3    O211137   0.303   2.228  13.774  0.0023 -0.1135 -0.1715
  754MPD2     C11138   3.312   0.776  12.477  0.3459  0.2190  0.5539
  754MPD2    C111139   3.231   0.742  12.581 -0.9593 -0.2253  0.3711
  754MPD2    C211140   3.101   0.787  12.586  0.0098 -0.0607  0.4177
  754MPD2    C311141   3.055   0.870  12.487 -0.0672  0.2329  0.6710
  754MPD2    C411142   3.137   0.906  12.380 -0.5044  0.2687  0.2204
  754MPD2    C511143   3.267   0.855  12.373 -0.2152 -0.5200 -0.0037
  754MPD2     H11144   3.032   0.754  12.662  0.8374 -0.4317  1.0146
  754MPD2    H111145   3.105   0.967  12.296 -0.0717  1.0111  0.5895
  754MPD2    H211146   3.417   0.748  12.471  0.3056  0.2239 -0.2322
  754MPD2    H311147   3.334   0.865  12.288 -0.4383  0.4803 -0.0537
  754MPD2     N11148   2.914   0.883  12.486  0.6523 -0.2640 -0.6134
  754MPD2    H511149   2.868   0.829  12.560  1.8632  1.1348  1.1406
  754MPD2    N111150   3.273   0.672  12.692 -0.2170  0.3437 -0.2747
  754MPD2    H711151   3.212   0.664  12.773  0.9578  1.1068  0.6822
  755MPD2     C11152   2.137   1.257  12.861 -0.2509  0.3492 -0.2050
  755MPD2    C111153   2.272   1.279  12.845  0.6856 -0.2639 -0.4945
  755MPD2    C211154   2.332   1.244  12.730 -0.0723 -0.1057  0.1623
  755MPD2    C311155   2.258   1.183  12.629  0.1073  0.2257  0.0595
  755MPD2    C411156   2.119   1.171  12.642 -0.4471 -0.2490  0.0798
  755MPD2    C511157   2.062   1.208  12.759 -0.7337 -0.3445 -0.7308
  755MPD2     H11158   2.439   1.254  12.716  0.1205 -1.7947  0.4172
  755MPD2    H111159   2.047   1.141  12.567 -3.0423  2.7436  1.3735
  755MPD2    H211160   2.095   1.276  12.958  1.2518  1.2744  0.2733
  755MPD2    H311161   1.954   1.206  12.769 -0.8088  0.2083 -1.4552
  755MPD2     N11162   2.311   1.134  12.509 -0.5479 -0.0547  0.3764
  755MPD2    H511163   2.253   1.077  12.449  0.6718  0.8871 -1.7371
  755MPD2    N111164   2.346   1.345  12.950  0.0681  0.5304 -0.0801
  755MPD2    H711165   2.435   1.388  12.927 -0.9530  2.6112 -0.1792
  756MPD2     C11166   0.090   1.523   9.251 -0.8453  0.1663 -0.2303
  756MPD2    C111167   4.712   1.443   9.289  0.6146 -0.4785 -0.0390
  756MPD2    C211168   4.580   1.486   9.265  0.0708  0.1619  0.6487
  756MPD2    C311169   4.547   1.611   9.203  0.3060  0.6398 -0.2268
  756MPD2    C411170   4.656   1.685   9.162  0.7420 -0.1827  0.4278
  756MPD2    C511171   0.063   1.645   9.186 -0.4500  0.3317 -0.0033
  756MPD2     H11172   4.498   1.425   9.300  0.2403  0.5514  1.7330
  756MPD2    H111173   4.637   1.786   9.128  3.4644  0.2383  0.2102
  756MPD2    H211174   0.195   1.497   9.260 -0.6570  0.5054 -1.4621
  756MPD2    H311175   0.144   1.711   9.157  0.6756 -1.1687 -0.2766
  756MPD2     N11176   4.414   1.655   9.203  0.2713 -0.5628  0.1277
  756MPD2    H511177   4.345   1.582   9.209 -0.0074 -0.2777  0.3747
  756MPD2    N111178   0.015   1.318   9.336  0.2376 -0.1274  0.8173
  756MPD2    H711179   4.659   1.256   9.345  0.7709 -0.4946  2.9363
  757MPD2     C11180   3.769   1.126   9.069 -0.6254  0.0096 -0.2732
  757MPD2    C111181   3.860   1.141   9.166  0.1769  0.3705 -0.5954
  757MPD2    C211182   3.916   1.264   9.189 -0.5220  0.0697 -0.4216
  757MPD2    C311183   3.872   1.371   9.115 -0.1461  0.0856 -0.4792
  757MPD2    C411184   3.782   1.353   9.009  0.1423  0.0084 -0.4595
  757MPD2    C511185   3.725   1.231   8.993 -0.7275 -0.3305 -0.3774
  757MPD2     H11186   3.989   1.268   9.269 -0.4785  0.2166 -0.4682
  757MPD2    H111187   3.776   1.419   8.923  1.8395  2.0380  0.9933
  757MPD2    H211188   3.723   1.031   9.043  1.5656 -0.9352 -0.6653
  757MPD2    H311189   3.678   1.214   8.897  0.9986  0.7686 -1.4285
  757MPD2     N11190   3.958   1.488   9.129  0.4345  0.0043 -0.1891
  757MPD2    H511191   4.036   1.478   9.194 -0.1697 -1.4957  0.2998
  757MPD2    N111192   3.889   1.020   9.241 -0.4903  0.0223  0.8873
  757MPD2    H711193   3.831   0.943   9.208  1.3786  0.0355 -2.4755
  758MPD2     C11194   3.431   0.585  15.644  0.6653 -0.4245  0.0763
  758MPD2    C111195   3.559   0.628  15.680 -0.0574  0.1176  0.0139
  758MPD2    C211196   3.577   0.728  15.769  0.0384 -0.0781  0.9233
  758MPD2    C311197   3.473   0.775  15.852  0.3360 -0.7747  0.9232
  758MPD2    C411198   3.348   0.735  15.819  0.5050  0.1783  0.5013
  758MPD2    C511199   3.331   0.642  15.719 -0.1505  0.6376 -0.3328
  758MPD2     H11200   3.675   0.770  15.787  0.1407  0.0289  0.1220
  758MPD2    H111201   3.258   0.762  15.874 -0.3760 -0.6449 -0.5591
  758MPD2    H211202   3.415   0.515  15.564 -2.6681 -1.3271  1.5176
  758MPD2    H311203   3.234   0.600  15.695  0.0775 -0.1596  0.1409
  758MPD2     N11204   3.489   0.866  15.959  0.4716  0.0034  0.6361
  758MPD2    H511205   3.404   0.901  16.004  0.9103  0.7297  0.8976
  758MPD2    N111206   3.666   0.576  15.609 -0.5012 -0.3087 -0.4950
  758MPD2    H711207   3.652   0.505  15.537 -0.3743 -0.5595 -0.2753
  759MPD2     C11208   2.846   3.433   9.996 -0.2877 -0.2330 -0.5958
  759MPD2    C111209   2.971   3.468  10.041 -0.1011  0.2582  0.7219
  759MPD2    C211210   3.072   3.497   9.953 -0.0481 -0.9525  0.0786
  759MPD2    C311211   3.055   3.485   9.818  0.7567 -0.7297 -0.8814
  759MPD2    C411212   2.931   3.443   9.770  0.1998  0.5493 -0.1351
  759MPD2    C511213   2.830   3.416   9.860 -0.0793 -0.0835  0.1271
  759MPD2     H11214   3.172   3.520   9.989 -0.2316  2.4591 -1.5243
  759MPD2    H111215   2.907   3.432   9.665 -2.5197 -1.8152  0.7369
  759MPD2    H211216   2.772   3.403  10.068  0.2086 -2.3731 -0.9730
  759MPD2    H311217   2.744   3.369   9.815 -1.2732  0.3156  2.0036
  759MPD2     N11218   3.171   3.509   9.738  0.0215 -0.4578 -0.0173
  759MPD2    H511219   3.258   3.526   9.788 -0.0534  2.3503 -0.8464
  759MPD2    N111220   2.986   3.479  10.180  0.5998 -0.1352 -0.4863
  759MPD2    H711221   2.909   3.441  10.233  1.4041 -0.1327  0.7007
  760MPD2     C11222   2.207   1.150  11.524  0.4710  0.2322  0.2991
  760MPD2    C111223   2.314   1.064  11.486 -0.0908  0.4490  1.1165
  760MPD2    C211224   2.300   0.927  11.499 -0.1139  0.3795 -0.1183
  760MPD2    C311225   2.177   0.873  11.548  0.6926 -0.2132 -0.5279
  760MPD2    C411226   2.073   0.963  11.586  0.9431 -0.2399  1.1604
  760MPD2    C511227   2.093   1.100  11.573  0.4142 -1.1170  0.7348
  760MPD2     H11228   2.385   0.867  11.469  1.4847  2.1642  0.8094
  760MPD2    H111229   1.978   0.924  11.622  0.1120  0.7136  0.0061
  760MPD2    H211230   2.219   1.258  11.517  2.7917  0.0322  1.2022
  760MPD2    H311231   2.011   1.169  11.584  1.2794 -0.2227  1.5695
  760MPD2     N11232   2.162   0.734  11.566 -0.5156 -0.3097 -0.4750
  760MPD2    H511233   2.078   0.702  11.613 -0.5649 -1.3007 -1.2509
  760MPD2    N111234   2.437   1.118  11.442  0.2668  0.1227  0.3009
  760MPD2    H711235   2.505   1.052  11.406 -1.3268 -1.1188 -0.4267
  761MPD2     C11236   3.966   4.702  10.717  0.1167  0.2968 -0.4888
  761MPD2    C111237   4.022   4.690  10.586 -0.6811 -0.4912 -0.6942
  761MPD2    C211238   4.103   0.074  10.546  0.5312  1.0638 -0.2762
  761MPD2    C311239   4.122   0.195  10.618  0.2065 -0.2728  0.3990
  761MPD2    C411240   4.061   0.197  10.744 -0.7083  0.8430  0.1275
  761MPD2    C511241   3.984   0.090  10.786  0.2013  0.4663  0.1144
  761MPD2     H11242   4.152   0.061  10.450 -0.2420 -1.4081 -0.3371
  761MPD2    H111243   4.075   0.279  10.814 -0.2543  1.9136 -1.2351
  761MPD2    H211244   3.904   4.619  10.749  0.3058  0.7840  1.1102
  761MPD2    H311245   3.933   0.099  10.881  0.9793 -1.5941  0.7514
  761MPD2     N11246   4.223   0.292  10.587  0.2736  0.2799  0.1660
  761MPD2    H511247   4.257   0.353  10.661 -0.4602 -0.0502  0.7591
  761MPD2    N111248   3.994   4.581  10.505 -0.1224 -0.3738 -0.0428
  761MPD2    H711249   3.960   4.496  10.549  1.2440 -0.6089  0.5676
  762MPD2     C11250   4.437   4.546   9.901  0.7726  0.1261 -0.4258
  762MPD2    C111251   4.408   4.423   9.944  0.7671 -0.4389 -0.0344
  762MPD2    C211252   4.503   4.320   9.921 -0.0138 -0.0998 -0.0928
  762MPD2    C311253   4.621   4.349   9.860  0.1080 -0.3843 -0.2936
  762MPD2    C411254   4.651   4.475   9.815  0.0112 -0.4681  0.2976
  762MPD2    C511255   4.555   4.577   9.836  0.3157  0.5807  0.3909
  762MPD2     H11256   4.494   4.216   9.951 -1.1760  0.6362  2.0464
  762MPD2    H111257   0.014   4.507   9.758  0.3964 -2.0744 -0.0193
  762MPD2    H211258   4.361   4.621   9.919  1.2718  0.4902  0.1720
  762MPD2    H311259   4.573   4.683   9.820 -1.3808  0.7733 -0.2775
  762MPD2     N11260   4.709   4.242   9.842 -0.0085  0.3659 -0.2693
  762MPD2    H511261   4.681   4.153   9.882 -3.2929  1.0094 -1.0869
  762MPD2    N111262   4.289   4.402  10.021  0.3863  0.0583  0.0648
  762MPD2    H711263   4.237   4.485  10.049  3.7308  2.1386  0.0678
  763MPD2     C11264   0.390   1.130  15.837  0.4107  0.5360 -0.3239
  763MPD2    C111265   0.513   1.186  15.812  0.2324 -0.1749 -0.2321
  763MPD2    C211266   0.554   1.288  15.900  0.0973 -0.3124 -0.1951
  763MPD2    C311267   0.480   1.322  16.015  0.5657 -0.4034  0.2257
  763MPD2    C411268   0.357   1.262  16.032 -0.9917 -0.5807 -0.3155
  763MPD2    C511269   0.306   1.182  15.929 -0.2727 -0.1726  0.4215
  763MPD2     H11270   0.658   1.320  15.891 -0.8709  1.6336 -4.5896
  763MPD2    H111271   0.294   1.282  16.117 -2.6739 -0.1166 -1.6759
  763MPD2    H211272   0.350   1.052  15.774  1.5061 -1.1519  1.0568
  763MPD2    H311273   0.216   1.121  15.939 -1.6149  1.7932  0.4364
  763MPD2     N11274   0.545   1.407  16.108  0.0076 -0.0765  0.0386
  763MPD2    H511275   0.645   1.422  16.095  0.2645 -0.9847  0.9489
  763MPD2    N111276   0.603   1.137  15.708 -0.1948  0.2390 -0.2718
  763MPD2    H711277   0.685   1.191  15.681 -0.2299  0.8933  0.9446
  764MPD2     C11278   3.508   2.649  17.117 -0.0141 -1.0043  0.0959
  764MPD2    C111279   3.376   2.612  17.118 -0.7561 -0.0786 -0.7397
  764MPD2    C211280   3.303   2.613  17.233  0.1899  0.6382 -0.1640
  764MPD2    C311281   3.355   2.642  17.355  0.4090 -0.8385 -0.1786
  764MPD2    C411282   3.490   2.655  17.352  0.1359  0.6717 -0.0539
  764MPD2    C511283   3.567   2.655  17.240  0.1327  0.0127 -0.0240
  764MPD2     H11284   3.199   2.589  17.219 -0.0380  0.4984  1.7852
  764MPD2    H111285   3.545   2.649  17.445 -0.1368 -0.7657  0.0070
  764MPD2    H211286   3.567   2.661  17.026  0.8975  0.4814  0.8902
  764MPD2    H311287   3.674   2.650  17.251  0.1393 -0.5484 -0.3130
  764MPD2     N11288   3.279   2.639  17.477 -0.1798 -0.0825 -0.0015
  764MPD2    H511289   3.183   2.608  17.469  0.3180 -1.1177 -2.2605
  764MPD2    N111290   3.312   2.589  16.997 -0.2532 -0.4793 -0.1787
  764MPD2    H711291   3.211   2.602  17.004 -0.4002 -1.1129 -1.1995
  765MPD2     C11292   3.190   0.184  15.012  0.0431 -0.1429  0.1851
  765MPD2    C111293   3.259   0.225  15.125  0.4956 -0.2222 -0.2605
  765MPD2    C211294   3.373   0.164  15.164 -0.0565  0.1474 -0.4965
  765MPD2    C311295   3.424   0.053  15.096  0.4151  0.1452 -0.2553
  765MPD2    C411296   3.336   4.719  15.010  0.6981 -0.1748  0.1202
  765MPD2    C511297   3.223   0.057  14.972 -0.2092  0.0366 -0.1643
  765MPD2     H11298   3.434   0.203  15.244  0.0908 -0.7954 -0.1530
  765MPD2    H111299   3.361   4.621  14.973  1.2282  0.0624 -0.1510
  765MPD2    H211300   3.101   0.232  14.974 -1.9329 -1.4286  3.1643
  765MPD2    H311301   3.165   4.722  14.902 -0.1018  0.4090 -0.5657
  765MPD2     N11302   3.542   4.717  15.148  0.5041  0.2581  0.0022
  765MPD2    H511303   3.583   0.038  15.230 -0.1737  0.2060  0.3710
  765MPD2    N111304   3.194   0.332  15.192  0.0184 -0.0995 -0.6191
  765MPD2    H711305   3.106   0.364  15.153 -0.1244 -0.2377 -0.4083
  766MPD2     C11306   2.659   0.224  15.118  0.3604  0.2670 -0.6372
  766MPD2    C111307   2.761   0.312  15.084  0.1477  0.3840 -0.5847
  766MPD2    C211308   2.826   0.291  14.955  0.6180 -0.5368 -0.0129
  766MPD2    C311309   2.772   0.193  14.874 -0.8317 -0.2161 -0.6786
  766MPD2    C411310   2.671   0.109  14.911  0.2417  0.2208 -0.5622
  766MPD2    C511311   2.610   0.126  15.035 -0.5638 -0.4378  0.7442
  766MPD2     H11312   2.904   0.353  14.913  0.6165 -1.8459 -1.9600
  766MPD2    H111313   2.628   0.043  14.836 -1.0732 -1.4891  1.7083
  766MPD2    H211314   2.613   0.234  15.215 -0.1579  1.1648 -0.9788
  766MPD2    H311315   2.524   0.064  15.056 -0.4815 -0.3400  1.3495
  766MPD2     N11316   2.822   0.171  14.741 -0.3569 -0.4357  0.2615
  766MPD2    H511317   2.766   0.107  14.685  1.3863  0.7320 -2.8379
  766MPD2    N111318   2.790   0.417  15.173 -0.7668 -0.7555  0.0783
  766MPD2    H711319   2.744   0.416  15.264  0.2005 -0.1612  0.5689
  767MPD2     C11320   2.620   0.478  14.834  0.4571 -0.8171 -0.1761
  767MPD2    C111321   2.680   0.531  14.720 -0.3055 -0.3922 -0.3110
  767MPD2    C211322   2.647   0.489  14.594 -0.3284 -0.2068 -0.3362
  767MPD2    C311323   2.543   0.399  14.571 -0.4472 -0.2167 -1.1086
  767MPD2    C411324   2.473   0.352  14.677 -0.6570  0.0360  0.5201
  767MPD2    C511325   2.514   0.389  14.806 -0.0684 -0.1577  0.4616
  767MPD2     H11326   2.710   0.519  14.511 -2.5270  1.6882 -1.3303
  767MPD2    H111327   2.379   0.297  14.665 -1.7544  2.0496 -0.1193
  767MPD2    H211328   2.653   0.506  14.933 -0.9484 -1.5649  0.5012
  767MPD2    H311329   2.451   0.346  14.883 -1.0938 -1.6942 -1.2303
  767MPD2     N11330   2.523   0.361  14.434  0.1618 -0.1424  0.2230
  767MPD2    H511331   2.586   0.400  14.363 -0.7192 -0.4560 -0.7303
  767MPD2    N111332   2.779   0.623  14.756 -0.0995 -0.0711 -0.2635
  767MPD2    H711333   2.790   0.629  14.857 -0.5921  4.2673 -0.4876
  768MPD2     C11334   4.287   3.169  10.528  0.1830 -0.0148  0.4009
  768MPD2    C111335   4.223   3.078  10.615 -0.7225  0.5132  0.0376
  768MPD2    C211336   4.282   3.037  10.730  0.5474 -0.8222  0.2327
  768MPD2    C311337   4.408   3.086  10.760 -0.1901  0.1902 -1.1717
  768MPD2    C411338   4.457   3.193  10.689 -0.0842  0.1230  0.4060
  768MPD2    C511339   4.398   3.231  10.567 -0.1897 -0.1863  0.1468
  768MPD2     H11340   4.226   2.966  10.790  0.4797 -1.5680 -0.6973
  768MPD2    H111341   4.553   3.232  10.720  0.2154 -0.7670  0.5897
  768MPD2    H211342   4.238   3.204  10.438 -1.3479  0.0312  1.2606
  768MPD2    H311343   4.448   3.309  10.509  1.5100 -0.4325  1.2866
  768MPD2     N11344   4.474   3.056  10.883  0.4526  0.2182 -0.8807
  768MPD2    H511345   4.552   3.117  10.907  0.4375  0.4798 -1.4957
  768MPD2    N111346   4.091   3.027  10.599  0.0479 -0.1613  0.4663
  768MPD2    H711347   4.063   2.978  10.683 -1.7028 -3.2754 -1.9695
  769MPD2     C11348   4.524   1.274  14.743  0.2890 -0.3152  0.1602
  769MPD2    C111349   4.400   1.322  14.772  0.3803  0.1772  0.2504
  769MPD2    C211350   4.386   1.415  14.871  0.3189 -0.5422 -0.3679
  769MPD2    C311351   4.493   1.458  14.944  0.6385 -0.6503 -0.1506
  769MPD2    C411352   4.623   1.424  14.903 -0.1110  0.3236  0.0499
  769MPD2    C511353   4.630   1.331  14.798  0.2310 -0.6019  0.0561
  769MPD2     H11354   4.288   1.449  14.900  0.7091 -0.9233  1.3778
  769MPD2    H111355   4.717   1.466  14.939  0.9503 -0.6204 -1.5851
  769MPD2    H211356   4.537   1.209  14.657 -2.1079 -0.6535  0.0516
  769MPD2    H311357   0.008   1.309  14.768  0.9384 -0.0326  2.0049
  769MPD2     N11358   4.460   1.545  15.054 -0.0167  0.1981 -0.9514
  769MPD2    H511359   4.362   1.564  15.076  0.7283  1.1565  1.5800
  769MPD2    N111360   4.290   1.285  14.683 -0.8842 -0.3566 -0.5999
  769MPD2    H711361   4.315   1.213  14.616 -4.4254 -1.4390 -0.7584
  770MPD2     C11362   3.386   0.747  14.658  0.6976 -0.1626  0.0315
  770MPD2    C111363   3.491   0.698  14.579  0.4194  0.0395 -0.6058
  770MPD2    C211364   3.586   0.793  14.535 -0.0698 -0.0767  0.6582
  770MPD2    C311365   3.591   0.923  14.576 -0.1532  0.5519  1.5662
  770MPD2    C411366   3.491   0.960  14.662 -0.2083 -0.5022 -0.2367
  770MPD2    C511367   3.388   0.876  14.702  0.2453 -0.3401  0.1054
  770MPD2     H11368   3.661   0.764  14.463 -0.6112 -1.7608  0.7731
  770MPD2    H111369   3.482   1.058  14.707 -2.1756 -1.8264  2.2613
  770MPD2    H211370   3.313   0.672  14.689  1.2645 -0.6811  0.1060
  770MPD2    H311371   3.323   0.915  14.780 -0.6020  0.8521 -1.1812
  770MPD2     N11372   3.696   1.007  14.537  0.1314 -0.1664  0.1385
  770MPD2    H511373   3.769   0.970  14.476 -0.5238 -0.5674 -0.3955
  770MPD2    N111374   3.492   0.557  14.541  0.5006  0.3517 -0.6537
  770MPD2    H711375   3.419   0.500  14.582  1.2053 -0.1187 -0.0336
  771MPD2     C11376   0.257   4.079  13.805  0.3724  0.5227  0.0798
  771MPD2    C111377   0.231   4.194  13.720  0.0720 -0.8550  0.0550
  771MPD2    C211378   0.160   4.179  13.610  0.5083 -0.2166 -0.0641
  771MPD2    C311379   0.120   4.056  13.571 -0.4182 -0.2339  0.5971
  771MPD2    C411380   0.136   3.943  13.654 -0.4717  0.0131  0.2279
  771MPD2    C511381   0.218   3.962  13.762 -0.0422 -0.9423 -0.2346
  771MPD2     H11382   0.132   4.274  13.566 -1.4944 -1.6540 -1.8650
  771MPD2    H111383   0.096   3.845  13.633  1.2492 -1.1321  2.2403
  771MPD2    H211384   0.318   4.079  13.895  1.9074 -0.3370 -0.9762
  771MPD2    H311385   0.241   3.877  13.824 -2.3675 -2.0592 -0.9352
  771MPD2     N11386   0.059   4.049  13.442 -0.4690  0.5671  0.6875
  771MPD2    H511387   0.063   4.134  13.387 -0.8800  0.5701  0.6569
  771MPD2    N111388   0.266   4.324  13.772  0.4377  0.1222  0.1254
  771MPD2    H711389   0.211   4.398  13.728 -1.4788 -1.2277  0.2184
  772MPD2     C11390   4.698   0.224  13.908 -0.2566  0.0308  0.6767
  772MPD2    C111391   4.711   0.121  13.817 -0.0333 -0.8452  0.8187
  772MPD2    C211392   4.597   0.071  13.751  0.6219 -0.0642 -0.5312
  772MPD2    C311393   4.474   0.121  13.782  0.1270  0.0361  0.2739
  772MPD2    C411394   4.462   0.221  13.877 -0.2069 -0.5226  0.3803
  772MPD2    C511395   4.576   0.268  13.941  0.2349 -0.4141  0.1781
  772MPD2     H11396   4.609   4.705  13.691  0.1641 -0.5383  0.0834
  772MPD2    H111397   4.367   0.272  13.890  0.6818  0.7658  1.8425
  772MPD2    H211398   0.054   0.261  13.970 -1.6801  1.7347  1.4979
  772MPD2    H311399   4.557   0.353  14.005  1.2555 -0.7554  0.9368
  772MPD2     N11400   4.353   0.090  13.711  0.8475 -0.3185  0.7200
  772MPD2    H511401   4.267   0.127  13.751  0.5386  0.7002 -0.8997
  772MPD2    N111402   0.107   0.051  13.798  0.0802 -0.6100 -0.1797
  772MPD2    H711403   0.112   4.691  13.742 -0.8371 -0.2034 -0.8651
  773MPD2     C11404   3.869   1.222   0.075 -0.0057  0.3234 -0.6112
  773MPD2    C111405   3.828   1.122  17.682  0.4413 -0.3847  0.2210
  773MPD2    C211406   3.894   0.992   0.001  0.5283 -0.2932  0.7591
  773MPD2    C311407   3.993   0.974   0.100 -0.3354  0.2047  0.7425
  773MPD2    C411408   4.020   1.076   0.185 -0.1702  0.1208  0.3770
  773MPD2    C511409   3.966   1.200   0.172 -0.1131  0.3993 -0.3673
  773MPD2     H11410   3.872   0.906  17.636  1.2213  0.5416 -0.6374
  773MPD2    H111411   4.097   1.058   0.260  0.9872 -0.5890 -0.9902
  773MPD2    H211412   3.831   1.321   0.055  0.7555  0.6103 -0.6474
  773MPD2    H311413   4.001   1.278   0.239 -0.6672 -1.8241  2.4923
  773MPD2     N11414   4.053   0.843   0.107 -0.4430  0.2836 -0.1831
  773MPD2    H511415   4.029   0.779   0.032 -0.5867 -1.0591  1.0154
  773MPD2    N111416   3.732   1.134  17.578  0.5919  0.4971  0.2154
  773MPD2    H711417   3.728   1.053  17.517  0.3853  1.5292 -1.1544
  774MPD2     C11418   3.566   4.599  13.323  0.1180 -0.1658  0.7063
  774MPD2    C111419   3.435   4.638  13.328 -1.0380  0.5930 -0.6864
  774MPD2    C211420   3.387   0.019  13.261  0.4572 -0.6513 -0.6251
  774MPD2    C311421   3.481   0.079  13.175  0.1939 -0.2798 -0.0275
  774MPD2    C411422   3.618   0.050  13.178 -0.6842  0.5246 -0.4911
  774MPD2    C511423   3.661   4.666  13.247  0.2826 -0.2004 -0.1189
  774MPD2     H11424   3.283   0.050  13.258 -0.0207 -1.8812  2.7179
  774MPD2    H111425   3.698   0.111  13.137  0.5594  0.0050  1.1618
  774MPD2    H211426   3.585   4.510  13.382  0.7921 -0.2728  0.3220
  774MPD2    H311427   3.767   4.641  13.246  0.6761  1.4038  0.1186
  774MPD2     N11428   3.450   0.203  13.108  0.3099  1.0065  0.2628
  774MPD2    H511429   3.362   0.244  13.138 -1.7753 -3.7982  0.7509
  774MPD2    N111430   3.350   4.551  13.407  0.1273 -0.5095  0.3628
  774MPD2    H711431   3.384   4.472  13.459 -2.2780 -2.2419 -0.7167
  775MPD2     C11432   0.090   1.632  15.536 -0.4844  0.0283  0.1125
  775MPD2    C111433   0.113   1.754  15.598 -0.0181  0.5850 -0.3637
  775MPD2    C211434   0.216   1.838  15.552  0.6019 -0.5255 -0.4359
  775MPD2    C311435   0.307   1.794  15.462 -0.3709  0.6328 -0.5880
  775MPD2    C411436   0.283   1.670  15.407 -0.1225  0.7548 -0.3997
  775MPD2    C511437   0.178   1.593  15.446 -0.1976 -0.9851 -0.0993
  775MPD2     H11438   0.225   1.940  15.587 -0.7308 -0.4964 -0.1666
  775MPD2    H111439   0.346   1.618  15.335 -0.0621  0.9085 -0.4573
  775MPD2    H211440   0.003   1.569  15.553 -1.2281  1.3255  1.1408
  775MPD2    H311441   0.172   1.498  15.396 -0.2956 -0.7080 -0.6151
  775MPD2     N11442   0.423   1.864  15.431 -0.0658 -0.0771  0.0351
  775MPD2    H511443   0.485   1.816  15.366  0.0768  1.6562 -1.1213
  775MPD2    N111444   0.016   1.789  15.694 -0.2142  0.3608  0.2942
  775MPD2    H711445   4.662   1.726  15.710  1.1122 -1.8139 -1.9956
  776MPD2     C11446   0.457   1.549  10.916  0.6253  0.1355 -1.1251
  776MPD2    C111447   0.335   1.616  10.920 -0.2112  0.9682  0.3534
  776MPD2    C211448   0.333   1.751  10.952  0.3196  0.0065  0.2933
  776MPD2    C311449   0.452   1.813  10.985  0.2886 -0.4431 -0.3046
  776MPD2    C411450   0.573   1.742  10.973 -0.2516 -0.3220  0.2316
  776MPD2    C511451   0.576   1.609  10.939 -0.0991 -0.3314  0.5137
  776MPD2     H11452   0.247   1.816  10.959  2.6431  3.0333  0.4888
  776MPD2    H111453   0.671   1.788  10.983 -0.3584 -0.2370  0.8642
  776MPD2    H211454   0.466   1.445  10.886 -3.3515 -1.0305  1.7044
  776MPD2    H311455   0.665   1.547  10.943 -0.9534 -1.6214 -0.7147
  776MPD2     N11456   0.469   1.949  11.022  0.3514 -0.2652  0.3835
  776MPD2    H511457   0.562   1.974  11.055 -1.3451  3.7063  2.1546
  776MPD2    N111458   0.219   1.546  10.892  0.1639  0.0580  0.4796
  776MPD2    H711459   0.229   1.448  10.867  0.9027  0.8621 -2.3271
  777MPD2     C11460   3.594   4.410   0.263 -0.9002 -0.3005  0.0388
  777MPD2    C111461   3.664   4.325   0.343 -0.5386 -0.0651 -0.0933
  777MPD2    C211462   3.702   4.205   0.280  1.2416 -0.0641  0.4512
  777MPD2    C311463   3.660   4.181   0.149 -0.1274  0.5242  0.1729
  777MPD2    C411464   3.584   4.268   0.077  0.2969 -0.1897  0.2055
  777MPD2    C511465   3.554   4.390   0.131  0.6560  0.1159 -0.8412
  777MPD2     H11466   3.764   4.133   0.333  1.3108  0.0867  0.5741
  777MPD2    H111467   3.546   4.239  17.676  2.9914 -1.3824 -0.4937
  777MPD2    H211468   3.570   4.512   0.290 -3.0222 -0.6598 -0.4812
  777MPD2    H311469   3.483   4.453   0.079 -0.9528 -1.5808 -0.7232
  777MPD2     N11470   3.690   4.047   0.096 -0.3356 -0.2842  0.2071
  777MPD2    H511471   3.735   3.988   0.166  1.5727 -2.3781 -2.7610
  777MPD2    N111472   3.706   4.370   0.470 -0.3452  0.4134  0.4220
  777MPD2    H711473   3.687   4.466   0.497 -0.8545 -0.3006  2.6215
  778MPD2     C11474   0.452   4.376  15.036 -0.0157 -0.7951 -0.3252
  778MPD2    C111475   0.428   4.280  14.944 -0.5833 -0.5773 -0.7903
  778MPD2    C211476   0.483   4.302  14.812  0.6089 -0.7689 -0.2745
  778MPD2    C311477   0.552   4.416  14.777  0.3833  0.4420 -0.3937
  778MPD2    C411478   0.575   4.510  14.877 -0.9908 -0.8440 -1.1087
  778MPD2    C511479   0.536   4.481  15.004 -0.2631  0.6186  0.0413
  778MPD2     H11480   0.473   4.224  14.739  1.0708 -0.0999 -1.0504
  778MPD2    H111481   0.631   4.601  14.857 -0.1356 -1.1317 -0.0099
  778MPD2    H211482   0.410   4.363  15.135 -0.1194 -2.1490 -0.5441
  778MPD2    H311483   0.557   4.557  15.078 -2.3819 -0.0176  1.2851
  778MPD2     N11484   0.605   4.423  14.648 -0.0979  0.6059 -0.5411
  778MPD2    H511485   0.606   4.342  14.586  2.7635 -1.0271  1.6371
  778MPD2    N111486   0.336   4.171  14.955  0.1167  0.7848 -0.0784
  778MPD2    H711487   0.334   4.102  14.880  1.7050 -0.3216  0.9283
  779MPD2     C11488   0.016   3.547  13.945  0.1651 -0.4332 -0.0003
  779MPD2    C111489   0.111   3.547  14.043 -0.0243  0.2966 -0.4303
  779MPD2    C211490   0.136   3.664  14.106  0.1987  0.5971 -0.3622
  779MPD2    C311491   0.088   3.780  14.073  1.0192  0.4819 -0.2900
  779MPD2    C411492   0.005   3.788  13.963 -1.0957 -0.5865 -0.1423
  779MPD2    C511493   4.699   3.670  13.901  0.2571 -0.4389  0.4523
  779MPD2     H11494   0.200   3.659  14.194 -0.0547  1.2898 -0.1356
  779MPD2    H111495   4.698   3.885  13.925  2.9460  0.6620 -0.2113
  779MPD2    H211496   4.709   3.462  13.885 -3.0492 -0.0796  1.1165
  779MPD2    H311497   4.637   3.682  13.812 -0.9235  0.3479  1.3857
  779MPD2     N11498   0.130   3.890  14.155 -0.4891 -0.0406 -0.4862
  779MPD2    H511499   0.184   3.869  14.238  1.8716  0.7695 -1.8080
  779MPD2    N111500   0.182   3.434  14.085 -0.2435  0.3145  0.1991
  779MPD2    H711501   0.252   3.447  14.157 -0.2895 -1.4299  0.5701
  780MPD2     C11502   0.067   3.604   0.468  0.2450 -0.9587 -0.1962
  780MPD2    C111503   4.668   3.555   0.433 -0.4284 -0.0360  0.0087
  780MPD2    C211504   4.611   3.596   0.313 -0.1492 -0.0391  0.4466
  780MPD2    C311505   4.671   3.684   0.234 -0.6853 -0.2213 -0.3094
  780MPD2    C411506   0.064   3.740   0.276 -0.0285 -0.1621  0.9363
  780MPD2    C511507   0.129   3.703   0.389  0.0020  0.5101 -0.1311
  780MPD2     H11508   4.519   3.554   0.273  1.1290 -1.8298 -0.6014
  780MPD2    H111509   0.110   3.820   0.218 -0.1941  0.7707  2.0923
  780MPD2    H211510   0.122   3.584   0.559 -1.3932  1.3906  1.3132
  780MPD2    H311511   0.228   3.737   0.414  1.1710 -2.1450 -1.2126
  780MPD2     N11512   4.599   3.722   0.119 -0.4019  0.1757 -0.2339
  780MPD2    H511513   4.518   3.667   0.093 -0.2130  1.7149 -3.9973
  780MPD2    N111514   4.605   3.463   0.523 -0.0222 -0.3473  0.5547
  780MPD2    H711515   4.661   3.430   0.601  1.4423 -1.0643 -0.7937
  781MPD2     C11516   1.661   0.393  11.333  0.2697  0.2761 -0.2445
  781MPD2    C111517   1.740   0.366  11.441 -0.2241 -0.3691  0.6874
  781MPD2    C211518   1.867   0.308  11.420  0.1155 -0.0425  0.0172
  781MPD2    C311519   1.907   0.275  11.287 -0.0426  0.1756  0.0438
  781MPD2    C411520   1.815   0.289  11.180 -0.7836 -0.2559 -0.0165
  781MPD2    C511521   1.695   0.352  11.202  0.2130 -0.4886  0.3346
  781MPD2     H11522   1.931   0.293  11.507  1.3417  0.2399 -0.8324
  781MPD2    H111523   1.845   0.257  11.081 -2.0551  1.6243 -0.9957
  781MPD2    H211524   1.571   0.452  11.332 -0.4758 -0.9072 -2.4476
  781MPD2    H311525   1.628   0.389  11.125 -2.0341 -1.8751  1.5887
  781MPD2     N11526   2.038   0.237  11.251 -0.3427 -0.1124  0.0294
  781MPD2    H511527   2.053   0.231  11.151 -2.2247  0.2200 -0.2755
  781MPD2    N111528   1.702   0.408  11.572  0.5424 -0.5615  0.3966
  781MPD2    H711529   1.765   0.393  11.650  0.7422  0.7184  0.4730
  782MPD2     C11530   0.220   0.297   9.646 -0.3962  0.6060  0.3748
  782MPD2    C111531   0.332   0.247   9.705  0.2694  0.1237 -0.9399
  782MPD2    C211532   0.420   0.337   9.756  0.1444 -0.0884 -0.3088
  782MPD2    C311533   0.396   0.480   9.753 -0.9086  1.2392 -0.9139
  782MPD2    C411534   0.280   0.523   9.698  0.1745  0.1882  0.7819
  782MPD2    C511535   0.188   0.427   9.658 -0.1780 -0.2052 -0.3041
  782MPD2     H11536   0.511   0.292   9.793 -0.7593 -2.5088 -0.9830
  782MPD2    H111537   0.252   0.627   9.692 -0.6285 -0.1673 -1.6162
  782MPD2    H211538   0.157   0.231   9.587 -0.1722  0.4301  0.3316
  782MPD2    H311539   0.105   0.463   9.597  0.9742  0.7415 -1.3154
  782MPD2     N11540   0.483   0.563   9.821 -1.0417 -0.0662  0.0358
  782MPD2    H511541   0.553   0.510   9.873  1.6256  1.8140 -1.6716
  782MPD2    N111542   0.369   0.116   9.702 -0.3267 -0.1670  0.5491
  782MPD2    H711543   0.458   0.098   9.747 -0.7141 -0.1551  1.3216
  783MPD2     C11544   0.018   4.558  10.462 -0.2488 -0.0553 -0.3872
  783MPD2    C111545   0.049   4.679  10.397  0.2368 -0.0350 -0.0960
  783MPD2    C211546   0.124   4.679  10.276  0.2305  0.1704 -0.2059
  783MPD2    C311547   0.162   4.559  10.223  0.0204 -0.2599  0.2046
  783MPD2    C411548   0.140   4.447  10.296 -0.6073 -0.2319  0.3482
  783MPD2    C511549   0.084   4.442  10.421  0.1153 -0.4885  0.4744
  783MPD2     H11550   0.143   0.047  10.222 -1.1531 -0.1053 -1.1646
  783MPD2    H111551   0.175   4.352  10.257  0.3417 -0.2674  1.2956
  783MPD2    H211552   4.677   4.554  10.548 -1.5388 -2.1604 -1.4653
  783MPD2    H311553   0.072   4.351  10.478 -0.2064 -0.8923 -0.2415
  783MPD2     N11554   0.240   4.561  10.107  0.0869  0.4852  0.1721
  783MPD2    H511555   0.238   4.647  10.052 -2.0210  0.3040 -0.0377
  783MPD2    N111556   4.704   0.067  10.451 -0.2918  0.2084  0.2293
  783MPD2    H711557   4.626   0.052  10.515 -0.9884 -2.6025 -1.2837
  784MPD2     C11558   2.505   1.860   1.819 -0.1217  0.7102  0.6919
  784MPD2    C111559   2.561   1.979   1.779 -0.2478 -0.2034 -0.5604
  784MPD2    C211560   2.483   2.087   1.740  0.3127  0.4626  0.6965
  784MPD2    C311561   2.349   2.066   1.726 -0.4067  0.0741 -0.1775
  784MPD2    C411562   2.292   1.953   1.774 -0.5116 -0.3535  0.1222
  784MPD2    C511563   2.369   1.850   1.817 -0.0978 -0.2302 -0.7567
  784MPD2     H11564   2.526   2.185   1.720 -0.9401  0.7743 -0.4472
  784MPD2    H111565   2.186   1.932   1.776 -0.9678  1.7850 -1.7691
  784MPD2    H211566   2.558   1.771   1.849 -1.0185 -0.4565 -1.1889
  784MPD2    H311567   2.316   1.759   1.844 -0.0309 -0.2858 -0.8092
  784MPD2     N11568   2.270   2.167   1.674 -0.1858  0.2003  0.1110
  784MPD2    H511569   2.317   2.256   1.660  0.0423  0.1063  0.2974
  784MPD2    N111570   2.707   1.995   1.774 -0.1435 -0.1997  0.1695
  784MPD2    H711571   2.738   2.080   1.730  0.9131 -1.2347 -1.0997
  785MPD2     C11572   3.166   4.033  10.554  0.0101 -0.7287 -0.3888
  785MPD2    C111573   3.069   4.129  10.535 -0.8971 -0.0362 -0.2515
  785MPD2    C211574   2.946   4.089  10.479  1.0406  0.1067 -0.6838
  785MPD2    C311575   2.928   3.957  10.437  0.2151 -0.3212 -0.3778
  785MPD2    C411576   3.025   3.862  10.453  0.2425 -0.0495 -0.5831
  785MPD2    C511577   3.143   3.894  10.515  0.6146  0.0851 -0.3643
  785MPD2     H11578   2.871   4.167  10.472  1.3346  0.4251 -0.2808
  785MPD2    H111579   3.011   3.759  10.424  1.7285 -0.2371 -0.6545
  785MPD2    H211580   3.263   4.054  10.599 -0.3505  1.3074 -0.5490
  785MPD2    H311581   3.212   3.812  10.532  2.3147  1.6415  0.2470
  785MPD2     N11582   2.804   3.928  10.373 -0.1744 -0.2210  0.0600
  785MPD2    H511583   2.740   4.007  10.373 -1.2645 -1.1100 -0.5448
  785MPD2    N111584   3.091   4.262  10.572 -0.3984  0.1584  0.0809
  785MPD2    H711585   3.012   4.325  10.565 -0.5896 -0.0521  0.3155
  786MPD2     C11586   1.399   2.780  14.803  0.0092  0.3216  0.7035
  786MPD2    C111587   1.500   2.685  14.802 -0.8242 -0.1008  0.0041
  786MPD2    C211588   1.559   2.642  14.921  0.1720  1.0903 -0.2991
  786MPD2    C311589   1.508   2.687  15.048  0.5007 -0.3922 -0.0382
  786MPD2    C411590   1.398   2.771  15.044 -0.0007 -0.2593 -0.2238
  786MPD2    C511591   1.345   2.818  14.923 -0.5302 -0.6949  0.3646
  786MPD2     H11592   1.645   2.577  14.910 -0.1052  0.4064  1.6131
  786MPD2    H111593   1.352   2.807  15.135 -0.0424  1.7324 -1.0168
  786MPD2    H211594   1.354   2.823  14.715  2.8607 -1.5214 -1.6589
  786MPD2    H311595   1.268   2.895  14.919 -0.0151 -0.3201 -3.0208
  786MPD2     N11596   1.561   2.656  15.171  0.5642  0.5270 -0.4243
  786MPD2    H511597   1.516   2.681  15.259  0.7747 -1.5837  0.2763
  786MPD2    N111598   1.561   2.644  14.680 -0.0010 -0.5777 -0.0343
  786MPD2    H711599   1.640   2.581  14.688  2.0603  1.9367 -0.4709
  787MPD2     C11600   1.668   2.098  14.795  0.1517 -0.6697  0.1704
  787MPD2    C111601   1.670   2.093  14.657  0.2704 -0.4828  0.1933
  787MPD2    C211602   1.683   1.970  14.586  0.1611 -0.6863 -1.0777
  787MPD2    C311603   1.686   1.851  14.660  0.5183 -0.1368  0.2140
  787MPD2    C411604   1.676   1.856  14.799  0.5266 -0.3803  0.6785
  787MPD2    C511605   1.666   1.979  14.863 -0.3384  0.0183 -0.9305
  787MPD2     H11606   1.683   1.952  14.479 -2.3470  0.1860 -1.2087
  787MPD2    H111607   1.664   1.769  14.864 -5.0718 -1.9212 -2.4506
  787MPD2    H211608   1.658   2.190  14.851 -2.2092 -0.8519  0.0711
  787MPD2    H311609   1.663   1.991  14.971 -0.3573  1.3063 -1.0708
  787MPD2     N11610   1.720   1.729  14.592 -0.6032 -0.1397 -0.8084
  787MPD2    H511611   1.727   1.732  14.491  2.2555 -0.4861 -0.6188
  787MPD2    N111612   1.668   2.212  14.589 -0.4087  0.0732  0.1866
  787MPD2    H711613   1.626   2.293  14.634 -0.2474  1.5813 -2.3955
  788MPD2     C11614   3.526   0.606   0.801 -0.0819 -0.9064 -0.0654
  788MPD2    C111615   3.398   0.578   0.764 -0.0885 -0.0615  0.9851
  788MPD2    C211616   3.327   0.674   0.693  0.6916 -0.5709  0.0044
  788MPD2    C311617   3.396   0.778   0.627  1.2194 -0.2182 -0.7309
  788MPD2    C411618   3.529   0.797   0.651  0.4450  1.0707  0.3352
  788MPD2    C511619   3.593   0.711   0.743  0.2253  0.7328  0.5727
  788MPD2     H11620   3.223   0.650   0.675  0.8473 -2.5792  1.7564
  788MPD2    H111621   3.590   0.877   0.610  0.3282  0.5242 -0.9140
  788MPD2    H211622   3.590   0.546   0.866 -0.4805 -1.9065 -0.5866
  788MPD2    H311623   3.700   0.721   0.756  0.6344 -0.4794 -1.7966
  788MPD2     N11624   3.334   0.857   0.529 -0.1017 -0.4315 -0.2495
  788MPD2    H511625   3.395   0.917   0.474  0.0727 -0.5419 -0.1750
  788MPD2    N111626   3.329   0.459   0.800  0.1846  0.2271  0.2069
  788MPD2    H711627   3.233   0.444   0.768 -0.4953  2.2243  1.3078
  789MPD2     C11628   3.158   0.896  16.848 -0.4048  0.4458 -0.1854
  789MPD2    C111629   3.067   0.909  16.747 -0.2786  0.2467 -0.4577
  789MPD2    C211630   2.936   0.953  16.767 -0.5974 -0.1666  0.4941
  789MPD2    C311631   2.902   0.978  16.902 -0.2690 -0.0744  0.1112
  789MPD2    C411632   2.990   0.945  17.011  0.0920  0.9328  0.1249
  789MPD2    C511633   3.122   0.917  16.971  0.8087 -0.4732 -0.6228
  789MPD2     H11634   2.868   0.976  16.686 -1.8726 -0.7837  1.3934
  789MPD2    H111635   2.954   0.964  17.112 -1.4190  0.6277 -0.3509
  789MPD2    H211636   3.258   0.861  16.825 -1.5184 -2.8009 -0.0931
  789MPD2    H311637   3.200   0.892  17.041  2.2104  1.7909 -1.3697
  789MPD2     N11638   2.780   1.047  16.932  1.1009 -0.9232 -0.5055
  789MPD2    H511639   2.768   1.075  17.029  0.3020  0.8068 -1.1056
  789MPD2    N111640   3.102   0.884  16.614 -0.0998 -0.4533  0.1454
  789MPD2    H711641   3.018   0.864  16.560 -0.9746  2.4407  0.4355
  790MPD2     C11642   3.900   2.428  13.730 -0.6324 -0.4064  0.8950
  790MPD2    C111643   3.896   2.291  13.715  0.2712  0.3795 -0.9445
  790MPD2    C211644   3.867   2.235  13.595  0.9359 -0.1199 -0.0437
  790MPD2    C311645   3.864   2.318  13.485  0.9113  0.0587 -0.4619
  790MPD2    C411646   3.878   2.454  13.493 -0.1247  0.5654  0.2746
  790MPD2    C511647   3.882   2.507  13.615 -0.4678  0.7609 -0.4365
  790MPD2     H11648   3.865   2.127  13.579 -2.8955 -0.1213  0.2586
  790MPD2    H111649   3.877   2.526  13.412  0.5351 -0.1467 -0.3716
  790MPD2    H211650   3.925   2.466  13.829 -0.9007  1.3652  0.2912
  790MPD2    H311651   3.884   2.615  13.612  1.0039  0.6861 -1.6633
  790MPD2     N11652   3.844   2.259  13.356 -0.0242 -0.4779  0.3633
  790MPD2    H511653   3.839   2.158  13.360 -2.5541 -0.2870  2.5572
  790MPD2    N111654   3.911   2.220  13.839  0.1909  0.5755 -0.3460
  790MPD2    H711655   3.930   2.273  13.923 -2.0957  0.5544  0.1825
  791MPD2     C11656   3.279   1.925  13.211 -0.4261  0.3304 -0.5293
  791MPD2    C111657   3.376   1.918  13.110  0.9504  0.6216 -0.1251
  791MPD2    C211658   3.337   1.837  13.001 -1.0976  0.6040 -0.4929
  791MPD2    C311659   3.214   1.773  12.992 -0.2185  0.0008  0.2175
  791MPD2    C411660   3.128   1.776  13.101 -0.6061 -0.3786 -0.4667
  791MPD2    C511661   3.163   1.852  13.207 -1.7442  0.0010  0.3210
  791MPD2     H11662   3.395   1.826  12.910  1.3813  0.6665  1.0516
  791MPD2    H111663   3.038   1.717  13.109 -1.8962  1.4873 -1.2106
  791MPD2    H211664   3.295   1.979  13.304 -3.2812 -0.3739  0.3661
  791MPD2    H311665   3.098   1.849  13.294 -1.3115 -0.0689  0.6445
  791MPD2     N11666   3.184   1.697  12.873 -0.2339 -0.2145  0.4343
  791MPD2    H511667   3.252   1.701  12.798 -1.4124  0.2893 -0.6054
  791MPD2    N111668   3.497   2.003  13.110 -0.1901  0.4203  0.7088
  791MPD2    H711669   3.521   2.062  13.189  0.2548 -0.9004  1.5632
  792MPD2     C11670   0.252   1.400  10.448 -0.0106 -0.0410 -0.3440
  792MPD2    C111671   0.149   1.487  10.500 -0.3741 -0.0578  0.4795
  792MPD2    C211672   0.025   1.433  10.510 -0.3603 -0.2555  0.4722
  792MPD2    C311673   4.709   1.302  10.487 -0.1098  0.1782  0.1959
  792MPD2    C411674   0.092   1.214  10.453 -0.3669  0.2379 -0.1310
  792MPD2    C511675   0.223   1.268  10.423 -1.1138 -0.0768  0.5603
  792MPD2     H11676   4.670   1.495  10.552  2.0262  3.6788 -0.9151
  792MPD2    H111677   0.070   1.108  10.440  2.2344 -0.2083 -0.8442
  792MPD2    H211678   0.349   1.445  10.437  0.3000 -0.0151  2.4892
  792MPD2    H311679   0.295   1.193  10.393 -2.8942 -2.1035  1.3380
  792MPD2     N11680   4.578   1.258  10.493  0.5431 -0.4874  0.2833
  792MPD2    H511681   4.567   1.163  10.460  2.3217 -0.9914  1.1432
  792MPD2    N111682   0.179   1.624  10.533 -0.2967 -0.5237 -0.2243
  792MPD2    H711683   0.276   1.653  10.534  0.3441 -2.7174  1.6206
  793MPD2     C11684   4.269   1.067   9.723  0.0426 -0.1286 -0.3061
  793MPD2    C111685   4.385   1.081   9.789  0.3384 -0.0921  0.3552
  793MPD2    C211686   4.382   1.126   9.923 -1.1171 -0.0492 -0.1776
  793MPD2    C311687   4.263   1.160   9.985  0.2271  0.4497  0.4782
  793MPD2    C411688   4.145   1.151   9.913  0.0105 -1.0389  0.6166
  793MPD2    C511689   4.155   1.115   9.783  0.0469  0.1779  0.4174
  793MPD2     H11690   4.469   1.169   9.970  0.1809 -0.2231 -2.4024
  793MPD2    H111691   4.050   1.176   9.958 -1.0931 -0.9979 -1.7168
  793MPD2    H211692   4.264   1.035   9.619 -0.7095  1.6059 -0.8079
  793MPD2    H311693   4.065   1.098   9.726 -0.7833  1.2640  1.4091
  793MPD2     N11694   4.265   1.187  10.121  0.1741 -0.7752  0.3883
  793MPD2    H511695   4.360   1.191  10.156 -0.4339  2.3721  1.6643
  793MPD2    N111696   4.511   1.065   9.730 -0.1541  0.4020 -0.4111
  793MPD2    H711697   4.590   1.103   9.782 -1.1653 -0.4130  1.7111
  794MPD2     C11698   3.787   1.585  16.926 -0.1180 -0.2266  0.0766
  794MPD2    C111699   3.683   1.497  16.903  0.3161  0.5032  0.3527
  794MPD2    C211700   3.614   1.491  16.790  0.7326 -1.1320 -0.3519
  794MPD2    C311701   3.660   1.572  16.692  0.0758 -0.4639 -0.6197
  794MPD2    C411702   3.771   1.657  16.705  0.0887 -0.2280 -0.0648
  794MPD2    C511703   3.833   1.664  16.827  0.2296  0.9654  0.1393
  794MPD2     H11704   3.527   1.427  16.782 -1.5482  1.9421 -0.3883
  794MPD2    H111705   3.791   1.736  16.634 -1.1480  0.9555  0.8869
  794MPD2    H211706   3.837   1.593  17.021  1.1938 -0.8076 -0.5674
  794MPD2    H311707   3.915   1.730  16.852 -1.4223  2.3473  1.9765
  794MPD2     N11708   3.595   1.586  16.571  0.4627 -0.0083 -0.1400
  794MPD2    H511709   3.635   1.649  16.503 -1.4076  0.1365 -1.1062
  794MPD2    N111710   3.630   1.419  17.007 -0.2154 -0.2586  0.3493
  794MPD2    H711711   3.547   1.364  16.985 -0.0221 -0.8731  1.1568
  795MPD2     C11712   1.918   3.709  12.895 -0.2058 -1.1074 -0.4838
  795MPD2    C111713   1.893   3.659  13.020 -0.8289  0.4419 -0.1263
  795MPD2    C211714   1.965   3.551  13.057 -0.0120  0.2514 -0.3299
  795MPD2    C311715   2.077   3.508  12.987 -0.9233  0.0023  0.0154
  795MPD2    C411716   2.097   3.563  12.865 -0.0758 -0.2216  0.2277
  795MPD2    C511717   2.019   3.668  12.817  0.3928  0.4437 -0.5714
  795MPD2     H11718   1.949   3.506  13.154 -1.2763  0.4059 -0.4672
  795MPD2    H111719   2.190   3.552  12.809 -0.2659  1.0551 -0.3414
  795MPD2    H211720   1.849   3.775  12.843  0.3272  1.4277  2.0464
  795MPD2    H311721   2.039   3.710  12.719 -2.4883  1.0974 -0.8642
  795MPD2     N11722   2.146   3.397  13.039  0.2596  0.6507 -0.6891
  795MPD2    H511723   2.126   3.370  13.134  0.7760  1.3107 -0.3911
  795MPD2    N111724   1.781   3.681  13.105 -0.1355 -0.0658 -0.4193
  795MPD2    H711725   1.777   3.631  13.193 -1.0270  2.0379  0.7217
  796MPD2     C11726   1.210   0.479  15.498  0.7408 -0.5689 -0.2977
  796MPD2    C111727   1.268   0.522  15.613  0.2900 -0.3643 -0.5510
  796MPD2    C211728   1.254   0.657  15.635  0.1900  0.1519  0.2520
  796MPD2    C311729   1.181   0.739  15.555  0.4490  0.2534 -0.3587
  796MPD2    C411730   1.117   0.688  15.445 -0.0133 -0.4468  0.1024
  796MPD2    C511731   1.142   0.557  15.411 -0.9685 -0.2862  0.0033
  796MPD2     H11732   1.303   0.701  15.721  0.3953 -1.1594  0.8093
  796MPD2    H111733   1.060   0.746  15.374 -0.0895 -1.9549 -1.0859
  796MPD2    H211734   1.232   0.377  15.469  0.0678 -0.2154 -2.0846
  796MPD2    H311735   1.097   0.515  15.321  0.2706 -1.3264 -0.1338
  796MPD2     N11736   1.175   0.876  15.602  0.5570 -0.1343  0.1258
  796MPD2    H511737   1.215   0.894  15.693 -0.1355 -0.5355  0.5041
  796MPD2    N111738   1.339   0.434  15.699  0.1786 -0.1327 -1.0499
  796MPD2    H711739   1.335   0.333  15.691 -1.8491  0.0928 -2.8993
  797MPD2     C11740   1.886   4.717  17.267 -0.5657 -0.1204 -0.1550
  797MPD2    C111741   1.973   0.098  17.283 -0.6381  0.7878 -0.2629
  797MPD2    C211742   1.957   0.199  17.191  0.1196  0.5548 -0.5092
  797MPD2    C311743   1.872   0.192  17.085 -0.1201  0.0084 -0.0469
  797MPD2    C411744   1.793   0.082  17.072  0.7301 -0.5023 -0.7534
  797MPD2    C511745   1.793   4.706  17.164 -0.2227  0.3548  0.2522
  797MPD2     H11746   2.021   0.286  17.202  2.6972 -1.2634 -1.1078
  797MPD2    H111747   1.727   0.084  16.987 -1.6159  2.3563  1.1359
  797MPD2    H211748   1.889   4.633  17.335 -2.8123 -1.3109 -1.5256
  797MPD2    H311749   1.709   4.638  17.171 -0.8769  1.6618  5.1518
  797MPD2     N11750   1.870   0.294  16.989  0.3071  0.5469 -0.0721
  797MPD2    H511751   1.823   0.283  16.900  1.5554  6.5614 -1.4679
  797MPD2    N111752   2.075   0.109  17.381 -0.7431  0.0648 -0.0671
  797MPD2    H711753   2.144   0.180  17.359 -0.9063 -0.4070 -2.0774
  798MPD2     C11754   2.313   0.806  17.254 -0.1939  0.0457 -0.6271
  798MPD2    C111755   2.213   0.715  17.237  0.5639 -0.3234  0.3849
  798MPD2    C211756   2.196   0.616  17.336  0.7451 -1.2151  0.0521
  798MPD2    C311757   2.280   0.604  17.443 -0.2989  0.1919 -0.2646
  798MPD2    C411758   2.378   0.698  17.462 -0.4840  0.5963 -0.0509
  798MPD2    C511759   2.396   0.801  17.367  0.2844  0.0656  0.3135
  798MPD2     H11760   2.110   0.549  17.332 -1.0494  1.0967 -0.4873
  798MPD2    H111761   2.438   0.700  17.552 -1.6609  4.3423  0.6617
  798MPD2    H211762   2.331   0.885  17.182 -1.4582 -0.2615 -1.2759
  798MPD2    H311763   2.477   0.874  17.371  0.9953 -0.7301  0.4714
  798MPD2     N11764   2.263   0.480  17.517 -0.2983 -0.0472  0.3289
  798MPD2    H511765   2.198   0.413  17.477 -0.3638  1.0327 -1.3791
  798MPD2    N111766   2.131   0.702  17.123 -0.4191  0.6635 -0.3513
  798MPD2    H711767   2.054   0.636  17.121 -0.8972  1.2052  0.1385
  799MPD2     C11768   1.298   1.892  14.567  0.6500 -0.6466  1.0991
  799MPD2    C111769   1.213   1.798  14.521  0.2273 -0.5852 -0.3695
  799MPD2    C211770   1.125   1.841  14.417 -0.4820 -0.5951  0.7614
  799MPD2    C311771   1.106   1.975  14.384 -0.6111 -0.1841  0.7454
  799MPD2    C411772   1.187   2.059  14.445 -0.2421  0.2042 -0.1810
  799MPD2    C511773   1.288   2.023  14.527 -0.4692 -0.3617  0.4370
  799MPD2     H11774   1.070   1.767  14.361 -1.4156  1.3523 -0.8922
  799MPD2    H111775   1.180   2.165  14.423 -1.6444 -0.1478 -1.4550
  799MPD2    H211776   1.379   1.860  14.631  1.1576 -0.8026  0.3840
  799MPD2    H311777   1.364   2.097  14.549  1.8550 -2.5295 -0.3640
  799MPD2     N11778   1.039   2.025  14.271  0.5562 -0.4032 -0.4714
  799MPD2    H511779   1.040   2.124  14.246 -0.6027 -0.5792 -1.2300
  799MPD2    N111780   1.211   1.665  14.567 -0.2956  0.6750 -0.4348
  799MPD2    H711781   1.140   1.608  14.520 -1.5215  0.0187  2.2154
  800MPD2     C11782   1.883   2.992  14.127 -0.4310 -0.5535 -0.1297
  800MPD2    C111783   2.017   3.000  14.095  0.3180 -0.5034  0.6568
  800MPD2    C211784   2.085   2.886  14.087  0.6908  0.2935 -0.3791
  800MPD2    C311785   2.027   2.760  14.108 -0.1210  0.2182  0.2627
  800MPD2    C411786   1.895   2.757  14.149 -0.0506 -0.2693 -0.3387
  800MPD2    C511787   1.828   2.874  14.162  0.5882  0.2001 -0.3849
  800MPD2     H11788   2.186   2.894  14.049  1.1112 -2.1156  0.2566
  800MPD2    H111789   1.842   2.666  14.170 -0.4118  0.5450  2.2598
  800MPD2    H211790   1.833   3.084  14.099  2.7970  0.8648 -1.2648
  800MPD2    H311791   1.720   2.863  14.170  0.7465  1.2987  3.1049
  800MPD2     N11792   2.106   2.647  14.089  0.3722  0.1825 -1.0221
  800MPD2    H511793   2.197   2.665  14.048  1.1989 -1.7937 -0.0685
  800MPD2    N111794   2.072   3.126  14.067  0.4916 -1.3256  0.1874
  800MPD2    H711795   2.013   3.209  14.063 -0.2277 -2.0345 -4.0558
  801MPD2     C11796   1.937   3.813  13.800  0.1497  0.6858  0.4017
  801MPD2    C111797   1.903   3.697  13.872 -0.4776  0.4921  0.2080
  801MPD2    C211798   1.788   3.703  13.946  0.4448 -0.5627  0.3719
  801MPD2    C311799   1.719   3.824  13.965  0.0946  0.0659 -0.3426
  801MPD2    C411800   1.752   3.933  13.895  0.1624 -0.1693  0.1763
  801MPD2    C511801   1.861   3.927  13.811  1.2841  0.5671  0.4615
  801MPD2     H11802   1.764   3.608  13.992 -0.6821  0.5915  2.1493
  801MPD2    H111803   1.711   4.032  13.910 -1.6701 -0.5792 -2.1527
  801MPD2    H211804   2.017   3.823  13.727  0.7628  1.1652  1.1371
  801MPD2    H311805   1.891   4.025  13.776  0.4351  0.5118 -0.3997
  801MPD2     N11806   1.607   3.825  14.054 -0.0566  0.2058  0.0249
  801MPD2    H511807   1.576   3.915  14.091 -1.4090 -0.0562 -0.4697
  801MPD2    N111808   1.979   3.580  13.872  0.0990  0.5676  0.0914
  801MPD2    H711809   1.942   3.504  13.929  1.8451  1.4052  2.3129
  802MPD2     C11810   0.501   4.716  17.312  0.3953 -0.1584  0.5661
  802MPD2    C111811   0.429   4.680  17.418 -0.3384 -0.0145  0.8166
  802MPD2    C211812   0.450   4.561  17.493 -0.4266 -0.0619 -0.0856
  802MPD2    C311813   0.559   4.484  17.462  0.0085 -0.2378 -0.3110
  802MPD2    C411814   0.640   4.525  17.358  0.4060  0.5342 -0.0164
  802MPD2    C511815   0.607   4.637  17.284  0.6836  0.1278  0.0308
  802MPD2     H11816   0.374   4.530  17.565 -0.6210  0.0317 -0.2499
  802MPD2    H111817   0.728   4.474  17.321 -1.5868 -2.7509 -0.1818
  802MPD2    H211818   0.471   0.070  17.242 -0.8554 -1.3870 -0.2634
  802MPD2    H311819   0.671   4.667  17.201  1.2433 -0.1058  0.3778
  802MPD2     N11820   0.591   4.359  17.524  0.3609 -0.1029 -0.1812
  802MPD2    H511821   0.671   4.309  17.486 -1.5670 -2.7705 -0.7220
  802MPD2    N111822   0.303   0.024  17.431 -0.1239 -0.1973 -0.4539
  802MPD2    H711823   0.232   4.703  17.489  0.9442  0.7404  1.5755
  803MPD2     C11824   2.816   1.877  11.310 -0.2301  0.6532 -1.1531
  803MPD2    C111825   2.840   1.959  11.425  0.1537 -0.4046  0.5550
  803MPD2    C211826   2.748   1.958  11.527 -0.1482 -0.2488 -0.2589
  803MPD2    C311827   2.636   1.876  11.518  0.4819  0.6667 -0.2368
  803MPD2    C411828   2.621   1.792  11.407  0.4435  0.7086 -0.3459
  803MPD2    C511829   2.705   1.795  11.306 -0.1660  0.8789 -0.5745
  803MPD2     H11830   2.766   2.015  11.617 -1.5206 -2.4360  1.4096
  803MPD2    H111831   2.533   1.728  11.401  1.6961 -1.0081 -0.3502
  803MPD2    H211832   2.884   1.866  11.227  2.4807 -2.2543  1.4766
  803MPD2    H311833   2.694   1.728  11.221  2.0516  0.8173 -0.8389
  803MPD2     N11834   2.531   1.879  11.617  0.1009 -0.1227 -0.0524
  803MPD2    H511835   2.446   1.830  11.592  0.2945 -0.0448 -0.9006
  803MPD2    N111836   2.963   2.023  11.444  0.6348 -0.8859 -0.0960
  803MPD2    H711837   2.964   2.093  11.518 -0.4215  1.0991 -1.9860
  804MPD2     C11838   1.941   3.301  16.986 -0.0296 -0.0651  0.1394
  804MPD2    C111839   1.871   3.337  17.103 -0.5587 -0.1687  0.6716
  804MPD2    C211840   1.876   3.468  17.142 -0.2884 -0.1136 -0.4254
  804MPD2    C311841   1.937   3.566  17.068  0.0190 -0.2209 -0.2077
  804MPD2    C411842   2.003   3.530  16.948 -0.5496 -0.3443 -0.7558
  804MPD2    C511843   2.005   3.393  16.913  0.6527  0.0424 -0.1993
  804MPD2     H11844   1.846   3.509  17.238 -0.7676 -2.7254  0.5360
  804MPD2    H111845   2.047   3.605  16.884 -1.7633  0.4727 -0.6351
  804MPD2    H211846   1.955   3.199  16.952  0.9126  0.6099 -1.5204
  804MPD2    H311847   2.046   3.362  16.818  1.1189  0.3682 -0.1060
  804MPD2     N11848   1.924   3.700  17.109 -0.0634 -0.2034  0.7397
  804MPD2    H511849   1.876   3.718  17.197 -1.4065  2.1607 -0.4906
  804MPD2    N111850   1.790   3.243  17.183 -0.2190  0.1309  0.7863
  804MPD2    H711851   1.725   3.277  17.253 -1.2571 -1.9402  0.8202
  805MPD2     C11852   0.807   1.546  15.130  0.5660  0.7282 -0.7556
  805MPD2    C111853   0.864   1.649  15.063  0.0355 -0.3339 -0.2233
  805MPD2    C211854   0.979   1.713  15.109  0.2429 -0.0821  0.4701
  805MPD2    C311855   1.031   1.668  15.235 -0.0758 -0.3424 -0.1239
  805MPD2    C411856   0.975   1.560  15.299  0.1302 -0.0621  0.3531
  805MPD2    C511857   0.858   1.505  15.252 -0.7837 -0.1969 -0.7568
  805MPD2     H11858   1.024   1.796  15.056  0.4248  0.9166  2.1668
  805MPD2    H111859   1.032   1.517  15.381 -3.0326 -1.2704  1.8825
  805MPD2    H211860   0.721   1.494  15.091 -0.4430  2.4806 -0.8987
  805MPD2    H311861   0.825   1.410  15.292  0.0073  0.5008  1.5596
  805MPD2     N11862   1.153   1.729  15.289  0.0653  0.4238  0.0781
  805MPD2    H511863   1.193   1.809  15.240 -1.6812  0.9645 -0.4462
  805MPD2    N111864   0.829   1.693  14.932 -0.3892  0.1171  0.2182
  805MPD2    H711865   0.899   1.752  14.889 -1.1241  0.7663 -0.0778
  806MPD2     C11866   0.910   0.443   0.245  0.8934  0.1639  0.1367
  806MPD2    C111867   0.999   0.431   0.359 -0.6029 -0.2670 -0.3999
  806MPD2    C211868   1.074   0.546   0.385 -0.6664 -0.3814 -1.0400
  806MPD2    C311869   1.057   0.662   0.308 -0.6894 -0.0529 -0.4542
  806MPD2    C411870   0.971   0.666   0.203  0.1479 -0.2913  0.6567
  806MPD2    C511871   0.897   0.560   0.167 -0.3336 -0.0052 -1.0299
  806MPD2     H11872   1.131   0.556   0.477 -0.5666 -2.6164 -0.8506
  806MPD2    H111873   0.954   0.749   0.135 -0.6555 -0.8448  0.1780
  806MPD2    H211874   0.856   0.354   0.218  1.9615 -0.6564  0.7048
  806MPD2    H311875   0.827   0.563   0.084  0.8305  1.0624 -1.9771
  806MPD2     N11876   1.136   0.774   0.350 -0.1206 -0.0607  0.4198
  806MPD2    H511877   1.187   0.762   0.437  0.5596 -0.4397 -0.0367
  806MPD2    N111878   1.003   0.307   0.431  0.3610 -0.3958 -0.5487
  806MPD2    H711879   0.936   0.234   0.410 -0.2344  0.2902 -1.0080
  807MPD2     C11880   0.543   4.670   0.937  0.6417  0.8281 -0.5078
  807MPD2    C111881   0.669   4.631   0.973  0.0256  0.3283  0.2067
  807MPD2    C211882   0.677   4.544   1.077 -0.4564  0.1603  0.1531
  807MPD2    C311883   0.574   4.483   1.143  0.5142 -0.0424 -0.2012
  807MPD2    C411884   0.448   4.518   1.096 -0.0343  1.2346 -0.0724
  807MPD2    C511885   0.433   4.609   0.990  0.6648 -0.3898 -0.2643
  807MPD2     H11886   0.781   4.527   1.105 -1.2712  0.2194  3.1747
  807MPD2    H111887   0.360   4.466   1.131  0.2218  0.2619 -0.8502
  807MPD2    H211888   0.528   0.012   0.852 -0.8259  0.9959 -0.1257
  807MPD2    H311889   0.332   4.634   0.962 -0.1376 -1.3586  1.7313
  807MPD2     N11890   0.602   4.390   1.248  0.2870 -0.6567 -0.0715
  807MPD2    H511891   0.701   4.370   1.256  0.4683  1.0538  1.9848
  807MPD2    N111892   0.788   4.663   0.908  0.1099 -0.2754  0.1974
  807MPD2    H711893   0.868   4.615   0.949 -0.4595 -1.2630  0.1354
  808MPD2     C11894   2.315   1.916   9.982 -0.9290  0.5823  0.4940
  808MPD2    C111895   2.215   2.001   9.955  0.8244 -0.2736  0.8702
  808MPD2    C211896   2.226   2.129  10.020 -0.3637 -0.2617 -0.4838
  808MPD2    C311897   2.331   2.178  10.092 -0.1717 -0.8497  0.6189
  808MPD2    C411898   2.430   2.090  10.111  0.1576 -0.2032  0.2057
  808MPD2    C511899   2.422   1.968  10.053 -0.3607  0.8035  1.0899
  808MPD2     H11900   2.146   2.199   9.998 -0.2062  0.0306 -0.1050
  808MPD2    H111901   2.509   2.103  10.184  1.4072  0.2322 -1.2336
  808MPD2    H211902   2.313   1.816   9.940  0.5616  0.5387  0.5037
  808MPD2    H311903   2.504   1.901  10.077  0.8899  0.7645 -3.2490
  808MPD2     N11904   2.325   2.314  10.140 -0.3449  0.0694  0.3402
  808MPD2    H511905   2.243   2.370  10.120  0.3089  0.3399 -1.5227
  808MPD2    N111906   2.099   1.963   9.875  0.7028 -0.2357  0.0418
  808MPD2    H711907   2.028   2.035   9.866  0.3404 -0.5693  0.1894
  809MPD2     C11908   2.399   2.955   9.465 -0.1330 -0.5064 -0.4941
  809MPD2    C111909   2.451   2.829   9.504 -0.1742  0.4635  0.3423
  809MPD2    C211910   2.423   2.791   9.634  0.5015 -0.0359  0.2254
  809MPD2    C311911   2.357   2.877   9.728 -0.0268 -0.1112  1.3263
  809MPD2    C411912   2.313   3.002   9.687 -0.3635 -0.1941 -0.5047
  809MPD2    C511913   2.331   3.037   9.551 -0.4066 -0.3282  0.4129
  809MPD2     H11914   2.471   2.703   9.675  1.8822  0.4893 -0.2680
  809MPD2    H111915   2.265   3.077   9.749 -1.2359 -0.5765 -0.7325
  809MPD2    H211916   2.417   2.994   9.365 -1.7474 -2.4971 -1.5650
  809MPD2    H311917   2.290   3.132   9.519 -0.2876  0.5488  2.9297
  809MPD2     N11918   2.343   2.839   9.867 -0.1207 -0.4592 -0.5376
  809MPD2    H511919   2.320   2.912   9.934  2.2162 -0.4489  0.2346
  809MPD2    N111920   2.525   2.744   9.412 -0.0916 -0.1770 -0.0125
  809MPD2    H711921   2.563   2.658   9.450  0.4153  0.0868  0.0783
  810MPD2     C11922   2.003   1.570  10.159  0.0247 -0.2097 -0.1481
  810MPD2    C111923   1.864   1.596  10.170  0.7159 -0.1010 -0.5691
  810MPD2    C211924   1.821   1.727  10.195  0.9926  0.0073 -0.0444
  810MPD2    C311925   1.910   1.833  10.199  0.6535  0.7925 -0.0460
  810MPD2    C411926   2.045   1.803  10.186  0.1616 -0.6805  0.1784
  810MPD2    C511927   2.089   1.677  10.159 -0.6077 -0.1463 -0.0861
  810MPD2     H11928   1.718   1.757  10.208  1.1581  0.3208  0.5120
  810MPD2    H111929   2.116   1.885  10.181 -0.8445  0.2017  0.2817
  810MPD2    H211930   2.044   1.476  10.125 -2.5721 -1.0437 -0.9847
  810MPD2    H311931   2.197   1.668  10.148 -0.6405 -1.8150  0.8338
  810MPD2     N11932   1.873   1.965  10.210  0.3987  0.6700 -0.1249
  810MPD2    H511933   1.947   2.028  10.239 -2.4881  3.2320  1.6456
  810MPD2    N111934   1.769   1.498  10.129 -0.1126  0.5119 -0.1632
  810MPD2    H711935   1.812   1.413  10.094  1.9326  0.4131  2.5484
  811MPD2     C11936   1.212   1.544   9.437  0.3164  0.0520 -0.2126
  811MPD2    C111937   1.282   1.609   9.532  0.0979 -0.2079 -0.6921
  811MPD2    C211938   1.276   1.740   9.528 -0.5055  1.0843  0.3915
  811MPD2    C311939   1.189   1.810   9.445 -0.0938  0.0643  0.1255
  811MPD2    C411940   1.109   1.744   9.355  0.3900 -0.2100  0.0134
  811MPD2    C511941   1.136   1.611   9.346 -0.1922 -0.6280 -0.2378
  811MPD2     H11942   1.336   1.805   9.591 -0.4255 -0.5725  2.0375
  811MPD2    H111943   1.048   1.791   9.279 -2.1263  0.1090  2.2451
  811MPD2    H211944   1.217   1.437   9.428 -2.1325 -0.0662 -0.2649
  811MPD2    H311945   1.078   1.549   9.278  0.2063  0.0839 -1.2293
  811MPD2     N11946   1.192   1.951   9.448 -0.1124 -0.7001 -0.1147
  811MPD2    H511947   1.272   1.998   9.487 -2.0922  1.3711  1.4444
  811MPD2    N111948   1.338   1.535   9.635  0.4252 -0.7166 -0.3916
  811MPD2    H711949   1.334   1.435   9.622  1.7841 -0.7334 -0.7302
  812MPD2     C11950   0.673   1.997  12.425 -1.2488  0.1529 -0.7318
  812MPD2    C111951   0.556   1.934  12.434  0.5759 -0.0109 -0.0423
  812MPD2    C211952   0.510   1.876  12.554 -0.0166  0.5537 -0.6733
  812MPD2    C311953   0.603   1.881  12.660 -0.1997  0.3037  0.7288
  812MPD2    C411954   0.725   1.944  12.646 -0.3775 -0.5014  0.1087
  812MPD2    C511955   0.771   1.991  12.528  0.4505 -0.1694  0.6336
  812MPD2     H11956   0.412   1.831  12.566  0.7414  0.0785  3.5141
  812MPD2    H111957   0.788   1.954  12.734  0.4034  0.4338 -0.5654
  812MPD2    H211958   0.693   2.048  12.332  3.1178  0.0314  0.1376
  812MPD2    H311959   0.868   2.041  12.524  0.3669 -0.1032 -0.7476
  812MPD2     N11960   0.565   1.828  12.787  0.4801  0.0972 -0.4157
  812MPD2    H511961   0.481   1.772  12.784  1.1787 -0.9387 -0.6884
  812MPD2    N111962   0.486   1.932  12.307 -0.1382 -0.0055  0.4206
  812MPD2    H711963   0.539   1.977  12.233  1.8361  1.5307  2.7885
  813MPD2     C11964   4.534   3.496  12.272 -0.4248 -0.2941 -0.1411
  813MPD2    C111965   4.475   3.617  12.295 -0.1373  0.7271 -0.0273
  813MPD2    C211966   4.366   3.627  12.378  0.0229 -0.1233 -0.1811
  813MPD2    C311967   4.320   3.514  12.443 -0.0422  0.6221 -0.1387
  813MPD2    C411968   4.362   3.389  12.410 -0.4773 -0.3721  0.8175
  813MPD2    C511969   4.476   3.382  12.326  0.1509  0.2408  0.4633
  813MPD2     H11970   4.334   3.725  12.411  0.8891 -0.1605  0.7648
  813MPD2    H111971   4.315   3.299  12.450 -0.3738 -0.1333  1.4630
  813MPD2    H211972   4.617   3.504  12.202 -0.9236 -0.6052 -0.7719
  813MPD2    H311973   4.514   3.286  12.295 -1.6118 -0.6090  0.9347
  813MPD2     N11974   4.225   3.545  12.543  0.3338  0.6291 -0.1682
  813MPD2    H511975   4.200   3.643  12.549 -0.7874  0.3439 -0.1977
  813MPD2    N111976   4.540   3.733  12.254 -1.0140  0.7345  0.4031
  813MPD2    H711977   4.634   3.716  12.219 -1.6494  1.3114 -1.6055
  814MPD2     C11978   0.503   0.310  12.061 -0.6643  0.3091  0.3713
  814MPD2    C111979   0.466   0.416  11.981  0.2060  0.1294 -0.6477
  814MPD2    C211980   0.456   0.543  12.032 -0.2579 -0.6928  0.3340
  814MPD2    C311981   0.455   0.563  12.173 -0.3160  0.6147  0.0180
  814MPD2    C411982   0.481   0.449  12.254 -0.6945  0.1263 -0.6782
  814MPD2    C511983   0.508   0.328  12.196  0.3212  0.2226  0.2352
  814MPD2     H11984   0.442   0.629  11.968  1.1501 -0.3111  0.5286
  814MPD2    H111985   0.462   0.455  12.360  2.3776  0.2903 -0.1316
  814MPD2    H211986   0.536   0.213  12.027  1.0195  0.7593  0.6883
  814MPD2    H311987   0.532   0.246  12.263  3.1132 -0.4667 -1.6196
  814MPD2     N11988   0.419   0.688  12.227 -0.4138 -0.1960 -0.2138
  814MPD2    H511989   0.427   0.701  12.328 -1.9108 -0.0722 -0.1100
  814MPD2    N111990   0.444   0.412  11.843  0.0371 -0.1744  0.3172
  814MPD2    H711991   0.424   0.502  11.800 -1.4942 -1.1623 -1.0651
  815MPD2     C11992   1.155   2.963  11.565  0.2976  0.1107 -0.0407
  815MPD2    C111993   1.028   2.953  11.519  0.2475  0.2433 -0.5490
  815MPD2    C211994   0.920   2.984  11.601 -0.4067 -0.0141 -0.1797
  815MPD2    C311995   0.933   3.044  11.722  0.7007  0.2162 -0.2771
  815MPD2    C411996   1.064   3.078  11.762 -0.1536  0.0382  0.1008
  815MPD2    C511997   1.168   3.020  11.693  0.5157  0.1371 -0.0821
  815MPD2     H11998   0.823   2.965  11.556  0.1197 -0.2019 -1.2601
  815MPD2    H111999   1.090   3.129  11.855  0.7648 -1.7412  0.8266
  815MPD2    H212000   1.249   2.949  11.512  1.0142 -3.0083  2.0604
  815MPD2    H312001   1.263   3.032  11.744  0.1033  0.4364  0.6072
  815MPD2     N12002   0.816   3.084  11.795 -0.0740  0.1146 -0.0222
  815MPD2    H512003   0.732   3.046  11.753  1.1358  0.1451 -2.5422
  815MPD2    N112004   0.991   2.905  11.389  0.4199  0.0969 -0.6979
  815MPD2    H712005   0.892   2.899  11.368  0.0113  0.4707  1.1354
  816MPD2     C12006   4.375   2.826  17.018  0.5838 -0.1243  0.5376
  816MPD2    C112007   4.452   2.938  17.032 -0.0785  0.2024 -0.1461
  816MPD2    C212008   4.591   2.915  17.042 -0.6823  0.5974  0.7099
  816MPD2    C312009   4.648   2.791  17.030  0.6425 -0.3301 -0.4525
  816MPD2    C412010   4.563   2.685  17.008 -0.1854 -0.0499 -0.0717
  816MPD2    C512011   4.432   2.705  17.013  0.5858  1.2108  0.1396
  816MPD2     H12012   4.661   2.996  17.060  0.6896 -0.8140  1.7527
  816MPD2    H112013   4.600   2.583  17.001 -0.2925 -0.0402 -0.7017
  816MPD2    H212014   4.267   2.835  17.024  0.3772 -0.3641 -2.8458
  816MPD2    H312015   4.371   2.617  16.995  2.4365 -0.4819  2.0915
  816MPD2     N12016   0.065   2.786  17.027 -0.2670  0.1312 -0.0713
  816MPD2    H512017   0.111   2.872  17.058  0.0649  0.9390 -2.7849
  816MPD2    N112018   4.375   3.057  17.038  0.0885 -0.4393 -0.3268
  816MPD2    H712019   4.280   3.053  17.004 -0.5806  2.4539  1.1605
  817MPD2     C12020   0.500   4.667   9.243 -0.0378  0.0660 -0.4736
  817MPD2    C112021   0.387   4.641   9.319 -0.1009 -0.3839  0.1378
  817MPD2    C212022   0.295   0.019   9.326  0.4965 -0.6221 -1.0073
  817MPD2    C312023   0.313   0.143   9.268  0.7581 -0.1193  0.7374
  817MPD2    C412024   0.434   0.171   9.205 -0.3262  0.0277  0.4554
  817MPD2    C512025   0.520   0.065   9.185  0.1336  0.1336  0.2419
  817MPD2     H12026   0.203   0.003   9.381  0.3104 -1.8524 -1.6804
  817MPD2    H112027   0.458   0.266   9.159 -0.9723  0.4809  1.0528
  817MPD2    H212028   0.573   4.594   9.209 -0.8702  0.0502 -2.1965
  817MPD2    H312029   0.610   0.084   9.127 -1.1842  0.5740 -1.6853
  817MPD2     N12030   0.213   0.241   9.296  0.4516 -0.5122  0.6543
  817MPD2    H512031   0.150   0.213   9.370  1.3451  1.0066  1.9854
  817MPD2    N112032   0.363   4.518   9.387 -0.1783 -0.3277  0.4823
  817MPD2    H712033   0.274   4.505   9.433 -0.9477  2.2870 -0.2172
  818MPD2     C12034   3.951   4.195   9.885  0.5113  0.0110 -0.6089
  818MPD2    C112035   3.924   4.086   9.968 -0.3793 -0.0407 -0.1323
  818MPD2    C212036   3.989   3.967   9.944 -0.0376  0.0234 -0.1931
  818MPD2    C312037   4.097   3.953   9.853 -0.8035  0.4746  0.8108
  818MPD2    C412038   4.115   4.067   9.774  0.2990  0.7516 -0.0165
  818MPD2    C512039   4.043   4.187   9.787 -0.3083 -0.7606 -0.0308
  818MPD2     H12040   3.959   3.880  10.001 -1.3386 -0.6995 -2.0021
  818MPD2    H112041   4.189   4.055   9.695  1.5050 -0.1414  1.2436
  818MPD2    H212042   3.891   4.285   9.891  1.3828  0.5740 -0.3489
  818MPD2    H312043   4.056   4.269   9.717 -0.7713 -0.9352 -0.3270
  818MPD2     N12044   4.169   3.838   9.828  0.5219 -0.0013  0.2145
  818MPD2    H512045   4.225   3.841   9.744  1.7513  0.2803  1.0540
  818MPD2    N112046   3.822   4.089  10.061 -0.1711  0.1355 -0.0669
  818MPD2    H712047   3.812   4.004  10.116  2.3303  0.3126  0.6735
  819MPD2     C12048   1.519   1.514  15.358  0.3082  0.6255  0.2233
  819MPD2    C112049   1.460   1.396  15.407  0.2049 -0.2618  0.8227
  819MPD2    C212050   1.518   1.352  15.526  0.0649  0.3146  0.1600
  819MPD2    C312051   1.618   1.418  15.592  0.3521  0.1359 -0.6980
  819MPD2    C412052   1.659   1.535  15.538 -0.1183  0.7478 -0.2886
  819MPD2    C512053   1.610   1.589  15.424  0.5394  0.2780  0.3743
  819MPD2     H12054   1.479   1.260  15.568 -0.3213 -0.1191 -1.1545
  819MPD2    H112055   1.727   1.605  15.585 -1.9970  2.5011 -0.1824
  819MPD2    H212056   1.490   1.553  15.262 -1.1922 -2.0075 -0.3929
  819MPD2    H312057   1.648   1.677  15.375  0.8598 -0.1757 -0.1855
  819MPD2     N12058   1.687   1.353  15.698 -0.7499  0.1103  0.2986
  819MPD2    H512059   1.664   1.258  15.725 -0.2259 -0.1446 -0.1396
  819MPD2    N112060   1.378   1.315  15.329  0.1553  0.4599 -0.1876
  819MPD2    H712061   1.350   1.230  15.377 -2.0243  0.9281 -0.6445
  820MPD2     C12062   0.673   1.230  14.458  0.4494 -0.3133  0.4410
  820MPD2    C112063   0.767   1.325  14.493 -0.5173 -0.5896 -0.5331
  820MPD2    C212064   0.833   1.320  14.617  0.0465  0.1775  0.4345
  820MPD2    C312065   0.797   1.232  14.716  0.6582  0.0196 -0.5903
  820MPD2    C412066   0.695   1.147  14.681 -0.6545 -0.1618  0.1234
  820MPD2    C512067   0.637   1.133  14.555  0.2516 -0.0676 -0.8909
  820MPD2     H12068   0.906   1.396  14.642  0.0370  0.5637 -0.7200
  820MPD2    H112069   0.657   1.069  14.747  0.3233 -0.5035  0.2704
  820MPD2    H212070   0.638   1.220  14.356 -1.3086 -2.5582  1.2547
  820MPD2    H312071   0.556   1.069  14.524  1.1152 -0.8017 -1.6335
  820MPD2     N12072   0.865   1.224  14.843 -0.1451 -0.4511 -0.6559
  820MPD2    H512073   0.836   1.153  14.909  1.1934 -1.4969 -1.2075
  820MPD2    N112074   0.787   1.438  14.408 -0.0523  0.5395  0.2098
  820MPD2    H712075   0.728   1.433  14.325 -0.5690 -0.4262  0.6434
  821MPD2     C12076   2.054   2.215  13.465 -0.1016  0.1541 -0.5550
  821MPD2    C112077   2.191   2.235  13.494  0.2537 -0.1915  0.2745
  821MPD2    C212078   2.284   2.238  13.390 -0.5320 -0.0109  0.6493
  821MPD2    C312079   2.236   2.240  13.256  0.0273 -0.0672  0.0497
  821MPD2    C412080   2.099   2.236  13.235  0.6258  0.1680 -0.0141
  821MPD2    C512081   2.011   2.205  13.337 -0.3554 -0.2136 -0.9969
  821MPD2     H12082   2.391   2.239  13.405 -0.3336 -1.5048 -0.7115
  821MPD2    H112083   2.056   2.246  13.135  0.0317  1.8554  0.4164
  821MPD2    H212084   1.969   2.201  13.531 -0.4847 -2.0921 -1.5419
  821MPD2    H312085   1.905   2.196  13.315 -0.8263  1.3808  0.5932
  821MPD2     N12086   2.315   2.269  13.143  0.6420 -0.6254 -0.3852
  821MPD2    H512087   2.273   2.289  13.053  1.4210  0.4879 -0.5007
  821MPD2    N112088   2.235   2.262  13.623 -0.2427 -0.2896  0.1123
  821MPD2    H712089   2.333   2.284  13.635  0.3294 -2.2511 -0.9639
  822MPD2     C12090   2.240   2.587  15.634  0.2953  1.3616  0.2924
  822MPD2    C112091   2.278   2.569  15.766 -0.1617 -0.3525 -0.4214
  822MPD2    C212092   2.227   2.652  15.859  0.8402 -0.0336  0.1956
  822MPD2    C312093   2.144   2.754  15.824 -0.2964  0.4897  0.4604
  822MPD2    C412094   2.110   2.779  15.698 -0.0828  0.3333 -0.7171
  822MPD2    C512095   2.165   2.701  15.601  0.3616 -0.2577  0.0637
  822MPD2     H12096   2.245   2.638  15.965  1.4487 -1.3928 -0.0842
  822MPD2    H112097   2.039   2.856  15.669 -0.1075  0.0849 -1.3304
  822MPD2    H212098   2.276   2.519  15.557  0.1138  0.1352  1.3021
  822MPD2    H312099   2.137   2.721  15.498  1.8005 -1.1867 -0.5090
  822MPD2     N12100   2.101   2.842  15.933 -0.3100 -0.2581  0.4705
  822MPD2    H512101   2.109   2.814  16.030 -1.8125  1.6986  1.1707
  822MPD2    N112102   2.359   2.465  15.816  0.0145 -0.4150  0.6083
  822MPD2    H712103   2.357   2.470  15.917  1.2107 -0.0738  0.6086
  823MPD2     C12104   1.655   3.200  16.593 -0.0054  0.0923 -0.3984
  823MPD2    C112105   1.740   3.108  16.530  0.1607  0.0112  0.1531
  823MPD2    C212106   1.818   3.030  16.607 -0.6438  0.0551 -0.3882
  823MPD2    C312107   1.813   3.022  16.742 -0.0132 -0.1896 -0.2047
  823MPD2    C412108   1.731   3.109  16.809  0.6843  0.7482  0.5943
  823MPD2    C512109   1.666   3.201  16.732 -0.0609  0.2411  0.1467
  823MPD2     H12110   1.894   2.970  16.558 -0.7432 -0.9672  0.7206
  823MPD2    H112111   1.722   3.107  16.917  2.3191 -0.8413  0.7009
  823MPD2    H212112   1.596   3.276  16.543  0.4325  0.0104 -1.0311
  823MPD2    H312113   1.614   3.268  16.800 -1.4847 -0.3654 -0.3559
  823MPD2     N12114   1.886   2.935  16.824 -0.2952  0.2634 -0.8815
  823MPD2    H512115   1.890   2.956  16.923  1.6563 -2.3414 -0.4049
  823MPD2    N112116   1.748   3.112  16.390  0.4313  0.1945 -0.4472
  823MPD2    H712117   1.716   3.201  16.354  1.2814 -0.5439 -3.0414
  824MPD2     C12118   2.623   1.684  15.657 -0.2598  0.2921  0.2423
  824MPD2    C112119   2.671   1.807  15.612  0.1790 -1.0286 -0.6126
  824MPD2    C212120   2.724   1.808  15.486  0.3730  0.2519 -0.1155
  824MPD2    C312121   2.755   1.693  15.418 -0.3172  0.4153  0.1002
  824MPD2    C412122   2.727   1.572  15.481  0.6569 -0.6703  0.6873
  824MPD2    C512123   2.649   1.570  15.590  0.3126  0.0101 -0.4769
  824MPD2     H12124   2.761   1.905  15.456 -3.3751  0.9589 -2.5112
  824MPD2    H112125   2.767   1.478  15.443  0.3013 -0.0019 -1.3110
  824MPD2    H212126   2.566   1.690  15.749 -1.1167  0.4574 -0.3050
  824MPD2    H312127   2.608   1.478  15.631 -0.9456  2.3945  3.6962
  824MPD2     N12128   2.857   1.703  15.320 -0.0647 -0.2185  0.3888
  824MPD2    H512129   2.888   1.797  15.298 -0.2696 -0.2305  0.0553
  824MPD2    N112130   2.659   1.929  15.681 -0.4145 -0.7366 -0.4754
  824MPD2    H712131   2.691   2.014  15.636  2.9357 -2.0331 -0.5614
  825MPD2     C12132   3.585   2.050  15.398  0.5356  0.7303  0.1541
  825MPD2    C112133   3.477   2.046  15.311  0.1500 -0.0606  0.1787
  825MPD2    C212134   3.441   2.161  15.244 -0.2673 -0.1120  0.3336
  825MPD2    C312135   3.498   2.277  15.278  0.2935 -0.4361 -0.1999
  825MPD2    C412136   3.597   2.287  15.379  0.4152 -0.2678  0.9656
  825MPD2    C512137   3.640   2.168  15.431 -0.4237 -0.2760 -0.0442
  825MPD2     H12138   3.372   2.148  15.161 -0.0717  0.4054  0.0932
  825MPD2    H112139   3.632   2.386  15.406 -0.0368  1.0004 -3.0548
  825MPD2    H212140   3.620   1.959  15.445 -0.6853 -0.3091 -0.9523
  825MPD2    H312141   3.720   2.180  15.503  0.5566 -1.0983 -0.9879
  825MPD2     N12142   3.476   2.391  15.200  0.2034  0.6884  0.0035
  825MPD2    H512143   3.522   2.476  15.230  1.2957  0.3887 -0.8387
  825MPD2    N112144   3.408   1.921  15.288  0.1387 -0.0198 -0.6174
  825MPD2    H712145   3.441   1.842  15.342 -0.7672 -0.6237 -0.9375
  826MPD2     C12146   3.525   1.937  13.736  0.3754 -0.4858 -1.2044
  826MPD2    C112147   3.424   1.892  13.664 -0.8405 -0.3204 -0.0337
  826MPD2    C212148   3.295   1.933  13.690 -0.4525 -0.2700  0.2161
  826MPD2    C312149   3.270   2.013  13.801  0.3350 -0.3658  0.3125
  826MPD2    C412150   3.376   2.050  13.883 -0.9178 -0.1656  0.3058
  826MPD2    C512151   3.507   2.013  13.851 -0.1870 -0.0467  0.5124
  826MPD2     H12152   3.219   1.900  13.621 -0.8269  0.8464  0.0878
  826MPD2    H112153   3.361   2.118  13.966 -0.0996  0.0162  0.2980
  826MPD2    H212154   3.628   1.913  13.712  0.6493  1.2287 -1.7170
  826MPD2    H312155   3.588   2.058  13.907 -1.8800  4.5495 -0.6989
  826MPD2     N12156   3.141   2.062  13.840 -0.0776  0.1370 -0.0350
  826MPD2    H512157   3.138   2.124  13.920 -0.6250  0.5765 -0.3966
  826MPD2    N112158   3.451   1.797  13.559  0.5338 -0.1128  0.5779
  826MPD2    H712159   3.550   1.782  13.542  0.5521  0.4024  0.2436
  827MPD2     C12160   0.243   3.154   9.666  0.1761 -0.3343  1.0805
  827MPD2    C112161   0.222   3.020   9.692  0.2587 -0.1082 -0.5535
  827MPD2    C212162   0.228   2.938   9.579 -1.0020  0.7596 -0.7890
  827MPD2    C312163   0.270   2.992   9.457  0.6217 -0.5731  0.5975
  827MPD2    C412164   0.300   3.122   9.441 -0.4400 -0.2301 -0.0452
  827MPD2    C512165   0.292   3.205   9.548 -0.5342  0.3489  0.6315
  827MPD2     H12166   0.200   2.833   9.582  0.8062  0.3291  1.0153
  827MPD2    H112167   0.341   3.157   9.347  0.0427 -0.9874 -0.1159
  827MPD2    H212168   0.251   3.225   9.747 -0.5097  2.8606 -1.6295
  827MPD2    H312169   0.307   3.312   9.541  1.5300  0.2684  3.7385
  827MPD2     N12170   0.265   2.905   9.351 -0.4979  0.0975  0.2988
  827MPD2    H512171   0.231   2.814   9.382  0.5938 -0.5907 -0.5535
  827MPD2    N112172   0.200   2.983   9.824 -0.4506  0.5754  0.1241
  827MPD2    H712173   0.192   3.051   9.898  1.7379  0.4492  0.5008
  828MPD2     C12174   2.908   2.968  12.263  0.3385 -0.7883 -0.1243
  828MPD2    C112175   2.860   2.959  12.136  0.3586 -0.2014 -0.2546
  828MPD2    C212176   2.942   2.905  12.037 -0.2644 -0.1944 -0.2807
  828MPD2    C312177   3.065   2.857  12.067  0.2489 -0.1010 -1.7369
  828MPD2    C412178   3.117   2.878  12.184  0.6145  0.0312  0.8290
  828MPD2    C512179   3.042   2.933  12.283  0.3143  0.1420 -0.2231
  828MPD2     H12180   2.900   2.893  11.938  1.5721  1.9607 -1.3235
  828MPD2    H112181   3.216   2.839  12.204  1.6675  0.2289 -4.0986
  828MPD2    H212182   2.863   3.009  12.352  0.4087 -1.2720  0.1334
  828MPD2    H312183   3.081   2.954  12.382 -0.4290 -0.1679  0.1319
  828MPD2     N12184   3.142   2.783  11.971  0.5098  0.4494 -0.0320
  828MPD2    H512185   3.234   2.753  12.002 -0.2846  0.7357  2.5947
  828MPD2    N112186   2.737   3.012  12.103 -0.5800 -0.1228 -0.2877
  828MPD2    H712187   2.721   3.006  12.003  0.6954 -1.0149 -0.4427
  829MPD2     C12188   2.575   3.517  11.440  0.4541  0.3623 -0.8475
  829MPD2    C112189   2.466   3.544  11.517 -0.0616  0.7325 -0.0155
  829MPD2    C212190   2.446   3.463  11.630 -0.3489 -0.5646  0.5982
  829MPD2    C312191   2.524   3.353  11.653 -0.6451 -0.6533  0.8418
  829MPD2    C412192   2.637   3.327  11.571  0.2005  0.1071  0.8201
  829MPD2    C512193   2.661   3.415  11.469 -0.1574 -0.3229 -0.1485
  829MPD2     H12194   2.377   3.492  11.709 -0.4779 -0.6928  0.5336
  829MPD2    H112195   2.714   3.252  11.585  0.6920  0.6277  0.9143
  829MPD2    H212196   2.597   3.580  11.354  0.4092 -1.1499 -1.9744
  829MPD2    H312197   2.746   3.409  11.402  0.2725 -2.4106  0.5731
  829MPD2     N12198   2.510   3.269  11.761 -0.4156  0.3517 -0.2256
  829MPD2    H512199   2.588   3.206  11.778  0.0806  0.6791 -1.2689
  829MPD2    N112200   2.383   3.655  11.484  0.0298 -0.3757  0.0968
  829MPD2    H712201   2.400   3.712  11.402 -1.3893  0.7269  0.5716
  830MPD2     C12202   2.380   0.983  16.002  0.2291 -0.4110  0.1394
  830MPD2    C112203   2.276   0.970  15.916  0.2707  0.2054 -0.0636
  830MPD2    C212204   2.297   0.893  15.805  0.1680  0.7198  0.7846
  830MPD2    C312205   2.422   0.822  15.777 -0.1676 -0.1018  0.2331
  830MPD2    C412206   2.520   0.841  15.867 -0.1697  0.2935  0.9132
  830MPD2    C512207   2.498   0.920  15.983 -0.0665  0.1986  0.0474
  830MPD2     H12208   2.218   0.898  15.731  1.2279 -0.4592 -0.4196
  830MPD2    H112209   2.621   0.806  15.850  0.5886  2.5290  0.9210
  830MPD2    H212210   2.376   1.046  16.090 -0.6349  0.4515 -0.5203
  830MPD2    H312211   2.580   0.939  16.052  0.1234 -1.9431  0.4057
  830MPD2     N12212   2.460   0.752  15.661  0.3272 -0.1075  0.0067
  830MPD2    H512213   2.557   0.721  15.659  0.2541 -0.4649  2.1806
  830MPD2    N112214   2.152   1.033  15.959 -0.6040 -0.1683  0.1253
  830MPD2    H712215   2.143   1.075  16.050  3.2132 -2.5566  1.6158
  831MPD2     C12216   2.379   2.996  16.243  0.1699 -0.6150 -0.5656
  831MPD2    C112217   2.369   2.878  16.177 -0.0667 -0.9844 -0.0421
  831MPD2    C212218   2.282   2.777  16.211  0.0705 -0.3736  0.2738
  831MPD2    C312219   2.201   2.799  16.322  0.1373 -0.2253 -0.0736
  831MPD2    C412220   2.206   2.918  16.397  0.5603 -0.7907 -0.0859
  831MPD2    C512221   2.301   3.014  16.358  0.3400 -0.4880  0.1449
  831MPD2     H12222   2.268   2.687  16.151 -1.2997  0.0002  0.0324
  831MPD2    H112223   2.132   2.932  16.474  0.5363 -0.5819 -0.1477
  831MPD2    H212224   2.448   3.072  16.209  0.7494 -0.7990  0.2213
  831MPD2    H312225   2.319   3.105  16.415  2.5918 -0.6787 -0.2661
  831MPD2     N12226   2.095   2.709  16.355  0.5536  0.8595 -0.6100
  831MPD2    H512227   2.052   2.723  16.446  2.9435  1.3229  0.4509
  831MPD2    N112228   2.458   2.862  16.070 -1.0626  0.0499  0.6363
  831MPD2    H712229   2.520   2.936  16.041  1.3998 -2.3964 -0.3337
  832MPD2     C12230   0.466   3.933  17.101  1.3983  0.0672 -0.2180
  832MPD2    C112231   0.535   4.006  17.002  0.0915  0.3223 -0.1614
  832MPD2    C212232   0.500   4.000  16.871 -0.9542  0.2344 -0.2594
  832MPD2    C312233   0.402   3.914  16.831  0.0866  0.6209 -0.0756
  832MPD2    C412234   0.333   3.836  16.920 -0.0486 -0.8632 -0.1236
  832MPD2    C512235   0.367   3.861  17.051  0.3457  0.2949  0.1396
  832MPD2     H12236   0.561   4.055  16.800 -2.4200  1.8862 -0.2185
  832MPD2    H112237   0.243   3.780  16.899  0.5434 -1.8697  0.0436
  832MPD2    H212238   0.499   3.926  17.204  1.8086  3.4640 -0.1041
  832MPD2    H312239   0.322   3.791  17.120 -2.4658  1.5456 -0.4076
  832MPD2     N12240   0.348   3.911  16.697  1.0053  0.7025 -0.7993
  832MPD2    H512241   0.283   3.833  16.686 -0.5122  1.8554 -0.0204
  832MPD2    N112242   0.641   4.085  17.044  0.4312  0.4708  0.2221
  832MPD2    H712243   0.639   4.108  17.143  0.0996 -0.0467  0.3362
  833MPD2     C12244   2.595   0.492  12.269 -0.0423 -0.5292 -0.5593
  833MPD2    C112245   2.645   0.560  12.161  0.3016  0.4150  0.1491
  833MPD2    C212246   2.783   0.572  12.148 -0.0636 -0.8303  0.5573
  833MPD2    C312247   2.868   0.512  12.244 -0.0088  0.4148 -0.1813
  833MPD2    C412248   2.811   0.439  12.344 -0.2682  0.8750 -0.2913
  833MPD2    C512249   2.676   0.427  12.356 -0.6709  0.5581 -0.4246
  833MPD2     H12250   2.829   0.631  12.071  2.9145 -1.1384  2.0898
  833MPD2    H112251   2.879   0.385  12.410 -0.2528 -1.6856 -2.4053
  833MPD2    H212252   2.490   0.475  12.289  0.0459  2.3582  2.3583
  833MPD2    H312253   2.631   0.368  12.435 -1.4928 -1.1391 -2.1797
  833MPD2     N12254   3.007   0.531  12.246  0.5812  0.1677  0.0910
  833MPD2    H512255   3.061   0.492  12.322 -0.6625 -2.7751 -0.5264
  833MPD2    N112256   2.551   0.620  12.072  0.0447 -0.6676 -0.4676
  833MPD2    H712257   2.453   0.607  12.094 -0.5797  0.1378 -2.6539
  834MPD2     C12258   3.641   4.600  11.897 -0.5522  0.1462 -0.6204
  834MPD2    C112259   3.586   4.662  11.791 -0.0917  0.9392 -0.0685
  834MPD2    C212260   3.543   0.071  11.808  0.0158  0.4315  0.3275
  834MPD2    C312261   3.522   0.126  11.931 -0.1065 -0.0268  0.0021
  834MPD2    C412262   3.582   0.055  12.037  0.9437  0.3292  0.0338
  834MPD2    C512263   3.639   4.663  12.019  0.1190  0.2369 -0.0349
  834MPD2     H12264   3.507   0.118  11.717 -1.4283 -0.7700  0.2771
  834MPD2    H112265   3.577   0.091  12.139 -1.3551 -0.6055  0.2602
  834MPD2    H212266   3.681   4.501  11.883 -1.3108 -0.0615 -1.3351
  834MPD2    H312267   3.684   4.615  12.105 -0.7470 -0.2998  0.1108
  834MPD2     N12268   3.460   0.253  11.946 -0.4952  0.2117  0.4559
  834MPD2    H512269   3.460   0.310  11.863 -1.6086 -2.3397 -1.3010
  834MPD2    N112270   3.566   4.583  11.677 -0.5352  0.1433  0.1693
  834MPD2    H712271   3.592   4.485  11.678  1.8415  0.7667 -0.4485
  835MPD2     C12272   3.512   2.848  11.256 -1.2776 -0.5894  0.2323
  835MPD2    C112273   3.389   2.883  11.307 -0.4706 -0.5095 -0.6969
  835MPD2    C212274   3.383   2.926  11.437 -0.1682  0.1208  0.4841
  835MPD2    C312275   3.494   2.919  11.519 -0.7865 -0.1522  0.0429
  835MPD2    C412276   3.611   2.860  11.473  0.1017 -0.2402  0.1943
  835MPD2    C512277   3.620   2.830  11.339  0.2539  0.0137 -0.1326
  835MPD2     H12278   3.288   2.959  11.478 -0.7016  0.8830 -1.3679
  835MPD2    H112279   3.694   2.842  11.539 -0.3435 -1.1544  0.5010
  835MPD2    H212280   3.534   2.820  11.153  2.1499 -0.3274  0.8964
  835MPD2    H312281   3.704   2.780  11.292 -0.8904 -0.6553 -1.4711
  835MPD2     N12282   3.495   2.957  11.653 -0.4239 -0.3481 -0.2621
  835MPD2    H512283   3.583   2.937  11.698 -1.2110  1.3744  2.0734
  835MPD2    N112284   3.267   2.864  11.241 -0.7077  0.2571 -0.4901
  835MPD2    H712285   3.182   2.901  11.283 -0.3662  0.2258  0.2207
  836MPD2     C12286   3.366   3.117  12.552  0.1069 -0.1821 -0.7045
  836MPD2    C112287   3.307   3.157  12.430  0.9745  0.4724  0.5402
  836MPD2    C212288   3.183   3.216  12.435 -0.3719 -0.1495  0.1015
  836MPD2    C312289   3.114   3.223  12.560  0.0600 -0.8176 -1.3876
  836MPD2    C412290   3.179   3.184  12.671 -0.3420  0.4502  0.1939
  836MPD2    C512291   3.301   3.129  12.670  0.3395 -0.1895  0.4393
  836MPD2     H12292   3.130   3.251  12.347 -1.6772 -3.6696 -0.5038
  836MPD2    H112293   3.130   3.187  12.768  0.8576  1.3063  0.7857
  836MPD2    H212294   3.463   3.070  12.553 -0.7155 -1.8872 -0.4412
  836MPD2    H312295   3.341   3.098  12.766 -0.9546 -1.5372  0.5405
  836MPD2     N12296   2.976   3.255  12.585  0.5865 -0.6314 -0.0938
  836MPD2    H512297   2.934   3.231  12.675  1.7067  0.4875  0.7273
  836MPD2    N112298   3.367   3.127  12.311 -0.1347  0.2592 -0.3144
  836MPD2    H712299   3.452   3.073  12.324 -0.8009 -1.6255 -4.0453
  837MPD2     C12300   1.584   2.653   9.398  0.3875 -0.8294  0.1178
  837MPD2    C112301   1.481   2.643   9.488 -0.4149  0.7026 -0.3122
  837MPD2    C212302   1.443   2.745   9.574  0.2847  0.5357 -0.3723
  837MPD2    C312303   1.504   2.868   9.560  0.4172  0.5040  0.9784
  837MPD2    C412304   1.604   2.887   9.467 -0.5871  0.6205 -0.3779
  837MPD2    C512305   1.647   2.784   9.390 -0.3439 -0.3150 -0.0880
  837MPD2     H12306   1.373   2.733   9.656 -1.0117  1.3751 -1.3692
  837MPD2    H112307   1.651   2.982   9.448  0.0067  0.8417  2.2388
  837MPD2    H212308   1.608   2.565   9.339 -1.7826 -1.5350  0.3166
  837MPD2    H312309   1.732   2.802   9.325  1.3632 -2.9757  1.4082
  837MPD2     N12310   1.448   2.963   9.648 -0.6938 -0.1191  0.3575
  837MPD2    H512311   1.369   2.931   9.702 -1.7763  3.4937  0.9219
  837MPD2    N112312   1.403   2.529   9.496 -0.0193 -0.5348  0.0617
  837MPD2    H712313   1.354   2.507   9.582 -1.3029  0.6039 -0.3725
  838MPD2     C12314   0.261   1.341  11.157 -0.3028 -0.0127 -0.3346
  838MPD2    C112315   0.228   1.217  11.222  0.2465  0.1904 -0.7584
  838MPD2    C212316   0.172   1.222  11.346 -0.6454  0.2613  0.1201
  838MPD2    C312317   0.150   1.342  11.412 -0.2367 -1.1487  0.0462
  838MPD2    C412318   0.180   1.463  11.352  0.4342  0.1531  0.0726
  838MPD2    C512319   0.243   1.459  11.227  0.4803  0.3369  0.0240
  838MPD2     H12320   0.159   1.124  11.392  1.9498  1.0815  2.5531
  838MPD2    H112321   0.164   1.554  11.410 -0.8698  1.6163 -2.5445
  838MPD2    H212322   0.311   1.358  11.062  1.3890 -1.4047  0.2920
  838MPD2    H312323   0.277   1.553  11.186 -1.5795  1.3257  0.5992
  838MPD2     N12324   0.083   1.354  11.532 -0.2941  0.2997  0.5492
  838MPD2    H512325   0.055   1.445  11.569  2.7132  1.1527  0.7735
  838MPD2    N112326   0.259   1.088  11.168  0.1565  0.0693  0.5345
  838MPD2    H712327   0.214   1.010  11.214  0.9777 -0.2999  0.7100
  839MPD2     C12328   4.389   0.520  11.151  0.4382  0.2032  0.0827
  839MPD2    C112329   4.474   0.451  11.075  0.5531 -0.1891  0.2185
  839MPD2    C212330   4.602   0.497  11.044  0.2516 -0.1290  0.4202
  839MPD2    C312331   4.631   0.626  11.081 -0.4205 -0.6761 -0.2513
  839MPD2    C412332   4.549   0.690  11.166 -0.5107 -0.1800  0.0930
  839MPD2    C512333   4.427   0.646  11.197 -0.6849  0.4986  0.7231
  839MPD2     H12334   4.660   0.444  10.969  1.6687  2.3166 -0.2149
  839MPD2    H112335   4.586   0.783  11.207 -4.0819  0.4278  1.9255
  839MPD2    H212336   4.292   0.481  11.179  0.0216  1.8851  0.9958
  839MPD2    H312337   4.371   0.708  11.266 -0.8003  0.4973  0.6309
  839MPD2     N12338   0.029   0.690  11.047 -0.2510 -0.4757 -0.3211
  839MPD2    H512339   0.040   0.786  11.078  2.6282 -1.6882  2.4437
  839MPD2    N112340   4.441   0.326  11.014 -1.0323 -0.1176  0.6871
  839MPD2    H712341   4.521   0.283  10.969 -0.8635  1.9478 -0.9678
  840MPD2     C12342   0.416   3.311  10.262  0.3339 -0.3351 -0.4334
  840MPD2    C112343   0.395   3.198  10.337 -0.2021  0.1947  0.3921
  840MPD2    C212344   0.434   3.193  10.468 -0.3551 -0.1771 -0.1648
  840MPD2    C312345   0.485   3.303  10.527 -0.5604  0.3183  0.3264
  840MPD2    C412346   0.498   3.422  10.458 -0.1745  0.0754 -0.6278
  840MPD2    C512347   0.467   3.428  10.323 -0.2174  0.4935  0.5237
  840MPD2     H12348   0.428   3.102  10.527 -2.0985  0.7759  1.1575
  840MPD2    H112349   0.518   3.517  10.507 -1.8464 -0.5269  1.2113
  840MPD2    H212350   0.392   3.320  10.157  3.6013 -0.6740 -1.2192
  840MPD2    H312351   0.485   3.519  10.267 -3.1674  0.8291  0.0956
  840MPD2     N12352   0.500   3.315  10.666  0.0156 -0.3270  0.3075
  840MPD2    H512353   0.526   3.405  10.704 -1.1619  0.9554 -1.9028
  840MPD2    N112354   0.334   3.088  10.270  0.0606 -0.0009 -0.3753
  840MPD2    H712355   0.314   3.113  10.174 -0.6239  0.8833  0.0026
  841MPD2     C12356   3.962   2.782  14.501 -0.4855 -0.2797 -0.6527
  841MPD2    C112357   4.046   2.748  14.398  0.0647 -0.1074 -0.7290
  841MPD2    C212358   4.115   2.846  14.334 -0.7120  0.0458 -1.0694
  841MPD2    C312359   4.105   2.977  14.385 -0.3681  0.1398 -0.1549
  841MPD2    C412360   4.013   3.008  14.482  0.5767  0.3373  0.5700
  841MPD2    C512361   3.941   2.906  14.541 -0.1031  0.2900 -0.2450
  841MPD2     H12362   4.178   2.816  14.252  2.6838  0.9837  1.1997
  841MPD2    H112363   3.994   3.106  14.524 -0.5830  1.1515 -1.8576
  841MPD2    H212364   3.890   2.714  14.546  0.5712 -0.7329  0.3362
  841MPD2    H312365   3.883   2.930  14.629 -1.3130 -1.8157 -0.4724
  841MPD2     N12366   4.183   3.074  14.323  0.3893 -0.3239  0.0776
  841MPD2    H512367   4.249   3.036  14.256 -1.4814 -2.2445 -0.6960
  841MPD2    N112368   4.075   2.615  14.356  0.9144  0.7008 -0.1482
  841MPD2    H712369   4.130   2.613  14.271  0.7901 -2.4072 -0.1564
  842MPD2     C12370   4.672   4.381  16.228 -0.7598 -0.1431  0.3968
  842MPD2    C112371   4.562   4.297  16.216  0.2539  0.4942  0.2058
  842MPD2    C212372   4.529   4.220  16.320 -0.5785 -0.4794 -0.0359
  842MPD2    C312373   4.597   4.222  16.440 -0.1703 -0.6524  0.2864
  842MPD2    C412374   4.696   4.318  16.455  0.3110 -0.0753  0.0386
  842MPD2    C512375   0.014   4.387  16.344 -0.0754  0.0023  0.0267
  842MPD2     H12376   4.434   4.168  16.312  0.0296 -1.3079 -1.7130
  842MPD2    H112377   0.026   4.325  16.549  0.6923 -0.8623 -0.1197
  842MPD2    H212378   4.696   4.443  16.143  1.1087 -0.1398  0.9281
  842MPD2    H312379   0.093   4.461  16.350 -0.7435  0.6149  1.2666
  842MPD2     N12380   4.554   4.159  16.558 -0.2652 -0.3522  0.5720
  842MPD2    H512381   4.593   4.196  16.644  1.0934  1.0484 -0.6557
  842MPD2    N112382   4.503   4.302  16.088  0.4502  0.1259 -0.4034
  842MPD2    H712383   4.554   4.355  16.018  1.3839 -1.8816 -1.2708
  843MPD2     C12384   1.520   0.698  17.539  0.0596  0.6930 -0.0722
  843MPD2    C112385   1.549   0.593  17.622  0.1935  0.4029  1.1479
  843MPD2    C212386   1.676   0.597  17.682  0.7549  0.2839 -0.0628
  843MPD2    C312387   1.776   0.684  17.654 -0.8333  0.0287 -0.5331
  843MPD2    C412388   1.745   0.789  17.568  0.0896  0.4278 -0.2554
  843MPD2    C512389   1.617   0.793  17.516  0.2992  0.3632 -0.2230
  843MPD2     H12390   1.691   0.508   0.046 -1.6501  0.3693  0.6543
  843MPD2    H112391   1.810   0.869  17.535  0.7297 -0.5883 -1.4454
  843MPD2    H212392   1.422   0.709  17.495 -0.1769  1.9481  0.7671
  843MPD2    H312393   1.593   0.887  17.467  0.9466  0.6847  0.0834
  843MPD2     N12394   1.902   0.677   0.018 -0.7740 -0.2064 -0.0093
  843MPD2    H512395   1.967   0.754   0.004 -0.4906 -0.8617 -2.2426
  843MPD2    N112396   1.453   0.491  17.636  0.9188 -0.5488  0.1428
  843MPD2    H712397   1.358   0.511  17.607  1.1822  1.6020  0.7887
  844MPD2     C12398   0.142   3.330  16.328  0.4265  0.1647 -0.3882
  844MPD2    C112399   0.268   3.305  16.286  0.6112 -0.4178  0.6661
  844MPD2    C212400   0.375   3.357  16.358 -0.9426 -0.2866 -0.0426
  844MPD2    C312401   0.356   3.425  16.477  0.0190 -0.1041 -0.9152
  844MPD2    C412402   0.229   3.446  16.519 -0.3967 -1.2176  0.9516
  844MPD2    C512403   0.124   3.399  16.443 -0.2800  0.8021  0.2469
  844MPD2     H12404   0.477   3.353  16.320 -0.2118 -2.7118  2.2362
  844MPD2    H112405   0.202   3.499  16.610  0.2736  1.1825 -0.2368
  844MPD2    H212406   0.050   3.286  16.291  0.6983 -1.3895  0.7844
  844MPD2    H312407   0.025   3.423  16.478 -0.4044 -1.4846  1.4760
  844MPD2     N12408   0.468   3.484  16.537  0.5143 -0.5299 -0.1795
  844MPD2    H512409   0.561   3.469  16.498  0.4772 -1.1443 -0.0369
  844MPD2    N112410   0.294   3.225  16.174 -0.6251 -0.3587 -0.0605
  844MPD2    H712411   0.379   3.173  16.155 -0.9111  0.0276 -2.3691
  845MPD2     C12412   1.025   4.297  16.370  0.5189  0.0023 -0.2383
  845MPD2    C112413   0.978   4.329  16.492 -0.2034  0.7701  0.6033
  845MPD2    C212414   0.940   4.223  16.569 -0.7977  0.1553 -0.1149
  845MPD2    C312415   0.929   4.093  16.510 -0.4074 -0.3969 -0.0500
  845MPD2    C412416   0.988   4.067  16.390 -0.1176  1.0879 -0.1779
  845MPD2    C512417   1.049   4.170  16.321 -0.1672 -0.2704 -0.1550
  845MPD2     H12418   0.904   4.235  16.670  1.9578 -1.1450  1.0333
  845MPD2    H112419   0.992   3.968  16.344  2.0051  1.8391 -1.6335
  845MPD2    H212420   1.056   4.383  16.311 -1.7213 -0.9498 -2.7842
  845MPD2    H312421   1.109   4.155  16.232  2.0444 -0.7491  1.4217
  845MPD2     N12422   0.870   3.986  16.576  0.9750  0.4558  0.0567
  845MPD2    H512423   0.839   4.003  16.671  1.6660  1.4683  0.1053
  845MPD2    N112424   0.970   4.463  16.530  0.1243 -0.3182  0.4266
  845MPD2    H712425   1.001   4.533  16.463 -1.3127  0.6334  0.7584
  846MPD2     C12426   1.989   0.232  13.101  0.0485  0.0851  0.0042
  846MPD2    C112427   2.006   0.366  13.151 -0.6571 -0.4245  0.4742
  846MPD2    C212428   1.999   0.387  13.283 -0.1159  0.1123  0.5537
  846MPD2    C312429   2.000   0.284  13.369  0.6669 -0.3618 -0.2351
  846MPD2    C412430   2.013   0.153  13.322  0.3830 -0.1997  0.5519
  846MPD2    C512431   2.007   0.128  13.187 -0.6722  0.2907  0.2822
  846MPD2     H12432   1.984   0.487  13.321  0.1212 -0.2041  1.4749
  846MPD2    H112433   2.021   0.067  13.386  1.6036  0.0793  0.7774
  846MPD2    H212434   1.992   0.201  12.997 -3.1168 -1.6493  0.4297
  846MPD2    H312435   2.015   0.023  13.160 -0.4900  0.2514  0.4909
  846MPD2     N12436   1.973   0.313  13.501 -0.0183  0.4190 -0.6127
  846MPD2    H512437   1.936   0.406  13.520 -1.4575 -0.2370 -0.1937
  846MPD2    N112438   2.023   0.483  13.071  0.1748 -0.1565 -0.9523
  846MPD2    H712439   2.032   0.569  13.124  1.1912  0.0491 -1.4545
  847MPD2     C12440   2.476   1.049  13.908  0.1158 -0.6816 -0.4291
  847MPD2    C112441   2.531   0.990  14.021  0.1822 -0.0900  0.4980
  847MPD2    C212442   2.466   0.881  14.077  0.2989  0.7270 -0.1561
  847MPD2    C312443   2.347   0.840  14.026  0.0610  0.2378  0.1442
  847MPD2    C412444   2.291   0.893  13.906 -0.7481  0.7402  0.0574
  847MPD2    C512445   2.363   0.992  13.848  0.7112  0.1329  0.1115
  847MPD2     H12446   2.496   0.836  14.171  1.6541 -0.2269 -1.0604
  847MPD2    H112447   2.200   0.859  13.860 -0.9639  1.2502  0.1055
  847MPD2    H212448   2.528   1.125  13.850 -2.3096  0.5259 -1.0676
  847MPD2    H312449   2.323   1.032  13.755 -1.4079 -0.2555  0.8523
  847MPD2     N12450   2.283   0.741  14.103  0.2687  0.3653  0.1092
  847MPD2    H512451   2.331   0.709  14.186 -2.2808  0.0550  1.4646
  847MPD2    N112452   2.643   1.034  14.080 -0.1468  0.2845 -0.5244
  847MPD2    H712453   2.677   0.974  14.154 -0.8459 -0.4147 -0.7803
  848MPD2     C12454   0.276   4.032  15.835 -0.2429 -0.2082 -0.0988
  848MPD2    C112455   0.339   4.092  15.946  0.4699 -0.8810  0.5078
  848MPD2    C212456   0.421   4.203  15.915  0.2946 -0.2762 -0.0651
  848MPD2    C312457   0.444   4.240  15.785 -0.1640  0.0606 -0.0308
  848MPD2    C412458   0.392   4.164  15.687 -0.2061  0.1547  0.5195
  848MPD2    C512459   0.301   4.068  15.710 -0.0478  0.1345 -0.0099
  848MPD2     H12460   0.449   4.268  15.997  1.0141  0.0199 -0.5402
  848MPD2    H112461   0.419   4.188  15.585 -0.1556  2.6518  1.1292
  848MPD2    H212462   0.216   3.942  15.843  0.3343 -0.6611 -0.8711
  848MPD2    H312463   0.268   4.005  15.628 -0.2719 -0.3881  0.4792
  848MPD2     N12464   0.502   4.367  15.738  0.3130  0.4869  0.0966
  848MPD2    H512465   0.493   4.374  15.637 -0.4369 -2.0790 -0.0271
  848MPD2    N112466   0.319   4.049  16.081 -0.1383  0.2037  0.1798
  848MPD2    H712467   0.374   4.098  16.150  0.4023  1.8499 -1.4098
  849MPD2     C12468   3.715   3.948  13.649  0.2734 -0.0765 -0.3511
  849MPD2    C112469   3.828   3.900  13.587  0.0701  0.2467  0.1158
  849MPD2    C212470   3.912   3.834  13.673  0.9013 -0.5187  0.1042
  849MPD2    C312471   3.887   3.795  13.803  0.2107 -0.2666 -0.5135
  849MPD2    C412472   3.766   3.834  13.855  0.4860 -0.2186  0.5532
  849MPD2    C512473   3.688   3.910  13.776 -0.5775  0.1913 -0.3946
  849MPD2     H12474   4.011   3.814  13.635  1.9622 -0.1764  2.6823
  849MPD2    H112475   3.723   3.791  13.945 -2.3463 -2.8875 -2.0469
  849MPD2    H212476   3.638   4.006  13.598 -2.1355 -2.9942 -0.0135
  849MPD2    H312477   3.591   3.948  13.808 -0.6434 -0.4823  0.2053
  849MPD2     N12478   3.984   3.728  13.878  0.0589 -0.3609  0.5268
  849MPD2    H512479   4.070   3.696  13.834 -1.2652  0.5626 -2.7175
  849MPD2    N112480   3.865   3.941  13.454  0.3040  0.2427 -0.1662
  849MPD2    H712481   3.820   4.018  13.406 -0.9223  0.8355  1.9457
  850MPD2     C12482   2.455   1.966  14.712  0.8213  0.0615 -0.1008
  850MPD2    C112483   2.527   1.926  14.817  0.3006  0.1887  0.8860
  850MPD2    C212484   2.656   1.970  14.836 -0.2274 -0.1778  0.1230
  850MPD2    C312485   2.709   2.060  14.739  0.8276  0.0448  0.3596
  850MPD2    C412486   2.628   2.103  14.631  0.2679 -0.2038  0.6290
  850MPD2    C512487   2.498   2.066  14.631  0.1799 -0.3894  0.0915
  850MPD2     H12488   2.714   1.945  14.924  0.7721 -0.0208 -0.4931
  850MPD2    H112489   2.654   2.185  14.566 -1.6429 -0.0118  0.1029
  850MPD2    H212490   2.351   1.935  14.706  1.5430 -2.4537  0.3181
  850MPD2    H312491   2.428   2.113  14.563 -0.2024  0.4141  1.0474
  850MPD2     N12492   2.836   2.116  14.757  0.3407  0.1052 -0.0612
  850MPD2    H512493   2.858   2.195  14.696  1.8932  0.6360  1.1911
  850MPD2    N112494   2.462   1.852  14.918  0.5338 -0.3265  0.2224
  850MPD2    H712495   2.363   1.836  14.903  0.5247  1.2079 -1.3400
  851MPD2     C12496   2.741   1.286  15.041 -0.3647  0.1468  0.3043
  851MPD2    C112497   2.646   1.291  15.144 -0.2142 -0.7673  0.4194
  851MPD2    C212498   2.604   1.169  15.197 -0.8949 -0.6944 -0.5056
  851MPD2    C312499   2.652   1.046  15.152 -0.7777  0.3661 -0.2260
  851MPD2    C412500   2.731   1.043  15.043  0.3679  0.0907 -0.3903
  851MPD2    C512501   2.770   1.165  14.982  0.2347 -1.0592 -0.5208
  851MPD2     H12502   2.529   1.166  15.276  0.7009  1.8649  1.1004
  851MPD2    H112503   2.777   0.951  15.011  2.7794  1.5927 -1.2325
  851MPD2    H212504   2.773   1.378  14.993  0.2888 -1.0905 -1.6180
  851MPD2    H312505   2.837   1.168  14.896 -3.1834 -0.0871 -3.1566
  851MPD2     N12506   2.619   0.931  15.229 -0.0515 -0.1155  0.3611
  851MPD2    H512507   2.561   0.943  15.312 -0.2261 -4.7396  0.9031
  851MPD2    N112508   2.596   1.416  15.182  0.3582  0.2018 -0.8726
  851MPD2    H712509   2.615   1.500  15.129  1.3093  1.5188  1.5692
  852MPD2     C12510   2.733   3.999   9.595 -0.3132  0.3481  0.1154
  852MPD2    C112511   2.711   4.097   9.690  0.2898 -0.8854 -0.2659
  852MPD2    C212512   2.756   4.227   9.665 -0.3666  0.0604  0.1291
  852MPD2    C312513   2.820   4.264   9.545  0.0844 -0.2801  0.1013
  852MPD2    C412514   2.831   4.167   9.445 -0.0532  0.1325  0.6924
  852MPD2    C512515   2.791   4.038   9.475 -0.5776 -0.6001  0.3105
  852MPD2     H12516   2.752   4.306   9.739  2.2160 -1.5233  1.9486
  852MPD2    H112517   2.872   4.195   9.349  2.7597 -0.6760  1.6487
  852MPD2    H212518   2.718   3.893   9.610  1.2596  0.1456  0.2434
  852MPD2    H312519   2.812   3.962   9.401 -0.4794  0.4289 -0.7253
  852MPD2     N12520   2.875   4.392   9.532 -0.6625  0.6693  0.4962
  852MPD2    H512521   2.882   4.448   9.616 -1.4937  1.3853  0.0903
  852MPD2    N112522   2.670   4.075   9.822  0.5146  0.3432  0.5599
  852MPD2    H712523   2.652   4.158   9.878 -1.9371  0.6670 -0.6996
  853MPD2     C12524   4.511   4.336  11.898 -0.1143 -0.2128  0.1198
  853MPD2    C112525   4.376   4.342  11.873 -0.1076 -0.4550  0.2056
  853MPD2    C212526   4.330   4.300  11.748 -1.1075 -0.7458 -0.0538
  853MPD2    C312527   4.415   4.247  11.659  0.4138 -0.5599  0.2429
  853MPD2    C412528   4.549   4.253  11.682  0.0527  0.1205 -0.5994
  853MPD2    C512529   4.599   4.295  11.803  0.2181  0.1994  0.8564
  853MPD2     H12530   4.227   4.286  11.718 -0.8640  0.5181 -1.4998
  853MPD2    H112531   4.611   4.232  11.596  0.1899 -1.8313 -0.0219
  853MPD2    H212532   4.553   4.372  11.991  0.3172  2.0289 -0.9417
  853MPD2    H312533   4.707   4.296  11.812  0.2500 -1.1353  0.5280
  853MPD2     N12534   4.377   4.207  11.530 -0.6229  0.4357  0.2730
  853MPD2    H512535   4.450   4.163  11.475  0.8714  1.9983  0.9977
  853MPD2    N112536   4.297   4.396  11.974  0.0634 -0.8710  0.3601
  853MPD2    H712537   4.331   4.397  12.069  0.9425 -3.1426  0.0496
  854MPD2     C12538   0.966   0.146  12.291 -1.0253 -0.4289  0.1380
  854MPD2    C112539   1.056   0.207  12.379  0.6207  0.3853  0.9044
  854MPD2    C212540   1.112   0.138  12.485  0.0393  0.0997  0.3072
  854MPD2    C312541   1.087   0.003  12.500  0.9809  0.7446  0.7169
  854MPD2    C412542   1.007   4.663  12.401  0.5982 -0.9941 -0.6319
  854MPD2    C512543   0.949   0.014  12.301  0.5845 -0.7731 -0.8245
  854MPD2     H12544   1.186   0.188  12.548  0.0373  0.3835  0.0831
  854MPD2    H112545   0.983   4.557  12.400  1.8270 -1.2778 -1.0661
  854MPD2    H212546   0.923   0.204  12.211 -2.0404  0.4543  1.3249
  854MPD2    H312547   0.891   4.686  12.226 -2.4063 -2.0331  2.3102
  854MPD2     N12548   1.139   4.651  12.607 -0.0449 -0.4032 -0.2045
  854MPD2    H512549   1.135   4.550  12.609 -1.5950 -0.3712 -1.6518
  854MPD2    N112550   1.087   0.344  12.343 -0.0153  0.1458  0.3721
  854MPD2    H712551   1.022   0.388  12.279 -0.5793 -0.9496  0.1929
  855MPD2     C12552   1.182   0.006  13.635 -0.1065  0.1875 -0.5670
  855MPD2    C112553   1.188   4.601  13.588 -0.0293 -0.0973  0.1058
  855MPD2    C212554   1.193   4.575  13.449  0.4975  0.0511 -0.2517
  855MPD2    C312555   1.206   4.679  13.366  1.1717 -0.3583 -0.5815
  855MPD2    C412556   1.204   0.091  13.413  0.4237  0.0959 -0.4591
  855MPD2    C512557   1.200   0.110  13.548 -0.5716 -0.3554  0.2702
  855MPD2     H12558   1.193   4.471  13.417  0.4910 -0.5589  1.6992
  855MPD2    H112559   1.203   0.176  13.346  0.4139  0.1122 -0.4382
  855MPD2    H212560   1.172   0.030  13.740  1.0076  1.1024 -0.6737
  855MPD2    H312561   1.201   0.212  13.586  0.1900 -0.9816  1.9189
  855MPD2     N12562   1.225   4.665  13.224 -0.7613 -0.4646 -0.2947
  855MPD2    H512563   1.202   0.021  13.166  1.0461  0.0189 -0.3405
  855MPD2    N112564   1.188   4.485  13.673 -0.3536 -0.4461 -0.1271
  855MPD2    H712565   1.178   4.397  13.624 -0.7829  0.1761 -1.1718
  856MPD2     C12566   2.996   0.476  13.679 -0.4833 -0.0017  0.3919
  856MPD2    C112567   3.111   0.502  13.608  0.2053  0.1425  0.2597
  856MPD2    C212568   3.131   0.633  13.568  0.2579  0.1938 -0.5673
  856MPD2    C312569   3.032   0.727  13.569 -0.7572  0.2175 -0.0274
  856MPD2    C412570   2.909   0.689  13.626 -0.0688  0.2659 -0.5709
  856MPD2    C512571   2.900   0.571  13.691  0.4142  0.3926  0.3180
  856MPD2     H12572   3.223   0.666  13.521 -1.3654  1.9467 -2.5638
  856MPD2    H112573   2.825   0.759  13.623  2.1764  3.0095  0.3527
  856MPD2    H212574   2.979   0.379  13.725 -1.9103  0.2312  0.3595
  856MPD2    H312575   2.806   0.539  13.734  0.4775  0.6658  0.6624
  856MPD2     N12576   3.062   0.856  13.512  0.0234 -0.2718 -0.3805
  856MPD2    H512577   3.154   0.864  13.469 -0.6162  4.4036 -0.8680
  856MPD2    N112578   3.221   0.412  13.595  0.0211 -0.7697  0.3804
  856MPD2    H712579   3.312   0.448  13.567  0.2252 -1.2686  0.4128
  857MPD2     C12580   0.100   2.458  13.387  0.5118 -0.3333  0.0100
  857MPD2    C112581   0.156   2.497  13.268  0.1096 -0.0820  0.6271
  857MPD2    C212582   0.227   2.613  13.261 -0.7611 -0.2876  0.3085
  857MPD2    C312583   0.242   2.695  13.372  0.3772  0.1329  0.5004
  857MPD2    C412584   0.199   2.644  13.490  0.1266 -0.3341  0.1206
  857MPD2    C512585   0.126   2.530  13.498  0.1512 -0.7496 -0.5139
  857MPD2     H12586   0.270   2.649  13.168 -2.2388  0.8811  0.0747
  857MPD2    H112587   0.200   2.692  13.587 -0.8681  0.6191 -0.3452
  857MPD2    H212588   0.037   2.372  13.409  0.7557 -0.8773 -1.3840
  857MPD2    H312589   0.086   2.494  13.592 -0.7361  0.0084 -0.5949
  857MPD2     N12590   0.321   2.816  13.358  0.2296 -0.2231  0.1209
  857MPD2    H512591   0.333   2.849  13.262  0.4895 -0.8179 -0.0519
  857MPD2    N112592   0.147   2.404  13.156 -0.2571  0.0446 -0.3828
  857MPD2    H712593   0.071   2.338  13.161 -0.3385  0.3243  2.2322
  858MPD2     C12594   0.262   1.748  16.768  0.3717  0.0758  0.4929
  858MPD2    C112595   0.394   1.766  16.746 -0.7162  0.7214  0.3002
  858MPD2    C212596   0.454   1.862  16.819  0.6233 -0.0384  0.5536
  858MPD2    C312597   0.383   1.933  16.917  0.2030  0.3206  0.3845
  858MPD2    C412598   0.246   1.913  16.929 -0.9048 -0.6526 -0.4392
  858MPD2    C512599   0.187   1.818  16.856 -0.3630  0.0295  0.3930
  858MPD2     H12600   0.562   1.857  16.819  0.6085 -0.6463  3.1993
  858MPD2    H112601   0.190   1.953  17.013 -2.4946 -0.9221 -1.3768
  858MPD2    H212602   0.218   1.677  16.699  1.0502  1.2604 -1.1711
  858MPD2    H312603   0.079   1.811  16.849 -0.5150  1.0933  1.7482
  858MPD2     N12604   0.439   2.033  16.998  0.8996 -0.0570 -0.4836
  858MPD2    H512605   0.376   2.079  17.063  0.8692 -0.0586 -0.5117
  858MPD2    N112606   0.453   1.681  16.654  0.3054  0.1336 -0.0668
  858MPD2    H712607   0.402   1.616  16.595  1.5131 -0.3850 -0.5559
  859MPD2     C12608   4.161   3.750  14.522  0.6042 -0.4634  0.4079
  859MPD2    C112609   4.264   3.785  14.602 -0.1266  0.2161 -0.0144
  859MPD2    C212610   4.325   3.685  14.679 -0.4073 -0.3321  0.6795
  859MPD2    C312611   4.281   3.553  14.665 -0.2588  0.1287  0.2541
  859MPD2    C412612   4.173   3.527  14.587  0.3173  0.4008  0.3749
  859MPD2    C512613   4.115   3.621  14.511 -0.0793  0.1329 -0.1670
  859MPD2     H12614   4.408   3.716  14.742  0.6253 -2.3468  0.2987
  859MPD2    H112615   4.146   3.423  14.578  0.1239  0.5216 -0.4884
  859MPD2    H212616   4.097   3.826  14.479  2.3408 -0.8483 -2.9177
  859MPD2    H312617   4.028   3.594  14.451  0.5907  0.1467 -1.1480
  859MPD2     N12618   4.337   3.447  14.734 -0.2457  0.5406  0.0781
  859MPD2    H512619   4.307   3.354  14.706  1.8336 -0.1305  0.0860
  859MPD2    N112620   4.297   3.927  14.607  0.2608  0.5140  0.8536
  859MPD2    H712621   4.251   3.996  14.548  1.5948  0.1233 -0.6785
  860MPD2     C12622   2.455   4.242  11.495  0.3173  0.6460 -1.0010
  860MPD2    C112623   2.362   4.348  11.504 -0.1685 -0.1082  0.4081
  860MPD2    C212624   2.261   4.337  11.597 -0.4353  0.1587  0.9710
  860MPD2    C312625   2.250   4.230  11.678  0.0705 -0.6998  0.0918
  860MPD2    C412626   2.348   4.134  11.670  0.1551  0.2615 -0.1068
  860MPD2    C512627   2.450   4.135  11.579 -0.2849  0.1194 -0.5195
  860MPD2     H12628   2.194   4.421  11.610 -0.2897  0.4665 -0.2218
  860MPD2    H112629   2.343   4.053  11.742  2.3756 -0.7150 -1.0474
  860MPD2    H212630   2.535   4.241  11.422  0.3923 -0.3159 -0.9007
  860MPD2    H312631   2.532   4.066  11.567 -0.4016 -0.0410 -0.3894
  860MPD2     N12632   2.150   4.227  11.776 -0.4654  0.3805  0.2381
  860MPD2    H512633   2.085   4.305  11.772 -0.0622  0.6862 -0.2836
  860MPD2    N112634   2.378   4.472  11.435 -0.2683 -0.5542 -0.0688
  860MPD2    H712635   2.314   4.544  11.468 -0.7445 -0.5377 -1.0443
  861MPD2     C12636   1.488   2.424  10.357 -0.5174  0.4928  0.1594
  861MPD2    C112637   1.402   2.317  10.338  0.0380 -0.6634  0.4184
  861MPD2    C212638   1.276   2.336  10.280  0.6937 -0.1248 -1.2816
  861MPD2    C312639   1.239   2.464  10.250  0.0833  0.2081 -0.3839
  861MPD2    C412640   1.324   2.571  10.270  0.0076 -0.3248 -0.1441
  861MPD2    C512641   1.452   2.549  10.317 -0.0786 -0.0309 -0.2602
  861MPD2     H12642   1.207   2.253  10.270 -0.5024  0.9164 -1.5926
  861MPD2    H112643   1.292   2.673  10.254  1.7321  0.1819 -0.3525
  861MPD2    H212644   1.577   2.418  10.419 -0.4496  0.1204  0.0255
  861MPD2    H312645   1.515   2.637  10.325 -0.2770 -0.1546  2.7239
  861MPD2     N12646   1.106   2.490  10.212  0.5506  0.0295 -0.1621
  861MPD2    H512647   1.076   2.586  10.198 -0.5343 -0.0187  2.0005
  861MPD2    N112648   1.432   2.193  10.401 -0.8300 -0.4093 -0.3247
  861MPD2    H712649   1.504   2.191  10.473  0.0705  0.2719 -1.2027
  862MPD2     C12650   0.390   2.060  10.129  0.4492 -0.3662  0.1821
  862MPD2    C112651   0.521   2.060  10.148  0.1026  0.3339 -0.1856
  862MPD2    C212652   0.585   1.949  10.183  0.0485  0.6382 -0.0059
  862MPD2    C312653   0.522   1.828  10.174 -0.4739 -0.3069 -0.5993
  862MPD2    C412654   0.387   1.824  10.149  0.5615 -1.1619 -0.1447
  862MPD2    C512655   0.316   1.941  10.132 -0.4114  0.1179  0.1253
  862MPD2     H12656   0.691   1.963  10.199  0.4054 -1.8419 -0.1934
  862MPD2    H112657   0.328   1.734  10.138 -0.5540 -0.5328  0.6943
  862MPD2    H212658   0.330   2.148  10.109 -1.2120 -1.6270 -0.4184
  862MPD2    H312659   0.210   1.933  10.113 -0.4494  0.6606  0.0950
  862MPD2     N12660   0.586   1.695  10.188 -0.5814  0.2320  0.0117
  862MPD2    H512661   0.531   1.611  10.197  1.9415 -1.6508 -2.1649
  862MPD2    N112662   0.603   2.173  10.145 -0.0441  0.2919 -0.0137
  862MPD2    H712663   0.702   2.151  10.150  0.1797  0.9637 -1.3603
  863MPD2     C12664   3.862   0.570  16.400  0.0227  0.1153  0.5624
  863MPD2    C112665   3.850   0.689  16.469 -1.0423  0.5380 -0.0711
  863MPD2    C212666   3.913   0.707  16.593 -0.0283 -0.0065  0.4982
  863MPD2    C312667   3.975   0.597  16.652 -0.4295 -0.1247  0.1449
  863MPD2    C412668   3.978   0.475  16.584  0.1770  0.4432 -0.7692
  863MPD2    C512669   3.932   0.464  16.455 -0.2296 -0.4983  0.2789
  863MPD2     H12670   3.914   0.803  16.644 -0.1712 -1.3109  2.9243
  863MPD2    H112671   4.029   0.384  16.615 -1.5561 -0.1384  0.3568
  863MPD2    H212672   3.821   0.557  16.300  0.0252 -1.1487  0.7224
  863MPD2    H312673   3.942   0.368  16.406 -1.3902  0.9690 -2.7922
  863MPD2     N12674   4.052   0.600  16.770 -0.5979  0.4798  0.1516
  863MPD2    H512675   4.095   0.512  16.797 -0.5990  0.7069  0.9134
  863MPD2    N112676   3.772   0.784  16.408  0.4811 -0.5595  0.5546
  863MPD2    H712677   3.749   0.767  16.311  1.8789  0.1431  0.1044
  864MPD2     C12678   4.110   1.916  17.097  0.8025  0.0689  0.4190
  864MPD2    C112679   4.215   1.854  17.039  0.1982 -1.0145  0.6019
  864MPD2    C212680   4.326   1.925  16.993 -0.5931  0.5148  0.1553
  864MPD2    C312681   4.328   2.057  17.017 -0.1191  0.7441  0.0761
  864MPD2    C412682   4.219   2.127  17.066  0.5677  0.0644 -0.6122
  864MPD2    C512683   4.114   2.052  17.109  0.0058 -0.2546 -0.6227
  864MPD2     H12684   4.403   1.870  16.941  0.1553 -0.7863  2.6273
  864MPD2    H112685   4.211   2.233  17.088 -0.1523  0.0522 -0.7899
  864MPD2    H212686   4.031   1.858  17.143  0.3085 -0.9785 -1.7517
  864MPD2    H312687   4.035   2.105  17.160  0.0517 -1.3004  0.5372
  864MPD2     N12688   4.436   2.137  16.978 -0.7215  0.2855  0.6757
  864MPD2    H512689   4.427   2.234  17.005 -0.0293  0.4972  0.1578
  864MPD2    N112690   4.189   1.716  17.008 -0.5588 -0.1036 -0.0706
  864MPD2    H712691   4.097   1.687  17.037  0.8968 -1.6595  2.9401
  865MPD2     C12692   4.706   2.431  16.114 -0.2711 -0.3631  0.0492
  865MPD2    C112693   4.637   2.337  16.192 -0.0491 -0.4221  0.6408
  865MPD2    C212694   4.623   2.355  16.325 -0.0674 -0.5642 -0.3592
  865MPD2    C312695   4.673   2.475  16.376 -0.4230  0.0981  0.7085
  865MPD2    C412696   0.031   2.561  16.304 -0.0308 -0.2902  0.4329
  865MPD2    C512697   0.042   2.540  16.170  0.2853 -0.8039  0.3230
  865MPD2     H12698   4.591   2.285  16.400 -0.7206  0.5942  0.4351
  865MPD2    H112699   0.086   2.636  16.360 -2.0987  0.5760  1.3171
  865MPD2    H212700   0.006   2.416  16.009 -2.5882 -2.4706 -0.1597
  865MPD2    H312701   0.115   2.592  16.109 -0.4935  3.3379  2.9153
  865MPD2     N12702   4.669   2.500  16.513 -0.1918 -0.2696 -0.1463
  865MPD2    H512703   0.020   2.555  16.555 -1.5383  1.7398 -0.4004
  865MPD2    N112704   4.611   2.216  16.121  0.0790 -0.4510  0.2321
  865MPD2    H712705   4.642   2.213  16.025  0.3366  1.7340  0.2472
  866MPD2     C12706   1.860   2.782  10.812 -0.6441  0.2510  0.0479
  866MPD2    C112707   1.825   2.664  10.748  0.5312  0.4096  0.4897
  866MPD2    C212708   1.693   2.636  10.706 -0.9396  0.1292 -0.3790
  866MPD2    C312709   1.595   2.731  10.748 -0.1644 -0.2665  0.4843
  866MPD2    C412710   1.630   2.841  10.823  0.4473 -0.5279  0.2634
  866MPD2    C512711   1.761   2.866  10.858 -0.2544 -0.1635 -0.1735
  866MPD2     H12712   1.677   2.557  10.634  0.2512  0.5171 -1.0588
  866MPD2    H112713   1.550   2.910  10.848  0.4182  0.0397 -1.3809
  866MPD2    H212714   1.962   2.797  10.844  0.3331 -1.5599 -2.2289
  866MPD2    H312715   1.783   2.944  10.929 -0.7614  1.8628 -2.2282
  866MPD2     N12716   1.457   2.716  10.705  0.9243  0.0072  0.4178
  866MPD2    H512717   1.408   2.805  10.714  0.9908  0.1980 -1.0302
  866MPD2    N112718   1.933   2.585  10.701 -0.5884 -0.2867 -0.4671
  866MPD2    H712719   2.026   2.605  10.737 -0.7841 -0.8671  0.3697
  867MPD2     C12720   3.115   2.050  16.083 -0.1540  0.2943 -0.5038
  867MPD2    C112721   3.153   2.016  16.213 -0.0374 -0.2017  0.2521
  867MPD2    C212722   3.175   2.115  16.298  0.2148  0.2320  0.4987
  867MPD2    C312723   3.153   2.248  16.263  0.0827 -0.3341  0.1052
  867MPD2    C412724   3.102   2.275  16.140 -0.1975 -0.1925  0.3893
  867MPD2    C512725   3.081   2.177  16.052  0.0266 -0.0313 -0.5551
  867MPD2     H12726   3.198   2.081  16.398 -0.4493 -1.7247 -0.0113
  867MPD2    H112727   3.096   2.379  16.108  1.5028  0.2950  1.6233
  867MPD2    H212728   3.102   1.975  16.006 -1.2544 -2.1822  2.0972
  867MPD2    H312729   3.049   2.194  15.950 -0.9660 -1.2258 -0.4381
  867MPD2     N12730   3.163   2.348  16.357 -0.2991 -0.3402  0.4450
  867MPD2    H512731   3.131   2.439  16.324  0.1524 -0.2669  0.2124
  867MPD2    N112732   3.179   1.877  16.241 -0.4953  1.2609  0.0472
  867MPD2    H712733   3.205   1.821  16.160 -1.2600 -0.6973  1.1606
  868MPD2     C12734   0.152   0.518  12.468 -0.2749 -0.1692 -0.0217
  868MPD2    C112735   0.115   0.505  12.605  0.1254  0.1125  0.1712
  868MPD2    C212736   4.703   0.507  12.641  0.1496 -0.7136  0.2577
  868MPD2    C312737   4.609   0.522  12.541 -0.0936 -0.4117 -0.6036
  868MPD2    C412738   4.649   0.531  12.405 -0.1810 -0.4808  0.4733
  868MPD2    C512739   0.058   0.528  12.369 -0.8285 -0.6018 -0.5262
  868MPD2     H12740   4.667   0.490  12.741 -2.2409 -0.3434 -0.5330
  868MPD2    H112741   4.578   0.538  12.323  1.1099  1.9989 -0.4163
  868MPD2    H212742   0.254   0.517  12.432  0.8627 -0.3268  3.1786
  868MPD2    H312743   0.091   0.541  12.266  2.2446 -1.2826  0.3889
  868MPD2     N12744   4.475   0.524  12.575  0.0853  0.3658  0.9174
  868MPD2    H512745   4.460   0.508  12.674  0.6289  0.4496  1.0120
  868MPD2    N112746   0.224   0.507  12.695 -1.3630  0.3229 -0.2788
  868MPD2    H712747   0.316   0.498  12.653 -0.7742  0.4228  0.9885
  869MPD2     C12748   2.098   0.154   1.174  0.0306  0.4331 -0.4289
  869MPD2    C112749   2.012   0.105   1.274 -0.3546  0.3353 -0.3764
  869MPD2    C212750   1.907   0.027   1.237 -0.4008 -0.0328  0.6838
  869MPD2    C312751   1.891   4.707   1.112 -0.2867  0.0335 -0.1655
  869MPD2    C412752   1.974   0.031   1.017 -0.6312 -0.2445  0.6354
  869MPD2    C512753   2.077   0.115   1.044  0.4434 -0.9618  0.5239
  869MPD2     H12754   1.830   0.002   1.309  0.5918 -1.7107  1.1684
  869MPD2    H112755   1.959   0.007   0.913  2.6814 -0.9743  0.3535
  869MPD2    H212756   2.183   0.217   1.196  0.3214 -0.6117  1.4963
  869MPD2    H312757   2.143   0.157   0.969  0.1246 -0.2283  0.6470
  869MPD2     N12758   1.793   4.614   1.067  0.8460  0.0577  0.1512
  869MPD2    H512759   1.797   4.593   0.968  0.2264  2.8850 -0.4914
  869MPD2    N112760   2.033   0.148   1.410  0.7938 -0.5616  0.3582
  869MPD2    H712761   2.092   0.230   1.423 -1.1905  1.2200 -1.9505
  870MPD2     C12762   1.872   3.384   1.853 -0.0808 -0.0474 -0.0136
  870MPD2    C112763   1.832   3.309   1.742 -0.2094  0.1272 -0.9054
  870MPD2    C212764   1.806   3.369   1.617  0.1639 -0.3980  0.1128
  870MPD2    C312765   1.834   3.510   1.606  0.0532  0.8285 -0.1596
  870MPD2    C412766   1.872   3.579   1.709  0.9920  0.1950 -0.1152
  870MPD2    C512767   1.888   3.520   1.830 -0.1536 -0.1881  0.3052
  870MPD2     H12768   1.790   3.317   1.523  0.6089  1.5457 -1.0458
  870MPD2    H112769   1.902   3.683   1.700  0.3584  0.5331  1.5386
  870MPD2    H212770   1.892   3.338   1.949 -0.5982  0.0349  0.1300
  870MPD2    H312771   1.921   3.583   1.911 -0.8503 -0.1631  0.5642
  870MPD2     N12772   1.835   3.567   1.475  0.8903  0.5326 -0.5593
  870MPD2    H512773   1.835   3.502   1.397  0.4160  0.7736 -0.7593
  870MPD2    N112774   1.816   3.166   1.756 -0.1044 -0.0770 -0.3097
  870MPD2    H712775   1.848   3.133   1.847  0.6545 -1.3892 -1.0632
  871MPD2     C12776   2.254   2.383  16.473  0.2741 -0.5011  0.2511
  871MPD2    C112777   2.213   2.338  16.591  0.1302 -0.5274  0.1656
  871MPD2    C212778   2.159   2.208  16.602  1.5255 -0.1778  0.2859
  871MPD2    C312779   2.157   2.130  16.490  0.2466  0.2068 -0.1417
  871MPD2    C412780   2.214   2.167  16.369  0.3911  0.9141  0.1387
  871MPD2    C512781   2.258   2.297  16.366  0.5285 -0.0246  0.2394
  871MPD2     H12782   2.114   2.178  16.696  2.4156 -2.1005  0.1092
  871MPD2    H112783   2.212   2.118  16.273  0.3089  0.2501  0.4820
  871MPD2    H212784   2.289   2.484  16.452 -0.8496  0.2973  2.2923
  871MPD2    H312785   2.294   2.332  16.270 -2.4728 -0.5548 -1.0881
  871MPD2     N12786   2.099   2.002  16.505  0.0311 -0.7782  0.5625
  871MPD2    H512787   2.063   1.983  16.598  0.0935 -1.7468  0.3993
  871MPD2    N112788   2.214   2.435  16.696 -0.0954  1.1767  0.4552
  871MPD2    H712789   2.250   2.522  16.658 -1.4948  1.9260  0.8505
  872MPD2     C12790   2.868   4.329  14.040 -0.1110 -0.1017  0.5868
  872MPD2    C112791   2.841   4.378  13.917  0.2735  0.0830 -0.2223
  872MPD2    C212792   2.710   4.418  13.895 -0.6946  0.0772  0.3042
  872MPD2    C312793   2.620   4.421  13.992 -0.7637 -0.7969  0.1796
  872MPD2    C412794   2.648   4.370  14.119  0.6268  0.9961  0.0559
  872MPD2    C512795   2.773   4.320  14.141 -0.2414  0.0483  0.1374
  872MPD2     H12796   2.668   4.449  13.800  0.0718  2.8282  0.8471
  872MPD2    H112797   2.581   4.369  14.204 -1.3151 -2.0747 -1.4905
  872MPD2    H212798   2.972   4.309  14.066  0.1417  0.1193 -0.2561
  872MPD2    H312799   2.806   4.302  14.243  1.1094 -0.6451 -0.4232
  872MPD2     N12800   2.493   4.486  13.975 -0.4839 -0.7769  0.2170
  872MPD2    H512801   2.483   4.559  13.905  0.1733 -0.0540  0.8768
  872MPD2    N112802   2.935   4.389  13.810  0.5496  0.0111 -0.7631
  872MPD2    H712803   2.902   4.440  13.729 -1.0456 -1.3750 -0.9956
  873MPD2     C12804   3.964   4.645   0.377  0.0385 -0.2969 -0.3076
  873MPD2    C112805   4.048   4.571   0.461  0.2750 -0.2565 -1.0251
  873MPD2    C212806   4.111   4.464   0.407  0.2794 -0.0429 -0.0679
  873MPD2    C312807   4.056   4.397   0.292 -0.6688  0.0180 -0.5254
  873MPD2    C412808   3.959   4.458   0.215  0.1010 -0.0651 -0.4490
  873MPD2    C512809   3.932   4.590   0.249  0.2849 -0.2811 -0.0231
  873MPD2     H12810   4.197   4.416   0.453  0.8684  0.1589 -0.9470
  873MPD2    H112811   3.943   4.420   0.116 -2.0570 -0.2490 -0.0167
  873MPD2    H212812   3.941   0.019   0.419  0.4952 -0.5420  0.5185
  873MPD2    H312813   3.894   4.660   0.176  0.7518 -1.1370 -1.0842
  873MPD2     N12814   4.113   4.267   0.260 -0.2160  0.3473  0.2286
  873MPD2    H512815   4.176   4.229   0.330 -1.3044 -1.4315  0.2573
  873MPD2    N112816   4.088   4.618   0.586  0.0408  0.3934 -0.2514
  873MPD2    H712817   4.063   4.712   0.613  1.1005  0.4796  0.4266
  874MPD2     C12818   4.571   0.016  15.467 -0.9833 -0.1099 -0.0299
  874MPD2    C112819   4.613   4.659  15.573  0.5683  0.4302 -0.7515
  874MPD2    C212820   0.022   4.669  15.609 -0.0114 -0.1759  0.2220
  874MPD2    C312821   0.115   0.025  15.541  0.3484 -0.1055 -0.5853
  874MPD2    C412822   0.071   0.097  15.434 -0.4755  0.0456 -0.5864
  874MPD2    C512823   4.662   0.088  15.398 -0.1948  0.3933  0.4772
  874MPD2     H12824   0.039   4.609  15.697 -0.9064  1.1436  1.2967
  874MPD2    H112825   0.141   0.151  15.372 -1.3372  0.2529 -1.3856
  874MPD2    H212826   4.469   0.021  15.431 -0.9069 -0.2483 -0.2597
  874MPD2    H312827   4.640   0.142  15.306  0.8875  2.5354  1.4812
  874MPD2     N12828   0.249   0.025  15.586  0.4641 -0.3459 -0.2982
  874MPD2    H512829   0.270   4.690  15.667  0.3527 -2.0603 -1.5062
  874MPD2    N112830   4.529   4.570  15.626  0.3480  0.1153 -0.1925
  874MPD2    H712831   4.441   4.564  15.577  0.0756 -1.0352  0.4444
  875MPD2     C12832   0.888   3.315  14.269  1.3888  0.4755  0.9481
  875MPD2    C112833   0.805   3.220  14.331  0.1774 -0.1928 -0.6072
  875MPD2    C212834   0.836   3.181  14.460 -0.1576 -0.3952 -0.1955
  875MPD2    C312835   0.935   3.238  14.538 -0.0044 -0.1256 -0.1162
  875MPD2    C412836   1.010   3.337  14.482 -0.2768  0.1059  0.8247
  875MPD2    C512837   0.992   3.365  14.347 -0.1674 -0.4267  0.2399
  875MPD2     H12838   0.783   3.104  14.514  2.6665 -2.5173 -0.4348
  875MPD2    H112839   1.077   3.397  14.543 -0.9480  0.5927  1.0920
  875MPD2    H212840   0.875   3.362  14.172  1.2146 -1.9132 -0.1816
  875MPD2    H312841   1.040   3.454  14.310 -3.8962  1.6152  0.2625
  875MPD2     N12842   0.973   3.208  14.673  0.3907 -0.1249 -0.0030
  875MPD2    H512843   1.058   3.251  14.707  0.2226  0.0347  0.2155
  875MPD2    N112844   0.696   3.161  14.272  0.3156 -0.3669 -0.5401
  875MPD2    H712845   0.659   3.080  14.322 -0.8706 -0.3036 -1.3028
  876MPD2     C12846   4.210   4.170  15.553  0.0099 -0.2745  0.2745
  876MPD2    C112847   4.345   4.141  15.532  0.4312 -0.1822 -0.0872
  876MPD2    C212848   4.392   4.010  15.552  0.4331  0.3056 -0.3798
  876MPD2    C312849   4.309   3.919  15.616  0.3656  0.0772  0.5763
  876MPD2    C412850   4.181   3.949  15.637 -0.9454 -0.1459  0.3289
  876MPD2    C512851   4.130   4.072  15.606 -0.5523 -0.1114 -0.1212
  876MPD2     H12852   4.498   3.992  15.541  0.2961 -2.2963  2.5394
  876MPD2    H112853   4.109   3.877  15.674 -0.7312 -0.0173  0.9876
  876MPD2    H212854   4.170   4.269  15.533  0.2133 -0.7755 -2.6527
  876MPD2    H312855   4.023   4.088  15.610 -0.4154  1.0383 -1.2606
  876MPD2     N12856   4.362   3.786  15.648  0.0304  0.2719  0.1799
  876MPD2    H512857   4.459   3.770  15.626  0.8989  1.7899  2.9911
  876MPD2    N112858   4.420   4.245  15.478  0.1995 -0.5087 -0.3751
  876MPD2    H712859   4.367   4.330  15.462  0.2439 -0.1470  1.3906
  877MPD2     C12860   4.254   4.664  14.903 -0.3933  0.4617 -0.1898
  877MPD2    C112861   4.388   4.665  14.903 -0.1536  0.3009 -0.0651
  877MPD2    C212862   4.452   4.713  14.785  0.5015 -0.0323  0.4195
  877MPD2    C312863   4.370   0.022  14.676 -0.2464 -0.7752  0.2231
  877MPD2    C412864   4.232   0.021  14.682 -0.1431 -0.2292 -0.4489
  877MPD2    C512865   4.174   4.707  14.804 -0.3422  0.2822 -0.4186
  877MPD2     H12866   4.558   0.007  14.773  0.0654  2.7449  0.5895
  877MPD2    H112867   4.166   0.048  14.601  1.2394  1.8075 -0.9070
  877MPD2    H212868   4.202   4.636  14.994  0.6341 -1.6220 -0.2464
  877MPD2    H312869   4.067   4.699  14.817 -0.0453 -1.3842  0.8836
  877MPD2     N12870   4.424   0.060  14.547 -0.2104  0.2860  0.1716
  877MPD2    H512871   4.358   0.066  14.470 -0.1912 -0.7088  0.0740
  877MPD2    N112872   4.468   4.616  15.007 -0.0527 -0.1979  0.1732
  877MPD2    H712873   4.569   4.610  14.996 -0.3394 -1.6930 -1.7378
  878MPD2     C12874   4.659   3.731  12.750 -0.5053 -0.4689  0.5249
  878MPD2    C112875   4.623   3.861  12.726  0.2148  0.1991 -0.6563
  878MPD2    C212876   4.516   3.919  12.786 -0.4288 -0.4690  0.5551
  878MPD2    C312877   4.448   3.849  12.887  0.7123 -0.3367 -0.2769
  878MPD2    C412878   4.473   3.719  12.913 -0.3366 -0.0135 -0.4450
  878MPD2    C512879   4.574   3.661  12.840 -0.2421 -0.3512  0.4342
  878MPD2     H12880   4.498   4.022  12.759  1.8019  1.1010  5.0156
  878MPD2    H112881   4.430   3.659  12.992 -1.2444  1.9686  0.5380
  878MPD2    H212882   0.012   3.682  12.691 -0.7776  1.3874 -1.3734
  878MPD2    H312883   4.590   3.556  12.858 -3.7484 -1.0581 -0.6119
  878MPD2     N12884   4.349   3.922  12.955  0.1575 -0.1726  0.4531
  878MPD2    H512885   4.325   4.014  12.919  0.7248 -0.2707 -0.1835
  878MPD2    N112886   4.693   3.930  12.617 -0.4110  0.1188  0.1253
  878MPD2    H712887   0.025   3.872  12.554 -0.5476  2.3237 -2.0201
  879MPD2     C12888   0.421   0.440  16.538 -0.2683 -0.1358 -0.4010
  879MPD2    C112889   0.294   0.415  16.587  0.6431 -0.0493  0.3876
  879MPD2    C212890   0.198   0.341  16.516 -0.1608 -0.2883  0.2539
  879MPD2    C312891   0.236   0.295  16.393  0.1319  0.1526  0.0579
  879MPD2    C412892   0.365   0.324  16.344 -0.3062  0.4485 -0.3652
  879MPD2    C512893   0.452   0.406  16.409  0.3996 -0.2584 -0.2938
  879MPD2     H12894   0.099   0.324  16.557 -0.2623 -0.4486 -0.0620
  879MPD2    H112895   0.403   0.292  16.248  0.7995 -2.8292  1.1649
  879MPD2    H212896   0.503   0.490  16.589  0.9071 -1.9286 -0.5219
  879MPD2    H312897   0.545   0.434  16.361  0.6958  0.1836  0.5404
  879MPD2     N12898   0.157   0.212  16.318  0.4989 -0.2086 -0.3482
  879MPD2    H512899   0.193   0.191  16.225 -1.4659  0.0256 -1.1638
  879MPD2    N112900   0.264   0.480  16.709 -0.3364  0.1544  0.1692
  879MPD2    H712901   0.317   0.564  16.730  0.3694 -0.0406 -0.8334
  880MPD2     C12902   1.776   2.450   0.751  0.3528  0.3208 -0.2486
  880MPD2    C112903   1.875   2.539   0.790 -0.3259 -0.3354 -0.4575
  880MPD2    C212904   1.934   2.514   0.917 -0.2721  0.0559  0.3602
  880MPD2    C312905   1.881   2.422   1.007  0.1189  0.1513 -0.1928
  880MPD2    C412906   1.785   2.334   0.961 -1.0223 -0.4240 -0.1788
  880MPD2    C512907   1.740   2.346   0.833 -0.2061  0.7193 -0.1453
  880MPD2     H12908   2.017   2.579   0.942  2.5631 -3.7718  0.8935
  880MPD2    H112909   1.726   2.263   1.018 -1.2081  0.0328  0.1866
  880MPD2    H212910   1.728   2.463   0.654  5.3643 -0.1401 -2.7868
  880MPD2    H312911   1.656   2.287   0.799 -0.6153  0.8858  0.5725
  880MPD2     N12912   1.937   2.416   1.134  0.6241  0.4792  0.0409
  880MPD2    H512913   2.006   2.489   1.149  0.7485  0.3131  0.2701
  880MPD2    N112914   1.893   2.649   0.709  0.0986  0.0755 -0.3208
  880MPD2    H712915   1.845   2.653   0.620  0.5032 -0.2936 -0.5571
  881MPD2     C12916   1.351   2.852   0.096  0.5696  0.2036  0.9545
  881MPD2    C112917   1.461   2.920   0.049 -0.4393 -0.7061  0.6189
  881MPD2    C212918   1.566   2.924   0.132  0.1778  0.3607 -0.1312
  881MPD2    C312919   1.555   2.884   0.266  0.2144 -0.0702  0.6618
  881MPD2    C412920   1.436   2.830   0.314 -0.9789  0.5884  0.5159
  881MPD2    C512921   1.330   2.822   0.226 -0.5643 -0.1065  0.4778
  881MPD2     H12922   1.658   2.965   0.092  1.6226 -0.4829  2.2896
  881MPD2    H112923   1.427   2.782   0.411 -0.0667  2.3962  1.5050
  881MPD2    H212924   1.264   2.862   0.032 -0.2483 -0.4263  1.9897
  881MPD2    H312925   1.233   2.791   0.263 -1.3199  2.8352  0.9317
  881MPD2     N12926   1.676   2.887   0.344  0.2963  0.1446  0.3151
  881MPD2    H512927   1.671   2.845   0.436  0.9988  0.3539  0.4506
  881MPD2    N112928   1.468   2.930  17.606  0.1001 -0.1208  0.0884
  881MPD2    H712929   1.387   2.908  17.549  0.1472  1.3608 -0.5502
  882MPD2     C12930   4.383   4.451  13.810 -0.1631 -0.6303  0.5539
  882MPD2    C112931   4.327   4.530  13.910 -0.0930  0.7601 -0.1736
  882MPD2    C212932   4.186   4.510  13.936 -0.4036 -0.2212 -0.0409
  882MPD2    C312933   4.117   4.422  13.852 -0.1062 -0.8287  1.3983
  882MPD2    C412934   4.174   4.348  13.753  0.2571 -0.2607  0.4353
  882MPD2    C512935   4.310   4.360  13.735 -0.2104  0.1238 -0.4438
  882MPD2     H12936   4.138   4.553  14.023  2.0524 -0.2945  1.3403
  882MPD2    H112937   4.122   4.281  13.684  2.7418  0.4358 -2.1266
  882MPD2    H212938   4.487   4.458  13.781 -0.0721  0.4400  1.1479
  882MPD2    H312939   4.358   4.326  13.643 -0.4443 -0.5041 -0.3327
  882MPD2     N12940   3.983   4.416  13.892 -0.5489 -0.1887  0.4583
  882MPD2    H512941   3.966   4.463  13.980 -2.9364  0.3949 -0.3052
  882MPD2    N112942   4.421   4.596  13.992  0.1263  0.6126 -0.5182
  882MPD2    H712943   4.519   4.586  13.967  0.3075 -1.4106  1.0294
  883MPD2     C12944   1.705   4.585  16.409  0.3006  0.1784 -0.0640
  883MPD2    C112945   1.797   4.656  16.331 -0.1486  0.1514 -0.5884
  883MPD2    C212946   1.901   0.001  16.392  0.2420  0.2096  0.1654
  883MPD2    C312947   1.924   4.721  16.527 -0.1455 -0.1264  0.1436
  883MPD2    C412948   1.840   4.648  16.607  0.4500  0.1409 -0.0666
  883MPD2    C512949   1.727   4.587  16.544 -0.3396  1.0533 -0.0571
  883MPD2     H12950   1.979   0.043  16.329  0.8312 -0.1888  0.6329
  883MPD2    H112951   1.849   4.653  16.715 -3.7728  0.1287  0.3073
  883MPD2    H212952   1.622   4.532  16.364  1.1205 -0.8154 -0.3997
  883MPD2    H312953   1.667   4.519  16.603 -1.2849 -1.0091 -3.4088
  883MPD2     N12954   2.043   0.064  16.571 -0.0250 -0.1768 -0.0095
  883MPD2    H512955   2.102   0.100  16.497  1.4587  0.2417  1.3932
  883MPD2    N112956   1.790   4.657  16.191 -0.2741 -0.3215  0.3658
  883MPD2    H712957   1.857   4.713  16.139 -2.1514  3.7110  2.1932
  884MPD2     C12958   3.577   0.482  14.987 -0.0714  0.2877  0.5263
  884MPD2    C112959   3.479   0.430  14.912  1.0191 -0.4338 -0.0684
  884MPD2    C212960   3.360   0.492  14.904 -0.0925 -0.2058 -0.3264
  884MPD2    C312961   3.334   0.603  14.975  0.3673 -0.7949  0.2265
  884MPD2    C412962   3.423   0.646  15.067  0.8012 -0.1027  0.6117
  884MPD2    C512963   3.544   0.589  15.073  0.2101  0.0617  0.0146
  884MPD2     H12964   3.274   0.455  14.850 -1.5278  0.1516  1.7477
  884MPD2    H112965   3.400   0.726  15.136 -2.5741 -0.1988 -0.4211
  884MPD2    H212966   3.674   0.435  14.999  0.3926  1.8846  2.9795
  884MPD2    H312967   3.626   0.636  15.127 -1.2221  3.4069 -0.7702
  884MPD2     N12968   3.204   0.664  14.966  0.0807 -0.6063  0.1524
  884MPD2    H512969   3.141   0.620  14.900  1.1114 -0.2583 -1.0566
  884MPD2    N112970   3.499   0.321  14.824 -0.1201 -0.4999 -0.2794
  884MPD2    H712971   3.424   0.302  14.758  1.4284 -1.9786 -1.6034
  885MPD2     C12972   1.521   0.598   0.356  0.6972  0.0517  0.9219
  885MPD2    C112973   1.636   0.671   0.362 -0.5251 -0.5306  0.0217
  885MPD2    C212974   1.647   0.782   0.282 -0.1006  0.0236  0.2647
  885MPD2    C312975   1.543   0.821   0.194  0.1620 -0.4009 -0.0521
  885MPD2    C412976   1.426   0.749   0.206 -0.6205 -0.0707  0.1036
  885MPD2    C512977   1.418   0.631   0.275 -0.4756  0.2623 -0.3759
  885MPD2     H12978   1.741   0.836   0.280  0.6986 -1.3408  0.5469
  885MPD2    H112979   1.341   0.768   0.141 -0.3882  0.1002 -0.1513
  885MPD2    H212980   1.511   0.511   0.420  1.6389 -0.3434  0.5353
  885MPD2    H312981   1.340   0.559   0.253 -0.3957 -0.2104  0.8953
  885MPD2     N12982   1.559   0.940   0.119  0.5048 -0.3085 -0.0790
  885MPD2    H512983   1.652   0.979   0.115 -0.7623  2.6352 -0.2635
  885MPD2    N112984   1.736   0.627   0.450 -0.0882  0.0317 -0.1399
  885MPD2    H712985   1.713   0.540   0.498 -1.1284  0.5860  0.3425
  886MPD2     C12986   2.863   3.775  14.847  0.1486 -0.6143  0.0640
  886MPD2    C112987   2.986   3.807  14.895 -0.7338 -0.4247 -0.2974
  886MPD2    C212988   3.065   3.897  14.826  0.3769 -0.1771  0.4343
  886MPD2    C312989   3.023   3.953  14.703 -0.1501  0.2617 -0.1885
  886MPD2    C412990   2.889   3.928  14.664  0.2912  0.1420  0.0580
  886MPD2    C512991   2.816   3.839  14.735 -0.1741  0.0997  0.4635
  886MPD2     H12992   3.163   3.929  14.860  0.8506 -0.5662 -0.5596
  886MPD2    H112993   2.838   3.978  14.583  0.9110 -1.9779 -1.6249
  886MPD2    H212994   2.789   3.718  14.902  0.2519  2.0064  2.9101
  886MPD2    H312995   2.714   3.831  14.697 -0.1445  2.5309 -0.1337
  886MPD2     N12996   3.096   4.047  14.626  0.1428 -0.0868 -0.4607
  886MPD2    H512997   3.059   4.088  14.541 -1.5180  3.4099  1.9528
  886MPD2    N112998   3.043   3.746  15.012  0.5820 -0.1512  0.6363
  886MPD2    H712999   3.135   3.782  15.034  0.2256  0.5176  1.0426
  887MPD2     C13000   3.679   3.742  15.396  0.3000  0.6490 -0.9156
  887MPD2    C113001   3.578   3.809  15.327 -0.6900 -0.0152 -0.2706
  887MPD2    C213002   3.593   3.947  15.310  0.5611  0.3248  0.1597
  887MPD2    C313003   3.702   4.019  15.362  0.7347 -0.3905 -0.1342
  887MPD2    C413004   3.804   3.952  15.424 -0.1390 -0.4521  0.1402
  887MPD2    C513005   3.790   3.815  15.439 -0.4857 -0.0984  0.1226
  887MPD2     H13006   3.519   4.003  15.255 -0.7484 -2.0346 -0.5158
  887MPD2    H113007   3.896   3.999  15.455  1.0112 -1.7198 -1.3756
  887MPD2    H213008   3.675   3.635  15.414  0.7015  0.2280 -3.3313
  887MPD2    H313009   3.872   3.760  15.483  0.6147  0.7126 -0.9206
  887MPD2     N13010   3.700   4.158  15.333 -0.3228  0.4742  0.0916
  887MPD2    H513011   3.636   4.186  15.259  1.5394 -1.6678 -2.3169
  887MPD2    N113012   3.453   3.747  15.292  0.3118 -0.3899  0.4676
  887MPD2    H713013   3.383   3.815  15.265  0.5970 -0.1062  0.4416
  888MPD2     C13014   0.957   4.286  14.654  0.2301 -0.4747  1.0204
  888MPD2    C113015   0.923   4.369  14.753  0.7077 -0.3231 -0.1893
  888MPD2    C213016   0.944   4.504  14.743  0.1531  0.0114  0.2448
  888MPD2    C313017   0.994   4.562  14.629  0.4196  0.9190 -0.8567
  888MPD2    C413018   1.039   4.476  14.528  0.2785 -0.0306  0.1052
  888MPD2    C513019   1.023   4.341  14.545  0.3341 -0.4308  0.5576
  888MPD2     H13020   0.927   4.568  14.829 -0.8471 -0.9873  0.7905
  888MPD2    H113021   1.085   4.516  14.439  1.6114 -1.6352  0.0824
  888MPD2    H213022   0.969   4.181  14.678  0.2585 -0.4048  1.3154
  888MPD2    H313023   1.065   4.274  14.471  0.5631  1.0676 -0.6547
  888MPD2     N13024   1.011   4.697  14.623  0.6389 -1.0777 -1.0260
  888MPD2    H513025   0.973   0.023  14.703  0.5805  0.5991 -2.1069
  888MPD2    N113026   0.883   4.317  14.879 -0.9197  0.0038 -0.3167
  888MPD2    H713027   0.882   4.389  14.950 -1.0873  1.1771 -1.5288
  889MPD2     C13028   0.572   3.522  12.967 -0.0727 -0.3255  0.1478
  889MPD2    C113029   0.477   3.464  13.052 -0.2293 -0.4754  0.2301
  889MPD2    C213030   0.352   3.529  13.070 -0.3040  0.7140  0.0709
  889MPD2    C313031   0.327   3.650  13.005  0.3888 -0.1176 -0.0331
  889MPD2    C413032   0.428   3.708  12.932  0.3706 -0.8292 -0.2756
  889MPD2    C513033   0.547   3.643  12.906 -0.2753 -0.6932 -1.1939
  889MPD2     H13034   0.276   3.487  13.135 -0.4248  1.7748  0.6251
  889MPD2    H113035   0.415   3.799  12.875 -1.0248 -0.7096  0.2413
  889MPD2    H213036   0.671   3.481  12.952 -0.5612 -1.1340 -0.8774
  889MPD2    H313037   0.629   3.692  12.855  0.6606 -1.3301 -0.3209
  889MPD2     N13038   0.205   3.718  13.033  0.0622 -0.4925  0.1172
  889MPD2    H513039   0.132   3.669  13.083 -1.1195  0.8106 -0.3353
  889MPD2    N113040   0.512   3.353  13.134 -0.5421 -0.1660  0.0880
  889MPD2    H713041   0.610   3.324  13.138 -0.4566  0.0142 -0.8577
  890MPD2     C13042   4.203   0.787  14.214  0.1339  0.3721  0.0439
  890MPD2    C113043   4.330   0.830  14.247  0.3499  0.2735  0.2201
  890MPD2    C213044   4.410   0.749  14.329  0.6481 -0.0279 -0.2873
  890MPD2    C313045   4.360   0.626  14.377  0.4162  1.2123 -0.0499
  890MPD2    C413046   4.232   0.589  14.337 -0.0416  0.2997 -0.0823
  890MPD2    C513047   4.155   0.662  14.253  0.2299  0.0524  0.2621
  890MPD2     H13048   4.505   0.780  14.370  0.1428  0.3779  0.5733
  890MPD2    H113049   4.188   0.496  14.369  1.9348  0.4315  3.0207
  890MPD2    H213050   4.144   0.847  14.145 -0.1298 -0.7755 -0.7159
  890MPD2    H313051   4.063   0.622  14.213  0.2283  1.8642 -1.5785
  890MPD2     N13052   4.441   0.559  14.470  0.1732 -0.3223  0.4000
  890MPD2    H513053   4.527   0.610  14.488  0.9925 -1.9270  1.0381
  890MPD2    N113054   4.373   0.961  14.208 -0.3907 -0.1527  0.1352
  890MPD2    H713055   4.310   1.024  14.161  1.0706  1.7511  0.7311
  891MPD2     C13056   2.290   3.281  16.635 -0.0681 -0.3210 -0.0320
  891MPD2    C113057   2.314   3.414  16.672 -0.0094  0.6892  0.3760
  891MPD2    C213058   2.425   3.449  16.749 -0.2410 -0.5309 -0.2135
  891MPD2    C313059   2.511   3.356  16.781  0.4303  0.2351 -0.3265
  891MPD2    C413060   2.492   3.223  16.736  0.0849  0.4088 -0.1051
  891MPD2    C513061   2.375   3.187  16.675 -0.3709 -0.6206  0.6286
  891MPD2     H13062   2.444   3.552  16.778 -0.2528 -0.6336  0.1594
  891MPD2    H113063   2.565   3.144  16.752  0.3773  0.5092 -0.9439
  891MPD2    H213064   2.203   3.248  16.580  1.0010 -2.6684 -0.3199
  891MPD2    H313065   2.367   3.086  16.638  0.3607  0.3652 -2.1728
  891MPD2     N13066   2.615   3.395  16.865 -0.6504  0.2400 -0.2843
  891MPD2    H513067   2.612   3.493  16.893  2.4016  0.4358 -0.5700
  891MPD2    N113068   2.214   3.509  16.621  0.0302  0.1670  0.0595
  891MPD2    H713069   2.143   3.463  16.566  0.0540  1.4600 -1.0594
  892MPD2     C13070   3.532   0.346  14.163 -0.1378  0.7058  0.5257
  892MPD2    C113071   3.465   0.247  14.226  0.5971 -0.0351 -0.1303
  892MPD2    C213072   3.505   0.116  14.207 -0.7387  0.1641  0.6489
  892MPD2    C313073   3.601   0.095  14.113 -0.2517  1.0034 -0.0302
  892MPD2    C413074   3.666   0.197  14.046 -0.0807 -0.3184  0.2018
  892MPD2    C513075   3.632   0.318  14.074  0.3050  0.2326  0.1996
  892MPD2     H13076   3.467   0.037  14.270  0.1372  0.1740  1.1935
  892MPD2    H113077   3.748   0.175  13.978 -0.6302  0.2801 -0.6449
  892MPD2    H213078   3.491   0.446  14.166  0.4574  0.9466  0.6204
  892MPD2    H313079   3.689   0.392  14.020  0.5357  0.5739  0.9201
  892MPD2     N13080   3.631   4.685  14.067 -0.4765 -0.8733  0.2693
  892MPD2    H513081   3.721   4.669  14.024  0.2127  0.9808  1.0544
  892MPD2    N113082   3.348   0.273  14.298  0.1915  0.5478 -0.1896
  892MPD2    H713083   3.310   0.367  14.293  2.9342  1.7241  1.5666
  893MPD2     C13084   2.517   3.534   2.271  0.3187  0.6007  0.0298
  893MPD2    C113085   2.398   3.555   2.193  0.2758  0.7607  0.2162
  893MPD2    C213086   2.291   3.484   2.222 -0.4538  0.1517 -0.0637
  893MPD2    C313087   2.288   3.389   2.321  0.2369 -0.2723  0.2811
  893MPD2    C413088   2.397   3.385   2.411  0.0994  0.4810 -0.0330
  893MPD2    C513089   2.508   3.462   2.383  0.2391  0.2886  0.0107
  893MPD2     H13090   2.210   3.476   2.150  1.1149 -0.7183 -1.7504
  893MPD2    H113091   2.416   3.313   2.490  0.4775 -1.8944 -2.2855
  893MPD2    H213092   2.601   3.598   2.248  1.7979 -1.2840  0.2165
  893MPD2    H313093   2.600   3.445   2.439 -0.7314 -0.1714  1.4572
  893MPD2     N13094   2.188   3.294   2.347  0.1020  0.1343 -0.0182
  893MPD2    H513095   2.205   3.230   2.424  1.4714  0.8545  0.2715
  893MPD2    N113096   2.401   3.657   2.093 -0.3425 -0.2177  0.3555
  893MPD2    H713097   2.490   3.704   2.082 -1.5559  1.6955 -1.2512
  894MPD2     C13098   3.673   1.517   0.978  0.0145 -0.7584  0.3929
  894MPD2    C113099   3.655   1.556   1.110  0.4072  0.0054  0.3998
  894MPD2    C213100   3.649   1.686   1.145  0.1486 -0.2187  0.4012
  894MPD2    C313101   3.626   1.782   1.049  0.0868 -0.7254 -0.4975
  894MPD2    C413102   3.631   1.747   0.913  0.1103 -0.7408 -0.7312
  894MPD2    C513103   3.656   1.612   0.882  0.0410  0.8375 -0.1339
  894MPD2     H13104   3.631   1.722   1.245 -0.0075 -1.6089  0.8667
  894MPD2    H113105   3.625   1.821   0.833 -1.0951 -0.9827 -0.8664
  894MPD2    H213106   3.689   1.412   0.954 -1.1686 -0.8439 -0.0389
  894MPD2    H313107   3.669   1.589   0.777 -0.4878  2.0952 -0.4714
  894MPD2     N13108   3.583   1.909   1.088  0.1357  0.0138 -0.0391
  894MPD2    H513109   3.588   1.940   1.185 -1.1961  0.6819 -0.1917
  894MPD2    N113110   3.636   1.462   1.213  0.5889  0.7765 -1.4030
  894MPD2    H713111   3.619   1.498   1.306  3.2645  2.1944 -1.4409
  895MPD2     C13112   2.870   4.171  13.493  0.2082  0.4136 -0.0104
  895MPD2    C113113   2.871   4.143  13.359  0.1835  0.2263  0.4778
  895MPD2    C213114   2.941   4.038  13.307  1.2451  0.3236 -0.5175
  895MPD2    C313115   3.017   3.957  13.384 -0.6915 -0.7741 -0.9269
  895MPD2    C413116   3.008   3.975  13.514  0.2623  0.0375 -0.1870
  895MPD2    C513117   2.937   4.081  13.569 -1.1120 -0.3165 -0.5646
  895MPD2     H13118   2.916   4.003  13.207  0.3429  2.6827 -1.1135
  895MPD2    H113119   3.054   3.902  13.579  0.5794 -0.3163 -0.8106
  895MPD2    H213120   2.817   4.252  13.542 -1.3714 -0.5463 -0.1499
  895MPD2    H313121   2.934   4.083  13.678  0.0534 -1.3363 -0.5146
  895MPD2     N13122   3.083   3.842  13.334 -0.2802 -0.7402 -0.1940
  895MPD2    H513123   3.113   3.773  13.402  2.9214  1.5104  0.6820
  895MPD2    N113124   2.781   4.203  13.272  0.1197  0.5732 -0.6421
  895MPD2    H713125   2.792   4.170  13.177  1.2430 -1.7416  0.2879
  896MPD2     C13126   0.338   2.655   1.541 -0.3999  0.7719  0.1831
  896MPD2    C113127   0.353   2.616   1.408 -0.5131  0.7704  0.3642
  896MPD2    C213128   0.241   2.575   1.334 -0.2622 -0.7001  0.1188
  896MPD2    C313129   0.117   2.572   1.396  0.5015  0.0652  0.2809
  896MPD2    C413130   0.108   2.595   1.533 -0.0451  0.4711  0.2257
  896MPD2    C513131   0.216   2.643   1.601  0.3173 -0.1624  0.8378
  896MPD2     H13132   0.243   2.555   1.228  1.2018 -0.4972  0.1054
  896MPD2    H113133   0.021   2.582   1.595  0.3004 -0.1730  0.5658
  896MPD2    H213134   0.424   2.675   1.604 -1.2287 -2.0216  2.2012
  896MPD2    H313135   0.210   2.657   1.708 -1.2681 -1.3475  0.9031
  896MPD2     N13136   4.722   2.534   1.325  0.1996 -0.0916  0.4858
  896MPD2    H513137   0.007   2.525   1.224  1.0259 -0.4806  0.5976
  896MPD2    N113138   0.482   2.625   1.343  0.6781 -0.0448  0.3072
  896MPD2    H713139   0.486   2.583   1.251 -1.0274  0.4895 -0.0077
  897MPD2     C13140   1.673   2.929   9.996 -0.9723 -0.1025 -0.3343
  897MPD2    C113141   1.723   3.052  10.025  0.1092  0.4489  0.4485
  897MPD2    C213142   1.705   3.117  10.146 -0.2205  0.4191  0.2605
  897MPD2    C313143   1.622   3.047  10.230  0.3515 -0.3939  0.4169
  897MPD2    C413144   1.563   2.923  10.203 -0.2946  0.0171  0.2062
  897MPD2    C513145   1.589   2.867  10.090  0.2671 -0.3816  0.4544
  897MPD2     H13146   1.734   3.219  10.172  2.8521 -0.7915  1.5223
  897MPD2    H113147   1.524   2.858  10.281  1.4886 -2.1676 -0.7265
  897MPD2    H213148   1.684   2.883   9.898  0.0957 -0.7746  0.0942
  897MPD2    H313149   1.551   2.767  10.069  1.4283 -1.0613  1.5870
  897MPD2     N13150   1.613   3.108  10.358 -0.0509  0.2336  0.2390
  897MPD2    H513151   1.665   3.194  10.369 -0.9663  0.7070  0.9215
  897MPD2    N113152   1.800   3.115   9.922  0.1351 -0.0369  0.0736
  897MPD2    H713153   1.814   3.055   9.841 -1.2332  0.5525 -0.5973
  898MPD2     C13154   2.530   4.467  17.242 -0.4181 -0.6681  0.1415
  898MPD2    C113155   2.660   4.487  17.201 -0.1578 -0.1827  0.0296
  898MPD2    C213156   2.703   4.615  17.196  0.4480  0.3491  0.6642
  898MPD2    C313157   2.617   4.723  17.213  0.9106  0.4920 -0.9898
  898MPD2    C413158   2.489   4.697  17.260 -0.4699 -0.8873 -0.3528
  898MPD2    C513159   2.445   4.570  17.280 -0.6871 -0.0910  0.3589
  898MPD2     H13160   2.807   4.635  17.171  0.7970 -0.4388  1.4938
  898MPD2    H113161   2.414   0.050  17.274 -0.8086 -0.6580 -3.3236
  898MPD2    H213162   2.488   4.368  17.257 -1.7422 -0.3906 -1.6896
  898MPD2    H313163   2.349   4.536  17.316 -1.1809 -0.4343 -1.2917
  898MPD2     N13164   2.663   0.137  17.195 -0.8658  1.1267 -0.9770
  898MPD2    H513165   2.751   0.154  17.148  0.9773  0.3357  2.1724
  898MPD2    N113166   2.746   4.389  17.164 -0.3570 -0.4811 -0.5412
  898MPD2    H713167   2.846   4.408  17.159 -0.4590  0.1596 -0.1678
  899MPD2     C13168   4.021   0.120  17.157 -0.2749  0.4177 -0.3165
  899MPD2    C113169   4.014   0.236  17.236  0.1759  0.7069 -0.3281
  899MPD2    C213170   3.940   0.243  17.350  0.2067 -0.7224  0.4284
  899MPD2    C313171   3.860   0.134  17.384 -0.0248 -0.4718 -0.3217
  899MPD2    C413172   3.869   0.015  17.311 -0.7864 -0.2698 -0.3100
  899MPD2    C513173   3.955   0.008  17.197 -0.1218  0.0030 -0.2004
  899MPD2     H13174   3.950   0.323  17.422 -2.1664  0.4142 -0.4978
  899MPD2    H113175   3.809   4.651  17.334 -1.4200  0.0617 -0.6959
  899MPD2    H213176   4.093   0.115  17.076 -0.6129 -0.5777 -0.5580
  899MPD2    H313177   3.956   4.640  17.140 -0.0106 -0.0731 -0.0755
  899MPD2     N13178   3.761   0.133  17.483 -0.5210  0.0358 -0.8927
  899MPD2    H513179   3.693   0.058  17.481  0.2034 -0.6840  1.5116
  899MPD2    N113180   4.081   0.350  17.192 -0.1167  0.3953  0.0387
  899MPD2    H713181   4.132   0.330  17.107 -0.8471 -2.2207  0.2089
  900MPD2     C13182   3.976   1.978  12.304 -0.1167 -0.3840  0.5432
  900MPD2    C113183   3.882   1.885  12.293  0.8964  0.2749  0.5947
  900MPD2    C213184   3.785   1.898  12.198  0.1698 -0.5427  0.3083
  900MPD2    C313185   3.785   2.013  12.114  0.3011 -0.0606 -0.2588
  900MPD2    C413186   3.893   2.106  12.130  0.0070 -0.5300 -0.2197
  900MPD2    C513187   3.984   2.094  12.230 -0.1840  0.5276 -0.4912
  900MPD2     H13188   3.708   1.824  12.181  1.2649 -1.4792 -0.5537
  900MPD2    H113189   3.903   2.195  12.069  2.5888 -0.6885 -0.0412
  900MPD2    H213190   4.052   1.968  12.381  1.0529 -0.0011 -0.5519
  900MPD2    H313191   4.058   2.169  12.254 -1.6150  1.2598  1.6610
  900MPD2     N13192   3.681   2.021  12.021 -0.3466  0.4729  0.3705
  900MPD2    H513193   3.607   1.952  12.014  0.5523 -0.3893 -0.6503
  900MPD2    N113194   3.899   1.766  12.359  0.1469  0.6920 -0.0857
  900MPD2    H713195   3.979   1.754  12.419 -0.7055  1.2809  1.1708
  901MPD2     C13196   3.713   0.703  12.519 -0.0811  0.2022  0.1446
  901MPD2    C113197   3.825   0.725  12.443  0.5772 -0.7666  0.1539
  901MPD2    C213198   3.865   0.858  12.415  0.2531 -0.1021 -1.2998
  901MPD2    C313199   3.786   0.959  12.467  0.6275  0.2257  0.3944
  901MPD2    C413200   3.678   0.935  12.552 -0.4314  0.1172  0.3958
  901MPD2    C513201   3.641   0.804  12.566  0.1874 -0.1154  0.0726
  901MPD2     H13202   3.957   0.879  12.363 -0.1039 -0.5549 -2.1177
  901MPD2    H113203   3.627   1.011  12.610 -0.8560  0.3381 -0.2716
  901MPD2    H213204   3.673   0.607  12.550 -1.5355  0.8871  0.3917
  901MPD2    H313205   3.563   0.779  12.637  1.7517 -0.1031  1.7800
  901MPD2     N13206   3.829   1.088  12.442 -0.7517 -0.0171 -0.5075
  901MPD2    H513207   3.917   1.104  12.394 -0.3943 -0.2171  0.0937
  901MPD2    N113208   3.897   0.617  12.400  0.2970  0.9303 -0.2679
  901MPD2    H713209   3.851   0.530  12.424 -0.2593  0.8628 -1.5938
  902MPD2     C13210   2.520   4.557  12.997 -0.3392  0.0227  0.7473
  902MPD2    C113211   2.481   4.560  12.864 -0.1206 -0.0579 -0.3466
  902MPD2    C213212   2.574   4.587  12.768 -0.7670 -0.2440  0.4985
  902MPD2    C313213   2.704   4.624  12.805  0.0823 -0.7239  0.0814
  902MPD2    C413214   2.741   4.612  12.935 -0.1759  0.0027 -0.0769
  902MPD2    C513215   2.650   4.578  13.031 -0.0490 -0.0250  0.0499
  902MPD2     H13216   2.538   4.595  12.666  0.9331 -0.6375 -0.1405
  902MPD2    H113217   2.846   4.630  12.954 -0.0002  0.4153 -1.4017
  902MPD2    H213218   2.452   4.542  13.080  0.1835  0.9809  1.3472
  902MPD2    H313219   2.676   4.588  13.136  0.7287  3.1843 -0.4580
  902MPD2     N13220   2.796   4.682  12.715 -0.3556  0.4754 -0.4965
  902MPD2    H513221   2.886   4.708  12.752 -0.0946 -1.9995  0.5305
  902MPD2    N113222   2.343   4.544  12.840 -0.7722 -0.2183 -0.1537
  902MPD2    H713223   2.289   4.542  12.926 -0.9056 -0.8844 -0.2575
  903MPD2     C13224   3.202   0.034  11.910  0.0458 -0.1748  0.2062
  903MPD2    C113225   3.080   0.077  11.963  0.7317 -0.1236  0.2329
  903MPD2    C213226   2.968   0.069  11.877 -0.4778  0.2566  0.7222
  903MPD2    C313227   2.984   0.044  11.745  0.2578  0.2659  0.7322
  903MPD2    C413228   3.105   0.004  11.693  0.3086  0.0844  0.0652
  903MPD2    C513229   3.212   4.719  11.779 -0.6579  0.0181  0.3005
  903MPD2     H13230   2.871   0.081  11.923 -0.9554  0.4686 -0.3228
  903MPD2    H113231   3.120   4.696  11.591  0.8383 -0.9519  0.4660
  903MPD2    H213232   3.283   0.024  11.981  1.7441  0.5306 -1.6619
  903MPD2    H313233   3.310   4.690  11.745  0.3626  1.9895  1.5194
  903MPD2     N13234   2.867   0.039  11.672 -0.2266 -0.3862 -0.0435
  903MPD2    H513235   2.786   0.058  11.731 -0.4340 -1.0152 -0.1269
  903MPD2    N113236   3.081   0.090  12.106  0.3019 -0.2137 -0.1186
  903MPD2    H713237   3.166   0.116  12.156  0.6276  0.8561 -1.1987
  904MPD2     C13238   2.725   3.310  13.796  0.0778  0.3577  1.2211
  904MPD2    C113239   2.752   3.365  13.673  0.1232  0.5342 -0.2729
  904MPD2    C213240   2.884   3.399  13.640 -0.6375 -0.1954 -0.3119
  904MPD2    C313241   2.986   3.386  13.732  0.2000 -0.3230 -0.2759
  904MPD2    C413242   2.954   3.339  13.856  0.0196 -0.1214 -0.5169
  904MPD2    C513243   2.826   3.301  13.884  0.1242  0.2133 -0.3998
  904MPD2     H13244   2.915   3.441  13.545 -3.4597 -0.8993 -1.5625
  904MPD2    H113245   3.025   3.331  13.937 -0.7857  1.6516  0.3703
  904MPD2    H213246   2.626   3.276  13.821  0.1034 -0.8474 -0.2968
  904MPD2    H313247   2.808   3.262  13.983  1.0084 -1.0088 -0.7243
  904MPD2     N13248   3.122   3.427  13.704  0.1397  0.8863  0.3972
  904MPD2    H513249   3.133   3.468  13.611  0.9075 -0.4251 -0.0991
  904MPD2    N113250   2.648   3.395  13.583  0.1824  0.5093  0.3695
  904MPD2    H713251   2.670   3.416  13.487 -2.5282 -2.6862 -0.9304
  905MPD2     C13252   2.607   3.722  12.853  0.5942 -0.0999 -0.2857
  905MPD2    C113253   2.645   3.634  12.955 -0.1335  0.0722  0.3669
  905MPD2    C213254   2.763   3.568  12.948 -0.4179  0.2465  0.0824
  905MPD2    C313255   2.862   3.618  12.854 -0.7715  0.4189  0.0350
  905MPD2    C413256   2.831   3.720  12.771 -0.7193  0.2741 -0.4853
  905MPD2    C513257   2.708   3.771  12.772  0.3331 -0.2316  0.0353
  905MPD2     H13258   2.786   3.486  13.015 -0.7482  0.5875  0.6099
  905MPD2    H113259   2.906   3.757  12.702 -0.2564 -0.8294 -0.5821
  905MPD2    H213260   2.510   3.770  12.853  0.1981 -0.8997 -3.0715
  905MPD2    H313261   2.689   3.853  12.704 -2.5607 -1.4521 -0.6605
  905MPD2     N13262   2.996   3.578  12.850  0.9643 -0.1139  0.5541
  905MPD2    H513263   3.056   3.651  12.813 -0.6869  0.4954 -0.8912
  905MPD2    N113264   2.554   3.613  13.065  0.2972  0.0446 -0.3240
  905MPD2    H713265   2.462   3.654  13.055  0.2895 -0.1773 -1.1282
  906MPD2     C13266   0.438   2.889  11.404  0.1887  0.1639  0.0892
  906MPD2    C113267   0.424   2.892  11.266  0.0752  0.0343  0.2839
  906MPD2    C213268   0.361   2.780  11.211 -0.5507 -0.5275 -0.2139
  906MPD2    C313269   0.322   2.668  11.285 -0.2740 -0.0772 -0.7029
  906MPD2    C413270   0.356   2.671  11.417  0.4930 -0.2953  0.7189
  906MPD2    C513271   0.413   2.774  11.476  0.3715  0.5437  0.2191
  906MPD2     H13272   0.340   2.798  11.106  0.2595 -2.3854 -0.6859
  906MPD2    H113273   0.327   2.591  11.485 -1.2964 -0.5097 -0.2961
  906MPD2    H213274   0.472   2.979  11.454  0.8304  0.0856 -0.2072
  906MPD2    H313275   0.419   2.777  11.584 -0.3593 -0.9921  0.2951
  906MPD2     N13276   0.249   2.556  11.233 -0.3895  0.6920  0.4037
  906MPD2    H513277   0.219   2.483  11.297 -1.9498  0.8066 -0.1963
  906MPD2    N113278   0.469   2.994  11.183 -0.6111 -0.0026 -0.2178
  906MPD2    H713279   0.445   2.977  11.086  0.5735 -0.1002 -0.4960
  907MPD2     C13280   3.374   3.042  15.414 -0.0235 -0.2264 -0.5871
  907MPD2    C113281   3.441   2.924  15.416 -0.5295 -0.0068 -0.1473
  907MPD2    C213282   3.500   2.880  15.532  0.3947  0.7435  0.2709
  907MPD2    C313283   3.478   2.945  15.656 -0.4805 -0.1166 -0.0092
  907MPD2    C413284   3.405   3.059  15.654 -0.4597 -0.0546 -0.3801
  907MPD2    C513285   3.358   3.106  15.534  0.0080  0.3463 -1.1806
  907MPD2     H13286   3.563   2.792  15.530 -0.3685  0.2542 -1.7895
  907MPD2    H113287   3.374   3.116  15.741  2.1456 -1.2159  1.3278
  907MPD2    H213288   3.331   3.093  15.328 -1.0259 -0.6178 -0.3163
  907MPD2    H313289   3.291   3.191  15.540 -1.7761 -1.2680  1.6435
  907MPD2     N13290   3.541   2.893  15.771  0.2850 -0.1995  0.2157
  907MPD2    H513291   3.581   2.801  15.759 -0.7723 -0.5459 -0.6553
  907MPD2    N113292   3.467   2.843  15.299 -0.2423  0.3369  0.6103
  907MPD2    H713293   3.489   2.744  15.312 -0.5173  0.0235 -1.2736
  908MPD2     C13294   2.085   2.710   9.227  0.3052 -0.3927 -0.6067
  908MPD2    C113295   2.019   2.689   9.347 -0.0979  0.3675 -0.2210
  908MPD2    C213296   2.005   2.797   9.436  0.1738 -0.6564  0.5340
  908MPD2    C313297   2.039   2.928   9.402 -1.9094  0.3160  0.1036
  908MPD2    C413298   2.104   2.945   9.285  0.0207  0.5051 -0.0259
  908MPD2    C513299   2.131   2.839   9.207 -0.8408  0.4354 -0.4049
  908MPD2     H13300   1.957   2.781   9.532 -0.6760 -2.3685 -0.1806
  908MPD2    H113301   2.163   3.028   9.248 -0.2731 -0.0074 -1.6321
  908MPD2    H213302   2.109   2.647   9.142  2.1039 -0.5991  0.0516
  908MPD2    H313303   2.192   2.856   9.119  0.5523 -1.5414  0.1767
  908MPD2     N13304   2.017   3.032   9.501 -0.0689  0.2529  0.3951
  908MPD2    H513305   1.986   2.998   9.592 -3.8384 -1.2374 -1.4342
  908MPD2    N113306   1.953   2.569   9.380 -0.0825 -0.3580  0.0687
  908MPD2    H713307   1.925   2.553   9.477  1.4281  0.0171  0.5594
  909MPD2     C13308   1.853   1.019  11.272 -0.2926  0.2565  0.3199
  909MPD2    C113309   1.965   1.092  11.239  0.5272 -0.0914  0.0513
  909MPD2    C213310   1.973   1.219  11.281  0.0944 -0.3094  0.1925
  909MPD2    C313311   1.871   1.281  11.350 -0.7504  0.0674 -0.4188
  909MPD2    C413312   1.751   1.211  11.376  0.1583  0.4209 -0.7239
  909MPD2    C513313   1.748   1.077  11.342  0.0465 -1.1221 -0.3690
  909MPD2     H13314   2.071   1.263  11.265  1.0748 -3.2328 -1.8389
  909MPD2    H113315   1.667   1.257  11.427  1.7014  2.5328 -0.0433
  909MPD2    H213316   1.844   0.914  11.247  0.8054  0.4939 -1.0375
  909MPD2    H313317   1.657   1.022  11.364 -1.0784 -1.3019 -5.5775
  909MPD2     N13318   1.890   1.420  11.369 -0.5412  0.3741  0.1596
  909MPD2    H513319   1.975   1.457  11.327 -0.5357  1.5826  1.2283
  909MPD2    N113320   2.077   1.039  11.173  0.2750  0.3283 -0.3174
  909MPD2    H713321   2.162   1.092  11.155 -0.8756  1.9889 -0.8237
  910MPD2     C13322   2.544   3.209  15.911  0.9493  0.7649 -0.2764
  910MPD2    C113323   2.637   3.191  15.811 -0.3103  0.2372 -0.2139
  910MPD2    C213324   2.604   3.221  15.682  0.2236 -0.5246 -0.5942
  910MPD2    C313325   2.479   3.274  15.650  0.5157 -0.5307 -0.5037
  910MPD2    C413326   2.386   3.295  15.747 -0.3681  0.1699  0.3283
  910MPD2    C513327   2.420   3.254  15.875 -0.4399  0.0739 -0.2700
  910MPD2     H13328   2.676   3.198  15.604  2.4675  0.2547  1.2755
  910MPD2    H113329   2.288   3.336  15.730 -1.1019 -1.2239  1.1584
  910MPD2    H213330   2.564   3.191  16.016  0.7456 -1.5118 -0.6321
  910MPD2    H313331   2.352   3.264  15.958  0.0703 -0.5860  0.2196
  910MPD2     N13332   2.438   3.318  15.523 -0.4783  0.2121 -0.1901
  910MPD2    H513333   2.340   3.341  15.510 -0.7454  0.0175  1.5448
  910MPD2    N113334   2.760   3.124  15.834  0.0959 -0.8966  0.2109
  910MPD2    H713335   2.828   3.129  15.759 -0.6281 -1.2494 -0.4738
  911MPD2     C13336   0.644   3.161  16.031  0.3554 -0.8676  0.3379
  911MPD2    C113337   0.666   3.267  16.111 -0.4753  0.6056 -0.3785
  911MPD2    C213338   0.627   3.389  16.066  0.2641 -0.2903  0.2004
  911MPD2    C313339   0.554   3.400  15.948  0.7398 -0.2483 -0.4138
  911MPD2    C413340   0.530   3.295  15.873  0.6169  0.1583 -0.0240
  911MPD2    C513341   0.574   3.173  15.913  0.4226 -0.1646  0.1673
  911MPD2     H13342   0.639   3.473  16.135 -1.0111 -0.7924  1.0236
  911MPD2    H113343   0.473   3.307  15.781  0.0161  2.8193  0.6927
  911MPD2    H213344   0.657   3.060  16.068  2.9587 -0.5960  0.2149
  911MPD2    H313345   0.546   3.077  15.871  1.5700 -1.7754  3.0103
  911MPD2     N13346   0.504   3.523  15.904  0.0544 -0.1569 -0.7771
  911MPD2    H513347   0.429   3.513  15.838 -0.7042  0.8427 -0.0650
  911MPD2    N113348   0.741   3.247  16.224 -0.3495 -0.3456 -0.2858
  911MPD2    H713349   0.779   3.153  16.231 -0.4109 -0.2740  1.0820
  912MPD2     C13350   0.432   3.377  15.343 -0.6494 -0.0580  0.2439
  912MPD2    C113351   0.364   3.442  15.447 -0.8145 -0.0805  0.5285
  912MPD2    C213352   0.301   3.367  15.544 -0.1419  0.2020  0.9298
  912MPD2    C313353   0.298   3.226  15.523  0.5210  0.2439 -0.0917
  912MPD2    C413354   0.369   3.166  15.420 -0.2494  0.6297  1.3244
  912MPD2    C513355   0.427   3.239  15.323 -0.3966  0.0217  0.0645
  912MPD2     H13356   0.237   3.416  15.615 -1.1714 -1.1135  0.8960
  912MPD2    H113357   0.353   3.063  15.391  1.2150  0.3216  1.6215
  912MPD2    H213358   0.505   3.427  15.280  1.5430 -1.8144  1.3599
  912MPD2    H313359   0.460   3.202  15.227 -0.2701  1.2806 -0.3742
  912MPD2     N13360   0.231   3.155  15.621  0.0914  1.0663  0.8959
  912MPD2    H513361   0.196   3.217  15.694 -0.3511 -2.2881  3.5678
  912MPD2    N113362   0.394   3.574  15.479 -0.6510 -0.1111 -0.0663
  912MPD2    H713363   0.472   3.617  15.432  0.4664  0.6669  2.4869
  913MPD2     C13364   1.173   4.058   9.286  0.1630  0.1078  0.1908
  913MPD2    C113365   1.272   4.138   9.342  0.4120  0.4634  0.8716
  913MPD2    C213366   1.284   4.275   9.309 -0.8115  0.2450  0.3323
  913MPD2    C313367   1.183   4.335   9.235  0.2151  0.2566 -0.0923
  913MPD2    C413368   1.080   4.262   9.191 -0.1193  0.3702 -0.6629
  913MPD2    C513369   1.072   4.124   9.214  0.3951  0.0997 -0.0788
  913MPD2     H13370   1.360   4.341   9.349 -0.2490  0.7730 -1.6116
  913MPD2    H113371   0.989   4.303   9.148 -0.8996 -1.4731 -0.7515
  913MPD2    H213372   1.176   3.952   9.305  3.3060  0.2114  0.3011
  913MPD2    H313373   0.992   4.064   9.174 -0.2218  1.1680 -0.4452
  913MPD2     N13374   1.180   4.473   9.202  0.1808  0.3608  0.2032
  913MPD2    H513375   1.102   4.504   9.145 -1.9751 -1.9386  1.9010
  913MPD2    N113376   1.356   4.074   9.428 -0.8159  0.5557 -0.1017
  913MPD2    H713377   1.347   3.974   9.443  0.4713  0.7099  1.5993
  914MPD2     C13378   0.013   0.754  12.009  0.5335  0.2023  0.6988
  914MPD2    C113379   4.617   0.819  11.990  0.3788 -0.4055 -0.3257
  914MPD2    C213380   4.506   0.742  12.011 -0.0715  0.7772  0.1416
  914MPD2    C313381   4.518   0.610  12.041 -0.0200  0.1726  0.0982
  914MPD2    C413382   4.643   0.541  12.046  0.2895  0.0939  0.6080
  914MPD2    C513383   0.026   0.622  12.039  0.4622  0.0284 -0.0687
  914MPD2     H13384   4.410   0.791  11.998  0.1138  1.3345  0.9174
  914MPD2    H113385   4.653   0.434  12.061 -2.1526  0.0863  2.2382
  914MPD2    H213386   0.108   0.797  11.979  1.8900 -2.5449  1.0729
  914MPD2    H313387   0.122   0.575  12.023 -0.1224 -0.9215 -0.8116
  914MPD2     N13388   4.394   0.546  12.069  0.2421  0.0760  0.4240
  914MPD2    H513389   4.306   0.596  12.062 -1.3093 -2.7071  0.2563
  914MPD2    N113390   4.623   0.951  11.933  0.8096 -0.1972  0.0119
  914MPD2    H713391   4.716   0.982  11.906  1.0647  0.3899  1.5350
  915MPD2     C13392   2.107   0.632  15.923 -0.2871 -0.1490  0.3046
  915MPD2    C113393   1.995   0.663  15.848 -0.2278  0.1408 -0.0068
  915MPD2    C213394   1.883   0.720  15.911  0.3185  0.0249  0.2423
  915MPD2    C313395   1.891   0.745  16.046 -0.2962  0.2214 -0.2409
  915MPD2    C413396   2.007   0.722  16.117  0.2105  0.0023 -0.9971
  915MPD2    C513397   2.112   0.659  16.058 -0.9145 -0.1315  0.1601
  915MPD2     H13398   1.785   0.733  15.868  0.4700  0.8627  0.1538
  915MPD2    H113399   2.026   0.753  16.219 -3.7768  0.4353 -0.3935
  915MPD2    H213400   2.199   0.590  15.884  0.4132 -0.8432  2.7290
  915MPD2    H313401   2.199   0.634  16.118 -1.5158 -3.9208 -0.5122
  915MPD2     N13402   1.782   0.820  16.098  0.7430 -0.6387 -0.4130
  915MPD2    H513403   1.704   0.821  16.032  1.5482 -0.9230 -1.3802
  915MPD2    N113404   1.995   0.634  15.713 -0.9812  0.3639  0.5028
  915MPD2    H713405   2.086   0.645  15.669 -1.5926  2.0750 -0.3270
  916MPD2     C13406   4.692   3.441  15.231 -0.1694 -0.2521 -0.2529
  916MPD2    C113407   4.695   3.368  15.351  0.9401 -0.4565 -0.1735
  916MPD2    C213408   0.023   3.236  15.346 -0.3934  0.2044  0.1087
  916MPD2    C313409   0.049   3.176  15.223 -0.9739 -0.7287 -0.2721
  916MPD2    C413410   0.050   3.254  15.107  0.9632  0.3353 -0.6890
  916MPD2    C513411   0.014   3.387  15.115 -0.1792 -0.4780 -0.3442
  916MPD2     H13412   0.035   3.172  15.432 -2.3269  1.1428  1.0618
  916MPD2    H113413   0.078   3.213  15.011 -1.6434  1.4307 -1.9188
  916MPD2    H213414   4.652   3.541  15.234 -0.6789 -0.5111  1.4221
  916MPD2    H313415   0.020   3.447  15.024  0.6010  2.0568  1.3862
  916MPD2     N13416   0.093   3.039  15.232  0.2294 -0.6067 -0.1864
  916MPD2    H513417   0.069   2.989  15.317 -0.7609 -0.1800 -0.2170
  916MPD2    N113418   4.655   3.427  15.477 -0.3761 -0.2962  0.0287
  916MPD2    H713419   4.632   3.525  15.466  0.6122  0.0038  0.6306
  917MPD2     C13420   0.948   1.789  11.830  0.9138 -0.1552  0.2939
  917MPD2    C113421   0.901   1.714  11.723 -0.3836  0.1635 -0.3335
  917MPD2    C213422   0.979   1.706  11.604  0.1158  0.3563 -0.2947
  917MPD2    C313423   1.109   1.759  11.603  0.7084  0.0513 -0.4365
  917MPD2    C413424   1.157   1.838  11.701  1.1453  0.2225 -0.2196
  917MPD2    C513425   1.075   1.849  11.815  0.1871  0.5450  0.7877
  917MPD2     H13426   0.944   1.641  11.524  0.1432 -0.8423  0.6752
  917MPD2    H113427   1.251   1.890  11.692 -0.1683  2.4682 -0.7939
  917MPD2    H213428   0.895   1.791  11.925 -0.7542  1.2758 -0.6562
  917MPD2    H313429   1.104   1.909  11.900  2.3799 -1.3863  1.4174
  917MPD2     N13430   1.179   1.759  11.479 -0.2312  0.4546  0.2791
  917MPD2    H513431   1.263   1.816  11.475  0.1022 -0.2510 -2.3712
  917MPD2    N113432   0.779   1.646  11.743  0.0429  0.3391  0.0715
  917MPD2    H713433   0.737   1.660  11.835 -2.8212  1.4776 -1.3973
  918MPD2     C13434   0.341   1.558  12.442  0.1065 -0.6114  0.4332
  918MPD2    C113435   0.465   1.539  12.392 -0.2291 -0.1421  0.3312
  918MPD2    C213436   0.490   1.547  12.258 -0.1440 -0.4525 -0.5918
  918MPD2    C313437   0.381   1.552  12.163 -0.7552 -0.0260  0.1734
  918MPD2    C413438   0.253   1.564  12.217 -0.4719 -0.1747  0.2369
  918MPD2    C513439   0.234   1.570  12.353 -0.1196 -0.1754  0.0267
  918MPD2     H13440   0.591   1.551  12.220 -0.3126 -1.4711 -1.1319
  918MPD2    H113441   0.170   1.602  12.158 -0.5652 -1.6503 -0.5911
  918MPD2    H213442   0.319   1.549  12.548 -0.1989 -0.9152  0.3418
  918MPD2    H313443   0.132   1.587  12.386  0.1167  1.8146 -0.2773
  918MPD2     N13444   0.420   1.555  12.025  0.2465  0.2442 -0.0944
  918MPD2    H513445   0.519   1.544  12.008  0.5537  0.6532  1.4636
  918MPD2    N113446   0.569   1.531  12.493 -0.0620  0.2055  0.1842
  918MPD2    H713447   0.540   1.513  12.588  0.1627  1.5516  0.5012
  919MPD2     C13448   1.604   4.684  10.980 -0.6037 -0.6636 -0.2204
  919MPD2    C113449   1.645   4.556  10.981 -0.4426  0.3159 -0.0060
  919MPD2    C213450   1.700   4.492  10.876 -0.2079  0.3345 -0.4025
  919MPD2    C313451   1.704   4.553  10.751  0.2791  0.4403 -0.6245
  919MPD2    C413452   1.659   4.684  10.746 -0.7488  0.9817 -0.7654
  919MPD2    C513453   1.624   0.024  10.859  0.2318  0.2257  0.0642
  919MPD2     H13454   1.735   4.391  10.893 -3.0239 -0.7251 -0.8351
  919MPD2    H113455   1.671   0.010  10.650  0.4673  0.9364 -0.6480
  919MPD2    H213456   1.558   0.017  11.060  1.9720  1.6767 -0.4291
  919MPD2    H313457   1.583   0.124  10.847  2.8897  1.3539  0.3014
  919MPD2     N13458   1.726   4.489  10.632 -0.1292  0.1414  0.1826
  919MPD2    H513459   1.731   4.544  10.547 -0.5433 -2.5699 -1.5862
  919MPD2    N113460   1.626   4.472  11.089 -0.1220 -0.4037  0.1852
  919MPD2    H713461   1.666   4.380  11.076 -1.1528 -0.5867 -1.6642
  920MPD2     C13462   1.607   4.592   9.722 -0.1741 -0.6536  0.6142
  920MPD2    C113463   1.521   4.497   9.768  0.3430  0.2975 -0.1006
  920MPD2    C213464   1.561   4.413   9.874 -0.0495  0.3833 -0.6967
  920MPD2    C313465   1.683   4.446   9.940 -0.2803 -0.4189  0.2631
  920MPD2    C413466   1.770   4.537   9.886 -0.1515 -0.5227 -0.8424
  920MPD2    C513467   1.737   4.605   9.772 -0.3722 -0.4965  0.6404
  920MPD2     H13468   1.499   4.336   9.919 -0.3121  0.9992  0.0044
  920MPD2    H113469   1.870   4.546   9.926 -1.1306 -0.1975  1.4979
  920MPD2    H213470   1.589   4.657   9.637 -0.3873  0.1065  1.2374
  920MPD2    H313471   1.813   4.670   9.730  1.4027 -1.2457  2.6623
  920MPD2     N13472   1.715   4.365  10.051 -0.3714 -0.2294 -0.1356
  920MPD2    H513473   1.650   4.288  10.063 -1.0773  0.5257  0.8551
  920MPD2    N113474   1.393   4.491   9.721  0.7528 -0.4870  0.2769
  920MPD2    H713475   1.345   4.410   9.759  0.8393 -0.2771  0.8323
  921MPD2     C13476   1.570   3.620  16.864  0.8170 -0.6980 -0.4063
  921MPD2    C113477   1.595   3.605  16.725 -0.6893  0.0561  0.6888
  921MPD2    C213478   1.493   3.530  16.650  0.4516  0.9091  0.5445
  921MPD2    C313479   1.374   3.488  16.707 -0.6304  0.3413 -0.8469
  921MPD2    C413480   1.352   3.509  16.846 -0.1621 -0.3178  0.0365
  921MPD2    C513481   1.449   3.576  16.920 -0.1098  0.5659  0.1275
  921MPD2     H13482   1.514   3.503  16.548 -0.0571 -0.3658  0.7766
  921MPD2    H113483   1.260   3.482  16.896  0.4258 -0.1883  1.1818
  921MPD2    H213484   1.636   3.665  16.937  1.4567  0.9291 -1.9969
  921MPD2    H313485   1.427   3.599  17.024 -0.4172 -2.5402  0.7672
  921MPD2     N13486   1.288   3.425  16.613 -0.7219  0.2251 -0.6221
  921MPD2    H513487   1.334   3.414  16.524 -0.1488 -0.0514 -0.2861
  921MPD2    N113488   1.720   3.645  16.673  0.0412  0.1611  0.5388
  921MPD2    H713489   1.785   3.692  16.735 -0.6747  2.3164 -0.3519
  922MPD2     C13490   2.296   1.611  17.272  0.0767  0.0407 -0.4744
  922MPD2    C113491   2.283   1.748  17.292  0.8791  0.0321  0.4489
  922MPD2    C213492   2.187   1.790  17.381 -0.7417 -1.0091 -0.3161
  922MPD2    C313493   2.102   1.705  17.451  0.1540  0.4008  0.2466
  922MPD2    C413494   2.122   1.568  17.431  0.0129  0.8757 -1.2312
  922MPD2    C513495   2.217   1.528  17.352  0.0593  0.4937 -0.0495
  922MPD2     H13496   2.180   1.898  17.387 -1.2094 -1.0904  0.7206
  922MPD2    H113497   2.057   1.496  17.479  0.4603  1.0776 -0.3119
  922MPD2    H213498   2.373   1.561  17.215  0.8105 -0.5936  1.0591
  922MPD2    H313499   2.241   1.423  17.341  0.8093  0.7155 -0.5384
  922MPD2     N13500   1.997   1.762  17.525  0.5369 -0.1271  0.0576
  922MPD2    H513501   2.010   1.862  17.523  0.8626 -0.1580  0.9725
  922MPD2    N113502   2.361   1.843  17.234  0.1225  0.2867 -0.6560
  922MPD2    H713503   2.362   1.936  17.274 -0.5198  0.4237 -0.9582
  923MPD2     C13504   3.250   2.420   8.382 -0.8486 -0.4269 -0.0832
  923MPD2    C113505   3.315   2.536   8.405 -0.2810  0.4930  0.0182
  923MPD2    C213506   3.454   2.534   8.423 -0.3873  0.1859  0.9373
  923MPD2    C313507   3.528   2.412   8.411  0.3619 -0.7144 -0.4244
  923MPD2    C413508   3.458   2.296   8.376 -0.3065  0.0371  0.0860
  923MPD2    C513509   3.323   2.299   8.365  0.2119  0.1582 -0.0996
  923MPD2     H13510   3.502   2.622   8.463  1.8995  0.7784 -3.1001
  923MPD2    H113511   3.507   2.200   8.363 -1.6935 -0.7239  0.5249
  923MPD2    H213512   3.143   2.408   8.391 -1.1407  0.7430 -1.9057
  923MPD2    H313513   3.268   2.206   8.351 -0.0283  0.2780  0.0676
  923MPD2     N13514   3.657   2.388   8.451  0.4365 -0.0864 -0.2567
  923MPD2    H513515   3.698   2.297   8.429 -1.5790 -1.3112  1.1518
  923MPD2    N113516   3.240   2.649   8.437 -0.4161 -0.4290  0.3426
  923MPD2    H713517   3.139   2.636   8.437 -0.3985 -0.5269 -3.0946
  924MPD2     C13518   4.011   2.294  15.726 -0.1419 -0.1831 -0.3668
  924MPD2    C113519   3.951   2.303  15.845 -0.0692 -0.0787 -0.6759
  924MPD2    C213520   3.937   2.429  15.897  0.4693  0.6020 -0.2231
  924MPD2    C313521   3.977   2.542  15.832  0.2699 -0.0375 -0.8793
  924MPD2    C413522   4.032   2.532  15.709 -0.0578  1.0336  0.1758
  924MPD2    C513523   4.053   2.404  15.663  0.1370 -0.0822  0.7097
  924MPD2     H13524   3.875   2.434  15.985 -1.6619 -1.3487 -1.5858
  924MPD2    H113525   4.068   2.620  15.658  1.9067  2.1080  3.4150
  924MPD2    H213526   4.031   2.199  15.676  0.1794 -0.0284 -0.5289
  924MPD2    H313527   4.103   2.391  15.568 -1.4581 -0.8257 -0.0356
  924MPD2     N13528   3.952   2.670  15.882 -0.1052  0.0364 -0.1099
  924MPD2    H513529   3.968   2.754  15.827 -1.8667  0.8987  0.7105
  924MPD2    N113530   3.884   2.186  15.901  0.1092  0.5381 -0.4084
  924MPD2    H713531   3.860   2.102  15.851 -1.3092  0.8951 -0.3166
  925MPD2     C13532   2.313   4.686  14.654 -0.2684  0.2320  0.1850
  925MPD2    C113533   2.197   4.628  14.605  0.3133 -0.2443  0.1213
  925MPD2    C213534   2.099   4.605  14.699  0.4566  0.1762  0.0744
  925MPD2    C313535   2.129   4.612  14.840 -0.0774  0.4319  0.3142
  925MPD2    C413536   2.252   4.656  14.878  0.1255 -0.2281  0.5863
  925MPD2    C513537   2.346   4.690  14.786 -0.6052  0.0426  0.0335
  925MPD2     H13538   2.006   4.566  14.662  0.9085  0.3038 -1.1777
  925MPD2    H113539   2.287   4.658  14.981 -0.6543 -0.8498  0.8626
  925MPD2    H213540   2.386   4.720  14.581  0.4419 -0.4353  0.5859
  925MPD2    H313541   2.440   0.011  14.814 -1.3784  0.8173  1.3853
  925MPD2     N13542   2.045   4.574  14.941  0.6749  0.5734 -0.0759
  925MPD2    H513543   2.071   4.554  15.037 -0.0409  1.4543  0.2984
  925MPD2    N113544   2.163   4.617  14.472 -0.2876  0.3660 -0.2257
  925MPD2    H713545   2.066   4.597  14.449  0.5466 -1.4786 -2.1453
  926MPD2     C13546   1.970   2.973  13.130 -0.2849 -0.1110 -0.3231
  926MPD2    C113547   1.911   3.095  13.119  0.0663  0.5240  0.0258
  926MPD2    C213548   1.892   3.153  12.994  0.7314 -0.6355  0.1978
  926MPD2    C313549   1.954   3.092  12.878  0.2306 -0.9403 -0.2188
  926MPD2    C413550   2.015   2.971  12.896 -0.0435  0.2573  0.3525
  926MPD2    C513551   2.023   2.912  13.019  0.1570  0.6163  0.1961
  926MPD2     H13552   1.842   3.249  12.993 -0.6093 -1.3680 -1.8538
  926MPD2    H113553   2.057   2.917  12.812 -0.9273  0.2334 -0.0722
  926MPD2    H213554   1.986   2.918  13.222 -0.9865 -1.8755 -1.2671
  926MPD2    H313555   2.054   2.808  13.024 -2.8559 -0.3504 -1.0416
  926MPD2     N13556   1.966   3.157  12.753 -0.8415 -0.7390 -0.2288
  926MPD2    H513557   2.017   3.099  12.687  0.7001 -1.3124  1.4348
  926MPD2    N113558   1.854   3.167  13.228  0.8088  0.2392  0.1910
  926MPD2    H713559   1.795   3.249  13.215  0.2819 -0.2386 -0.3954
  927MPD2     C13560   0.710   0.672  17.497 -0.9238  0.0760 -0.9083
  927MPD2    C113561   0.722   0.540  17.521  0.3079 -0.6131  0.2318
  927MPD2    C213562   0.820   0.457  17.469 -0.3535 -0.5477 -0.4578
  927MPD2    C313563   0.909   0.514  17.376  0.0297  0.6758  0.1172
  927MPD2    C413564   0.910   0.650  17.370  0.1885  0.3957  0.3211
  927MPD2    C513565   0.810   0.732  17.421 -0.0713  0.1426 -0.4332
  927MPD2     H13566   0.825   0.350  17.483 -3.3680 -0.2639  2.4726
  927MPD2    H113567   0.985   0.718  17.332 -1.7449  1.3204 -1.8487
  927MPD2    H213568   0.641   0.733  17.555 -0.6607 -0.2604 -0.2431
  927MPD2    H313569   0.804   0.839  17.409 -1.1527 -0.1022 -2.0508
  927MPD2     N13570   1.012   0.438  17.321  0.5884 -0.1308 -0.2338
  927MPD2    H513571   1.029   0.341  17.344  0.4305  0.2358  1.4218
  927MPD2    N113572   0.619   0.482  17.603 -0.2489  0.1915  0.1102
  927MPD2    H713573   0.540   0.540  17.630 -0.8018 -0.8607  0.7616
  928MPD2     C13574   3.363   3.099   0.237 -0.3069  0.7506  0.1012
  928MPD2    C113575   3.362   3.221   0.306  1.0954  0.7470  0.6466
  928MPD2    C213576   3.429   3.329   0.245 -0.5007 -0.0576 -0.8605
  928MPD2    C313577   3.505   3.311   0.131  0.0803  0.1377  0.0483
  928MPD2    C413578   3.507   3.188   0.068  0.2807  0.2443  0.7824
  928MPD2    C513579   3.432   3.084   0.119 -0.1090  0.7608  0.1567
  928MPD2     H13580   3.430   3.425   0.295  1.0962 -1.2958  1.4306
  928MPD2    H113581   3.558   3.159  17.674 -2.3023 -0.4595 -0.4536
  928MPD2    H213582   3.338   3.004   0.283  0.6140  0.9537  1.0266
  928MPD2    H313583   3.432   2.992   0.062  2.4265  0.6569  0.3136
  928MPD2     N13584   3.585   3.410   0.070  0.1661  0.2173 -0.0797
  928MPD2    H513585   3.641   3.383  17.686 -0.2972 -2.3881  0.4746
  928MPD2    N113586   3.282   3.225   0.425 -0.5098  0.9458 -0.2653
  928MPD2    H713587   3.248   3.140   0.470  0.6065  1.1420  0.9634
  929MPD2     C13588   0.076   3.246  10.401  0.2298  0.0087  0.2447
  929MPD2    C113589   4.681   3.180  10.367 -0.2218  0.6269  0.1235
  929MPD2    C213590   4.594   3.234  10.274  0.7230 -0.4986  0.2196
  929MPD2    C313591   4.620   3.357  10.216 -0.3993  0.2430  0.0106
  929MPD2    C413592   0.014   3.421  10.247  0.5917  0.1630  0.0893
  929MPD2    C513593   0.095   3.373  10.342  0.3597  0.5346  0.3652
  929MPD2     H13594   4.494   3.193  10.279 -0.2903  1.6460 -2.5619
  929MPD2    H113595   0.039   3.517  10.202 -0.7615  0.4271 -0.1023
  929MPD2    H213596   0.149   3.212  10.474 -0.2675 -0.6879  0.4151
  929MPD2    H313597   0.182   3.432  10.367  0.0717  1.5552 -1.0135
  929MPD2     N13598   4.531   3.417  10.120  0.6876 -0.3128 -0.0333
  929MPD2    H513599   4.538   3.513  10.087  2.3226 -0.0482  1.0621
  929MPD2    N113600   4.648   3.058  10.441  0.5817 -0.6714  0.1463
  929MPD2    H713601   4.695   3.045  10.530 -0.9124 -0.1699  1.0100
  930MPD2     C13602   0.845   1.129  14.169  0.1496  0.5283  0.4056
  930MPD2    C113603   0.855   1.236  14.085 -0.0188  0.0891 -1.2092
  930MPD2    C213604   0.783   1.238  13.963  0.4088 -0.0731 -0.6786
  930MPD2    C313605   0.717   1.128  13.920  0.0152 -0.8640  1.0402
  930MPD2    C413606   0.726   1.019  13.996  0.2510 -0.2295 -0.7464
  930MPD2    C513607   0.772   1.019  14.120 -0.1759  0.3693 -0.5068
  930MPD2     H13608   0.795   1.330  13.908 -0.3054  0.3090 -0.2034
  930MPD2    H113609   0.672   0.928  13.973 -2.0113 -0.0798  3.8884
  930MPD2    H213610   0.891   1.127  14.267 -0.1703 -2.5271  0.4849
  930MPD2    H313611   0.763   0.932  14.183  2.6940  1.5146  1.4862
  930MPD2     N13612   0.653   1.116  13.796 -0.3429  0.3963 -0.4876
  930MPD2    H513613   0.622   1.021  13.777 -0.7608 -0.0987  2.7602
  930MPD2    N113614   0.934   1.339  14.127 -0.2328  0.5459 -0.0417
  930MPD2    H713615   0.991   1.327  14.210 -0.7490  1.3013  0.4153
  931MPD2     C13616   0.660   4.553   0.120  0.0461  0.4566  0.1681
  931MPD2    C113617   0.571   4.603   0.201  0.5511 -0.3729 -0.1587
  931MPD2    C213618   0.544   4.544   0.322  0.0202 -0.0832  0.3778
  931MPD2    C313619   0.632   4.451   0.372  0.5465  0.3994  0.4950
  931MPD2    C413620   0.736   4.407   0.290 -0.6732  0.2208  0.1259
  931MPD2    C513621   0.747   4.460   0.168 -0.0084 -0.0359  0.6922
  931MPD2     H13622   0.469   4.589   0.387 -0.2797 -0.8071  0.5346
  931MPD2    H113623   0.809   4.333   0.322 -1.0411 -0.1517  0.0941
  931MPD2    H213624   0.660   4.580   0.015 -0.1787  0.8207  0.2616
  931MPD2    H313625   0.835   4.428   0.113  0.7941  3.4644 -0.0872
  931MPD2     N13626   0.620   4.390   0.502 -0.1578 -0.4992 -0.1901
  931MPD2    H513627   0.680   4.310   0.521  0.1757 -0.1363  0.2742
  931MPD2    N113628   0.509   4.715   0.155 -0.0008  0.6466 -0.0319
  931MPD2    H713629   0.551   0.036   0.074 -1.6662  2.4926  0.1423
  932MPD2     C13630   3.521   3.918  11.723 -0.1957  0.1305 -0.0073
  932MPD2    C113631   3.585   4.042  11.731 -0.6170  0.3585 -0.1012
  932MPD2    C213632   3.656   4.073  11.847  0.6608 -0.6272 -0.1037
  932MPD2    C313633   3.663   3.985  11.956 -0.2023  0.1868  0.5169
  932MPD2    C413634   3.604   3.869  11.944 -0.0168  0.4292  0.4031
  932MPD2    C513635   3.536   3.833  11.826 -0.5160  0.9726  0.4451
  932MPD2     H13636   3.691   4.175  11.853  1.4199 -0.7886 -1.7200
  932MPD2    H113637   3.602   3.799  12.027 -0.7969  0.6445  0.5702
  932MPD2    H213638   3.462   3.884  11.639 -0.9586 -0.4612  0.7659
  932MPD2    H313639   3.493   3.734  11.822  1.6180 -0.0112  2.3016
  932MPD2     N13640   3.718   4.012  12.083 -0.3126 -0.5053  0.2193
  932MPD2    H513641   3.708   3.946  12.160 -1.5388  0.0389  0.5353
  932MPD2    N113642   3.571   4.142  11.638  0.0455  0.1128  0.4810
  932MPD2    H713643   3.610   4.233  11.659  0.6972 -0.0332 -0.1218
  933MPD2     C13644   3.214   3.550   1.298 -0.6987 -0.2934 -0.7049
  933MPD2    C113645   3.190   3.590   1.167 -0.4934 -0.4213  0.1092
  933MPD2    C213646   3.116   3.702   1.151 -0.8938  0.4878  0.3698
  933MPD2    C313647   3.072   3.780   1.257  0.1081  0.9540 -0.4875
  933MPD2    C413648   3.103   3.735   1.384  0.4637 -0.1722 -0.1281
  933MPD2    C513649   3.179   3.627   1.400 -0.4188 -1.1937 -0.7250
  933MPD2     H13650   3.081   3.747   1.059  3.2415 -2.2044 -2.5433
  933MPD2    H113651   3.096   3.797   1.473 -0.7067 -1.3739  0.6331
  933MPD2    H213652   3.274   3.463   1.320  0.0847  1.4032  3.9174
  933MPD2    H313653   3.198   3.602   1.504  2.0540 -0.6315 -1.0391
  933MPD2     N13654   3.000   3.898   1.229  0.5553  0.4287 -0.0636
  933MPD2    H513655   3.009   3.923   1.131  0.1389  1.2958  0.1135
  933MPD2    N113656   3.230   3.506   1.059 -0.1048 -0.6097 -0.3660
  933MPD2    H713657   3.268   3.414   1.080 -1.7479 -0.9122  1.2641
  934MPD2     C13658   0.357   2.255   1.402 -0.2294 -0.0698  0.7654
  934MPD2    C113659   0.360   2.181   1.284  0.2325  0.0589  0.2886
  934MPD2    C213660   0.244   2.101   1.265 -0.0018 -0.0953 -0.3036
  934MPD2    C313661   0.131   2.099   1.345  0.4080  0.2515  0.9675
  934MPD2    C413662   0.133   2.175   1.465 -0.2736 -0.0618  0.3456
  934MPD2    C513663   0.253   2.240   1.493  0.1637  0.1884 -0.0760
  934MPD2     H13664   0.242   2.047   1.171 -3.0010  1.9905 -1.4451
  934MPD2    H113665   0.047   2.176   1.531 -1.1968 -1.1764 -0.8383
  934MPD2    H213666   0.436   2.321   1.435  1.1888 -0.3989 -2.0237
  934MPD2    H313667   0.252   2.302   1.582  0.2719 -0.4939  0.3954
  934MPD2     N13668   0.007   2.036   1.322  0.1003  0.0210 -0.1646
  934MPD2    H513669   4.659   2.058   1.390  0.6700  1.0258  0.1107
  934MPD2    N113670   0.461   2.196   1.190  0.5222  0.5744  0.0548
  934MPD2    H713671   0.465   2.134   1.110  0.9435 -0.7167  1.0746
  935MPD2     C13672   4.434   1.301   0.642  0.5425  0.0738  0.0819
  935MPD2    C113673   4.365   1.280   0.756  0.2291 -0.6613  0.2338
  935MPD2    C213674   4.378   1.369   0.860  0.0082  0.2581 -0.1564
  935MPD2    C313675   4.455   1.487   0.845  0.6465 -0.1564  0.0033
  935MPD2    C413676   4.524   1.504   0.727  0.8773 -0.0844 -0.3260
  935MPD2    C513677   4.512   1.412   0.630 -0.4084 -0.3388 -0.3971
  935MPD2     H13678   4.321   1.352   0.950  0.0894 -2.1325 -0.5629
  935MPD2    H113679   4.586   1.590   0.702  0.8843  0.1783  0.5842
  935MPD2    H213680   4.427   1.234   0.558  2.9377 -2.6665  2.0963
  935MPD2    H313681   4.558   1.428   0.534 -1.2478 -1.1805 -0.9389
  935MPD2     N13682   4.464   1.598   0.937  0.1543 -0.1151  0.3084
  935MPD2    H513683   4.533   1.668   0.915 -0.4524  0.0154 -1.1610
  935MPD2    N113684   4.286   1.163   0.775  0.0452 -0.1398  0.1550
  935MPD2    H713685   4.254   1.146   0.869 -0.4034  1.7495  0.3386
  936MPD2     C13686   3.903   2.481  12.365  0.1417 -0.0155 -0.6932
  936MPD2    C113687   3.916   2.503  12.499 -0.5018  0.1413  0.4204
  936MPD2    C213688   4.045   2.502  12.548 -0.1900  0.4053  0.0317
  936MPD2    C313689   4.152   2.490  12.470 -0.6038 -0.1982  0.3601
  936MPD2    C413690   4.140   2.469  12.336 -0.1610 -0.0677  0.0378
  936MPD2    C513691   4.010   2.456  12.283  0.1261 -0.0158  0.4350
  936MPD2     H13692   4.047   2.533  12.652  1.3303  0.2859  0.0261
  936MPD2    H113693   4.227   2.453  12.274  0.9738  1.1616  1.3094
  936MPD2    H213694   3.803   2.484  12.323 -0.3608 -0.7694  0.4732
  936MPD2    H313695   4.000   2.431  12.179 -0.7007  3.6934 -0.3992
  936MPD2     N13696   4.275   2.501  12.540  0.1883  0.0092 -0.6994
  936MPD2    H513697   4.267   2.536  12.635 -1.2830 -2.7399  0.1655
  936MPD2    N113698   3.814   2.545  12.585  0.5098  0.1018 -0.0201
  936MPD2    H713699   3.850   2.564  12.678 -1.7558  0.0591  0.8845
  937MPD2     C13700   1.666   3.811  11.042  0.2160 -0.5951 -0.0656
  937MPD2    C113701   1.741   3.930  11.066 -0.1544 -0.2602  0.1401
  937MPD2    C213702   1.805   3.987  10.955  0.4197  0.7887 -0.0190
  937MPD2    C313703   1.814   3.914  10.838  0.7779  0.2855  0.0941
  937MPD2    C413704   1.739   3.799  10.818  0.4297 -0.5097 -0.1053
  937MPD2    C513705   1.665   3.739  10.924  0.3123 -0.7493 -0.2182
  937MPD2     H13706   1.873   4.069  10.971  1.1392 -0.1723  1.8981
  937MPD2    H113707   1.744   3.746  10.723 -1.0260  0.9619 -1.0074
  937MPD2    H213708   1.612   3.764  11.124  3.6530  0.3990  2.7790
  937MPD2    H313709   1.616   3.643  10.912  0.0462 -0.2357 -3.3086
  937MPD2     N13710   1.907   3.962  10.745 -0.3446  0.3955  0.3555
  937MPD2    H513711   1.956   4.045  10.775  1.1902 -0.7842  1.1256
  937MPD2    N113712   1.711   4.022  11.174  0.7737 -0.3255 -0.5249
  937MPD2    H713713   1.738   4.118  11.160 -2.6332  0.6377 -0.4236
  938MPD2     C13714   3.987   1.063   1.284  0.4575 -0.7470 -0.0015
  938MPD2    C113715   3.917   1.078   1.162  0.4695  0.3334  0.0806
  938MPD2    C213716   3.818   0.989   1.127  0.1186 -0.3267 -0.8601
  938MPD2    C313717   3.791   0.887   1.211 -0.3509 -0.0073 -0.2981
  938MPD2    C413718   3.853   0.868   1.332  0.6689  0.7371 -0.3643
  938MPD2    C513719   3.952   0.956   1.362 -0.2840 -0.3142  0.2919
  938MPD2     H13720   3.769   1.000   1.031  0.4336  0.0162 -0.9812
  938MPD2    H113721   3.848   0.787   1.403  0.8889  1.3097  0.3024
  938MPD2    H213722   4.063   1.133   1.315 -0.2534  0.4222 -0.9188
  938MPD2    H313723   4.009   0.951   1.454  1.1686  0.8398 -0.5329
  938MPD2     N13724   3.691   0.787   1.183  0.6964 -0.0931  0.1948
  938MPD2    H513725   3.694   0.709   1.248 -1.9110  1.7953  2.5593
  938MPD2    N113726   3.935   1.190   1.075 -0.7731 -0.0158  0.1361
  938MPD2    H713727   3.873   1.190   0.995 -0.6605  2.1230  0.0689
  939MPD2     C13728   0.446   2.947   0.750  0.3252  0.4293 -0.2712
  939MPD2    C113729   0.550   2.925   0.842 -0.0594  0.0265  0.1015
  939MPD2    C213730   0.673   2.900   0.779  0.0126 -0.3038  0.0479
  939MPD2    C313731   0.694   2.878   0.641 -0.6088 -0.1184  0.2883
  939MPD2    C413732   0.583   2.891   0.561 -0.1619  0.3147  0.4809
  939MPD2    C513733   0.459   2.926   0.613  0.6229 -0.4596 -0.5409
  939MPD2     H13734   0.752   2.882   0.851 -0.6528  0.7092  1.0061
  939MPD2    H113735   0.574   2.871   0.454  1.3222 -0.1907  0.4451
  939MPD2    H213736   0.346   2.971   0.781  0.0308 -2.4348  1.0336
  939MPD2    H313737   0.379   2.932   0.541  0.2649 -0.9712 -0.1838
  939MPD2     N13738   0.817   2.823   0.589 -0.1313 -0.1334  0.7802
  939MPD2    H513739   0.891   2.809   0.658  0.0107 -1.1729  0.4114
  939MPD2    N113740   0.530   2.960   0.977 -0.6607 -0.0179 -0.1498
  939MPD2    H713741   0.435   2.977   1.008  0.0357  2.2593  0.7674
  940MPD2     C13742   0.118   2.886  13.024 -0.0045  0.5231  0.3339
  940MPD2    C113743   0.063   2.761  13.014  0.4657  0.3505  0.1352
  940MPD2    C213744   0.108   2.678  12.913  0.5228 -0.1303 -0.1745
  940MPD2    C313745   0.202   2.719  12.822  0.5755 -0.4239  0.4569
  940MPD2    C413746   0.276   2.834  12.842 -0.0091 -0.1586  0.3601
  940MPD2    C513747   0.222   2.921  12.944 -0.3139  0.0416 -0.0949
  940MPD2     H13748   0.072   2.575  12.912  1.5741 -0.5254  1.5586
  940MPD2    H113749   0.350   2.870  12.772 -0.5615  1.4882  0.6239
  940MPD2    H213750   0.083   2.966  13.088 -1.5464  1.2680 -1.4425
  940MPD2    H313751   0.267   3.015  12.973 -1.5058  1.1630 -1.9332
  940MPD2     N13752   0.245   2.639  12.712 -0.6168 -0.0680 -0.1638
  940MPD2    H513753   0.317   2.680  12.653 -0.5288  0.2927  0.1892
  940MPD2    N113754   4.684   2.720  13.098  0.9152 -0.1748 -0.8336
  940MPD2    H713755   4.654   2.623  13.092  0.3631 -0.0558  0.0109
  941MPD2     C13756   3.778   1.087   9.749  0.3985  0.3220 -0.3092
  941MPD2    C113757   3.746   1.136   9.627  0.0726  0.1649  0.2980
  941MPD2    C213758   3.670   1.058   9.535  1.0243  0.7407 -0.4302
  941MPD2    C313759   3.624   0.937   9.579  0.0928 -0.8867  0.3218
  941MPD2    C413760   3.658   0.889   9.705 -0.1311  0.2278 -0.4290
  941MPD2    C513761   3.735   0.960   9.784 -0.0552  0.0172 -0.2337
  941MPD2     H13762   3.652   1.094   9.434 -0.0762  0.6913 -0.2601
  941MPD2    H113763   3.633   0.789   9.739  0.0119  0.4109  0.2199
  941MPD2    H213764   3.841   1.144   9.816  1.1869  1.0212 -1.6430
  941MPD2    H313765   3.760   0.921   9.883  0.6829 -2.1728 -1.2764
  941MPD2     N13766   3.555   0.850   9.492  0.0728  0.1865 -0.8255
  941MPD2    H513767   3.516   0.767   9.535  0.6415 -1.0593 -2.6844
  941MPD2    N113768   3.793   1.266   9.591 -0.2478 -0.1176  0.3499
  941MPD2    H713769   3.855   1.327   9.644 -1.0260  0.9812  0.0087
  942MPD2     C13770   1.815   3.167   9.002 -0.5907  0.2516 -0.1104
  942MPD2    C113771   1.821   3.030   8.987  0.3661  0.0027 -0.4564
  942MPD2    C213772   1.926   2.971   8.924  0.2944  0.0232  0.5356
  942MPD2    C313773   2.036   3.051   8.887 -0.0082 -0.3663 -0.1951
  942MPD2    C413774   2.032   3.188   8.903 -0.3660 -0.2912 -0.2336
  942MPD2    C513775   1.923   3.242   8.966  0.4735  0.8282  0.1795
  942MPD2     H13776   1.932   2.865   8.904 -0.7623  0.6366 -3.0891
  942MPD2    H113777   2.110   3.248   8.856  0.4429 -1.4300 -0.3512
  942MPD2    H213778   1.732   3.223   9.042 -1.5787 -1.8112  0.7427
  942MPD2    H313779   1.910   3.350   8.969 -0.9969  0.6478  0.2694
  942MPD2     N13780   2.159   2.998   8.831  0.3325  0.9647 -0.1546
  942MPD2    H513781   2.235   3.061   8.804 -0.2534  1.5728 -0.3939
  942MPD2    N113782   1.720   2.938   9.023 -0.2366  0.5254  0.5076
  942MPD2    H713783   1.750   2.843   9.003  0.0539  0.4948  1.0807
  943MPD2     C13784   1.841   1.374   9.783  0.3650  0.5979 -0.3337
  943MPD2    C113785   1.854   1.245   9.753 -0.6948  0.0298 -0.2864
  943MPD2    C213786   1.982   1.196   9.752  0.3497  0.1696  0.0111
  943MPD2    C313787   2.088   1.271   9.799 -0.0354  0.4743 -0.6632
  943MPD2    C413788   2.073   1.401   9.839  0.0941 -0.1490 -0.6402
  943MPD2    C513789   1.950   1.450   9.819  0.8958  0.1745 -0.1945
  943MPD2     H13790   2.004   1.097   9.713  2.3179  0.2178  0.9721
  943MPD2    H113791   2.162   1.453   9.871  2.0657 -3.4846 -0.8261
  943MPD2    H213792   1.745   1.421   9.769  0.1090  1.0122  2.6558
  943MPD2    H313793   1.923   1.553   9.840  0.8924  0.2124 -0.3884
  943MPD2     N13794   2.218   1.208   9.777 -0.3622  0.0100  0.8786
  943MPD2    H513795   2.220   1.109   9.754 -0.4536  0.2903 -0.3161
  943MPD2    N113796   1.740   1.188   9.696  0.1815  0.3248  0.0265
  943MPD2    H713797   1.660   1.244   9.669  0.4775  1.2019  0.9656
  944MPD2     C13798   1.324   1.184  11.093  0.3904 -0.2122 -0.2333
  944MPD2    C113799   1.443   1.254  11.110 -0.1203  0.1277  0.1468
  944MPD2    C213800   1.470   1.338  11.212 -0.0588 -0.3042  0.5254
  944MPD2    C313801   1.371   1.359  11.305  0.4938 -0.0424  0.0809
  944MPD2    C413802   1.252   1.293  11.298  0.8505 -0.3877 -0.0822
  944MPD2    C513803   1.231   1.209  11.191 -0.3901  0.0827  0.1267
  944MPD2     H13804   1.562   1.391  11.233  0.1060  0.9461 -3.2307
  944MPD2    H113805   1.164   1.310  11.357  1.8906  0.2413  1.2789
  944MPD2    H213806   1.308   1.114  11.012 -1.5617 -0.5554  0.4534
  944MPD2    H313807   1.137   1.157  11.177 -0.3665 -0.5684  2.2972
  944MPD2     N13808   1.406   1.438  11.423  0.2988 -0.4569  0.2386
  944MPD2    H513809   1.500   1.473  11.433 -0.8034  1.6479  3.1677
  944MPD2    N113810   1.548   1.208  11.028 -0.5267 -0.1419  1.0658
  944MPD2    H713811   1.530   1.121  10.979 -0.3597  0.0622  0.6383
    1TCq1    O113812   3.898   1.959  15.344 -0.1221  0.1554 -0.0419
    1TCq1    C113813   4.010   1.976  15.423  0.0570  0.5155  0.1643
    1TCq1    O213814   4.011   1.944  15.541  0.0808 -0.0635 -0.1787
    1TCq1    C213815   4.112   2.017  15.328 -0.2748 -0.3965  0.0026
    1TCq1    C313816   4.129   1.939  15.216 -0.0873  0.1192 -0.0489
    1TCq1    C413817   4.234   1.969  15.132  0.2274  0.3598  0.5416
    1TCq1    C513818   4.310   2.079  15.155 -0.3566 -0.1628 -0.0033
    1TCq1    C613819   4.277   2.166  15.259  0.3626 -0.1491  0.1027
    1TCq1    C713820   4.181   2.138  15.347  0.3558 -0.5850 -0.1787
    1TCq1    C813821   4.330   2.301  15.261  0.0754  0.0605 -0.1967
    1TCq1    O413822   4.275   2.382  15.333 -0.2391 -0.0923 -0.0119
    1TCq1    C913823   4.268   1.881  15.021  0.2279  0.6919  1.0163
    1TCq1    O513824   4.177   1.798  14.992  0.0289  0.2843 -0.2589
    1TCq1    O613825   4.380   1.889  14.966  0.4254 -0.2422 -0.3706
    1TCq1    H113826   3.907   2.002  15.256  0.7111  0.0868  0.0082
    1TCq1    H213827   4.092   1.837  15.208 -0.2783  0.2785 -1.1669
    1TCq1    H313828   4.394   2.095  15.087 -0.8069  0.9313 -0.3112
    1TCq1    H413829   4.190   2.184  15.445  0.2244 -0.7931 -0.0681
    2MPD2     C13830   4.575   2.680  15.046 -0.1437 -0.1741  0.7207
    2MPD2    C113831   4.565   2.580  14.953 -0.3459  0.7487 -0.3374
    2MPD2    C213832   4.512   2.461  14.992 -0.4557 -0.4961 -0.2245
    2MPD2    C313833   4.468   2.444  15.124 -0.2916 -0.3448  0.5481
    2MPD2    C413834   4.473   2.548  15.217  0.0212  0.4511  0.0063
    2MPD2    C513835   4.524   2.666  15.173  0.6297 -0.1868  0.0361
    2MPD2     H13836   4.495   2.381  14.922 -0.2343 -0.5202 -0.2497
    2MPD2    H113837   4.449   2.536  15.321 -0.5877 -1.9156 -0.4104
    2MPD2    H213838   4.625   2.771  15.013 -3.4608  1.3105 -0.1741
    2MPD2    H313839   4.536   2.742  15.250 -2.3114  0.2041  0.0919
    2MPD2     N13840   4.409   2.318  15.151 -0.0469 -0.2897  0.0684
    2MPD2    H513841   4.433   2.249  15.080 -3.1924 -0.4048 -0.8761
    2MPD2    N113842   4.631   2.596  14.833 -0.3439 -0.1598 -0.6169
    2MPD2    H713843   4.668   2.686  14.803  0.3772 -0.1441  0.3536
    3TMC2    C113844   4.717   2.561  14.619  0.0338 -0.3797 -0.3031
    3TMC2    C213845   0.091   2.653  14.640  0.0233  0.5384  1.1702
    3TMC2    C313846   0.173   2.681  14.529  0.4263  0.4578 -0.8463
    3TMC2    C413847   4.687   2.509  14.501 -0.0060  0.5738  0.0687
    3TMC2    C513848   0.022   2.563  14.393  0.6574 -0.4467  0.3268
    3TMC2    C613849   0.123   2.651  14.401 -0.8778 -0.3353 -0.0257
    3TMC2     C13850   4.645   2.499  14.735  0.4622 -0.0718 -0.0769
    3TMC2     O13851   4.628   2.380  14.734  0.3354 -0.4314  0.7382
    3TMC2     H13852   0.122   2.684  14.739 -0.2916  2.1551  0.7570
    3TMC2    H113853   4.606   2.438  14.490  0.0147  0.9282 -2.3689
    3TMC2    H213854   0.177   2.673  14.310 -1.9570  0.2492 -0.5202
    3TMC2    C713855   4.693   2.531  14.262  0.1938 -0.4698 -0.0528
    3TMC2    C813856   0.297   2.744  14.535  0.0223 -0.0753  0.2198
    3TMC2    O113857   4.623   2.427  14.266  0.0495  0.1913 -0.1586
    3TMC2    O213858   0.348   2.787  14.430  0.2108  0.1870 -0.2103
    3TMC2    O513859   0.362   2.717  14.647  0.1121 -0.4161 -0.7949
    3TMC2    H513860   0.324   2.657  14.715  0.2603  1.5538  1.0274
    4MPD2     C13861   4.323   3.385  12.993 -0.3573  0.1145  0.2335
    4MPD2    C113862   4.399   3.274  12.949  0.3696 -0.2275  0.7518
    4MPD2    C213863   4.494   3.215  13.036 -0.2255  0.2514  0.5321
    4MPD2    C313864   4.519   3.270  13.160  0.4563 -0.2200  1.4608
    4MPD2    C413865   4.450   3.387  13.190  0.0543  0.7889  0.4020
    4MPD2    C513866   4.347   3.438  13.114  0.4285  0.0293  0.1497
    4MPD2     H13867   4.556   3.133  13.001 -1.3494 -1.2055  1.9825
    4MPD2    H113868   4.473   3.432  13.285 -2.4837  1.3608  0.7671
    4MPD2    H213869   4.244   3.418  12.927  0.0605  0.8788  0.1094
    4MPD2    H313870   4.292   3.529  13.134 -0.9108 -0.2881 -2.1785
    4MPD2     N13871   4.605   3.200  13.253  0.2950  0.1138 -0.5366
    4MPD2    H513872   4.624   3.101  13.242 -1.2891 -0.1032 -1.3610
    4MPD2    N113873   4.371   3.223  12.817  0.1082 -0.1431  0.0947
    4MPD2    H713874   4.294   3.266  12.768  0.2050  0.6504  0.6357
    5TCq2    C113875   4.667   3.258  13.354  0.2389  0.4504 -0.6248
    5TCq2    O213876   4.685   3.375  13.379  0.3280 -0.0789  0.1803
    5TCq2    C213877   0.030   3.162  13.415  1.1098 -0.5287  0.3443
    5TCq2    C313878   0.132   3.216  13.493 -0.3034  0.1685  0.5512
    5TCq2    C413879   0.172   3.149  13.607 -0.3345 -0.0718 -0.0602
    5TCq2    C513880   0.125   3.032  13.633  0.3435 -0.0179 -1.0750
    5TCq2    C613881   0.034   2.972  13.546  0.0397  0.5200 -0.2347
    5TCq2    C713882   4.697   3.042  13.447 -0.6933 -0.1554  0.3584
    5TCq2    C813883   4.683   2.860  13.603 -0.3924 -0.7725 -0.5299
    5TCq2    O413884   4.616   2.799  13.516  0.4256  0.2258  0.4318
    5TCq2    C913885   0.268   3.210  13.697  0.5291  0.4401  0.1682
    5TCq2    O513886   0.322   3.123  13.768  0.3331  0.8758  0.5871
    5TCq2    O613887   0.314   3.326  13.667  0.5796  0.4523 -0.3548
    5TCq2    H213888   0.160   3.319  13.476  3.6954 -1.0587 -0.2402
    5TCq2    H313889   0.159   2.973  13.717 -0.3215 -0.8346 -1.3847
    5TCq2    H413890   4.600   3.007  13.414 -0.8566  1.0004 -0.3880
    6MPD1     C13891   3.275   3.270  11.354  0.5822 -0.2424  0.2715
    6MPD1    C113892   3.226   3.336  11.463 -0.2868  0.7769  0.3798
    6MPD1    C213893   3.307   3.363  11.570  0.6026 -0.0773  0.7728
    6MPD1    C313894   3.442   3.343  11.559 -0.1233  0.6340 -0.0851
    6MPD1    C413895   3.493   3.286  11.446 -0.4283  0.4157  0.0402
    6MPD1    C513896   3.414   3.243  11.335 -0.1249 -0.2147 -0.1435
    6MPD1     H13897   3.257   3.396  11.660 -0.8712 -2.2927  0.7615
    6MPD1    H113898   3.596   3.259  11.427  0.7092  4.3090  0.6127
    6MPD1    H213899   3.213   3.233  11.273  0.4101  2.0536 -0.6451
    6MPD1    H313900   3.459   3.179  11.260 -0.2500 -0.2289 -0.2057
    6MPD1     N13901   3.519   3.351  11.670 -0.1954  0.0454  0.3326
    6MPD1    H513902   3.607   3.303  11.658  0.1162  1.1209 -1.7498
    6MPD1    N113903   3.085   3.348  11.479  0.3752  0.0011 -0.3867
    6MPD1    H613904   3.053   3.423  11.539 -1.3703 -0.6782 -0.4761
    6MPD1    H713905   3.036   3.354  11.390 -1.8749 -2.4131  0.7037
    7MPD2     C13906   3.664   3.318  12.524 -0.0473  0.5908  0.6316
    7MPD2    C113907   3.737   3.274  12.421  0.9286  0.5265 -0.4925
    7MPD2    C213908   3.829   3.172  12.446  0.4252 -0.5312 -0.0375
    7MPD2    C313909   3.861   3.131  12.577  0.2981 -0.4270 -0.8509
    7MPD2    C413910   3.773   3.174  12.674  0.1979 -0.3662  0.5974
    7MPD2    C513911   3.684   3.270  12.649 -0.0295  0.7225 -0.5813
    7MPD2     H13912   3.897   3.146  12.365  0.5358  0.6930 -0.3417
    7MPD2    H113913   3.788   3.131  12.773  0.2646  0.6750  1.0442
    7MPD2    H213914   3.579   3.382  12.506  0.5936  0.8318 -1.5884
    7MPD2    H313915   3.606   3.300  12.718 -0.3970  1.1938 -1.1985
    7MPD2     N13916   3.974   3.051  12.610  0.5407 -0.1495  0.2763
    7MPD2    H513917   4.003   3.049  12.707  1.0809 -1.5286  0.0933
    7MPD2    N113918   3.725   3.323  12.292  0.0411  0.5929  0.0454
    7MPD2    H713919   3.787   3.281  12.224  0.9013  1.9581  0.0007
    8TMC3    C113920   4.197   2.950  12.572 -0.3856 -0.2124 -1.4495
    8TMC3    C213921   4.252   3.052  12.649  0.3640  0.0771 -0.1526
    8TMC3    C313922   4.385   3.085  12.631 -0.1255  0.8048  0.2137
    8TMC3    C413923   4.275   2.897  12.471  0.1775  0.6007 -0.7312
    8TMC3    C513924   4.408   2.934  12.452 -0.2551  0.5049  0.4060
    8TMC3    C613925   4.459   3.032  12.538 -0.2240  0.0326  0.3353
    8TMC3     C13926   4.063   2.990  12.522  0.0853 -0.0067  0.1649
    8TMC3     O13927   4.038   2.960  12.404 -0.5976  0.1081 -0.3029
    8TMC3     H13928   4.192   3.105  12.722  2.7374  1.3399  0.8597
    8TMC3    H113929   4.231   2.821  12.406 -0.0414 -0.4184  0.6164
    8TMC3    H213930   4.561   3.068  12.530  0.0525 -0.2492  2.7215
    8TMC3    C713931   4.431   2.980  12.314  0.1636 -0.4028 -0.1171
    8TMC3    C813932   4.441   3.119  12.758 -0.6313 -0.4982 -0.2434
    8TMC3    O113933   4.546   2.997  12.281  0.6767 -0.0070 -0.1793
    8TMC3    O213934   4.553   3.079  12.788 -1.0374 -0.1346  0.6952
    9TMC3    C113935   3.601   3.426  11.881 -0.7235 -0.1822  0.2624
    9TMC3    C213936   3.733   3.411  11.844 -0.2259 -0.1275  0.9892
    9TMC3    C313937   3.833   3.420  11.937 -0.1154  0.1067 -0.3818
    9TMC3    C413938   3.570   3.440  12.013 -0.1072  0.1323 -0.2594
    9TMC3    C513939   3.674   3.460  12.106 -0.0874  0.3535 -0.4192
    9TMC3    C613940   3.800   3.443  12.066  0.1106  0.1057 -0.6191
    9TMC3     C13941   3.490   3.418  11.791  0.5555  0.2150  0.7944
    9TMC3     O13942   3.391   3.488  11.823  0.2021  0.3121  0.1305
    9TMC3     H13943   3.757   3.407  11.738 -1.6327  0.0806  0.6538
    9TMC3    H113944   3.468   3.431  12.051  0.0314  2.4819  0.6880
    9TMC3    H213945   3.881   3.463  12.135 -0.3410  2.6572 -0.8141
    9TMC3    C713946   3.634   3.410  12.241 -0.1649  1.0365 -0.2156
    9TMC3    C813947   3.971   3.384  11.912 -0.0851  0.6061 -0.1603
    9TMC3    O113948   3.528   3.441  12.291 -0.4064 -0.1940  0.2254
    9TMC3    O213949   4.016   3.386  11.798  0.6453  0.5583  0.6390
   10MPD2     C13950   4.391   3.162  12.074 -0.4745  0.5302  0.1353
   10MPD2    C113951   4.297   3.126  12.164 -0.4940 -0.4163 -0.6098
   10MPD2    C213952   4.174   3.174  12.137  0.4464  0.4321 -0.0141
   10MPD2    C313953   4.149   3.262  12.038 -0.9989  0.6566  0.4226
   10MPD2    C413954   4.242   3.302  11.938  0.1688  0.2251  0.4850
   10MPD2    C513955   4.367   3.247  11.964 -0.3347 -0.1689  0.3426
   10MPD2     H13956   4.093   3.159  12.208  0.4159 -0.4068 -0.2191
   10MPD2    H113957   4.222   3.370  11.857  0.0592 -1.6932 -1.1112
   10MPD2    H213958   4.493   3.128  12.085 -0.6337 -0.8373 -2.4445
   10MPD2    H313959   4.445   3.289  11.901  1.2648  0.1583  2.5225
   10MPD2     N13960   4.018   3.303  12.015 -0.1197  0.7077 -0.1760
   10MPD2    H513961   3.951   3.264  12.081 -1.5795  1.5273 -1.1694
   10MPD2    N113962   4.318   3.050  12.281 -0.0596  0.1520 -0.4160
   10MPD2    H713963   4.236   3.022  12.333  0.1867  0.4395  0.1206
   11MPD2     C13964   4.615   2.504  13.971  0.9583  0.4363 -0.3230
   11MPD2    C113965   4.672   2.616  14.027  0.6312  0.3847 -0.2016
   11MPD2    C213966   4.693   2.725  13.949 -0.7246  0.0079  0.6071
   11MPD2    C313967   4.661   2.728  13.813 -0.6770 -0.9598  0.1727
   11MPD2    C413968   4.609   2.611  13.755  0.7636 -0.6957  0.1511
   11MPD2    C513969   4.582   2.506  13.843 -0.4195  0.2537  0.1790
   11MPD2     H13970   4.723   2.811  14.007 -1.4960  1.5486 -1.2715
   11MPD2    H113971   4.589   2.608  13.649  2.6848  2.0790 -0.2921
   11MPD2    H213972   4.594   2.414  14.029  1.3045  0.7771  0.3341
   11MPD2    H313973   4.528   2.416  13.816 -0.1885  0.2616 -0.3130
   11MPD2     N13974   4.695   2.841  13.736  0.4500 -0.0996  0.0766
   11MPD2    H513975   4.722   2.922  13.791 -3.6241  0.9194  0.6310
   11MPD2    N113976   4.724   2.617  14.159 -0.0634 -0.3632  0.1269
   11MPD2    H713977   0.045   2.703  14.186  1.3574 -0.9189 -0.4677
    1MPD1     C13978   1.521   3.923  16.881 -0.0453 -0.1992 -0.8141
    1MPD1    C113979   1.481   3.937  16.750 -0.2577 -0.2781 -0.0004
    1MPD1    C213980   1.572   3.992  16.660 -0.4957  0.5190 -0.5787
    1MPD1    C313981   1.705   4.001  16.698  0.6293  0.2269  0.2298
    1MPD1    C413982   1.739   3.978  16.829 -0.4052 -0.1816  0.4792
    1MPD1    C513983   1.646   3.937  16.921  0.1447 -0.4419  0.2761
    1MPD1     H13984   1.546   4.019  16.558  2.4318  0.5454 -1.3173
    1MPD1    H113985   1.841   3.992  16.864 -0.1514 -1.1583  0.1355
    1MPD1    H213986   1.454   3.901  16.963 -0.2165  1.4127 -0.5222
    1MPD1    H313987   1.670   3.914  17.024  1.9393 -1.6541 -0.4200
    1MPD1     N13988   1.806   4.041  16.607  0.4946 -0.0605  0.0705
    1MPD1    H513989   1.902   4.022  16.636  0.5662 -1.5253 -1.1059
    1MPD1    N113990   1.345   3.937  16.717  0.2005 -0.1199  0.5932
    1MPD1    H613991   1.287   3.875  16.772  0.0536  1.2347  1.9679
    1MPD1    H713992   1.329   3.913  16.619 -2.2220  1.7627  0.5300
    2MPD1     C13993   2.567   4.629  16.831  0.9117 -0.7999 -0.0074
    2MPD1    C113994   2.557   4.651  16.696 -0.5029  0.9163  0.6798
    2MPD1    C213995   2.458   4.585  16.621  0.4156  0.3846 -0.2386
    2MPD1    C313996   2.351   4.524  16.684 -0.0642 -0.5373  0.3834
    2MPD1    C413997   2.349   4.527  16.820 -0.0920  0.3671 -0.5588
    2MPD1    C513998   2.455   4.568  16.888  0.4446  0.4813  0.6108
    2MPD1     H13999   2.470   4.574  16.514  1.0521  0.6166 -0.1871
    2MPD1    H114000   2.262   4.493  16.876 -0.1759  2.6525  0.6928
    2MPD1    H214001   2.654   4.655  16.891  0.1027 -1.1780  1.3124
    2MPD1    H314002   2.441   4.551  16.994 -2.2994  3.0969  0.6558
    2MPD1     N14003   2.254   4.469  16.604 -0.6790  0.6485 -0.4228
    2MPD1    H514004   2.275   4.481  16.505  0.0459 -1.1621 -0.5079
    2MPD1    N114005   2.671   4.689  16.630  0.2199  0.0481 -0.2719
    2MPD1    H614006   2.720   0.034  16.686 -1.2688 -0.2526  1.4068
    2MPD1    H714007   2.660   0.004  16.536 -0.4916 -0.7051 -0.5037
    3TMC3    C114008   2.047   4.357  16.539 -0.8280 -0.1643  0.4788
    3TMC3    C214009   2.080   4.382  16.411 -0.3359  0.2782 -0.0226
    3TMC3    C314010   2.009   4.312  16.315  0.6397  0.7434  0.6359
    3TMC3    C414011   1.961   4.248  16.564 -0.5141 -0.6381  0.4701
    3TMC3    C514012   1.911   4.183  16.460 -0.2079 -0.4747  0.3057
    3TMC3    C614013   1.934   4.207  16.335  0.7369  0.1077 -0.2730
    3TMC3     C14014   2.134   4.406  16.644  0.1421  0.2884 -0.4434
    3TMC3     O14015   2.084   4.393  16.755  0.3145  0.0501  0.2053
    3TMC3     H14016   2.129   4.477  16.393 -1.2068  0.5394 -1.0102
    3TMC3    H114017   1.934   4.235  16.669 -1.8622 -1.8773 -0.0361
    3TMC3    H214018   1.878   4.152  16.260 -0.5126 -0.4134  1.0450
    3TMC3    C714019   1.796   4.104  16.485  0.1319 -0.3048 -0.8853
    3TMC3    C814020   2.022   4.354  16.181 -0.9871  0.4050 -0.0742
    3TMC3    O114021   1.700   4.115  16.412 -0.3912  0.3267  0.0880
    3TMC3    O214022   2.120   4.433  16.168  0.3320 -0.1474 -0.1516
    4MPD1     C14023   1.925   4.391  15.692  0.0985 -1.2677 -0.2152
    4MPD1    C114024   1.807   4.356  15.754 -0.1087  0.6773 -0.2076
    4MPD1    C214025   1.811   4.326  15.886  0.0634  0.5362  0.4690
    4MPD1    C314026   1.930   4.335  15.955  0.2526 -0.3218  0.5987
    4MPD1    C414027   2.044   4.388  15.894 -0.0292  0.2053 -0.4043
    4MPD1    C514028   2.035   4.416  15.766  0.9059  0.0642  1.0952
    4MPD1     H14029   1.720   4.291  15.935 -0.5801  1.6811  0.0746
    4MPD1    H114030   2.137   4.403  15.946  0.0272 -2.0519  0.1610
    4MPD1    H214031   1.925   4.416  15.586  0.0709 -0.1769  0.0430
    4MPD1    H314032   2.122   4.457  15.717 -1.2239  2.6150 -0.6096
    4MPD1     N14033   1.930   4.301  16.095  0.8442  0.4628  0.6035
    4MPD1    H514034   1.847   4.253  16.127  0.8428  0.7966  1.1066
    4MPD1    N114035   1.690   4.336  15.671  0.2219  0.0961  0.0420
    4MPD1    H614036   1.699   4.406  15.598 -0.7443 -2.7593 -2.8077
    4MPD1    H714037   1.604   4.352  15.723  0.0834  0.5832 -0.3384
    1TCq1    O114038   3.704   4.181  10.944  0.3467  0.1218  0.0128
    1TCq1    C114039   3.656   4.104  11.041  0.3715 -0.5524  0.2941
    1TCq1    O214040   3.589   4.003  11.031  0.7958 -0.2113 -0.4130
    1TCq1    C214041   3.733   4.132  11.159 -0.1463 -0.2472 -0.0055
    1TCq1    C314042   3.767   4.261  11.186  0.4915  0.6663 -0.0309
    1TCq1    C414043   3.827   4.293  11.311  0.5179 -0.8480  0.4349
    1TCq1    C514044   3.855   4.195  11.400 -0.1993  0.1092 -0.0317
    1TCq1    C614045   3.827   4.061  11.366  0.3048 -0.0974  0.4344
    1TCq1    C714046   3.762   4.033  11.251  0.5617 -0.4482  0.0831
    1TCq1    C814047   3.881   3.953  11.454 -0.8672 -0.7388 -0.6456
    1TCq1    O414048   3.840   3.841  11.420  0.2790 -0.3142 -0.2006
    1TCq1    C914049   3.819   4.437  11.354 -0.0009  0.1288 -0.1122
    1TCq1    O514050   3.848   4.470  11.466  0.2141  0.0670  0.3882
    1TCq1    O614051   3.775   4.513  11.265 -0.6212 -0.3636 -0.2989
    1TCq1    H114052   3.763   4.255  10.972 -0.6290  1.8288 -2.4524
    1TCq1    H214053   3.721   4.346  11.136 -0.7823 -0.7264 -1.2015
    1TCq1    H314054   3.916   4.212  11.488  0.7911  0.5771 -0.8272
    1TCq1    H414055   3.729   3.930  11.241  0.3942 -0.4615  0.7470
    2MPD1     C14056   4.239   3.759  11.758 -0.0074 -0.3644  0.5272
    2MPD1    C114057   4.242   3.897  11.781 -0.4371 -0.0155  0.4388
    2MPD1    C214058   4.148   3.976  11.712  0.2814  0.1784  0.7905
    2MPD1    C314059   4.062   3.918  11.625 -0.1171  0.2807 -0.0938
    2MPD1    C414060   4.062   3.780  11.604 -0.7238 -0.4312  0.6070
    2MPD1    C514061   4.154   3.702  11.671 -0.1762 -0.3538  0.5412
    2MPD1     H14062   4.152   4.084  11.718  1.5653  0.1950 -0.2637
    2MPD1    H114063   4.004   3.726  11.530 -2.6285  0.4750  1.4696
    2MPD1    H214064   4.308   3.696  11.813  0.7453 -0.2446 -0.2756
    2MPD1    H314065   4.166   3.597  11.644  2.2591  0.6773 -2.3976
    2MPD1     N14066   3.973   3.993  11.548  0.8284 -1.0406 -0.2611
    2MPD1    H514067   3.983   4.094  11.557 -0.6637 -1.0870  1.7648
    2MPD1    N114068   4.315   3.954  11.889  0.3102  0.3141  0.6638
    2MPD1    H614069   4.396   3.898  11.915 -1.1507 -1.6217  1.0785
    2MPD1    H714070   4.338   4.052  11.872 -2.5283  0.9289  0.4648
    1TCq1    O114071   4.346   1.937   0.327  0.1934 -0.0651  0.2262
    1TCq1    C114072   4.379   2.045   0.402  0.0052  0.1176 -0.4432
    1TCq1    O214073   4.480   2.118   0.413 -0.1354 -0.3923  0.2973
    1TCq1    C214074   4.270   2.068   0.490  0.3427 -0.3490 -0.4558
    1TCq1    C314075   4.167   1.981   0.507  0.0989 -0.5247 -1.2304
    1TCq1    C414076   4.044   2.035   0.546 -0.2012 -0.3930  0.3174
    1TCq1    C514077   4.033   2.167   0.591 -0.0517 -0.2629 -0.3268
    1TCq1    C614078   4.146   2.243   0.571 -0.1254 -0.0256 -0.4138
    1TCq1    C714079   4.255   2.200   0.510 -0.1529 -0.0742 -0.5604
    1TCq1    C814080   4.153   2.363   0.654  0.6698  0.1731  0.3273
    1TCq1    O414081   4.052   2.406   0.707  0.2128  0.0943  0.1199
    1TCq1    C914082   3.936   1.940   0.571 -0.3948  0.0461  0.5131
    1TCq1    O514083   3.940   1.828   0.510  0.1362 -0.3051 -0.3204
    1TCq1    O614084   3.831   1.982   0.615  0.1952  0.2157  0.1898
    1TCq1    H114085   4.254   1.904   0.336 -0.1481 -0.1041 -3.1278
    1TCq1    H214086   4.183   1.874   0.501  2.2388 -0.1149 -2.9880
    1TCq1    H314087   3.941   2.195   0.642  0.1906  2.0245 -1.1129
    1TCq1    H414088   4.328   2.273   0.476 -0.7659  0.6009 -0.4090
    2MPD1     C14089   4.405   2.742   0.913  0.0700  0.6266 -0.6096
    2MPD1    C114090   4.494   2.670   0.831  0.1084  0.4123  0.5751
    2MPD1    C214091   4.446   2.588   0.733 -0.2014 -0.6125 -0.0144
    2MPD1    C314092   4.318   2.540   0.739  0.4732  0.3522 -0.3186
    2MPD1    C414093   4.231   2.604   0.829 -0.0545 -0.2513  0.5297
    2MPD1    C514094   4.267   2.712   0.907  0.9597 -0.8508 -0.2277
    2MPD1     H14095   4.518   2.546   0.663 -0.1177 -0.0972 -0.2371
    2MPD1    H114096   4.126   2.583   0.845 -0.2506  1.1899  1.2274
    2MPD1    H214097   4.431   2.823   0.980  2.6013  0.1696 -1.0474
    2MPD1    H314098   4.197   2.779   0.956  1.4808  0.8709 -1.8244
    2MPD1     N14099   4.279   2.427   0.656  0.1243  0.1854 -0.5443
    2MPD1    H514100   4.353   2.396   0.595  1.1664 -1.0752  1.3542
    2MPD1    N114101   4.626   2.724   0.821  0.8460  0.0869 -0.6748
    2MPD1    H614102   4.654   2.727   0.919 -1.4422  0.0433 -0.0331
    2MPD1    H714103   4.689   2.659   0.773  1.2522 -0.0686  0.0674
    1MPD1     C14104   0.611   0.004  10.111  0.6336  0.8180 -0.1339
    1MPD1    C114105   0.584   0.067  10.231 -1.3845  0.3412  0.5424
    1MPD1    C214106   0.695   0.089  10.312  0.7350 -0.5699 -0.2074
    1MPD1    C314107   0.819   0.029  10.288 -0.0790  0.0571  0.0868
    1MPD1    C414108   0.822   4.662  10.191  0.1841  0.7477  0.0451
    1MPD1    C514109   0.721   4.650  10.099 -0.0221 -0.2929  0.2759
    1MPD1     H14110   0.684   0.154  10.398  0.3155 -1.1769  0.2002
    1MPD1    H114111   0.917   4.622  10.156 -0.9892 -2.0321  0.0833
    1MPD1    H214112   0.533   4.705  10.039  0.9954 -0.0109 -0.2665
    1MPD1    H314113   0.727   4.567  10.031 -1.6923 -2.9100  3.2880
    1MPD1     N14114   0.920   0.046  10.384 -0.2792 -0.2867 -0.3591
    1MPD1    H514115   0.911   0.129  10.442  1.0254 -0.0792 -0.4459
    1MPD1    N114116   0.465   0.136  10.258 -0.4422  0.0944 -0.5128
    1MPD1    H614117   0.389   0.076  10.229  0.6755 -1.8980  0.7053
    1MPD1    H714118   0.443   0.148  10.356 -0.3982 -0.6685 -0.4126
    2MPD1     C14119   0.083   3.131  10.910 -1.0130 -0.1154 -0.6867
    2MPD1    C114120   0.106   3.032  11.003 -0.8820 -0.6623  0.0103
    2MPD1    C214121   0.143   3.081  11.133 -0.6601  0.1952 -0.2336
    2MPD1    C314122   0.141   3.212  11.158  0.2271 -0.3069  0.1924
    2MPD1    C414123   0.119   3.305  11.059 -0.1749 -0.2275  0.5586
    2MPD1    C514124   0.096   3.264  10.935  0.5078  0.6185 -0.0683
    2MPD1     H14125   0.169   3.017  11.217  1.5392  0.6343 -0.5917
    2MPD1    H114126   0.113   3.413  11.069 -0.5734 -0.1643 -0.3660
    2MPD1    H214127   0.065   3.117  10.804  2.2680 -2.7607 -0.9359
    2MPD1    H314128   0.072   3.339  10.860 -2.6614  0.8090  1.1251
    2MPD1     N14129   0.175   3.263  11.290 -0.4314 -0.4015  1.2503
    2MPD1    H514130   0.177   3.364  11.303 -0.2035 -0.3812  1.0571
    2MPD1    N114131   0.132   2.899  10.964  0.1137 -0.2745 -0.3589
    2MPD1    H614132   0.070   2.867  10.891 -0.4910 -0.7254  0.3505
    2MPD1    H714133   0.120   2.824  11.031  1.3917 -0.4892 -0.3692
    3MPD1     C14134   0.103   3.329  12.388  0.3673  0.3755 -0.0009
    3MPD1    C114135   0.207   3.411  12.332  0.2808  0.0451 -0.2592
    3MPD1    C214136   0.249   3.403  12.205 -0.1938  0.0705  0.0810
    3MPD1    C314137   0.194   3.308  12.124 -0.3603  0.1275  0.3563
    3MPD1    C414138   0.093   3.224  12.174 -0.2286 -0.2077 -0.1603
    3MPD1    C514139   0.060   3.228  12.307  0.3353  0.3416 -0.3490
    3MPD1     H14140   0.314   3.475  12.156  0.7194  1.1188  2.8345
    3MPD1    H114141   0.055   3.146  12.108 -0.1789 -1.9615  1.8768
    3MPD1    H214142   0.064   3.343  12.488  0.8128  0.7405  0.1235
    3MPD1    H314143   4.698   3.176  12.349  1.6470 -1.0514  0.5983
    3MPD1     N14144   0.234   3.319  11.985 -0.1523 -0.2444 -0.5646
    3MPD1    H514145   0.308   3.387  11.966  2.1722 -2.1071  1.7829
    3MPD1    N114146   0.244   3.530  12.398 -0.0980 -0.1420  0.7410
    3MPD1    H614147   0.261   3.519  12.498 -2.0669 -1.0658  0.9781
    3MPD1    H714148   0.339   3.557  12.373 -0.0684 -1.9298 -1.0673
    4MPD2     C14149   1.437   4.283  10.808 -0.4101  0.1973 -0.1085
    4MPD2    C114150   1.339   4.361  10.859  0.2322  0.0693  0.0021
    4MPD2    C214151   1.266   4.322  10.968  0.5863  0.5449  0.2709
    4MPD2    C314152   1.300   4.205  11.033  0.0056 -0.6762 -0.5715
    4MPD2    C414153   1.402   4.122  10.982 -0.3057 -0.0116 -0.0785
    4MPD2    C514154   1.470   4.157  10.866  0.3939  0.6004  0.3080
    4MPD2     H14155   1.181   4.382  11.000  0.1320  0.5382 -0.9166
    4MPD2    H114156   1.435   4.041  11.046 -0.5441  2.2213  2.8647
    4MPD2    H214157   1.496   4.319  10.724  0.0388  0.5220  0.3529
    4MPD2    H314158   1.552   4.093  10.836 -0.7525 -0.3915 -0.6867
    4MPD2     N14159   1.221   4.161  11.143  0.4783  0.0104 -0.9721
    4MPD2    H514160   1.149   4.224  11.174 -2.3745 -3.3946 -0.7054
    4MPD2    N114161   1.295   4.481  10.796  0.4009 -0.7497 -0.1591
    4MPD2    H714162   1.208   4.514  10.837  0.5618  1.4794 -1.5779
    5TMC3    C114163   1.267   4.658  10.652 -0.0133  0.2966  0.9686
    5TMC3    C214164   1.213   4.666  10.531 -0.3687  1.3761 -0.0448
    5TMC3    C314165   1.092   0.004  10.519 -0.3438 -0.2731 -0.1679
    5TMC3    C414166   1.200   4.707  10.762 -0.2793 -1.1670  0.5348
    5TMC3    C514167   1.079   0.043  10.753 -0.0772  0.1095 -0.1529
    5TMC3    C614168   1.018   0.047  10.631  0.3256 -0.4512 -0.0613
    5TMC3     C14169   1.337   4.537  10.677  0.3502 -0.6329 -0.1685
    5TMC3     O14170   1.411   4.503  10.592  0.4453  0.8078 -0.4442
    5TMC3     H14171   1.266   4.629  10.443 -1.0975 -1.3274  0.6657
    5TMC3    H114172   1.237   4.706  10.864 -0.8331 -0.5403  0.7399
    5TMC3    H214173   0.916   0.083  10.626  1.0110  1.6247  0.9892
    5TMC3    C714174   1.001   0.076  10.866 -0.2437  0.4634 -0.1766
    5TMC3    C814175   1.037   4.706  10.393 -0.3251 -0.0365 -0.6113
    5TMC3    O114176   0.958   0.190  10.884 -0.1930 -0.4169  0.2434
    5TMC3    O214177   1.091   4.630  10.315 -0.4524 -0.2724  0.0374
    6TMC3    C114178   0.212   3.266  11.524 -0.9368 -0.1120  0.5798
    6TMC3    C214179   0.182   3.222  11.650  0.0109 -0.1637  0.1249
    6TMC3    C314180   0.233   3.284  11.750  0.2896 -0.2362  0.1100
    6TMC3    C414181   0.308   3.359  11.502 -0.1882  0.3438  0.7465
    6TMC3    C514182   0.356   3.420  11.611  0.4316 -0.0652 -0.1233
    6TMC3    C614183   0.326   3.385  11.738  0.0828  0.1256 -0.2164
    6TMC3     C14184   0.179   3.188  11.406  0.3394  0.1666  0.2231
    6TMC3     O14185   0.138   3.074  11.423  0.4678 -0.1577  0.0512
    6TMC3     H14186   0.124   3.131  11.660  1.9905 -1.2924  1.3800
    6TMC3    H114187   0.348   3.396  11.408  0.1611 -0.9777  0.3723
    6TMC3    H214188   0.364   3.449  11.816  0.4319 -1.0119  0.5402
    6TMC3    C714189   0.482   3.495  11.581  0.1047  0.2080  0.1077
    6TMC3    C814190   0.189   3.248  11.879 -0.1660  0.1127  0.4849
    6TMC3    O114191   0.496   3.545  11.471  0.0646 -0.0846  0.0105
    6TMC3    O214192   0.115   3.152  11.879 -0.2322 -0.5688  0.1513
    7MPD2     C14193   0.971   4.675  11.344  0.4366 -0.1019 -0.4338
    7MPD2    C114194   0.956   4.555  11.273  0.5799 -0.9732 -0.5801
    7MPD2    C214195   0.929   4.561  11.139 -0.4000 -0.3157 -0.0201
    7MPD2    C314196   0.954   4.681  11.081  0.0148  0.4905 -0.3968
    7MPD2    C414197   0.969   0.071  11.154  0.0991 -0.4278 -0.2167
    7MPD2    C514198   0.972   0.071  11.288  0.3234 -0.1288 -0.1166
    7MPD2     H14199   0.903   4.481  11.071 -2.4967  0.0952  0.3032
    7MPD2    H114200   0.982   0.168  11.107 -0.6878  1.1194  2.7265
    7MPD2    H214201   0.992   4.674  11.450  0.6239  0.4326 -0.4671
    7MPD2    H314202   0.987   0.159  11.350 -1.9817 -0.0417  0.3105
    7MPD2     N14203   0.972   4.685  10.938 -0.2058 -0.2183  0.2263
    7MPD2    H514204   0.985   4.596  10.891  0.8667 -0.5546  1.1748
    7MPD2    N114205   0.954   4.433  11.348  0.1193  0.1454 -0.2027
    7MPD2    H714206   0.969   4.435  11.448 -0.2829  0.1687 -0.1433
    8TMC3    C114207   0.983   4.201  11.384  0.0010 -0.2174  0.2062
    8TMC3    C214208   0.887   4.105  11.382  0.0753 -0.2594  0.0277
    8TMC3    C314209   0.937   3.977  11.377 -0.3883 -0.5348  0.5708
    8TMC3    C414210   1.117   4.180  11.374  0.3276 -0.0436 -0.9233
    8TMC3    C514211   1.159   4.052  11.347 -0.4377  0.0208 -0.0027
    8TMC3    C614212   1.068   3.945  11.362 -0.1411 -0.4762  0.1569
    8TMC3     C14213   0.945   4.308  11.297 -0.3826  0.0819  0.8892
    8TMC3     O14214   0.969   4.268  11.178  0.2849 -0.2557  0.1200
    8TMC3     H14215   0.782   4.133  11.375 -0.0975 -0.6313  1.1395
    8TMC3    H114216   1.182   4.265  11.359  1.4939 -0.7322  0.1569
    8TMC3    H214217   1.096   3.844  11.334 -1.3303 -0.8383  0.2676
    8TMC3    C714218   1.236   4.047  11.220 -0.3260 -0.1614  0.5702
    8TMC3    C814219   0.852   3.890  11.442 -0.1246  0.1873 -0.1732
    8TMC3    O114220   1.278   3.934  11.186  0.0678  0.2234  0.0035
    8TMC3    O214221   0.730   3.902  11.424  0.0204 -0.2208 -0.9426
    9MPD2     C14222   0.958   3.655  11.706  0.2899 -1.6834 -1.1636
    9MPD2    C114223   0.870   3.715  11.619 -0.2619 -0.1712 -0.2938
    9MPD2    C214224   0.738   3.662  11.608 -0.3730  0.4733  0.0796
    9MPD2    C314225   0.694   3.562  11.695 -0.1160 -0.8577  0.7163
    9MPD2    C414226   0.782   3.530  11.803 -0.0918 -0.9245  0.2893
    9MPD2    C514227   0.911   3.583  11.807 -0.2150  0.3991  0.1733
    9MPD2     H14228   0.673   3.694  11.527 -1.4571 -0.1964  0.6870
    9MPD2    H114229   0.759   3.448  11.871  2.0972 -1.7791  0.0007
    9MPD2    H214230   1.065   3.666  11.689  0.1267  0.2522 -0.9576
    9MPD2    H314231   0.979   3.530  11.873  0.8710 -1.0691 -2.1212
    9MPD2     N14232   0.569   3.498  11.687 -0.5592 -0.4422 -0.2780
    9MPD2    H514233   0.543   3.432  11.760 -1.7019  0.6168  0.2636
    9MPD2    N114234   0.928   3.812  11.532 -0.7146  0.5457 -0.3665
    9MPD2    H714235   1.021   3.841  11.559 -0.0080  0.8356 -3.1068
    1MPD1     C14236   0.015   3.202  16.833  0.5175 -0.0553 -0.2365
    1MPD1    C114237   0.080   3.100  16.774  0.4229 -1.1254  0.3185
    1MPD1    C214238   0.007   2.999  16.719  0.2704  0.2856  0.3226
    1MPD1    C314239   4.604   3.029  16.687 -0.3454 -0.4514  0.1702
    1MPD1    C414240   4.542   3.142  16.727  0.1446 -0.4931 -0.3593
    1MPD1    C514241   4.610   3.239  16.795 -0.3367 -0.4221  0.1280
    1MPD1     H14242   0.049   2.910  16.674 -0.4995 -0.1775  0.5334
    1MPD1    H114243   4.439   3.164  16.699 -0.3526  2.2342  3.5751
    1MPD1    H214244   0.069   3.283  16.881 -0.4986 -0.3172  1.3183
    1MPD1    H314245   4.559   3.330  16.823  0.4709  0.4261 -1.1790
    1MPD1     N14246   4.513   2.940  16.629 -0.0951  0.4253 -0.1341
    1MPD1    H514247   4.415   2.959  16.647 -0.2115 -1.0813  0.8873
    1MPD1    N114248   0.209   3.067  16.830  1.5512  0.0747  0.0742
    1MPD1    H614249   0.264   3.012  16.765  3.0149  1.6805 -0.0753
    1MPD1    H714250   0.265   3.148  16.856  0.6241  1.1816 -1.3999
    2MPD1     C14251   4.158   3.004  15.718  0.2082  0.2469 -0.4707
    2MPD1    C114252   4.081   3.052  15.821  0.5301  0.8186 -0.3026
    2MPD1    C214253   4.111   3.006  15.951 -0.7367 -0.2141  0.1851
    2MPD1    C314254   4.202   2.902  15.967  1.4725 -0.1143  0.8645
    2MPD1    C414255   4.272   2.854  15.857  0.3773  0.1609  0.4275
    2MPD1    C514256   4.262   2.919  15.740  0.1496  0.4362  0.2108
    2MPD1     H14257   4.056   3.051  16.033  1.0211  2.2617 -0.0211
    2MPD1    H114258   4.351   2.781  15.865  0.1677 -0.2643 -1.3610
    2MPD1    H214259   4.151   3.038  15.615 -1.0295 -2.4014 -1.2720
    2MPD1    H314260   4.326   2.887  15.658 -1.9699 -1.4130 -0.7479
    2MPD1     N14261   4.221   2.853  16.102  0.6183  0.1925 -0.0502
    2MPD1    H514262   4.163   2.887  16.178  2.4559  0.8290  1.0536
    2MPD1    N114263   3.973   3.143  15.795 -0.2865  0.0963  0.3350
    2MPD1    H614264   3.913   3.101  15.725  1.2665 -0.7274 -0.5037
    2MPD1    H714265   3.924   3.168  15.881  0.1181  2.0981  0.0004
    3TCq2    C114266   4.318   2.767  16.138 -0.1936 -0.7242  0.4816
    3TCq2    O214267   4.395   2.692  16.075 -0.3283 -0.0254 -0.5693
    3TCq2    C214268   4.316   2.762  16.281 -0.3592  0.2715  0.1929
    3TCq2    C314269   4.193   2.761  16.345  0.0166 -0.3710 -0.6213
    3TCq2    C414270   4.192   2.774  16.479  0.4512  0.0766 -0.5993
    3TCq2    C514271   4.310   2.782  16.543  0.6555 -0.2495 -0.4115
    3TCq2    C614272   4.428   2.785  16.480  0.0139 -0.5489 -0.0202
    3TCq2    C714273   4.435   2.786  16.345  0.1639  0.1842 -0.0769
    3TCq2    C814274   4.544   2.832  16.552 -0.2880  0.4369  0.1910
    3TCq2    O414275   4.652   2.793  16.514  0.3772  0.5126  0.3833
    3TCq2    C914276   4.066   2.800  16.543  0.6842  1.1304 -0.0094
    3TCq2    O514277   3.967   2.805  16.464 -0.0915  0.3215 -0.5132
    3TCq2    O614278   4.061   2.799  16.672  0.1815 -0.0673 -0.4898
    3TCq2    H214279   4.094   2.750  16.301  0.6171 -0.3736 -1.9768
    3TCq2    H314280   4.308   2.790  16.652  0.1065  0.5309 -0.4800
    3TCq2    H414281   4.529   2.797  16.294  0.5101 -0.6894  0.3655
    1TCq1    O114282   2.534   1.859  12.790  0.0122  0.0295  0.0193
    1TCq1    C114283   2.665   1.808  12.781  0.6032 -0.7002  0.1009
    1TCq1    O214284   2.705   1.792  12.667 -0.7654 -0.1465  0.4387
    1TCq1    C214285   2.744   1.894  12.871  0.3017 -0.2019 -0.8352
    1TCq1    C314286   2.717   1.892  13.003 -0.7576  0.5148 -0.0115
    1TCq1    C414287   2.809   1.954  13.086  0.2813 -0.4859 -0.7615
    1TCq1    C514288   2.910   2.031  13.037  0.3095  0.6218  0.3403
    1TCq1    C614289   2.936   2.030  12.904  0.3196  0.4399  0.6366
    1TCq1    C714290   2.855   1.958  12.819  0.0728 -0.2022  0.2666
    1TCq1    C814291   3.053   2.088  12.838  0.1186 -0.8619  0.1708
    1TCq1    O414292   3.048   2.094  12.721 -0.1774  0.3664 -0.5066
    1TCq1    C914293   2.793   1.937  13.228 -0.3333 -0.1617  1.2717
    1TCq1    O514294   2.874   2.007  13.298  0.0175 -0.7340 -0.2366
    1TCq1    O614295   2.699   1.863  13.266  0.6552  0.6193 -0.2486
    1TCq1    H114296   2.527   1.903  12.877 -0.3779  0.1388 -0.0699
    1TCq1    H214297   2.638   1.830  13.043 -1.9773  1.2461 -1.2942
    1TCq1    H314298   2.980   2.067  13.111 -0.9665  1.0838  1.3312
    1TCq1    H414299   2.875   1.950  12.713  2.2959 -3.0875  0.8916
    2MPD2     C14300   3.321   2.212  12.770  0.0230  0.4198  0.2531
    2MPD2    C114301   3.263   2.206  12.898 -0.0961  0.4262  0.1476
    2MPD2    C214302   3.320   2.271  13.003  0.4081  0.4484 -0.2210
    2MPD2    C314303   3.435   2.343  12.989  0.3586  0.3930 -0.5245
    2MPD2    C414304   3.493   2.339  12.866 -0.1633 -0.2251  0.2772
    2MPD2    C514305   3.431   2.279  12.751  0.3842 -0.4007  0.0114
    2MPD2     H14306   3.271   2.289  13.098 -0.8974  0.0587 -0.8125
    2MPD2    H114307   3.590   2.384  12.851 -0.6392  0.1962 -1.5503
    2MPD2    H214308   3.273   2.167  12.684  0.2710  0.8433 -0.1090
    2MPD2    H314309   3.476   2.292  12.653 -2.5391 -1.0116 -1.4115
    2MPD2     N14310   3.491   2.409  13.100  0.7319 -0.4340  0.3921
    2MPD2    H514311   3.451   2.384  13.189  1.1251 -1.8462  0.1750
    2MPD2    N114312   3.139   2.142  12.928 -0.2528 -0.5043 -0.8555
    2MPD2    H714313   3.113   2.138  13.026  2.8148  0.4596  0.0278
    3TCq1    O114314   3.772   2.957  13.261  0.4108 -0.0276  0.0034
    3TCq1    C114315   3.786   2.874  13.363  0.3745 -0.1301 -0.6792
    3TCq1    O214316   3.815   2.905  13.476 -0.6514  0.1854 -0.6047
    3TCq1    C214317   3.669   2.786  13.330 -0.7087  0.2289 -0.4166
    3TCq1    C314318   3.611   2.742  13.443  0.2450  0.1781  0.7096
    3TCq1    C414319   3.550   2.620  13.442 -0.4807  0.4759  0.2118
    3TCq1    C514320   3.560   2.536  13.337 -0.2426  0.4674  0.0921
    3TCq1    C614321   3.621   2.583  13.224 -0.4572  0.2514 -0.3298
    3TCq1    C714322   3.680   2.705  13.219 -0.1919 -0.5893 -1.0581
    3TCq1    C814323   3.595   2.508  13.099  0.8133  0.6213  0.1824
    3TCq1    O414324   3.649   2.546  12.999  0.3217  0.2625  0.5415
    3TCq1    C914325   3.481   2.566  13.554  0.0046 -0.1949  0.2491
    3TCq1    O514326   3.471   2.645  13.654  0.8380  0.6257  0.0548
    3TCq1    O614327   3.423   2.453  13.537  0.0085  0.2915  0.3294
    3TCq1    H114328   3.721   2.928  13.182  0.9590 -2.7952  0.6879
    3TCq1    H214329   3.607   2.799  13.535 -0.6027  0.3833  0.5444
    3TCq1    H314330   3.504   2.444  13.337 -0.8507  0.8393  0.4988
    3TCq1    H414331   3.741   2.725  13.132  0.6434  0.7405 -0.1583
    1MPD2     C14332   2.678   2.831  14.697 -0.2145 -0.1211  0.0358
    1MPD2    C114333   2.608   2.715  14.687  0.4554 -0.0520  1.0515
    1MPD2    C214334   2.631   2.618  14.784 -0.5592  0.9188  0.5300
    1MPD2    C314335   2.708   2.645  14.899  0.2009 -0.2887  1.0693
    1MPD2    C414336   2.768   2.767  14.909 -0.4761 -0.0637  0.1749
    1MPD2    C514337   2.756   2.858  14.806 -0.2366 -0.2178  0.3718
    1MPD2     H14338   2.579   2.523  14.782  2.1799 -0.5489 -0.9220
    1MPD2    H114339   2.840   2.800  14.983 -0.5471  0.9999 -0.2280
    1MPD2    H214340   2.674   2.913  14.626  1.7320  1.3387  1.6258
    1MPD2    H314341   2.825   2.941  14.803 -1.2869  0.6473 -0.0144
    1MPD2     N14342   2.735   2.557  15.006 -0.4656  0.2912 -0.2775
    1MPD2    H514343   2.785   2.605  15.080 -1.0586 -0.7346  0.7929
    1MPD2    N114344   2.515   2.706  14.581  0.3847  0.1347  0.0643
    1MPD2    H714345   2.509   2.785  14.517  1.3094 -0.8596 -1.2624
    2TMC3    C114346   2.354   2.596  14.446 -0.0975  1.2317  0.1019
    2TMC3    C214347   2.306   2.470  14.430  0.0711  0.4761  0.0973
    2TMC3    C314348   2.169   2.459  14.430 -0.0712  0.1977 -0.2782
    2TMC3    C414349   2.269   2.709  14.455 -0.5996  0.1607 -0.7040
    2TMC3    C514350   2.138   2.684  14.440 -0.1535  0.1679  0.2566
    2TMC3    C614351   2.085   2.559  14.430  0.1592  0.0658  0.0006
    2TMC3     C14352   2.458   2.584  14.551 -0.0823  0.1495  0.2698
    2TMC3     O14353   2.477   2.470  14.593 -0.4112 -0.0054 -0.3106
    2TMC3     H14354   2.370   2.383  14.415  0.6444  1.3252 -2.3552
    2TMC3    H114355   2.317   2.805  14.467 -0.4685 -0.1777  1.5561
    2TMC3    H214356   1.977   2.558  14.430  0.1583 -0.4466 -0.7403
    2TMC3    C714357   2.044   2.796  14.449  0.2720  0.1101  0.7751
    2TMC3    C814358   2.116   2.372  14.533 -1.0268 -0.1769 -0.3970
    2TMC3    O114359   1.931   2.766  14.490 -0.3396 -0.0066 -0.5273
    2TMC3    O214360   1.995   2.363  14.541  0.2292 -0.1330 -0.1033
    3TCq1    O114361   2.233   3.971  14.106  0.4269  0.1243  0.0092
    3TCq1    C114362   2.120   3.927  14.156 -0.6253  0.9263  0.2314
    3TCq1    O214363   2.005   3.961  14.126 -0.0336  0.2327  0.0363
    3TCq1    C214364   2.152   3.833  14.255 -0.3970 -0.6422 -0.5218
    3TCq1    C314365   2.230   3.860  14.365 -0.4822 -0.1593 -0.3216
    3TCq1    C414366   2.235   3.760  14.468 -0.0444 -0.3634 -0.1216
    3TCq1    C514367   2.166   3.637  14.451 -0.1476 -0.0087  0.3869
    3TCq1    C614368   2.075   3.634  14.345  0.6890  0.3617  0.2230
    3TCq1    C714369   2.066   3.732  14.246 -0.0444  0.6167 -0.5012
    3TCq1    C814370   1.987   3.520  14.327  0.1551  0.0125  0.0691
    3TCq1    O414371   1.880   3.526  14.271 -0.0160 -0.4708 -0.2323
    3TCq1    C914372   2.326   3.778  14.582 -0.5509  0.6013 -0.4071
    3TCq1    O514373   2.375   3.892  14.604 -0.2315 -0.3820  0.2221
    3TCq1    O614374   2.354   3.681  14.654 -0.1346  0.5351 -0.1201
    3TCq1    H114375   2.296   3.899  14.125 -0.5812 -1.3969 -2.3473
    3TCq1    H214376   2.277   3.956  14.382 -0.7154 -0.0125 -0.5044
    3TCq1    H314377   2.160   3.571  14.537  1.5424 -0.7489 -0.0733
    3TCq1    H414378   2.003   3.715  14.160  0.2081 -0.6775 -0.4235
    4MPD2     C14379   1.853   3.266  14.396 -0.0108  0.1433 -1.1623
    4MPD2    C114380   1.990   3.278  14.392  0.7251 -0.2980 -0.2025
    4MPD2    C214381   2.065   3.164  14.397  0.2112 -0.1789 -0.2419
    4MPD2    C314382   2.000   3.039  14.423  0.3191 -0.2342 -0.4145
    4MPD2    C414383   1.865   3.037  14.444 -0.0717 -0.4248  0.3388
    4MPD2    C514384   1.792   3.146  14.421  0.6573  0.0167  0.2349
    4MPD2     H14385   2.169   3.176  14.372  0.7608 -0.7791  1.7730
    4MPD2    H114386   1.811   2.947  14.471 -0.5767 -0.0495  0.5729
    4MPD2    H214387   1.789   3.352  14.384 -1.0113 -0.3325  0.7371
    4MPD2    H314388   1.685   3.132  14.430  1.0851 -2.6112  1.3252
    4MPD2     N14389   2.089   2.924  14.434  0.4209 -0.2669  0.1324
    4MPD2    H514390   2.186   2.943  14.412 -0.3876  1.8651 -1.6720
    4MPD2    N114391   2.047   3.404  14.379 -0.4092  0.1151  0.2020
    4MPD2    H714392   2.146   3.408  14.399 -0.3167  0.8766 -0.3945
    5TMC2    C114393   2.534   2.235  15.226  0.2044  0.5846  0.1680
    5TMC2    C214394   2.501   2.325  15.318 -0.2468  0.1540  0.1451
    5TMC2    C314395   2.576   2.442  15.320  0.3794  0.3307 -0.9400
    5TMC2    C414396   2.638   2.261  15.134  0.5644 -0.6174 -0.4002
    5TMC2    C514397   2.713   2.369  15.142 -0.3015  0.4434 -0.3776
    5TMC2    C614398   2.685   2.452  15.244  0.0604 -0.3102 -0.2863
    5TMC2     C14399   2.413   2.195  15.160  0.5738 -0.5928  0.3591
    5TMC2     O14400   2.321   2.163  15.233  0.0386  0.1816  0.2241
    5TMC2     H14401   2.404   2.316  15.367 -0.4527  1.8047  0.0589
    5TMC2    H114402   2.670   2.190  15.059  0.7527 -0.1964 -0.7193
    5TMC2    H214403   2.742   2.542  15.265 -0.6516  0.8335 -3.2691
    5TMC2    C714404   2.710   2.423  15.004 -0.4118 -0.2159 -0.5089
    5TMC2    C814405   2.575   2.509  15.441  0.3082  0.4622  0.2115
    5TMC2    O114406   2.675   2.352  14.911  0.4241 -0.3843 -0.0580
    5TMC2    O214407   2.674   2.522  15.505  0.1857  0.1659  0.5707
    5TMC2    O514408   2.485   2.601  15.418 -0.7519  0.5732 -0.2692
    5TMC2    H514409   2.414   2.564  15.362 -0.7245 -1.0792  0.7833
    6MPD2     C14410   2.089   2.195  14.769 -0.3270 -0.0180  0.1678
    6MPD2    C114411   2.210   2.263  14.739  0.0477 -0.0207  0.3150
    6MPD2    C214412   2.320   2.253  14.818 -0.1276  0.1997  0.4275
    6MPD2    C314413   2.315   2.189  14.936  0.1153 -0.2705 -0.9104
    6MPD2    C414414   2.196   2.123  14.971 -1.0741  0.8553  0.3895
    6MPD2    C514415   2.086   2.123  14.886  0.7087  0.5508 -0.1216
    6MPD2     H14416   2.405   2.316  14.794  0.6646 -1.2949 -0.7076
    6MPD2    H114417   2.175   2.073  15.065  0.2923 -2.1432 -0.8882
    6MPD2    H214418   1.998   2.197  14.710 -0.5899  1.3227  0.6239
    6MPD2    H314419   1.995   2.065  14.899  0.7677  0.6242  0.6168
    6MPD2     N14420   2.421   2.211  15.025  0.2370 -0.0794 -0.2774
    6MPD2    H514421   2.504   2.256  14.989 -1.0789  1.4931 -1.2966
    6MPD2    N114422   2.219   2.338  14.624  0.1950 -0.0552  0.0366
    6MPD2    H714423   2.310   2.377  14.602 -0.6593  1.4334 -0.8919
  945NH4     N114424   2.678   3.826   7.316 -0.8386 -0.0837  0.0139
  945NH4     H214425   2.710   3.922   7.293  0.8624 -0.4355  1.0028
  945NH4     H314426   2.578   3.833   7.346 -0.7029 -0.1668  0.4770
  945NH4     H414427   2.744   3.789   7.387 -0.8690  0.1807  0.1808
  945NH4     H514428   2.680   3.769   7.229  2.7790  1.0177 -0.5881
  946SOD     NA14429   4.416   2.643   1.896  0.3709 -0.1272  0.1394
  947SOD     NA14430   4.007   1.659   0.408 -0.3291  0.1276  0.0820
  948SOD     NA14431   2.894   1.180  10.321 -0.3585  0.3120 -0.0278
  949SOD     NA14432   2.767   4.472  16.700 -0.2032  0.3693  0.3705
  950SOD     NA14433   3.053   1.268   9.846  0.0772  0.0518 -0.0148
  951SOD     NA14434   0.292   4.656   0.515 -0.0136  0.1025 -0.2329
  952SOD     NA14435   0.801   1.201   8.763  0.2835  0.4048  0.0817
  953SOD     NA14436   1.655   0.946  14.794 -0.0556  0.1163  0.1233
  954SOD     NA14437   1.274   0.607   8.303 -0.4963 -0.4798 -0.7203
  955SOD     NA14438   2.297   1.542   9.431 -0.0233 -0.1704 -0.1978
  956SOD     NA14439   2.408   1.513  14.711 -0.0561  0.4350  0.4794
  957SOD     NA14440   1.143   0.021   2.365  0.9208  0.2818 -0.0938
  958SOD     NA14441   1.139   2.537  14.252  0.2150 -0.4357 -0.0367
  959SOD     NA14442   2.017   1.715  10.904 -0.2474 -0.7392 -0.3531
  960SOD     NA14443   4.423   3.006  10.071  0.2720  0.0317  0.4324
  961SOD     NA14444   3.772   2.183  11.386  0.2127  0.2035  0.3242
  962SOD     NA14445   0.015   3.207   0.016  0.0476  0.2261 -0.2596
  963SOD     NA14446   2.524   3.808  12.090 -0.1272  0.0321  0.0213
  964SOD     NA14447   3.816   3.814   7.771 -0.2035  0.1264 -0.0681
  965SOD     NA14448   1.367   2.711   0.903 -0.3290 -0.3797  0.1620
  966SOD     NA14449   4.234   2.316  16.515  0.0979 -0.2557 -0.1394
  967SOD     NA14450   1.319   1.895   9.901  0.1162 -0.3022  0.2505
  968SOD     NA14451   3.939   2.957   1.885 -0.2427  0.4351  0.0442
  969SOD     NA14452   2.518   1.973  13.290 -0.3096  0.4118  0.4202
  970SOD     NA14453   3.403   3.376   2.175 -0.2485 -0.2713  0.1195
  971SOD     NA14454   1.304   4.576   3.444  0.6002  0.4197 -0.1122
  972SOD     NA14455   1.088   1.501  12.070  0.2873  0.1708 -0.3386
  973SOD     NA14456   3.740   4.285   4.406  0.1563 -0.1926  0.1776
  974SOD     NA14457   3.282   4.260  12.002  0.0804 -0.0716 -0.2667
  975SOD     NA14458   3.127   1.144  10.157  0.4111 -0.2617 -0.3677
  976SOD     NA14459   4.490   1.971  14.577  0.0318  0.6823  0.2578
  977SOD     NA14460   3.865   3.256  15.299  0.0454 -0.3393 -0.5401
  978SOD     NA14461   3.130   1.290  10.467 -0.6819 -0.2547 -0.2409
  979SOD     NA14462   3.665   4.567   3.415 -0.2059 -0.0071  0.2151
  980SOD     NA14463   3.707   2.211  14.479  0.2841  0.1179  0.0258
  981SOD     NA14464   3.087   0.441  10.844 -0.2473  0.0210  0.2217
  982SOD     NA14465   3.875   1.414  11.932 -0.0425  0.5875 -0.2449
  983SOD     NA14466   0.405   0.669  15.111  0.3616  0.4708  0.2303
  984SOD     NA14467   2.445   3.763  14.838  0.5367  0.7547  0.1705
  985SOD     NA14468   2.759   1.846   8.906 -0.3042 -0.4695  0.1370
  986SOD     NA14469   0.704   1.557  13.816  0.2198  0.3923 -0.3840
  987SOD     NA14470   3.622   2.339  11.079 -0.1214  0.3038 -0.0474
  988SOD     NA14471   4.632   2.166  14.818 -0.1092 -0.4620 -0.3321
  989SOD     NA14472   1.543   0.874   1.556  0.8516 -0.0058  0.3046
  990SOD     NA14473   1.748   0.685   3.652  0.2426 -0.3789 -0.3065
  991SOD     NA14474   3.722   3.788  14.226 -0.0686  0.2229  0.2707
  992SOD     NA14475   3.223   1.274  12.220  0.3406  0.1396 -0.2439
  993SOD     NA14476   3.721   1.710  14.993 -0.2134  0.0552  0.3078
  994SOD     NA14477   1.366   3.427  12.908 -0.8214 -0.0882 -0.1300
  995SOD     NA14478   2.097   0.647   2.014 -0.4116  0.3040  0.0885
  996SOD     NA14479   0.431   2.932  13.782  0.1224 -0.0321 -0.4427
  997SOD     NA14480   3.919   3.616  10.100 -0.4460 -0.3852  0.6492
  998SOD     NA14481   3.422   0.489  10.802 -0.4254 -0.3480  0.6876
  999SOD     NA14482   3.499   1.729  12.494  0.2443  0.7797 -0.4168
 1000SOD     NA14483   3.909   1.913  11.374 -0.4085 -0.4636 -0.0643
 1001SOD     NA14484   4.033   3.550  15.807  0.3009  0.3468  0.0715
 1002SOD     NA14485   1.524   2.054   2.870  0.4916 -0.3755 -0.2667
 1003SOD     NA14486   1.985   3.423  10.211  0.2122 -0.0964  0.0304
 1004SOD     NA14487   4.619   0.753  16.372 -0.0534 -0.1506 -0.0303
 1005SOD     NA14488   2.405   3.477  14.629  0.3547  0.4299  0.1926
 1006SOD     NA14489   0.877   0.705   8.692 -0.1935 -0.0536 -0.0274
 1007SOD     NA14490   3.404   2.103   0.249  0.0135  0.3040 -0.0203
 1008SOD     NA14491   1.499   4.432   0.014  0.3689 -0.1165 -0.0273
 1009SOD     NA14492   0.280   2.693  10.809  0.2385  0.0642  0.1507
 1010SOD     NA14493   3.068   0.703   9.631 -0.2734  0.1535 -0.0823
 1011SOL     OW14494   3.783   3.584   6.148  0.3504 -0.0539  0.4259
 1011SOL    HW114495   3.831   3.559   6.070 -0.4225 -0.5332  0.0993
 1011SOL    HW214496   3.784   3.501   6.196  1.5332  0.0274  0.5360
 1012SOL     OW14497   3.511   1.213   2.752 -0.6263  0.0972 -0.0795
 1012SOL    HW114498   3.455   1.144   2.717 -2.8763  0.8043  2.0964
 1012SOL    HW214499   3.574   1.201   2.681 -2.2412  0.3673 -1.5425
 1013SOL     OW14500   3.720   0.158   3.079  0.1364  0.7908  0.3820
 1013SOL    HW114501   3.773   0.219   3.027 -2.7371  2.7299 -0.2401
 1013SOL    HW214502   3.628   0.180   3.065  0.2589 -0.0042 -1.6962
 1014SOL     OW14503   0.902   3.171   3.345 -0.0496 -0.9345 -0.0151
 1014SOL    HW114504   0.925   3.238   3.409 -2.6986 -1.5042  1.5055
 1014SOL    HW214505   0.866   3.240   3.289  2.2983 -0.9227 -1.5392
 1015SOL     OW14506   1.833   0.451   7.302 -0.3395  0.1369  0.3866
 1015SOL    HW114507   1.882   0.516   7.252 -1.8145  2.6426  2.1821
 1015SOL    HW214508   1.845   0.374   7.246  1.2451  0.7176 -0.0825
 1016SOL     OW14509   1.151   1.603  16.867  0.4184  0.5747  0.3124
 1016SOL    HW114510   1.114   1.526  16.911  0.1926 -0.4287 -1.6564
 1016SOL    HW214511   1.242   1.607  16.899  0.7931 -0.9950 -0.5180
 1017SOL     OW14512   1.912   2.927  10.288  0.5430  0.0523 -0.2047
 1017SOL    HW114513   1.899   2.937  10.382  2.7782 -1.0346  0.2230
 1017SOL    HW214514   1.820   2.919  10.265  0.6181 -1.3864  0.0225
 1018SOL     OW14515   4.525   1.495  15.708 -0.4579 -0.0506  0.0946
 1018SOL    HW114516   4.556   1.470  15.795  0.5435 -0.0205 -0.2492
 1018SOL    HW214517   4.431   1.480  15.716 -0.5527  0.4042 -0.1221
 1019SOL     OW14518   4.420   3.079   5.971 -0.1768 -0.8820  0.0951
 1019SOL    HW114519   4.403   2.986   5.984  0.2330 -1.0323 -0.4400
 1019SOL    HW214520   4.336   3.118   5.946  1.9308  2.6523 -1.4546
 1020SOL     OW14521   1.277   4.084  17.454  0.0432  0.3912 -0.0326
 1020SOL    HW114522   1.280   4.052  17.364 -1.3632  2.4714 -0.8068
 1020SOL    HW214523   1.233   4.005  17.488  0.4576  0.3396  0.3767
 1021SOL     OW14524   0.353   4.720  13.124 -0.1716 -0.0713  0.3620
 1021SOL    HW114525   0.262   0.018  13.107 -0.2283  1.0243  2.0739
 1021SOL    HW214526   0.390   0.076  13.162  1.4146  0.5646 -2.5426
 1022SOL     OW14527   2.368   0.404   4.865  0.1147  0.0706 -0.1148
 1022SOL    HW114528   2.433   0.346   4.825 -0.6121  0.2051 -1.5014
 1022SOL    HW214529   2.341   0.458   4.791 -0.4574 -0.4443 -0.2825
 1023SOL     OW14530   3.857   4.187   2.273 -0.3947 -0.5281  0.0278
 1023SOL    HW114531   3.928   4.159   2.330  0.6115  2.6998  0.3429
 1023SOL    HW214532   3.880   4.277   2.250  0.4138 -0.4792  1.0627
 1024SOL     OW14533   0.247   1.433   3.963 -0.0155 -0.2598 -0.2563
 1024SOL    HW114534   0.336   1.450   3.932  0.6210  0.6284  2.0110
 1024SOL    HW214535   0.207   1.520   3.962  0.9816  0.1695 -1.6504
 1025SOL     OW14536   1.107   4.107   0.733  0.0056 -0.1524  0.5101
 1025SOL    HW114537   1.147   4.174   0.788 -1.1910  2.2520 -1.5914
 1025SOL    HW214538   1.016   4.134   0.739 -0.4811 -1.7132  0.3305
 1026SOL     OW14539   0.944   0.678   1.189 -0.1049 -0.1020  0.4883
 1026SOL    HW114540   0.958   0.748   1.124  0.7451 -0.2816  0.4718
 1026SOL    HW214541   1.032   0.641   1.196 -0.1878 -0.5938 -1.0390
 1027SOL     OW14542   0.003   2.212   8.412  0.3326  0.0892 -0.0698
 1027SOL    HW114543   4.711   2.166   8.329 -1.1566  2.3027 -1.0159
 1027SOL    HW214544   4.698   2.143   8.472 -1.9775  0.9907 -0.1187
 1028SOL     OW14545   4.569   3.761  15.387  0.0207 -0.1795 -0.1715
 1028SOL    HW114546   4.560   3.820  15.312 -0.6317 -1.9417 -1.4819
 1028SOL    HW214547   4.498   3.700  15.367  1.4527 -2.7251  2.4449
 1029SOL     OW14548   4.669   3.850   9.609 -0.3842  0.1339  0.5136
 1029SOL    HW114549   4.656   3.771   9.556 -0.8056  1.6613 -1.6384
 1029SOL    HW214550   4.645   3.919   9.548  3.5627 -0.0662 -1.2436
 1030SOL     OW14551   3.929   3.510   4.550  0.3639  0.3707 -0.3341
 1030SOL    HW114552   3.946   3.467   4.466  0.6987 -2.3150  1.0901
 1030SOL    HW214553   3.852   3.561   4.523  0.1642 -0.6328 -1.6409
 1031SOL     OW14554   4.350   0.897   7.628 -0.5963 -0.2473  0.3557
 1031SOL    HW114555   4.398   0.953   7.567 -0.1646 -0.4814  0.4836
 1031SOL    HW214556   4.264   0.940   7.631 -0.0422  0.8837 -0.1376
 1032SOL     OW14557   0.721   4.234   5.497  0.2563 -0.1071  0.1511
 1032SOL    HW114558   0.802   4.248   5.448  1.3618 -0.1220  1.9951
 1032SOL    HW214559   0.746   4.223   5.589  1.0621  1.3904  0.1097
 1033SOL     OW14560   1.084   3.255   6.729 -0.5447 -0.3597  0.3140
 1033SOL    HW114561   1.076   3.162   6.749  1.3034 -0.9340 -1.5872
 1033SOL    HW214562   1.010   3.298   6.772  0.1680  0.5668  0.6091
 1034SOL     OW14563   3.706   3.586  16.617 -0.6295  0.0841 -0.2425
 1034SOL    HW114564   3.643   3.592  16.544 -1.8865  1.3282  0.9408
 1034SOL    HW214565   3.784   3.624  16.576 -1.8818  1.6837 -1.1860
 1035SOL     OW14566   1.733   1.329   4.216  0.2539 -0.1850  0.6106
 1035SOL    HW114567   1.637   1.331   4.219  0.1756 -0.9870 -1.5535
 1035SOL    HW214568   1.761   1.416   4.187 -0.3089 -0.3926 -0.5538
 1036SOL     OW14569   0.798   3.563   8.119  0.0659  0.1726 -0.2698
 1036SOL    HW114570   0.761   3.539   8.034  1.3562 -0.7936 -0.5496
 1036SOL    HW214571   0.729   3.622   8.148  0.0493 -0.4083  0.9059
 1037SOL     OW14572   0.428   4.346  12.671 -0.1771 -0.0230 -0.1576
 1037SOL    HW114573   0.393   4.304  12.749 -1.6649  0.3199 -0.6327
 1037SOL    HW214574   0.514   4.305  12.660 -0.0075 -0.1180  1.5422
 1038SOL     OW14575   2.517   4.113   8.643 -0.2865  0.3353  0.5467
 1038SOL    HW114576   2.467   4.079   8.569 -2.8568 -1.3631  3.0653
 1038SOL    HW214577   2.511   4.208   8.634 -1.5573  0.0568 -1.4707
 1039SOL     OW14578   1.269   0.823   7.742 -0.0301 -0.6252  0.0663
 1039SOL    HW114579   1.218   0.764   7.687  0.4245 -1.0077  0.0545
 1039SOL    HW214580   1.334   0.841   7.674  2.3018 -1.8954  1.9915
 1040SOL     OW14581   0.981   2.293   7.617  0.0841  0.2217 -0.0741
 1040SOL    HW114582   0.900   2.250   7.590 -0.8003  0.9792  1.3582
 1040SOL    HW214583   0.936   2.352   7.678  1.5183 -1.2348  2.3762
 1041SOL     OW14584   2.271   3.241   3.502  0.0768 -0.3718  0.8087
 1041SOL    HW114585   2.247   3.197   3.583  0.2615  0.9105  1.5554
 1041SOL    HW214586   2.192   3.293   3.485 -0.7210 -1.5843  0.8500
 1042SOL     OW14587   4.096   3.832   4.033 -0.2796 -0.7539  0.4335
 1042SOL    HW114588   4.135   3.749   4.061  0.3897 -1.1382 -1.6385
 1042SOL    HW214589   4.154   3.859   3.962 -1.7538  0.9600 -0.1044
 1043SOL     OW14590   2.770   0.124   0.958  0.8506  0.0947 -0.3001
 1043SOL    HW114591   2.730   0.190   1.015  0.1199 -0.4977 -0.1384
 1043SOL    HW214592   2.835   0.085   1.016 -0.4381 -1.1895  0.2764
 1044SOL     OW14593   2.711   2.688   9.803  0.8292  0.5656 -0.3964
 1044SOL    HW114594   2.731   2.622   9.869  0.0350 -0.6799 -1.3817
 1044SOL    HW214595   2.679   2.630   9.733  1.7569 -0.5891  0.1311
 1045SOL     OW14596   3.837   0.119   4.484 -0.1459  0.3748  0.0895
 1045SOL    HW114597   3.802   0.112   4.573 -0.9898  0.2033 -0.2621
 1045SOL    HW214598   3.921   0.073   4.483 -0.1855  0.2887  0.9964
 1046SOL     OW14599   3.398   3.856   8.006  0.4953 -0.1396 -0.3437
 1046SOL    HW114600   3.395   3.761   8.015 -0.2780 -0.2693 -2.0035
 1046SOL    HW214601   3.452   3.885   8.079  2.0004 -1.7132 -0.8206
 1047SOL     OW14602   3.697   4.037   6.236  0.3500  0.4845 -0.1273
 1047SOL    HW114603   3.724   4.128   6.246 -0.1844  0.7541 -1.1157
 1047SOL    HW214604   3.750   3.990   6.172  0.2019  2.2718 -1.5719
 1048SOL     OW14605   1.493   2.498   3.465 -0.1604  0.1657 -0.5655
 1048SOL    HW114606   1.437   2.548   3.406  0.7827 -0.7887 -2.2743
 1048SOL    HW214607   1.451   2.525   3.547  0.5909  0.6130 -0.3212
 1049SOL     OW14608   4.040   3.819   5.501  0.0746  0.2598  0.0814
 1049SOL    HW114609   4.073   3.773   5.424  0.5078 -0.9191  0.9812
 1049SOL    HW214610   4.095   3.898   5.501  2.1440 -1.1822  1.6596
 1050SOL     OW14611   1.927   2.569   3.808  0.5712  0.2372 -0.0387
 1050SOL    HW114612   1.901   2.648   3.760 -0.5188 -0.4781 -0.6173
 1050SOL    HW214613   1.879   2.493   3.775  0.4825  0.2305  0.1036
 1051SOL     OW14614   3.545   4.371  16.646  0.9732  0.5204 -0.5789
 1051SOL    HW114615   3.477   4.436  16.631  0.2509 -0.3859 -1.2463
 1051SOL    HW214616   3.524   4.310  16.575 -0.5015  3.5814 -2.7315
 1052SOL     OW14617   2.149   4.685   7.868 -0.3685 -0.1517  0.1160
 1052SOL    HW114618   2.176   4.595   7.889  0.1459 -0.0670 -0.1802
 1052SOL    HW214619   2.210   4.700   7.795  1.3652  0.8805  1.7622
 1053SOL     OW14620   4.064   2.403  16.209  0.1988 -0.8607 -0.3083
 1053SOL    HW114621   3.991   2.343  16.192 -2.3642  1.2207  3.2821
 1053SOL    HW214622   4.021   2.484  16.181 -0.5552 -1.5011 -0.9773
 1054SOL     OW14623   1.065   3.033   0.280 -0.6492  0.2553 -0.1885
 1054SOL    HW114624   0.986   3.037   0.334 -0.0970  0.7182  0.5956
 1054SOL    HW214625   1.130   3.057   0.347  0.9551  0.2071 -1.7498
 1055SOL     OW14626   1.223   4.508   6.642 -0.0005  0.2788 -0.1993
 1055SOL    HW114627   1.284   4.439   6.668 -0.4535  0.4050  1.1792
 1055SOL    HW214628   1.150   4.495   6.701 -1.5194  1.3191 -1.8441
 1056SOL     OW14629   1.366   2.867   2.298  0.6855  0.5789  0.3857
 1056SOL    HW114630   1.442   2.833   2.249  0.2803  1.8160 -1.1024
 1056SOL    HW214631   1.301   2.866   2.228 -0.0604  1.0187  1.0869
 1057SOL     OW14632   0.339   1.872  14.862  0.1811  0.2775  0.0205
 1057SOL    HW114633   0.345   1.862  14.957  1.2912 -0.1528 -0.0970
 1057SOL    HW214634   0.306   1.962  14.867 -0.3956  0.0645  0.1023
 1058SOL     OW14635   0.996   3.762   0.629  0.3767 -0.0919 -0.2569
 1058SOL    HW114636   1.040   3.701   0.570 -0.8812  1.0500 -2.4059
 1058SOL    HW214637   0.924   3.710   0.664  0.6041 -0.8178 -0.8690
 1059SOL     OW14638   0.752   3.460  12.121 -0.3609 -0.7092 -0.4665
 1059SOL    HW114639   0.723   3.457  12.213 -0.2226  0.8108 -0.3773
 1059SOL    HW214640   0.843   3.432  12.122 -0.7392 -1.9832 -1.3754
 1060SOL     OW14641   0.988   3.510   9.138 -0.4401  0.2226  0.8062
 1060SOL    HW114642   1.023   3.475   9.057 -0.0264 -0.6500  1.3611
 1060SOL    HW214643   0.895   3.505   9.118 -0.5265 -0.9060  1.4911
 1061SOL     OW14644   2.404   0.592   3.400 -0.6476  0.2182 -0.0495
 1061SOL    HW114645   2.452   0.669   3.431  1.7328 -0.8599 -1.0556
 1061SOL    HW214646   2.357   0.564   3.479 -0.4847 -0.8368 -0.3309
 1062SOL     OW14647   2.665   4.120   5.688 -0.1040  0.7764 -0.4282
 1062SOL    HW114648   2.734   4.125   5.755 -1.8878  0.9016  1.4149
 1062SOL    HW214649   2.650   4.026   5.677 -0.0865  0.4069  2.4942
 1063SOL     OW14650   3.059   3.381   6.496  0.4593 -0.9024 -0.3392
 1063SOL    HW114651   3.073   3.338   6.581  1.1430  0.9668  0.4890
 1063SOL    HW214652   2.992   3.450   6.499  0.2000 -1.2140  1.6763
 1064SOL     OW14653   0.029   4.679   7.827  0.1734  0.8484  1.4779
 1064SOL    HW114654   4.679   4.648   7.775  1.2834 -0.0390  0.4197
 1064SOL    HW214655   0.036   4.591   7.864  0.6566  0.1388 -0.2902
 1065SOL     OW14656   0.843   4.406   4.845  0.4153  0.0358 -0.6402
 1065SOL    HW114657   0.831   4.486   4.897  0.8643 -0.9449  0.9863
 1065SOL    HW214658   0.749   4.389   4.848  0.5251 -0.9393 -2.9207
 1066SOL     OW14659   1.408   2.259   1.002 -0.0578  0.3433  0.3538
 1066SOL    HW114660   1.434   2.325   1.066 -2.8791 -0.0889  1.9293
 1066SOL    HW214661   1.313   2.261   1.013 -0.3408 -1.1667 -1.7257
 1067SOL     OW14662   3.285   4.199   7.082 -0.3767  0.1026  0.2361
 1067SOL    HW114663   3.242   4.121   7.117  1.7980 -0.7607  0.9707
 1067SOL    HW214664   3.233   4.197   7.002 -0.5880 -1.9548  0.4128
 1068SOL     OW14665   3.703   3.218   2.369 -0.1819  0.3713  0.4055
 1068SOL    HW114666   3.688   3.272   2.292 -2.2585  0.6304  1.0000
 1068SOL    HW214667   3.723   3.135   2.326  0.2492  0.1677  0.9889
 1069SOL     OW14668   1.457   1.136   6.373 -0.2330 -0.0984 -0.4089
 1069SOL    HW114669   1.420   1.207   6.320  0.1212  1.3152  1.2370
 1069SOL    HW214670   1.426   1.052   6.337  2.8631 -1.3098 -0.2275
 1070SOL     OW14671   3.727   3.437   3.162  0.4109 -0.0232 -0.0695
 1070SOL    HW114672   3.692   3.399   3.081 -2.8875 -1.2407  1.9446
 1070SOL    HW214673   3.777   3.513   3.134  0.3496  0.1838  0.3853
 1071SOL     OW14674   4.620   2.001   9.024 -0.5031 -0.6768  0.0017
 1071SOL    HW114675   4.547   1.965   9.074 -0.2166 -0.7536  0.3645
 1071SOL    HW214676   4.663   2.043   9.099 -1.6174 -0.4500  0.5184
 1072SOL     OW14677   4.211   1.631   2.620 -0.0639 -0.2132 -0.4996
 1072SOL    HW114678   4.212   1.637   2.716  0.1451  0.0813 -0.5191
 1072SOL    HW214679   4.206   1.724   2.596  0.2273 -0.4450 -1.4344
 1073SOL     OW14680   2.754   0.250   4.624 -0.1581 -0.3065 -0.0044
 1073SOL    HW114681   2.743   0.223   4.533 -0.9311 -0.6546  0.1917
 1073SOL    HW214682   2.837   0.209   4.650  0.2630  0.2001 -0.5565
 1074SOL     OW14683   3.062   3.683   5.099  0.1181 -0.3824  0.2931
 1074SOL    HW114684   2.990   3.625   5.123 -1.7812  2.5476  1.6172
 1074SOL    HW214685   3.023   3.753   5.152  2.5385  0.5136  0.8892
 1075SOL     OW14686   4.656   3.719   2.937 -0.0732  0.2656 -0.0293
 1075SOL    HW114687   4.667   3.624   2.943  1.7229  0.4680 -0.1139
 1075SOL    HW214688   4.581   3.741   2.992 -0.4831 -0.1708 -0.4115
 1076SOL     OW14689   2.555   0.711   2.668 -0.6908  0.1838  0.0474
 1076SOL    HW114690   2.626   0.652   2.643 -0.5377  0.4779 -0.2111
 1076SOL    HW214691   2.590   0.800   2.669 -0.7543  0.2384 -2.0782
 1077SOL     OW14692   0.418   2.579   1.060  0.2304  0.3275  0.2192
 1077SOL    HW114693   0.368   2.503   1.028  0.6523  0.5394 -0.9341
 1077SOL    HW214694   0.371   2.650   1.016  0.5345  0.7362  0.5501
 1078SOL     OW14695   3.736   3.956   4.712 -0.3170  0.0678 -0.3587
 1078SOL    HW114696   3.649   3.984   4.686 -0.0308  1.2585 -0.0184
 1078SOL    HW214697   3.726   3.884   4.775 -1.3066  0.4205 -0.1248
 1079SOL     OW14698   2.957   3.585   5.802 -0.7777  0.2404 -0.2151
 1079SOL    HW114699   3.004   3.629   5.874  0.5002  0.7642 -1.3593
 1079SOL    HW214700   2.981   3.648   5.734 -0.5771 -1.4579 -1.7194
 1080SOL     OW14701   1.487   1.174   7.925 -0.3121  0.2908 -0.3560
 1080SOL    HW114702   1.487   1.193   8.018 -0.0532  0.1025 -0.3192
 1080SOL    HW214703   1.394   1.157   7.914 -0.4668 -0.5096  2.2247
 1081SOL     OW14704   1.847   3.916   5.640  0.2901 -0.6781  0.4702
 1081SOL    HW114705   1.848   3.907   5.735 -0.9896  0.6445  0.6045
 1081SOL    HW214706   1.779   3.851   5.626 -1.4576  1.0071  1.1044
 1082SOL     OW14707   0.918   0.224   1.396  0.0876  0.1419 -0.1615
 1082SOL    HW114708   0.972   0.303   1.394 -3.4146  2.5135 -0.5211
 1082SOL    HW214709   0.912   0.225   1.492 -0.5090 -3.6699 -0.1498
 1083SOL     OW14710   1.085   1.419  13.056  0.0138 -0.3709 -0.4069
 1083SOL    HW114711   1.055   1.377  13.137 -2.1792  0.9365 -0.5343
 1083SOL    HW214712   1.125   1.343  13.013 -0.8781 -0.4346 -1.1260
 1084SOL     OW14713   3.744   0.222   5.267 -0.2502  0.0541  0.3347
 1084SOL    HW114714   3.651   0.205   5.251 -0.2736  0.8707 -0.4032
 1084SOL    HW214715   3.743   0.292   5.201  2.3266  0.2187  0.4551
 1085SOL     OW14716   0.355   3.350   3.848  0.5009 -0.7597 -0.1167
 1085SOL    HW114717   0.304   3.304   3.915 -0.3256 -1.1568 -1.0079
 1085SOL    HW214718   0.294   3.410   3.805  0.7621 -1.3715 -1.3430
 1086SOL     OW14719   0.349   0.774   6.799  0.0536 -0.0493  0.2955
 1086SOL    HW114720   0.312   0.859   6.777  2.6643  0.5634 -1.6982
 1086SOL    HW214721   0.270   0.720   6.810 -0.9856  1.1895 -1.1695
 1087SOL     OW14722   4.281   2.087   5.911  0.2504 -0.2470  0.1420
 1087SOL    HW114723   4.279   1.991   5.911 -2.3675 -0.1740 -0.3945
 1087SOL    HW214724   4.310   2.105   6.000  1.2924 -2.1691  0.1837
 1088SOL     OW14725   2.930   4.189   1.809 -0.5655  0.4132  0.3464
 1088SOL    HW114726   2.989   4.144   1.749 -1.8959  0.3695 -0.9368
 1088SOL    HW214727   2.900   4.269   1.766 -1.6205  0.2414  0.7657
 1089SOL     OW14728   2.201   0.486   7.313 -0.0244  0.0569 -0.2094
 1089SOL    HW114729   2.139   0.554   7.339 -0.8409 -0.7722  0.0082
 1089SOL    HW214730   2.283   0.534   7.304  0.6673 -1.3277 -1.3778
 1090SOL     OW14731   3.142   1.061   9.929  0.2400 -0.0481 -0.1207
 1090SOL    HW114732   3.060   1.014   9.940  0.8118 -0.1754  3.5015
 1090SOL    HW214733   3.209   0.993   9.918  1.2317  0.3047  3.6311
 1091SOL     OW14734   4.413   1.162   4.018 -0.4050 -0.1182 -0.2576
 1091SOL    HW114735   4.325   1.191   3.994 -0.2778  0.9059  0.4893
 1091SOL    HW214736   4.473   1.215   3.966 -1.8642  1.5444 -0.2205
 1092SOL     OW14737   2.164   2.829   6.010 -0.3658 -0.0644  0.1420
 1092SOL    HW114738   2.168   2.853   6.102  1.0194  0.9522 -0.1858
 1092SOL    HW214739   2.183   2.736   6.022 -0.5546 -0.2168 -0.7080
 1093SOL     OW14740   0.109   1.149  16.783 -0.1276 -0.0585  0.3120
 1093SOL    HW114741   0.201   1.172  16.770 -0.4277  0.5474 -0.7733
 1093SOL    HW214742   0.098   1.080  16.717  3.2900 -1.4099  1.1593
 1094SOL     OW14743   1.868   3.395   7.607 -0.2026  0.4804  0.0942
 1094SOL    HW114744   1.871   3.490   7.597  0.7501  0.5049  0.6738
 1094SOL    HW214745   1.791   3.390   7.663 -0.3527 -0.3087 -0.1819
 1095SOL     OW14746   1.430   1.894   6.592  0.1987  0.3104 -0.0726
 1095SOL    HW114747   1.468   1.904   6.680 -2.0393  0.8830  0.8256
 1095SOL    HW214748   1.388   1.979   6.581 -0.1535 -0.0898 -1.7371
 1096SOL     OW14749   3.101   2.486   8.966  0.0337  0.6758  0.0392
 1096SOL    HW114750   3.171   2.423   8.949  1.7334  2.9908 -1.6267
 1096SOL    HW214751   3.018   2.445   8.943  1.7987 -1.9978 -1.7281
 1097SOL     OW14752   0.765   1.459   2.645  0.1734 -0.3123 -0.4087
 1097SOL    HW114753   0.776   1.553   2.652 -2.0656 -0.1062  0.4865
 1097SOL    HW214754   0.751   1.452   2.550 -2.3427 -2.8277  0.1345
 1098SOL     OW14755   2.195   0.925   6.138  0.4498 -0.0685  0.0043
 1098SOL    HW114756   2.131   0.937   6.068  0.7681  1.6616  0.0213
 1098SOL    HW214757   2.132   0.927   6.210  0.4779 -2.5243  0.1301
 1099SOL     OW14758   2.854   0.443   5.512 -0.2141  0.2675 -0.0505
 1099SOL    HW114759   2.915   0.377   5.478 -0.4754 -0.2345  0.4515
 1099SOL    HW214760   2.819   0.480   5.431  1.1258 -0.9329 -1.1828
 1100SOL     OW14761   2.176   2.798   4.705 -0.2569 -0.2022  0.2263
 1100SOL    HW114762   2.097   2.841   4.739  1.8154  1.6880  2.6358
 1100SOL    HW214763   2.169   2.801   4.609  1.1896  1.3396  0.1841
 1101SOL     OW14764   1.692   0.458  14.239  0.0069 -0.2820  0.1016
 1101SOL    HW114765   1.732   0.479  14.154  1.2969  0.4708  0.8998
 1101SOL    HW214766   1.705   0.535  14.293  0.8671  0.1270 -0.6812
 1102SOL     OW14767   1.131   1.300   6.473  0.5246 -0.0676  0.1264
 1102SOL    HW114768   1.120   1.230   6.409 -0.9752  0.1948  0.0931
 1102SOL    HW214769   1.108   1.378   6.422 -3.0520 -0.6974  0.7504
 1103SOL     OW14770   4.078   2.707   7.509  0.3728  0.7169 -0.1725
 1103SOL    HW114771   4.007   2.771   7.500  2.1331  2.4312 -1.9411
 1103SOL    HW214772   4.038   2.631   7.551  0.4078 -0.3481 -2.0712
 1104SOL     OW14773   1.157   2.874   8.307  0.5651 -0.9557 -0.3768
 1104SOL    HW114774   1.145   2.923   8.225  1.5093 -0.3550 -0.1564
 1104SOL    HW214775   1.201   2.928   8.372 -1.3657 -0.4600  0.5199
 1105SOL     OW14776   4.104   4.241   8.574 -0.3683  0.4789  0.1322
 1105SOL    HW114777   4.143   4.267   8.491 -0.3732 -0.4823 -0.1769
 1105SOL    HW214778   4.097   4.146   8.563 -1.0371  0.5244  0.1877
 1106SOL     OW14779   1.676   0.746   2.167  0.4456  0.0343  0.2507
 1106SOL    HW114780   1.693   0.717   2.078  1.5789  3.2097 -0.5569
 1106SOL    HW214781   1.642   0.666   2.208  1.0211 -0.0166  0.6389
 1107SOL     OW14782   0.205   1.120   7.198 -0.1356  0.4313  0.2473
 1107SOL    HW114783   0.187   1.056   7.128  0.3795 -0.1607  0.6639
 1107SOL    HW214784   0.297   1.139   7.184 -0.2708  0.6415 -0.3638
 1108SOL     OW14785   3.865   0.848   2.662 -0.0464 -0.1095 -0.3596
 1108SOL    HW114786   3.884   0.863   2.569 -1.4804  0.5052 -0.5443
 1108SOL    HW214787   3.877   0.753   2.662 -4.6069 -0.6793  1.2127
 1109SOL     OW14788   0.402   2.674   2.049  0.1386 -0.5219  0.2208
 1109SOL    HW114789   0.455   2.627   1.986 -0.3184  1.4408 -1.6145
 1109SOL    HW214790   0.374   2.602   2.107 -0.4256 -0.6628 -0.2286
 1110SOL     OW14791   3.946   3.694  16.530 -0.1756 -0.1629 -0.4315
 1110SOL    HW114792   4.015   3.723  16.590 -0.6237  0.3464 -0.1598
 1110SOL    HW214793   3.924   3.778  16.488  0.0337  0.3159  0.4129
 1111SOL     OW14794   3.610   3.208  10.157  0.0759 -0.5495  0.5392
 1111SOL    HW114795   3.547   3.163  10.101 -1.1079  1.0223  0.5936
 1111SOL    HW214796   3.554   3.234  10.231 -0.1489  1.0155 -0.1828
 1112SOL     OW14797   0.241   1.109   2.127  0.0144  0.0102  0.0679
 1112SOL    HW114798   0.146   1.108   2.135  0.1325 -2.5000  0.8897
 1112SOL    HW214799   0.269   1.194   2.091  2.0344 -0.4624  0.5214
 1113SOL     OW14800   0.819   2.884   3.761  0.2718  0.3210  0.0976
 1113SOL    HW114801   0.787   2.972   3.780  2.8375  1.2314  0.1840
 1113SOL    HW214802   0.842   2.898   3.670  2.3416  0.6060  0.6761
 1114SOL     OW14803   4.455   0.291   4.040  1.0479  0.0044 -0.0958
 1114SOL    HW114804   4.391   0.353   4.005 -1.8998 -2.0253  1.6745
 1114SOL    HW214805   4.402   0.216   4.067  0.7153  0.9087  1.7984
 1115SOL     OW14806   3.255   1.331   8.649  0.0088 -0.1501 -1.0043
 1115SOL    HW114807   3.184   1.342   8.586 -0.1504  0.8913 -0.6475
 1115SOL    HW214808   3.332   1.358   8.598 -1.4548  1.6150 -2.2533
 1116SOL     OW14809   0.017   1.329   2.025 -0.4985  0.0186 -0.2767
 1116SOL    HW114810   4.696   1.401   1.981 -2.0948 -1.2735 -0.8078
 1116SOL    HW214811   4.671   1.293   2.081 -0.1615  0.8001  0.6310
 1117SOL     OW14812   2.747   2.645   0.874  0.3175 -0.1356 -0.1287
 1117SOL    HW114813   2.670   2.590   0.887  1.0689 -0.7916  1.4554
 1117SOL    HW214814   2.743   2.659   0.779 -0.8202  0.9710  0.0735
 1118SOL     OW14815   0.752   3.188  17.128  0.0237 -0.1833 -1.0923
 1118SOL    HW114816   0.703   3.246  17.070 -0.6192  1.1718  0.8120
 1118SOL    HW214817   0.690   3.164  17.198 -0.0298 -1.1815 -1.4787
 1119SOL     OW14818   1.961   3.054   5.014 -0.6023  0.1915 -0.3942
 1119SOL    HW114819   1.892   3.033   5.078  2.3414 -0.8863  2.4370
 1119SOL    HW214820   1.923   3.139   4.994 -1.0681  0.3752  1.2675
 1120SOL     OW14821   1.740   4.251   3.993 -0.8104  0.3574  0.0507
 1120SOL    HW114822   1.673   4.280   3.931  1.5670 -0.0634 -2.7036
 1120SOL    HW214823   1.686   4.201   4.054  0.8387 -0.8246  0.5395
 1121SOL     OW14824   1.819   3.594   5.014  0.5850 -1.2997 -0.3443
 1121SOL    HW114825   1.898   3.645   5.032  1.2119 -1.3788 -2.9419
 1121SOL    HW214826   1.754   3.610   5.082  0.9027  1.1071 -0.6277
 1122SOL     OW14827   0.797   4.112   9.011  0.0445 -0.0606  0.4119
 1122SOL    HW114828   0.776   4.023   8.983  1.4724 -0.9003  2.0405
 1122SOL    HW214829   0.740   4.121   9.087 -0.5259  0.4831 -0.0801
 1123SOL     OW14830   2.365   3.528   3.458  0.1465 -0.2718 -0.0993
 1123SOL    HW114831   2.415   3.606   3.432 -1.2639  0.0292 -1.9755
 1123SOL    HW214832   2.421   3.466   3.412  0.0731 -0.1895 -0.3039
 1124SOL     OW14833   3.000   1.935   1.375 -0.0481  0.0263 -0.2198
 1124SOL    HW114834   2.921   1.929   1.429  0.5903  2.9365  1.0360
 1124SOL    HW214835   2.970   1.888   1.297  1.9178 -2.1519  0.3139
 1125SOL     OW14836   2.249   3.881  12.712 -0.5248  0.4188  0.4395
 1125SOL    HW114837   2.230   3.957  12.657 -0.6781 -0.1183 -0.2553
 1125SOL    HW214838   2.303   3.922  12.779 -0.1823  0.3825  0.1874
 1126SOL     OW14839   3.587   2.892   3.030  0.4151 -0.2400 -0.1590
 1126SOL    HW114840   3.601   2.803   3.061 -0.5829 -0.5698 -0.6515
 1126SOL    HW214841   3.665   2.933   3.068  0.6717  1.3558 -2.4048
 1127SOL     OW14842   0.272   4.479  16.098 -0.4966  0.1106  0.0435
 1127SOL    HW114843   0.320   4.422  16.157 -0.6872  0.1316  0.2209
 1127SOL    HW214844   0.247   4.421  16.026 -2.5120  2.3481 -1.0505
 1128SOL     OW14845   3.389   3.277   7.713 -0.0107 -0.1825  0.1747
 1128SOL    HW114846   3.420   3.325   7.636 -0.0446  1.7864  1.3921
 1128SOL    HW214847   3.448   3.202   7.719  2.3962  1.6021 -1.3051
 1129SOL     OW14848   0.274   2.677   3.625  0.7275  0.5303 -0.1525
 1129SOL    HW114849   0.365   2.655   3.643  0.6748  0.5479  0.1335
 1129SOL    HW214850   0.275   2.637   3.538  1.2571  1.1870 -0.4540
 1130SOL     OW14851   0.062   2.514   1.054 -0.5790 -0.2618  0.1236
 1130SOL    HW114852   0.149   2.478   1.040 -0.8441 -0.7848 -0.1759
 1130SOL    HW214853   0.029   2.492   0.967 -1.3850 -0.5840  0.5004
 1131SOL     OW14854   0.048   3.755   9.028  0.5395  0.4601  0.4246
 1131SOL    HW114855   0.136   3.772   8.995 -0.1194  0.1487 -1.5151
 1131SOL    HW214856   0.022   3.840   9.065 -2.0328  0.2911 -1.0577
 1132SOL     OW14857   1.132   2.071   6.052  0.3379  0.1921  0.3109
 1132SOL    HW114858   1.199   2.016   6.093  0.4543  1.7588  2.2515
 1132SOL    HW214859   1.067   2.052   6.120 -1.0752 -0.3918 -1.2133
 1133SOL     OW14860   0.455   1.350  14.005 -0.0406 -0.6296  0.8555
 1133SOL    HW114861   0.390   1.420  14.007  1.5606  0.8415  1.8288
 1133SOL    HW214862   0.482   1.348  13.913  1.9515 -1.8602  1.4528
 1134SOL     OW14863   3.166   1.365   3.771 -0.1989  0.6422  0.5684
 1134SOL    HW114864   3.174   1.407   3.857  0.4267 -0.7018  1.1748
 1134SOL    HW214865   3.217   1.286   3.788 -1.3692  0.3701  2.8527
 1135SOL     OW14866   1.370   2.702   7.439  0.1321 -0.5520  0.7016
 1135SOL    HW114867   1.413   2.744   7.513  0.0564  2.2452 -0.8451
 1135SOL    HW214868   1.398   2.759   7.367 -2.2361  0.0457  0.2429
 1136SOL     OW14869   1.711   2.119   0.126 -0.1725  0.2094  0.2506
 1136SOL    HW114870   1.702   2.193   0.186  0.5629  1.2871 -0.9745
 1136SOL    HW214871   1.628   2.070   0.128  0.0451 -0.0168  3.3932
 1137SOL     OW14872   1.366   2.242   5.831  0.9152  0.0929 -0.2688
 1137SOL    HW114873   1.444   2.211   5.876 -0.3730 -0.7428  1.3971
 1137SOL    HW214874   1.290   2.201   5.873  2.4129 -1.8531  0.5565
 1138SOL     OW14875   0.093   2.498   6.337 -0.1654 -0.1487  0.0674
 1138SOL    HW114876   0.071   2.407   6.319 -0.3794  0.0571 -0.7282
 1138SOL    HW214877   0.179   2.506   6.296  0.2479  0.0371  0.9720
 1139SOL     OW14878   3.167   3.679   8.728 -0.0731  0.0068 -0.3777
 1139SOL    HW114879   3.157   3.766   8.691 -1.9126  0.1714  0.5429
 1139SOL    HW214880   3.110   3.686   8.804  0.6955  1.1220  0.0885
 1140SOL     OW14881   1.765   2.665   9.825  0.6908 -0.1165 -0.7575
 1140SOL    HW114882   1.694   2.651   9.888  2.5887 -2.9978  0.7292
 1140SOL    HW214883   1.835   2.687   9.887  0.3723  0.2691 -0.5352
 1141SOL     OW14884   3.757   1.905  10.894  0.7282 -0.2299 -0.1282
 1141SOL    HW114885   3.681   1.906  10.952  1.3904  1.1286  0.7339
 1141SOL    HW214886   3.743   1.810  10.885 -2.4004  0.4770 -2.5542
 1142SOL     OW14887   2.344   3.429   4.214 -0.1306  1.0494  0.8360
 1142SOL    HW114888   2.403   3.428   4.289 -1.3958 -0.5023  1.8118
 1142SOL    HW214889   2.394   3.397   4.139  0.8052  1.8626  1.1221
 1143SOL     OW14890   0.900   4.225   5.931 -0.4039 -0.2565 -0.1693
 1143SOL    HW114891   0.876   4.138   5.963 -0.6870 -0.2734 -0.4303
 1143SOL    HW214892   0.993   4.231   5.953 -0.0311 -1.5486 -1.4714
 1144SOL     OW14893   3.117   3.073   7.682  0.3581  0.8143 -0.4958
 1144SOL    HW114894   3.156   3.154   7.713 -0.5984  0.7116  0.9903
 1144SOL    HW214895   3.022   3.088   7.679  0.4094  0.9612 -1.4163
 1145SOL     OW14896   3.911   0.188   4.210  0.1795  0.4896  0.2478
 1145SOL    HW114897   3.906   0.095   4.231 -1.2796  0.8056  1.3045
 1145SOL    HW214898   3.854   0.224   4.277 -0.2067 -1.3382  0.8874
 1146SOL     OW14899   3.861   3.463  10.731 -0.2413 -0.1932  0.3393
 1146SOL    HW114900   3.946   3.482  10.771  0.2535 -1.8275  0.0792
 1146SOL    HW214901   3.798   3.486  10.799 -1.0871  0.0737 -0.5499
 1147SOL     OW14902   0.086   4.134   3.830  0.1393 -0.0731  0.1744
 1147SOL    HW114903   0.118   4.205   3.774  0.3132  0.4511  0.9422
 1147SOL    HW214904   0.039   4.177   3.901  3.4239  2.0677  1.0593
 1148SOL     OW14905   2.335   1.135   3.016 -0.1893 -0.0511  0.2439
 1148SOL    HW114906   2.401   1.080   3.059 -0.3645  0.1232  0.7336
 1148SOL    HW214907   2.256   1.082   3.023  0.2472 -0.9781 -1.9203
 1149SOL     OW14908   3.174   4.564  17.282 -0.0005 -0.5018 -0.3181
 1149SOL    HW114909   3.152   4.610  17.362  2.4266 -1.6769  1.0247
 1149SOL    HW214910   3.228   4.501  17.330  0.2710  0.0329  0.0737
 1150SOL     OW14911   1.654   3.151   0.638 -0.0505  0.2788 -0.2054
 1150SOL    HW114912   1.674   3.150   0.732 -2.2334  3.3249  0.3092
 1150SOL    HW214913   1.565   3.117   0.640 -0.6419  1.8572  0.5630
 1151SOL     OW14914   4.013   2.064   2.695 -0.1503  0.8574 -0.2014
 1151SOL    HW114915   3.988   2.097   2.782  1.8644  0.6226  0.4634
 1151SOL    HW214916   3.997   2.136   2.634 -0.9035  1.0142  0.1687
 1152SOL     OW14917   0.911   0.351  16.914 -0.1279 -0.3690  0.3079
 1152SOL    HW114918   0.841   0.324  16.854  0.3491  1.9859 -1.3241
 1152SOL    HW214919   0.867   0.315  16.990 -0.0699 -1.0744  0.0074
 1153SOL     OW14920   4.268   1.401   2.050 -0.0044  0.4412 -0.3679
 1153SOL    HW114921   4.230   1.408   1.962  0.4431  0.7337 -0.5387
 1153SOL    HW214922   4.208   1.348   2.102  1.4526  1.0082  1.9206
 1154SOL     OW14923   2.149   2.960   7.784  0.4695  0.0728 -0.6335
 1154SOL    HW114924   2.142   2.886   7.725  2.7799 -0.9349  0.3447
 1154SOL    HW214925   2.058   2.989   7.788  0.1346 -0.7564 -2.6964
 1155SOL     OW14926   1.007   4.302   2.840 -0.0908 -0.3258 -0.0056
 1155SOL    HW114927   0.983   4.254   2.919  0.5414 -2.1431 -0.8905
 1155SOL    HW214928   1.033   4.226   2.787  0.2443 -0.7902  0.8300
 1156SOL     OW14929   1.718   0.150   2.866  0.1378  0.1708  0.2768
 1156SOL    HW114930   1.684   0.099   2.940  1.6059  2.0170  2.1900
 1156SOL    HW214931   1.801   0.182   2.900  0.2001 -1.1436  1.3563
 1157SOL     OW14932   2.156   4.645  13.776  0.3510 -0.3812 -0.2433
 1157SOL    HW114933   2.246   4.671  13.757 -0.7202  3.0810 -0.7815
 1157SOL    HW214934   2.104   4.709  13.725 -2.8835 -0.9150  2.3945
 1158SOL     OW14935   0.038   3.293  17.235  0.1903  0.2364  0.1316
 1158SOL    HW114936   0.001   3.381  17.236 -1.0694 -0.2634 -2.2322
 1158SOL    HW214937   4.681   3.243  17.227 -2.2181  4.3060 -1.0145
 1159SOL     OW14938   0.790   1.551  16.050 -0.1516  0.7225  0.2037
 1159SOL    HW114939   0.880   1.583  16.038 -0.2943  0.2749 -1.8915
 1159SOL    HW214940   0.744   1.633  16.039  1.1151  1.2230 -1.3230
 1160SOL     OW14941   1.506   3.692   1.058 -0.3305  0.2522 -0.1901
 1160SOL    HW114942   1.472   3.739   1.134 -0.1472  0.3446 -0.1651
 1160SOL    HW214943   1.428   3.706   1.004 -0.7378 -1.3769 -0.0182
 1161SOL     OW14944   4.109   4.222   6.546 -0.3545  0.6840 -0.0871
 1161SOL    HW114945   4.091   4.276   6.469  1.1722 -0.1824 -1.0506
 1161SOL    HW214946   4.132   4.277   6.621  0.5132 -0.7204  0.6727
 1162SOL     OW14947   2.724   1.998  10.965 -0.0396 -0.0502  0.3280
 1162SOL    HW114948   2.809   1.955  10.977  0.6010  1.2410  0.3419
 1162SOL    HW214949   2.744   2.090  10.949 -0.6271 -0.1634 -1.0113
 1163SOL     OW14950   3.396   3.150  10.792 -0.4410 -0.1410 -0.0229
 1163SOL    HW114951   3.426   3.063  10.818 -3.0037 -0.7515  0.9002
 1163SOL    HW214952   3.344   3.173  10.869  1.5982  1.9849  0.7405
 1164SOL     OW14953   2.175   1.816   7.463  0.2786  0.2614 -0.1090
 1164SOL    HW114954   2.194   1.909   7.452 -2.0759  0.7911  0.4761
 1164SOL    HW214955   2.246   1.798   7.524  0.1176  1.4831  0.4349
 1165SOL     OW14956   3.861   1.982  13.391 -0.3004  0.5624 -0.7574
 1165SOL    HW114957   3.847   1.916  13.459  1.1753  0.5116 -0.5197
 1165SOL    HW214958   3.824   1.930  13.319  0.0563  0.4394 -0.8492
 1166SOL     OW14959   3.399   1.950   4.431 -0.1001 -0.1724  0.0531
 1166SOL    HW114960   3.337   2.007   4.384 -1.4507 -0.9062  0.9499
 1166SOL    HW214961   3.357   1.865   4.442 -0.1743 -0.2681 -0.9918
 1167SOL     OW14962   4.390   2.266   8.722 -0.0660  0.3017 -0.0774
 1167SOL    HW114963   4.419   2.349   8.686  0.7991 -1.1776 -2.8031
 1167SOL    HW214964   4.413   2.270   8.815  0.3758 -1.3315 -0.1093
 1168SOL     OW14965   3.907   2.029   1.101 -0.2262  0.2409  0.5585
 1168SOL    HW114966   3.864   2.054   1.019 -2.4585 -0.9941  1.3817
 1168SOL    HW214967   3.970   1.964   1.069 -0.3556 -1.0783  3.0666
 1169SOL     OW14968   1.682   3.649  11.349  0.3784  0.2176  0.1704
 1169SOL    HW114969   1.762   3.658  11.297 -0.0261 -0.5287 -0.5751
 1169SOL    HW214970   1.646   3.737  11.357  0.4154  0.2286  0.2156
 1170SOL     OW14971   0.549   0.855   2.900 -0.1479 -0.1999 -0.3457
 1170SOL    HW114972   0.526   0.915   2.971  2.1560 -0.4333  0.6210
 1170SOL    HW214973   0.498   0.879   2.823 -1.0395 -0.5741  0.1349
 1171SOL     OW14974   1.273   3.976   8.269 -0.1663  0.0465 -0.5271
 1171SOL    HW114975   1.239   4.063   8.248  1.3154  1.0407  1.1521
 1171SOL    HW214976   1.198   3.931   8.308  0.4378 -2.4555 -2.2030
 1172SOL     OW14977   3.668   0.653  11.745  0.1888  0.1885 -0.1317
 1172SOL    HW114978   3.629   0.581  11.695 -0.7021 -1.2884  2.6716
 1172SOL    HW214979   3.586   0.700  11.759 -0.9174 -1.9028  0.4767
 1173SOL     OW14980   0.838   3.973   2.523 -0.0112 -0.0422 -0.1401
 1173SOL    HW114981   0.775   4.036   2.556  0.3634 -0.1267  0.7268
 1173SOL    HW214982   0.781   3.912   2.476 -1.5026  0.5799  0.8895
 1174SOL     OW14983   4.330   3.246   4.651 -0.2390  0.4318 -0.1976
 1174SOL    HW114984   4.276   3.174   4.619  0.9217  0.3201 -1.9738
 1174SOL    HW214985   4.352   3.290   4.569 -0.5067  0.9871  0.0360
 1175SOL     OW14986   4.326   2.550   4.055  0.3056  0.8379  0.1100
 1175SOL    HW114987   4.365   2.617   3.999 -0.7941  0.9210 -0.5360
 1175SOL    HW214988   4.234   2.559   4.033  1.0160 -0.3282 -3.2994
 1176SOL     OW14989   0.028   2.061   3.971  0.5425 -0.1303  0.0762
 1176SOL    HW114990   4.677   2.110   3.936  0.5235  0.0356  0.3520
 1176SOL    HW214991   0.082   2.138   3.989  1.1776  0.1565 -2.9945
 1177SOL     OW14992   0.589   4.181   2.852  0.7545 -0.1300  0.0088
 1177SOL    HW114993   0.502   4.188   2.890  0.8669 -0.0945  0.2575
 1177SOL    HW214994   0.578   4.244   2.781 -3.9614 -1.5251 -0.4865
 1178SOL     OW14995   1.895   2.209   3.052 -0.3136 -0.2481 -0.0409
 1178SOL    HW114996   1.829   2.264   3.095 -0.6995 -0.5384 -0.2645
 1178SOL    HW214997   1.952   2.284   3.037  1.4502 -1.5519  0.1767
 1179SOL     OW14998   0.240   1.162   5.733 -0.6133 -0.3199  0.4118
 1179SOL    HW114999   0.160   1.194   5.776 -0.2163  1.4622 -0.1940
 1179SOL    HW215000   0.202   1.131   5.651 -1.6409  2.0267  0.0073
 1180SOL     OW15001   2.948   1.660   0.906 -0.1333  0.1072 -0.0303
 1180SOL    HW115002   3.026   1.693   0.861 -1.2220  0.5373 -1.6385
 1180SOL    HW215003   2.894   1.644   0.828 -2.1708 -0.0715  1.4299
 1181SOL     OW15004   3.062   1.630   1.164  0.0902  0.0332  0.1011
 1181SOL    HW115005   3.022   1.602   1.082 -1.7779 -0.9242  1.3252
 1181SOL    HW215006   3.137   1.670   1.121 -0.7348  1.1442 -0.3058
 1182SOL     OW15007   2.618   0.880   1.729  0.2839 -0.2846  0.2826
 1182SOL    HW115008   2.583   0.803   1.685 -2.2937 -0.1035  2.0081
 1182SOL    HW215009   2.711   0.873   1.708  0.3079 -0.7257  0.5280
 1183SOL     OW15010   1.524   2.538   3.087  0.0326  0.1408  0.0684
 1183SOL    HW115011   1.470   2.604   3.131 -0.7503 -0.8859  0.6509
 1183SOL    HW215012   1.498   2.451   3.117 -1.1338 -0.1814 -1.8950
 1184SOL     OW15013   1.518   2.866  16.866  0.2465  0.2286  0.4370
 1184SOL    HW115014   1.490   2.955  16.847 -2.2721 -0.2952  1.6622
 1184SOL    HW215015   1.521   2.831  16.777  2.3764  1.3924  0.0763
 1185SOL     OW15016   0.744   2.168   4.759  0.3430 -0.1067 -0.7416
 1185SOL    HW115017   0.780   2.094   4.711 -0.7951  0.4218 -2.3792
 1185SOL    HW215018   0.650   2.165   4.747  0.0894  1.3255  0.7526
 1186SOL     OW15019   2.912   1.719  16.121  0.1860 -0.3505 -0.1717
 1186SOL    HW115020   2.851   1.650  16.149  1.2241  0.1732  3.3822
 1186SOL    HW215021   2.879   1.795  16.169  1.5362  0.1489 -0.0209
 1187SOL     OW15022   3.635   2.848   7.297 -0.0690 -0.0968  0.3570
 1187SOL    HW115023   3.629   2.760   7.335  1.6629 -1.1099 -1.6925
 1187SOL    HW215024   3.583   2.828   7.218  0.4381  2.8399 -0.6985
 1188SOL     OW15025   1.399   4.724   7.754  0.1018  0.6042  0.0253
 1188SOL    HW115026   1.389   4.718   7.659  0.5515 -2.3945  0.1608
 1188SOL    HW215027   1.491   4.695   7.758  0.3034  0.9750 -1.8398
 1189SOL     OW15028   3.918   2.735  14.030  0.0168  0.1793 -0.0874
 1189SOL    HW115029   3.833   2.708  14.065  0.0586 -1.1544 -1.0074
 1189SOL    HW215030   3.898   2.820  13.990 -0.1816 -0.1178 -0.6176
 1190SOL     OW15031   3.848   3.059   5.196  0.1275  0.3424 -0.6125
 1190SOL    HW115032   3.887   2.981   5.157  2.0531  1.4580 -0.9307
 1190SOL    HW215033   3.925   3.104   5.233 -0.9785  1.0144  0.8776
 1191SOL     OW15034   0.341   3.387   8.643 -0.3520 -0.2163 -0.2602
 1191SOL    HW115035   0.360   3.298   8.616  2.3030  0.6163 -1.0770
 1191SOL    HW215036   0.417   3.435   8.610 -1.9003  2.4739  0.0692
 1192SOL     OW15037   0.641   3.135  17.499 -0.2615 -0.2776 -0.3364
 1192SOL    HW115038   0.563   3.132  17.444 -0.7497  1.4474  0.2672
 1192SOL    HW215039   0.642   3.226  17.528 -0.8907 -0.0860 -0.9279
 1193SOL     OW15040   2.050   4.661   5.559 -0.1036  0.2364 -0.2413
 1193SOL    HW115041   2.040   4.699   5.647 -1.3114  0.2212 -0.3770
 1193SOL    HW215042   1.993   4.721   5.511 -0.3825 -0.5875 -0.9266
 1194SOL     OW15043   3.707   4.458   9.770 -0.1223 -0.4338 -0.0410
 1194SOL    HW115044   3.627   4.457   9.718 -0.1980  0.0332  0.0681
 1194SOL    HW215045   3.670   4.417   9.849  5.0935 -0.1383  2.5981
 1195SOL     OW15046   1.574   0.141   4.943 -0.2588  0.0403  0.3951
 1195SOL    HW115047   1.515   0.212   4.919 -0.4611  0.5158  2.2952
 1195SOL    HW215048   1.592   0.097   4.860 -0.7324 -0.0646  0.3479
 1196SOL     OW15049   2.090   3.735   9.117 -0.2091  0.0402  0.4885
 1196SOL    HW115050   2.141   3.736   9.198 -0.9431  1.1892  0.9452
 1196SOL    HW215051   2.013   3.681   9.135 -1.3369  0.8820 -1.7368
 1197SOL     OW15052   2.936   4.612   2.218 -0.2399 -0.4542 -0.4277
 1197SOL    HW115053   2.935   4.574   2.130  1.0293  1.3720 -1.2434
 1197SOL    HW215054   2.938   4.532   2.270  0.2529  0.5465  1.0817
 1198SOL     OW15055   3.382   1.031   3.203  0.4073 -0.2763  0.2127
 1198SOL    HW115056   3.337   1.111   3.178  2.3559  0.0008 -2.3753
 1198SOL    HW215057   3.474   1.052   3.191  0.5190 -1.7033 -1.4056
 1199SOL     OW15058   3.858   2.874   3.505 -0.5985 -0.7721  0.0024
 1199SOL    HW115059   3.847   2.779   3.493 -2.5895 -0.5561  0.1716
 1199SOL    HW215060   3.771   2.911   3.520 -0.1068  1.6456 -3.1446
 1200SOL     OW15061   4.705   1.725  11.256  0.9751  0.7399 -0.5439
 1200SOL    HW115062   4.682   1.691  11.342  1.5510  0.3458 -0.5482
 1200SOL    HW215063   0.065   1.685  11.232 -0.8917 -3.0757 -0.7277
 1201SOL     OW15064   2.574   3.455  16.149  0.1209 -0.1614 -0.5107
 1201SOL    HW115065   2.581   3.474  16.055 -0.2776  2.2729 -0.0644
 1201SOL    HW215066   2.506   3.516  16.180 -0.8248 -0.6257 -1.6638
 1202SOL     OW15067   4.228   0.621  16.054 -0.4295 -0.0244 -0.1009
 1202SOL    HW115068   4.137   0.642  16.029  0.0469  0.2082 -1.6391
 1202SOL    HW215069   4.278   0.699  16.031 -0.5252  0.2897  0.7459
 1203SOL     OW15070   3.157   3.788  12.735  0.1230  0.3447 -0.4275
 1203SOL    HW115071   3.122   3.832  12.658  2.7238  0.7233 -1.3891
 1203SOL    HW215072   3.247   3.773  12.706 -0.3244 -2.0331 -0.5439
 1204SOL     OW15073   2.756   4.448   6.866  0.5465 -0.0115 -0.4110
 1204SOL    HW115074   2.791   4.537   6.864  1.0394 -0.1110  3.3800
 1204SOL    HW215075   2.661   4.456   6.873  0.9537  2.9667  1.6517
 1205SOL     OW15076   3.985   2.874   3.916 -0.1086  0.1572  0.1241
 1205SOL    HW115077   3.953   2.830   3.994 -0.7747 -2.7614 -1.7790
 1205SOL    HW215078   3.906   2.925   3.903 -0.2079 -1.1148 -4.3129
 1206SOL     OW15079   4.194   3.032   0.036  0.4196  0.2681  0.2997
 1206SOL    HW115080   4.133   3.098   0.004 -0.0527 -1.5120 -2.4648
 1206SOL    HW215081   4.276   3.054  17.687  1.7630 -0.7540  2.2481
 1207SOL     OW15082   1.529   1.639   5.451  0.0763 -0.2073  0.2221
 1207SOL    HW115083   1.528   1.562   5.394 -0.3836 -0.0782  0.0507
 1207SOL    HW215084   1.624   1.636   5.463  0.0903  1.2217  0.4600
 1208SOL     OW15085   1.136   2.530   5.234  0.7323  0.6685  0.1341
 1208SOL    HW115086   1.106   2.586   5.305  2.8559 -0.6238  2.0279
 1208SOL    HW215087   1.188   2.466   5.282  0.7802  1.6649  1.4016
 1209SOL     OW15088   0.386   2.256   7.591  0.4289  0.2568  0.3007
 1209SOL    HW115089   0.291   2.246   7.590  0.6521 -1.9378  0.3761
 1209SOL    HW215090   0.404   2.345   7.562 -2.0957  0.9935  1.0549
 1210SOL     OW15091   0.078   2.197   6.329 -0.1873  0.3344  0.3311
 1210SOL    HW115092   0.050   2.108   6.349  1.4580 -0.2661 -0.0274
 1210SOL    HW215093   0.154   2.179   6.275  0.2069 -1.5298  1.5047
 1211SOL     OW15094   1.703   1.710   0.960  0.2553  0.3781  0.2360
 1211SOL    HW115095   1.737   1.639   1.014  4.2150  0.9295 -1.5805
 1211SOL    HW215096   1.682   1.782   1.020  0.7480  0.5644  0.1831
 1212SOL     OW15097   2.389   3.694   8.379  0.4077 -0.9492 -0.4755
 1212SOL    HW115098   2.381   3.605   8.415  1.4795 -0.3199  1.2905
 1212SOL    HW215099   2.298   3.724   8.385  0.7063 -0.2907  0.7307
 1213SOL     OW15100   2.474   0.092   0.983  0.2373 -0.0804  0.0919
 1213SOL    HW115101   2.509   0.158   1.043  0.6686 -0.3991  0.1868
 1213SOL    HW215102   2.563   0.069   0.955 -0.6117 -1.2135 -1.6518
 1214SOL     OW15103   2.601   0.935   5.223  0.5337  0.4700 -0.0972
 1214SOL    HW115104   2.597   0.937   5.128  1.0007 -0.3136 -0.1305
 1214SOL    HW215105   2.513   0.967   5.241  0.2104 -0.6826  0.3868
 1215SOL     OW15106   0.511   0.149   6.410 -0.4759 -0.4784  0.3084
 1215SOL    HW115107   0.544   0.063   6.384  0.6695 -0.0036  0.1715
 1215SOL    HW215108   0.531   0.205   6.335 -0.0755 -3.1089 -1.5020
 1216SOL     OW15109   2.806   0.020   1.417 -0.5334  0.2348  0.5897
 1216SOL    HW115110   2.722   4.716   1.454 -0.3598 -0.3837  0.5279
 1216SOL    HW215111   2.823   0.102   1.462 -0.1601  0.4639  0.0318
 1217SOL     OW15112   2.596   0.051   9.464  0.6004  0.1944  0.3994
 1217SOL    HW115113   2.561   4.712   9.527 -2.4210  2.2595  0.8044
 1217SOL    HW215114   2.629   0.004   9.388 -1.0256  0.2331 -0.3369
 1218SOL     OW15115   2.929   3.210   6.297  0.1566  0.7822  0.9898
 1218SOL    HW115116   2.873   3.154   6.350  0.7925 -1.7560 -0.9864
 1218SOL    HW215117   2.980   3.264   6.357  1.1090  0.1777  0.7433
 1219SOL     OW15118   1.647   4.164   3.042  0.3178  1.1967 -0.4428
 1219SOL    HW115119   1.638   4.123   2.956  0.0185  0.5720 -0.1127
 1219SOL    HW215120   1.728   4.214   3.033  0.3648  1.3570  0.9540
 1220SOL     OW15121   0.042   0.227   7.796  0.0171  0.4176  0.1891
 1220SOL    HW115122   0.065   0.144   7.837  2.5229  1.6398  1.2189
 1220SOL    HW215123   4.680   0.202   7.761  2.1021 -1.2227 -3.6256
 1221SOL     OW15124   1.963   2.160   7.730 -0.2270  0.3228  0.0733
 1221SOL    HW115125   1.960   2.230   7.665  2.8907  0.4433  0.0432
 1221SOL    HW215126   1.907   2.091   7.694 -0.5127  0.3931  0.3819
 1222SOL     OW15127   1.878   2.838   5.918 -0.0984 -0.1620 -0.1636
 1222SOL    HW115128   1.965   2.844   5.957  0.0285  1.2826 -0.6663
 1222SOL    HW215129   1.903   2.772   5.854 -0.0568 -0.5360  0.2370
 1223SOL     OW15130   3.569   2.221  14.115 -0.1959 -0.0493 -0.1395
 1223SOL    HW115131   3.572   2.287  14.046  1.3112  0.2291  0.1921
 1223SOL    HW215132   3.650   2.237  14.163  0.1173  3.4844 -1.8462
 1224SOL     OW15133   4.323   1.450   1.746  0.0250  0.3244 -0.0563
 1224SOL    HW115134   4.286   1.513   1.808 -2.7453 -3.0724  1.7384
 1224SOL    HW215135   4.239   1.429   1.705 -0.6968  0.7405  1.1847
 1225SOL     OW15136   2.670   4.535   8.717  0.2340 -0.0577 -0.3828
 1225SOL    HW115137   2.723   4.584   8.780 -0.1689 -0.5197  0.3052
 1225SOL    HW215138   2.716   4.554   8.635 -0.8572  0.0004 -0.9767
 1226SOL     OW15139   0.738   1.595   2.158  0.1404 -0.2428  0.4743
 1226SOL    HW115140   0.757   1.621   2.068  1.2240  0.9957  1.0624
 1226SOL    HW215141   0.644   1.580   2.155  0.4149 -2.1379  1.2612
 1227SOL     OW15142   3.083   2.951   3.288 -0.1707 -0.3058 -0.0380
 1227SOL    HW115143   3.013   2.890   3.313  0.0660 -0.2312  0.8013
 1227SOL    HW215144   3.126   2.887   3.231 -0.5419 -1.6817  1.2093
 1228SOL     OW15145   4.006   3.999   9.220  0.0857  0.0942  0.0708
 1228SOL    HW115146   3.959   4.082   9.234 -0.7910 -0.4148  0.1389
 1228SOL    HW215147   3.957   3.943   9.280 -0.5821  0.6158  0.0125
 1229SOL     OW15148   0.675   2.853   1.747  0.0656  0.0997  0.0397
 1229SOL    HW115149   0.690   2.939   1.707  1.0069 -0.2261 -0.2977
 1229SOL    HW215150   0.650   2.796   1.675 -0.5295  0.3464  0.0503
 1230SOL     OW15151   0.112   2.913  16.349  0.5180 -0.3347  0.1954
 1230SOL    HW115152   0.036   2.868  16.387  0.3988  0.2421  0.6400
 1230SOL    HW215153   0.068   2.956  16.277 -1.3854 -0.9691  0.9709
 1231SOL     OW15154   4.496   0.158   7.057 -0.0236  0.6116  0.2426
 1231SOL    HW115155   4.569   0.219   7.053  0.4029  0.0985  0.2969
 1231SOL    HW215156   4.431   0.225   7.081 -1.9343 -1.2896  0.3747
 1232SOL     OW15157   2.729   2.932   3.046  0.0019  0.6603  0.3320
 1232SOL    HW115158   2.798   2.997   3.061  0.0356  0.5588  0.6343
 1232SOL    HW215159   2.655   2.953   3.103 -0.3108  1.6118 -0.4324
 1233SOL     OW15160   1.073   3.864   0.924  0.4112 -0.1072  0.5533
 1233SOL    HW115161   1.079   3.890   1.016 -0.6680  0.6653  0.4005
 1233SOL    HW215162   1.076   3.950   0.882  1.0669  1.0250  2.9116
 1234SOL     OW15163   2.360   2.667   7.894 -0.5207  0.0624 -0.0854
 1234SOL    HW115164   2.437   2.641   7.945 -0.2836 -1.9933 -1.4931
 1234SOL    HW215165   2.390   2.752   7.863 -0.7192 -0.6155 -2.1375
 1235SOL     OW15166   1.105   3.075   7.509  0.2691  0.3890  0.1588
 1235SOL    HW115167   1.056   3.028   7.577 -0.7132  2.4623  0.8715
 1235SOL    HW215168   1.118   3.156   7.558 -2.3848  0.6818  0.3517
 1236SOL     OW15169   3.095   2.047   3.519  0.0886 -0.2907  0.8822
 1236SOL    HW115170   3.179   2.005   3.539 -0.0732 -0.7095  0.6777
 1236SOL    HW215171   3.117   2.139   3.534  1.8178 -0.7118  1.0119
 1237SOL     OW15172   4.075   4.522  11.564 -0.0384  0.1888  0.2924
 1237SOL    HW115173   4.090   4.430  11.583 -1.7445  0.0934  1.1969
 1237SOL    HW215174   3.987   4.510  11.529 -0.1921 -0.6606  0.9979
 1238SOL     OW15175   0.370   4.706  16.189 -1.1022 -0.1811 -0.2649
 1238SOL    HW115176   0.335   4.627  16.148  0.2168  0.0686 -1.8582
 1238SOL    HW215177   0.365   4.685  16.282  1.3884  1.1264  0.1482
 1239SOL     OW15178   3.833   0.183  11.092  0.1380 -0.0406 -0.6090
 1239SOL    HW115179   3.903   0.247  11.107  1.5691 -1.3148 -1.8065
 1239SOL    HW215180   3.791   0.226  11.018  0.0020 -0.7352 -0.9367
 1240SOL     OW15181   3.845   0.645  11.228 -0.0306  0.4099 -0.2584
 1240SOL    HW115182   3.831   0.621  11.320 -1.6063 -0.6607 -0.7799
 1240SOL    HW215183   3.779   0.584  11.196 -0.9575  0.9741  0.5530
 1241SOL     OW15184   0.521   2.445  14.881 -0.2783 -0.1656  0.3373
 1241SOL    HW115185   0.523   2.415  14.972  2.1455 -0.2786  0.2271
 1241SOL    HW215186   0.428   2.467  14.874  0.1928  2.0263  0.8211
 1242SOL     OW15187   1.619   1.025  13.447  0.5574 -0.4226 -0.0508
 1242SOL    HW115188   1.694   1.023  13.506  0.1501  3.3862  0.5837
 1242SOL    HW215189   1.601   0.932  13.434 -2.5697  0.1853  0.0899
 1243SOL     OW15190   3.354   3.772   1.809 -0.5374  0.0387  0.0735
 1243SOL    HW115191   3.385   3.794   1.721  0.9894  0.0272  0.6192
 1243SOL    HW215192   3.429   3.771   1.869 -0.9055  1.5698  0.5742
 1244SOL     OW15193   1.823   4.000   7.353 -0.2027  0.6775  0.1582
 1244SOL    HW115194   1.794   3.910   7.337 -1.3430  1.1348 -0.3413
 1244SOL    HW215195   1.737   4.040   7.366 -0.3743  0.6123 -0.8061
 1245SOL     OW15196   0.333   0.362  11.083  0.5383 -0.0643 -0.4046
 1245SOL    HW115197   0.350   0.431  11.147  1.5052 -0.0049 -0.7134
 1245SOL    HW215198   0.274   0.412  11.027  0.5956 -0.0138 -0.4204
 1246SOL     OW15199   1.754   2.758   2.765 -0.0954 -0.0980  0.0010
 1246SOL    HW115200   1.832   2.777   2.713 -0.1561  0.4171  0.0971
 1246SOL    HW215201   1.712   2.844   2.768 -0.1961 -0.2025  1.6948
 1247SOL     OW15202   4.699   3.192   1.828 -0.3956  0.2696  0.2891
 1247SOL    HW115203   4.630   3.138   1.789 -1.3330  1.3947  0.3898
 1247SOL    HW215204   0.056   3.159   1.789 -0.9938  1.5594 -2.0414
 1248SOL     OW15205   2.960   0.014   1.148 -0.1409  0.2593  0.3451
 1248SOL    HW115206   2.921   0.032   1.233 -1.7510 -0.4423 -0.2503
 1248SOL    HW215207   3.052   0.013   1.174 -0.1529 -2.2497  0.2912
 1249SOL     OW15208   4.607   4.684   9.038  0.1548  0.1413 -0.0593
 1249SOL    HW115209   4.681   0.013   9.007 -0.6222  1.7883  0.8768
 1249SOL    HW215210   4.532   0.019   9.050  0.2007 -0.0651  1.2578
 1250SOL     OW15211   3.545   2.774   2.318 -0.3875 -0.0423 -0.9215
 1250SOL    HW115212   3.466   2.796   2.269 -1.0541  0.4351  0.3635
 1250SOL    HW215213   3.595   2.856   2.316 -1.3828  0.5938  0.4991
 1251SOL     OW15214   4.408   2.155  14.818 -0.5423  0.2589 -0.0145
 1251SOL    HW115215   4.374   2.071  14.849 -0.8497 -0.2937 -1.8565
 1251SOL    HW215216   4.362   2.178  14.738 -1.1758 -0.9975 -0.0185
 1252SOL     OW15217   2.478   2.733  15.118  0.1124 -0.2066  0.1675
 1252SOL    HW115218   2.573   2.745  15.118  0.0639  0.1589  1.1048
 1252SOL    HW215219   2.455   2.721  15.026 -0.3632  0.1172  0.2481
 1253SOL     OW15220   2.584   2.307   7.908  0.1283  0.0090  0.4628
 1253SOL    HW115221   2.499   2.281   7.944 -0.2642  2.9532  1.6825
 1253SOL    HW215222   2.584   2.403   7.913 -0.7633  0.1578 -2.5030
 1254SOL     OW15223   0.337   3.367   0.518  0.0251 -0.1390 -0.0378
 1254SOL    HW115224   0.389   3.366   0.598  2.5196  1.6171 -1.6305
 1254SOL    HW215225   0.407   3.378   0.452  0.1522 -1.6332 -0.1580
 1255SOL     OW15226   3.658   2.539  11.290  0.1240 -0.3726  0.4926
 1255SOL    HW115227   3.643   2.445  11.284  2.6960 -0.6981 -0.6248
 1255SOL    HW215228   3.574   2.563  11.329  0.7725  3.2093 -0.3074
 1256SOL     OW15229   1.355   0.562   6.812 -0.3969  0.4940  0.2910
 1256SOL    HW115230   1.293   0.570   6.739  0.6262  0.9184 -0.5328
 1256SOL    HW215231   1.371   0.468   6.825  0.7812  0.9930  2.4799
 1257SOL     OW15232   2.196   4.409   6.923 -0.0826  0.3524  0.0439
 1257SOL    HW115233   2.194   4.394   6.829  2.8370 -0.4725  0.1378
 1257SOL    HW215234   2.103   4.407   6.947  0.1812 -1.1493  0.9554
 1258SOL     OW15235   3.260   1.555   4.821  0.0615 -0.3727 -0.2500
 1258SOL    HW115236   3.262   1.574   4.915 -0.7982 -1.0971 -0.0924
 1258SOL    HW215237   3.188   1.612   4.795  0.8127  0.3116 -0.8478
 1259SOL     OW15238   2.325   2.717  13.007  0.3266 -0.1385 -0.1675
 1259SOL    HW115239   2.308   2.652  12.938 -2.3433  0.5497 -0.1767
 1259SOL    HW215240   2.412   2.746  12.983 -0.8003  2.5259 -1.0144
 1260SOL     OW15241   0.300   4.554   3.288 -0.4188 -0.2280 -0.2007
 1260SOL    HW115242   0.228   4.496   3.316  0.5183 -1.1982  0.1986
 1260SOL    HW215243   0.293   4.534   3.195  2.7172  1.1068 -0.6991
 1261SOL     OW15244   3.596   1.956   3.356  0.4068 -0.0209 -0.3564
 1261SOL    HW115245   3.542   2.023   3.398 -1.3946 -1.5941 -0.1876
 1261SOL    HW215246   3.549   1.879   3.388  1.8729 -0.9387 -0.4169
 1262SOL     OW15247   0.035   2.258  13.752 -0.0040 -0.8311  0.1063
 1262SOL    HW115248   4.704   2.208  13.813  0.0001 -1.1472 -0.1475
 1262SOL    HW215249   0.119   2.272  13.796  0.9059  0.3296 -1.9937
 1263SOL     OW15250   0.046   3.205   2.764 -0.4117  0.2924 -0.2126
 1263SOL    HW115251   4.691   3.151   2.774 -0.6050  0.2237 -2.1571
 1263SOL    HW215252   0.113   3.147   2.800  0.9725  0.2804 -2.8187
 1264SOL     OW15253   3.179   3.442  14.871  0.0244 -0.4799  0.0014
 1264SOL    HW115254   3.164   3.355  14.908 -0.1880  0.3167  1.8021
 1264SOL    HW215255   3.173   3.425  14.777  0.2033  2.5942 -0.5618
 1265SOL     OW15256   2.495   0.715  11.193 -0.0398  0.4857  0.3895
 1265SOL    HW115257   2.541   0.655  11.134 -3.9133 -1.3561 -0.7753
 1265SOL    HW215258   2.481   0.665  11.274 -1.2807 -1.9903 -1.3523
 1266SOL     OW15259   1.870   3.015   7.758  0.1855 -0.0375  0.1426
 1266SOL    HW115260   1.846   3.088   7.815  0.9489  1.0816 -0.9864
 1266SOL    HW215261   1.785   3.012   7.713 -0.1338  2.4381  0.5919
 1267SOL     OW15262   1.157   1.316   8.374 -0.1758 -0.0316 -0.2129
 1267SOL    HW115263   1.113   1.379   8.317  0.1775  1.1617  0.8392
 1267SOL    HW215264   1.178   1.254   8.304 -4.5055 -0.6927 -0.9121
 1268SOL     OW15265   3.992   1.070  10.742 -0.5949  0.3374  0.3097
 1268SOL    HW115266   3.994   1.117  10.658 -0.0364  0.7474  0.5487
 1268SOL    HW215267   3.915   1.015  10.726 -0.2109  0.2944 -1.3858
 1269SOL     OW15268   2.210   1.285   1.935  0.1322 -0.1925  0.2197
 1269SOL    HW115269   2.275   1.354   1.942 -1.4637  1.3482 -0.1388
 1269SOL    HW215270   2.261   1.205   1.924  1.5277  0.9325 -1.4597
 1270SOL     OW15271   4.176   3.324   7.808 -0.0767 -0.8207 -0.3784
 1270SOL    HW115272   4.196   3.267   7.734  0.4010  2.0406 -2.4391
 1270SOL    HW215273   4.261   3.367   7.814  0.8287 -2.5732 -0.6281
 1271SOL     OW15274   0.758   1.478   4.507 -0.6862 -0.0310  0.0269
 1271SOL    HW115275   0.703   1.555   4.513  1.0125  1.2854 -1.1217
 1271SOL    HW215276   0.733   1.428   4.584 -2.1196 -0.2647 -0.5978
 1272SOL     OW15277   4.502   0.780  16.768  0.1263  0.1497 -0.4351
 1272SOL    HW115278   4.562   0.765  16.694  0.6485 -1.6133  0.3279
 1272SOL    HW215279   4.472   0.689  16.775  1.4005 -0.2819 -0.4464
 1273SOL     OW15280   1.435   3.390   2.190 -0.0791  0.2500 -0.7701
 1273SOL    HW115281   1.395   3.465   2.147 -1.9062 -1.2413 -1.6479
 1273SOL    HW215282   1.363   3.329   2.177  0.7802 -0.5175 -1.9843
 1274SOL     OW15283   2.402   4.297   2.634 -0.2957  0.3360 -0.1600
 1274SOL    HW115284   2.407   4.236   2.707 -2.3867  1.7317  1.1412
 1274SOL    HW215285   2.389   4.382   2.677  0.4550 -0.2956  1.2951
 1275SOL     OW15286   0.557   4.268  12.317  0.2580  0.2687 -0.5685
 1275SOL    HW115287   0.645   4.293  12.346  0.0908 -1.2372  1.2260
 1275SOL    HW215288   0.541   4.196  12.379  0.6960  0.8728  0.2544
 1276SOL     OW15289   4.074   1.390  13.317  0.4329 -0.7599 -0.6482
 1276SOL    HW115290   4.115   1.329  13.379 -0.2182 -0.3349  0.1914
 1276SOL    HW215291   4.129   1.465  13.336  0.8129 -1.1017 -0.3880
 1277SOL     OW15292   4.154   1.576   5.460 -0.2532  0.3874 -0.4218
 1277SOL    HW115293   4.108   1.659   5.473 -0.3979  1.0583 -5.1819
 1277SOL    HW215294   4.161   1.578   5.364  1.7309 -1.3969 -0.2907
 1278SOL     OW15295   3.230   4.177  12.566  0.0727  0.1553 -0.3605
 1278SOL    HW115296   3.228   4.096  12.515  1.1152 -0.1756  0.1178
 1278SOL    HW215297   3.161   4.229  12.525 -0.2855 -1.5566 -1.9272
 1279SOL     OW15298   0.482   3.314   1.646 -0.2547 -0.5139 -0.7676
 1279SOL    HW115299   0.551   3.249   1.632  1.1026  0.9325 -0.6792
 1279SOL    HW215300   0.521   3.389   1.602 -0.8827  1.0682  1.3448
 1280SOL     OW15301   4.235   2.179  13.089  0.1081  0.3800 -0.5046
 1280SOL    HW115302   4.212   2.217  13.174  3.3123  0.1164  0.4793
 1280SOL    HW215303   4.284   2.100  13.111  0.4642  0.3557 -1.3943
 1281SOL     OW15304   3.461   4.453   3.939 -0.3226 -0.2889 -0.3627
 1281SOL    HW115305   3.487   4.381   3.882  0.0896 -2.2667  2.3116
 1281SOL    HW215306   3.366   4.448   3.936 -0.3188 -0.9320  0.8663
 1282SOL     OW15307   0.298   3.686   5.568  0.2718 -0.1687 -0.9424
 1282SOL    HW115308   0.383   3.655   5.537 -0.0463 -1.4572 -0.4959
 1282SOL    HW215309   0.271   3.749   5.500 -1.0086  1.7205  1.3105
 1283SOL     OW15310   0.098   3.302   0.642 -0.6551  0.8251 -0.5780
 1283SOL    HW115311   0.089   3.211   0.613  0.2589  0.7264 -0.5625
 1283SOL    HW215312   0.178   3.325   0.594  1.6887 -2.4092  1.7719
 1284SOL     OW15313   1.074   1.734  12.698  0.1290  0.0187 -0.1289
 1284SOL    HW115314   1.011   1.704  12.765 -0.1696 -2.1376 -1.3706
 1284SOL    HW215315   1.155   1.691  12.727 -0.1425  0.5597  1.4514
 1285SOL     OW15316   4.174   4.481   8.038  0.9981  0.0703  0.5293
 1285SOL    HW115317   4.136   4.569   8.045 -0.7892 -0.7282  0.9625
 1285SOL    HW215318   4.264   4.503   8.059  1.6041 -1.5654 -0.3479
 1286SOL     OW15319   1.405   3.331   0.424 -0.1581  0.6368  0.3238
 1286SOL    HW115320   1.485   3.290   0.389 -0.1927  1.2102 -0.4105
 1286SOL    HW215321   1.437   3.397   0.485  2.4396 -2.3098  2.2146
 1287SOL     OW15322   0.631   4.580   7.264 -0.0223  0.3683 -0.5503
 1287SOL    HW115323   0.707   4.544   7.310  0.0230  1.1909  0.0004
 1287SOL    HW215324   0.565   4.601   7.330 -0.9869 -1.0712 -1.0327
 1288SOL     OW15325   0.638   1.420   9.377  0.5016 -0.2293 -0.7281
 1288SOL    HW115326   0.582   1.446   9.449  1.0714 -0.2464 -0.2773
 1288SOL    HW215327   0.702   1.357   9.412 -0.9748 -1.0396  0.5055
 1289SOL     OW15328   1.864   0.341   5.220 -0.4024  0.0762  0.1429
 1289SOL    HW115329   1.862   0.300   5.307 -0.5158 -0.8683 -0.3038
 1289SOL    HW215330   1.868   0.268   5.159  1.0002  0.9404 -0.8037
 1290SOL     OW15331   3.971   0.751   3.691 -0.3711 -0.4020 -0.2903
 1290SOL    HW115332   3.925   0.684   3.641  1.7543 -1.7029 -0.5173
 1290SOL    HW215333   3.986   0.810   3.618  0.8318  1.7526  1.6994
 1291SOL     OW15334   3.144   2.190   6.359 -0.6465 -0.7068 -0.8044
 1291SOL    HW115335   3.199   2.165   6.285 -0.4176  1.0300 -1.2295
 1291SOL    HW215336   3.171   2.282   6.358 -2.5832 -0.1191  0.7404
 1292SOL     OW15337   1.242   3.163   5.679  0.0282 -0.1792  0.5344
 1292SOL    HW115338   1.326   3.185   5.721  0.7364 -1.3676 -0.2586
 1292SOL    HW215339   1.179   3.215   5.728  1.2807 -1.0656  3.1142
 1293SOL     OW15340   4.336   2.809  11.471  0.0400 -0.0669 -0.2806
 1293SOL    HW115341   4.342   2.900  11.501 -2.8501 -0.4063  1.3681
 1293SOL    HW215342   4.323   2.762  11.553 -1.7758 -1.6546 -1.4647
 1294SOL     OW15343   3.698   1.314  14.310  0.9401  0.1156 -0.1415
 1294SOL    HW115344   3.658   1.381  14.255 -1.7830 -0.6726  0.8748
 1294SOL    HW215345   3.619   1.260  14.319  0.6259  0.6128  0.0929
 1295SOL     OW15346   3.402   1.335   5.098  0.6384  0.0521 -0.1191
 1295SOL    HW115347   3.329   1.282   5.130 -0.5464  1.4898 -0.4072
 1295SOL    HW215348   3.370   1.426   5.094  0.3495 -0.1708 -2.9900
 1296SOL     OW15349   0.624   1.417   7.733 -0.2878 -0.4519 -0.4483
 1296SOL    HW115350   0.618   1.435   7.827  0.2561 -2.9918  0.0787
 1296SOL    HW215351   0.540   1.448   7.700  0.1050  0.6366 -0.4323
 1297SOL     OW15352   3.188   3.156  10.006 -0.0661  0.1962 -0.2820
 1297SOL    HW115353   3.130   3.217  10.052  0.7725  2.3133 -1.9912
 1297SOL    HW215354   3.128   3.135   9.934  0.6151  0.8182 -1.0341
 1298SOL     OW15355   3.271   0.908   3.981 -0.3881 -0.0478  0.0537
 1298SOL    HW115356   3.245   0.848   3.912 -1.0869 -1.0453  1.1772
 1298SOL    HW215357   3.209   0.904   4.054  0.0753  2.7189  0.6199
 1299SOL     OW15358   2.534   2.027   2.132 -0.5729  0.1191 -0.1771
 1299SOL    HW115359   2.460   1.984   2.176  0.8305 -0.5303  1.5394
 1299SOL    HW215360   2.488   2.068   2.058 -2.6229 -1.5710  0.1588
 1300SOL     OW15361   3.108   3.092  10.866 -0.0492 -0.1198  0.5952
 1300SOL    HW115362   3.161   3.067  10.942 -0.0690 -0.8982  0.3477
 1300SOL    HW215363   3.054   3.165  10.896  0.6635  1.5227 -2.1257
 1301SOL     OW15364   2.470   1.718   5.302  0.2990 -0.0880 -0.3649
 1301SOL    HW115365   2.505   1.662   5.232  1.2461  2.0032 -1.5753
 1301SOL    HW215366   2.519   1.796   5.273 -1.2303  0.5210 -1.3415
 1302SOL     OW15367   4.599   1.393   2.980 -0.0593 -0.3965  0.3817
 1302SOL    HW115368   4.512   1.425   3.003  0.3595  0.0415  1.3375
 1302SOL    HW215369   4.608   1.405   2.886 -0.8093 -1.4701  0.1794
 1303SOL     OW15370   1.170   0.484   0.793  0.0097 -0.3694 -0.9697
 1303SOL    HW115371   1.123   0.419   0.845  0.9982  0.3663  0.8515
 1303SOL    HW215372   1.166   0.435   0.711  0.0260  1.1333 -1.8715
 1304SOL     OW15373   3.389   0.948   9.915  0.1044  0.0119  0.4231
 1304SOL    HW115374   3.367   0.925  10.006  1.7245  0.6503  0.9879
 1304SOL    HW215375   3.474   0.906   9.903  1.3736  2.7623 -0.2396
 1305SOL     OW15376   4.515   4.226   5.593 -0.2382  0.2265  0.5776
 1305SOL    HW115377   4.516   4.151   5.654  0.6384  0.5989  1.0149
 1305SOL    HW215378   4.425   4.256   5.602 -1.6659 -3.2322 -2.2285
 1306SOL     OW15379   0.147   1.827  15.136  0.6033 -0.2660  0.4832
 1306SOL    HW115380   0.084   1.757  15.155  1.5825 -1.0519  0.8356
 1306SOL    HW215381   0.229   1.777  15.128  0.2763 -0.5408 -1.1257
 1307SOL     OW15382   1.298   2.278   7.313 -0.9725  1.2420  0.0493
 1307SOL    HW115383   1.380   2.319   7.286 -0.8950  1.1399  0.1283
 1307SOL    HW215384   1.263   2.344   7.373  0.9789  1.9603  0.4073
 1308SOL     OW15385   3.616   2.081  14.634 -0.8544 -0.4592 -0.3182
 1308SOL    HW115386   3.590   1.990  14.622 -0.6608 -0.3897 -1.2218
 1308SOL    HW215387   3.585   2.110  14.720  3.0392  1.5448  0.4052
 1309SOL     OW15388   0.312   2.451   7.190 -0.2205  0.0293  0.8180
 1309SOL    HW115389   0.238   2.458   7.129  0.3999  0.4246  0.1018
 1309SOL    HW215390   0.345   2.365   7.164  1.7417  1.4694 -1.4381
 1310SOL     OW15391   0.493   2.647   4.660  0.6913 -0.0717  0.7099
 1310SOL    HW115392   0.466   2.725   4.611  0.1630 -0.3217  0.5958
 1310SOL    HW215393   0.529   2.591   4.591  1.9192  0.4849  0.9070
 1311SOL     OW15394   4.673   2.129   9.246  0.4515  0.8151 -0.1961
 1311SOL    HW115395   4.588   2.110   9.287  1.2480  0.0327  1.0919
 1311SOL    HW215396   0.006   2.138   9.322  0.3061  0.1722 -0.0133
 1312SOL     OW15397   1.090   2.415  16.331  0.0792  0.1560  0.4785
 1312SOL    HW115398   1.110   2.322  16.318 -2.6001 -0.5309  1.1945
 1312SOL    HW215399   1.021   2.405  16.397 -2.8817  1.3479 -2.3951
 1313SOL     OW15400   3.852   1.113  10.509  0.1190 -0.4886 -0.2807
 1313SOL    HW115401   3.760   1.109  10.537 -0.0808  0.1900 -0.8141
 1313SOL    HW215402   3.855   1.184  10.444  2.1785 -0.7429 -0.4643
 1314SOL     OW15403   1.842   3.685   8.050  0.0286 -0.0482 -0.3890
 1314SOL    HW115404   1.825   3.625   8.123 -0.2430 -2.0918 -2.1213
 1314SOL    HW215405   1.754   3.689   8.012 -0.4411  2.3250  1.0048
 1315SOL     OW15406   2.968   3.781   5.596  0.1476  0.2159 -0.5169
 1315SOL    HW115407   3.025   3.844   5.639  2.7735 -2.1146 -0.5863
 1315SOL    HW215408   2.881   3.820   5.609  0.5473  0.1341  2.4078
 1316SOL     OW15409   0.042   0.574   3.108 -0.1705  0.0404  0.3156
 1316SOL    HW115410   4.703   0.512   3.072 -0.3786  1.1491 -1.2556
 1316SOL    HW215411   4.716   0.610   3.181  0.8012  0.3444  0.8271
 1317SOL     OW15412   2.237   2.359   9.466 -0.1371  0.0508  0.3672
 1317SOL    HW115413   2.223   2.406   9.548  1.0759 -0.8722  1.0927
 1317SOL    HW215414   2.301   2.297   9.499 -0.9517 -2.0460 -1.9576
 1318SOL     OW15415   2.899   0.510   3.616  0.3564 -0.4806 -0.4736
 1318SOL    HW115416   2.933   0.438   3.562  1.7954 -0.0464 -0.1562
 1318SOL    HW215417   2.858   0.569   3.553 -1.1314  0.0178  0.9774
 1319SOL     OW15418   1.759   3.819   6.482 -0.3197  0.0438 -0.3461
 1319SOL    HW115419   1.822   3.886   6.507 -0.4041  0.0271 -0.0891
 1319SOL    HW215420   1.800   3.774   6.408 -0.9956  1.9152 -1.8322
 1320SOL     OW15421   2.090   4.551   7.212 -0.3257 -1.2008 -0.5010
 1320SOL    HW115422   2.176   4.508   7.216  2.1024  3.7258 -0.4497
 1320SOL    HW215423   2.074   4.553   7.306  0.4110  0.4517 -0.4317
 1321SOL     OW15424   2.381   4.486   4.622 -0.2668  0.0532 -0.3567
 1321SOL    HW115425   2.452   4.548   4.637  0.2342 -0.5744 -0.1512
 1321SOL    HW215426   2.435   4.408   4.613 -1.8560 -0.9801 -1.0337
 1322SOL     OW15427   3.283   3.897   3.603  0.4171 -0.5668 -0.2195
 1322SOL    HW115428   3.190   3.919   3.601  1.1119  2.5322  0.9181
 1322SOL    HW215429   3.279   3.808   3.636 -1.6078 -0.8257 -1.1613
 1323SOL     OW15430   2.770   1.895  13.563  0.3940  0.0659  0.3881
 1323SOL    HW115431   2.843   1.866  13.618 -2.2755 -0.4894  3.5875
 1323SOL    HW215432   2.809   1.927  13.481 -0.0173 -2.9128 -0.9725
 1324SOL     OW15433   3.598   0.817   6.694 -0.2196 -0.0941 -0.4924
 1324SOL    HW115434   3.691   0.800   6.683  0.2328  0.8903  1.8348
 1324SOL    HW215435   3.573   0.832   6.603 -2.6130 -2.5749 -0.2529
 1325SOL     OW15436   0.141   4.501   2.361  0.3412 -0.0477 -0.6610
 1325SOL    HW115437   0.097   4.499   2.446  1.6034 -0.3826 -0.0254
 1325SOL    HW215438   0.226   4.461   2.374 -0.2905 -1.4499 -0.8974
 1326SOL     OW15439   0.084   0.576   3.587  0.3131  0.6445 -0.4347
 1326SOL    HW115440   0.063   0.578   3.680  0.9759 -0.1218 -0.2669
 1326SOL    HW215441   0.155   0.640   3.588  1.8601 -1.0635 -0.2029
 1327SOL     OW15442   0.943   3.947   7.689 -0.3849  0.4356 -0.1866
 1327SOL    HW115443   1.038   3.955   7.674 -0.0221 -1.7272  0.9862
 1327SOL    HW215444   0.922   4.038   7.668 -5.2418 -0.9191 -1.2195
 1328SOL     OW15445   1.173   2.130   2.121 -0.5607  0.1218 -0.1624
 1328SOL    HW115446   1.234   2.066   2.084  0.1118 -0.4574  1.9533
 1328SOL    HW215447   1.130   2.146   2.037 -0.5064  1.0017 -0.0278
 1329SOL     OW15448   1.107   0.872   2.806 -0.0094 -0.0897  0.0197
 1329SOL    HW115449   1.072   0.924   2.734  1.7201 -0.4766 -1.0906
 1329SOL    HW215450   1.025   0.835   2.840  0.1021  0.7053  1.1543
 1330SOL     OW15451   1.983   0.833   4.777  0.0861 -0.1745 -0.3362
 1330SOL    HW115452   1.939   0.916   4.798 -1.5455 -1.8306  2.7384
 1330SOL    HW215453   1.940   0.776   4.840 -1.0785  0.0281 -0.9316
 1331SOL     OW15454   0.280   0.325  15.042 -0.0730  0.1201  0.6369
 1331SOL    HW115455   0.232   0.362  14.968  0.6432  0.8490  0.5385
 1331SOL    HW215456   0.357   0.381  15.039 -0.6522  0.9476  1.3128
 1332SOL     OW15457   1.802   0.936   3.665 -0.1634  0.2451 -0.5553
 1332SOL    HW115458   1.731   0.957   3.603  0.0500  1.7594 -0.2599
 1332SOL    HW215459   1.865   1.002   3.638  2.3680 -1.7677  0.4358
 1333SOL     OW15460   3.973   4.023   4.887  0.0654  0.3745  0.4386
 1333SOL    HW115461   4.052   4.003   4.837 -0.8295  0.0914 -0.8810
 1333SOL    HW215462   3.938   4.102   4.847  2.9594  1.3078 -0.2043
 1334SOL     OW15463   0.808   3.628   4.396  0.2250 -0.0306  0.1296
 1334SOL    HW115464   0.797   3.608   4.304 -3.5109  2.3319  0.0384
 1334SOL    HW215465   0.719   3.599   4.414  0.4591 -0.8790 -0.0810
 1335SOL     OW15466   3.848   3.272  14.365 -0.9993 -0.4071 -0.2748
 1335SOL    HW115467   3.938   3.275  14.397 -0.6275  1.6005 -1.5224
 1335SOL    HW215468   3.800   3.235  14.439 -1.6617  0.0871 -0.4527
 1336SOL     OW15469   1.750   2.117   5.199 -0.2348 -0.7051  0.0467
 1336SOL    HW115470   1.725   2.204   5.228  0.1624  0.0303 -1.8559
 1336SOL    HW215471   1.798   2.148   5.123  0.8013 -1.3972  0.4146
 1337SOL     OW15472   0.927   1.047  11.403 -0.2427  0.5727  0.2107
 1337SOL    HW115473   0.988   1.112  11.438  0.4162 -0.1109  0.3268
 1337SOL    HW215474   0.892   1.084  11.322 -0.8076 -1.7993 -0.6222
 1338SOL     OW15475   0.282   3.742   5.299 -0.0932 -0.5129  0.4726
 1338SOL    HW115476   0.272   3.834   5.275  0.4536  0.6261  4.6242
 1338SOL    HW215477   0.377   3.727   5.291  0.0475 -0.1855  1.4690
 1339SOL     OW15478   3.396   1.688   7.647  0.1783 -0.1321 -0.1322
 1339SOL    HW115479   3.419   1.690   7.554  0.1619 -0.2108 -0.1380
 1339SOL    HW215480   3.343   1.768   7.648  0.6567  0.2189 -2.1435
 1340SOL     OW15481   3.327   4.315   5.512 -0.3643 -0.1336  0.2055
 1340SOL    HW115482   3.326   4.300   5.418  1.1410 -0.0767  0.1691
 1340SOL    HW215483   3.379   4.396   5.518  0.6798 -0.7546 -0.4053
 1341SOL     OW15484   3.203   2.820   7.672  0.1816  0.5072 -0.6838
 1341SOL    HW115485   3.227   2.810   7.764  1.0434  2.1703 -0.7198
 1341SOL    HW215486   3.165   2.908   7.668  1.5709  1.1396  0.2423
 1342SOL     OW15487   1.756   2.257   1.749 -0.6104  0.1717 -0.2094
 1342SOL    HW115488   1.662   2.269   1.764 -0.8004  1.2890 -2.3013
 1342SOL    HW215489   1.777   2.344   1.712  0.7369  0.0146  0.1815
 1343SOL     OW15490   1.753   3.059  11.679  0.2507  0.0849 -0.2402
 1343SOL    HW115491   1.761   3.115  11.601  1.2505  0.4454  0.1316
 1343SOL    HW215492   1.658   3.048  11.674 -0.1197  3.6616 -1.2682
 1344SOL     OW15493   0.016   0.970   3.416 -0.1138 -0.6638  0.0863
 1344SOL    HW115494   0.028   1.011   3.502 -0.8900 -0.6749  0.1970
 1344SOL    HW215495   0.102   0.964   3.375  0.1636 -1.0054  0.7333
 1345SOL     OW15496   1.360   3.299   6.771  0.2195 -0.0564  0.1501
 1345SOL    HW115497   1.273   3.325   6.742 -0.0427 -1.6218 -0.4850
 1345SOL    HW215498   1.343   3.208   6.797  1.1541 -0.5877 -1.0980
 1346SOL     OW15499   1.208   2.137   7.691  0.8012 -0.3742 -0.4154
 1346SOL    HW115500   1.144   2.206   7.672  1.6503  0.5190 -0.0233
 1346SOL    HW215501   1.191   2.077   7.618  0.6334 -2.5179  1.3963
 1347SOL     OW15502   4.423   2.456   8.476  0.6977  0.0988 -0.5819
 1347SOL    HW115503   4.489   2.497   8.420  0.1451  1.9376  0.0772
 1347SOL    HW215504   4.428   2.512   8.554 -2.5368  1.9678 -1.6726
 1348SOL     OW15505   0.405   1.720  15.085  0.3299 -0.1552 -0.1458
 1348SOL    HW115506   0.440   1.659  15.019  0.0353 -1.3934  0.8314
 1348SOL    HW215507   0.479   1.713  15.146 -0.3397  0.9397  0.7864
 1349SOL     OW15508   2.745   3.977   3.572  0.3612  0.1114  0.0832
 1349SOL    HW115509   2.751   4.050   3.511 -1.5685  0.5282  0.4011
 1349SOL    HW215510   2.695   4.009   3.648 -1.0611 -0.0005 -0.8133
 1350SOL     OW15511   0.728   2.714  16.393  0.4460 -0.3900 -0.4689
 1350SOL    HW115512   0.668   2.643  16.367  1.9459 -0.7627 -2.9487
 1350SOL    HW215513   0.724   2.702  16.487  0.3982 -0.1423 -0.4390
 1351SOL     OW15514   3.447   0.002  17.221 -0.6082 -0.0434 -0.5032
 1351SOL    HW115515   3.398   0.067  17.272  0.1239  1.0835 -1.2208
 1351SOL    HW215516   3.491   0.060  17.159 -0.0630  0.0385 -0.0386
 1352SOL     OW15517   2.142   4.577  15.229  0.0590 -0.8051 -0.5761
 1352SOL    HW115518   2.238   4.578  15.232  0.0095 -0.0356  0.9150
 1352SOL    HW215519   2.119   4.638  15.299  2.3031 -1.5451  0.8086
 1353SOL     OW15520   2.259   4.459   5.784  0.0431  0.2644  0.4973
 1353SOL    HW115521   2.342   4.415   5.804  0.1903  0.8774  1.2495
 1353SOL    HW215522   2.284   4.550   5.768  0.2742  0.4363  1.8553
 1354SOL     OW15523   3.320   4.032  11.971  0.7662 -0.3885 -0.4617
 1354SOL    HW115524   3.365   3.949  11.953  0.0506 -0.2610 -2.8734
 1354SOL    HW215525   3.241   4.017  11.918  1.9064 -0.3668 -2.1501
 1355SOL     OW15526   3.821   4.151  16.282 -0.2498  0.1636  0.0692
 1355SOL    HW115527   3.837   4.241  16.253 -1.5635  0.7766  1.2777
 1355SOL    HW215528   3.767   4.174  16.357 -1.6178  1.5516 -1.3385
 1356SOL     OW15529   0.024   3.750  11.186  0.3388 -0.2456 -0.1087
 1356SOL    HW115530   0.032   3.735  11.092 -1.8674 -1.0672 -0.1585
 1356SOL    HW215531   4.723   3.843  11.188  3.5079  0.5750  1.3047
 1357SOL     OW15532   3.951   2.522   2.427 -0.0878  0.2191 -0.1421
 1357SOL    HW115533   3.949   2.616   2.408 -0.5841  0.3310  0.4603
 1357SOL    HW215534   3.963   2.494   2.337  2.2627 -0.8659  0.4928
 1358SOL     OW15535   4.595   4.021   2.366  0.2897 -0.4478 -0.2213
 1358SOL    HW115536   4.661   4.090   2.353 -0.5569  0.2679 -0.6731
 1358SOL    HW215537   4.518   4.051   2.318  0.4777  0.7817  0.2366
 1359SOL     OW15538   0.235   3.670  13.433  0.5446 -0.2576 -0.2536
 1359SOL    HW115539   0.150   3.657  13.475 -0.1421  0.3749 -1.4146
 1359SOL    HW215540   0.252   3.756  13.472  1.3312 -0.6793  0.3158
 1360SOL     OW15541   0.478   1.795   4.427  0.2788 -0.2842  0.0049
 1360SOL    HW115542   0.424   1.808   4.349  0.6599  0.7529 -0.0826
 1360SOL    HW215543   0.529   1.876   4.424 -1.6721  0.9550  0.3749
 1361SOL     OW15544   0.787   1.885   9.079 -0.1674  0.1509 -0.0726
 1361SOL    HW115545   0.831   1.969   9.090  1.8498 -0.9863  0.5458
 1361SOL    HW215546   0.857   1.829   9.044  1.0966  0.5353  1.8424
 1362SOL     OW15547   3.154   1.621   0.483 -0.4009  0.0961 -0.5355
 1362SOL    HW115548   3.242   1.633   0.448  0.7198 -2.7355  1.2859
 1362SOL    HW215549   3.178   1.595   0.572  0.1287  2.7794  0.0973
 1363SOL     OW15550   3.390   1.668   8.739  0.5208  0.0184  0.2072
 1363SOL    HW115551   3.313   1.650   8.792  0.1692 -1.3409 -0.7727
 1363SOL    HW215552   3.458   1.650   8.804 -1.2683 -3.0587  1.1948
 1364SOL     OW15553   2.353   0.998   5.255 -0.3590 -0.2143  0.1332
 1364SOL    HW115554   2.308   1.044   5.185  1.2363 -0.7991 -1.2680
 1364SOL    HW215555   2.308   1.027   5.335 -0.8684  0.1535 -0.2950
 1365SOL     OW15556   2.869   4.475  12.294 -0.5310  0.1727 -0.5863
 1365SOL    HW115557   2.838   4.410  12.231 -2.5238 -0.4868  1.0535
 1365SOL    HW215558   2.791   4.527  12.312  1.2389  2.5463  0.1832
 1366SOL     OW15559   4.516   0.580   6.318  0.0900 -0.3005  0.7809
 1366SOL    HW115560   4.479   0.505   6.272 -1.3287 -0.3633  2.0354
 1366SOL    HW215561   4.439   0.603   6.371  1.1032  0.9754  1.6909
 1367SOL     OW15562   1.475   1.454   5.725 -0.4995  0.4789 -0.3522
 1367SOL    HW115563   1.498   1.541   5.757 -1.5884  1.1095 -1.2972
 1367SOL    HW215564   1.496   1.465   5.632 -0.5446  0.5990 -0.3482
 1368SOL     OW15565   4.345   3.102   3.933  0.3176  0.3813  0.4417
 1368SOL    HW115566   4.367   3.017   3.971  0.8434 -0.2409 -1.2646
 1368SOL    HW215567   4.283   3.079   3.864 -2.6606 -1.6828  3.7718
 1369SOL     OW15568   3.810   0.001   2.757  0.4184  0.3687 -0.9040
 1369SOL    HW115569   3.894   0.043   2.737 -0.1931  0.6525 -2.8197
 1369SOL    HW215570   3.740   0.065   2.746  0.9211  0.8050 -1.5881
 1370SOL     OW15571   1.347   2.180  16.884 -0.2219 -0.5369 -0.1918
 1370SOL    HW115572   1.318   2.115  16.948 -1.7768  0.8273  0.4747
 1370SOL    HW215573   1.270   2.181  16.827 -0.9697 -1.9239  0.7948
 1371SOL     OW15574   2.065   2.646   0.360  0.4541  0.1256 -0.4769
 1371SOL    HW115575   2.041   2.692   0.279 -0.5450 -0.5113 -0.5448
 1371SOL    HW215576   2.141   2.696   0.390  0.3166  0.0703 -0.0416
 1372SOL     OW15577   2.815   0.893  15.496 -0.7867  0.0532 -0.0561
 1372SOL    HW115578   2.780   0.975  15.529 -1.8285 -0.3449 -0.1853
 1372SOL    HW215579   2.889   0.912  15.439 -0.7774  2.7242  0.8755
 1373SOL     OW15580   2.765   2.221  11.823 -0.0550 -0.0739 -0.4608
 1373SOL    HW115581   2.717   2.138  11.817  0.1425 -0.3278  1.5425
 1373SOL    HW215582   2.773   2.228  11.918 -0.4589 -0.9702 -0.3535
 1374SOL     OW15583   2.071   3.530   7.755  0.7366 -0.3492 -0.4571
 1374SOL    HW115584   2.003   3.468   7.730 -2.7925  3.5046 -0.3034
 1374SOL    HW215585   2.123   3.488   7.824  3.8757  0.7472 -2.1480
 1375SOL     OW15586   0.230   3.072   8.793 -0.3968  0.3473 -0.1662
 1375SOL    HW115587   0.277   3.032   8.720 -0.3132  0.2907 -0.0805
 1375SOL    HW215588   0.291   3.069   8.866 -1.8023 -0.7241  0.9599
 1376SOL     OW15589   3.926   2.670  15.393  0.0868 -0.3270 -0.0677
 1376SOL    HW115590   3.940   2.582  15.359 -0.2916 -0.8758  1.2318
 1376SOL    HW215591   4.010   2.694  15.433 -0.3722 -1.9998  1.8878
 1377SOL     OW15592   1.216   3.002   5.205 -0.0429  0.5878 -0.3176
 1377SOL    HW115593   1.272   3.077   5.226  0.2697  0.4183 -0.5331
 1377SOL    HW215594   1.229   2.963   5.292  2.0669 -0.4060 -1.0751
 1378SOL     OW15595   2.129   1.277   6.709  0.0176 -0.6530  0.6844
 1378SOL    HW115596   2.185   1.198   6.712  2.3641  0.9716  0.0415
 1378SOL    HW215597   2.116   1.296   6.802 -0.1070 -0.9362  0.7256
 1379SOL     OW15598   2.608   1.137   1.837  0.6253  0.0518  0.0536
 1379SOL    HW115599   2.625   1.045   1.814 -0.7694 -0.2913  0.4185
 1379SOL    HW215600   2.514   1.139   1.821  0.7242  1.2939 -0.3396
 1380SOL     OW15601   3.239   0.461  14.604  0.2580 -0.2156  0.4595
 1380SOL    HW115602   3.199   0.539  14.565  0.5243  0.5095  1.6326
 1380SOL    HW215603   3.155   0.415  14.608 -0.2919  0.7695  0.3407
 1381SOL     OW15604   3.871   0.204  16.834 -0.6193 -0.0515  0.1820
 1381SOL    HW115605   3.831   0.174  16.752  1.5829  0.8211 -1.2207
 1381SOL    HW215606   3.938   0.135  16.840  0.2999  0.6215 -2.3811
 1382SOL     OW15607   0.159   0.025   0.679  0.4883 -0.2159 -0.1351
 1382SOL    HW115608   0.171   0.119   0.697  0.3053 -0.3874  0.9188
 1382SOL    HW215609   0.148   4.707   0.765  3.3186  1.5443  1.0794
 1383SOL     OW15610   0.349   4.081   2.964  0.1825 -0.9473 -0.5194
 1383SOL    HW115611   0.373   4.052   2.876 -2.9566  1.7418 -2.3005
 1383SOL    HW215612   0.257   4.060   2.982  0.0511  1.1363  1.2599
 1384SOL     OW15613   2.951   4.266   3.274 -0.3497 -0.2326 -0.1731
 1384SOL    HW115614   2.922   4.177   3.291  1.2990 -0.5623  0.9519
 1384SOL    HW215615   2.935   4.285   3.182  2.8828  1.6665 -0.3551
 1385SOL     OW15616   0.003   0.456   4.603  0.6360 -0.0430 -0.0009
 1385SOL    HW115617   0.054   0.473   4.524  0.2914 -0.6119 -0.3439
 1385SOL    HW215618   0.081   0.459   4.659  1.1252 -1.3697 -0.6058
 1386SOL     OW15619   0.502   3.655   4.071 -0.0214 -0.2236  0.7896
 1386SOL    HW115620   0.412   3.648   4.040  0.0932  0.0627  0.4015
 1386SOL    HW215621   0.508   3.749   4.089 -2.4990 -0.0179  0.4982
 1387SOL     OW15622   0.772   1.831  12.206  0.3957 -0.5753 -0.6955
 1387SOL    HW115623   0.849   1.885  12.185 -0.9860  2.1912  1.3066
 1387SOL    HW215624   0.779   1.823  12.301 -0.3868 -0.2091 -0.6103
 1388SOL     OW15625   3.569   3.735   3.149 -0.7711 -0.0873  0.2395
 1388SOL    HW115626   3.553   3.691   3.066  0.3976  0.3440 -0.2134
 1388SOL    HW215627   3.488   3.739   3.200  0.5433  3.3813  2.0253
 1389SOL     OW15628   3.468   0.393  13.814 -0.6040 -0.1625  0.2081
 1389SOL    HW115629   3.518   0.318  13.847 -0.1785  0.6120  1.3576
 1389SOL    HW215630   3.464   0.456  13.886 -0.9273  0.3128 -0.2249
 1390SOL     OW15631   4.145   2.320  16.774 -0.1613  0.5811  0.1083
 1390SOL    HW115632   4.136   2.399  16.828 -0.5285  0.6010  0.0207
 1390SOL    HW215633   4.062   2.281  16.804  1.2186 -0.4309  2.6390
 1391SOL     OW15634   0.930   4.602   8.552  0.0585  0.2960  0.6623
 1391SOL    HW115635   1.022   4.588   8.530  0.1584  0.5256  0.9273
 1391SOL    HW215636   0.913   4.548   8.629 -1.3831 -0.7977 -0.4396
 1392SOL     OW15637   4.191   2.677   3.810 -0.1023 -0.3641 -0.2127
 1392SOL    HW115638   4.118   2.735   3.828 -1.4190 -2.0343 -0.0956
 1392SOL    HW215639   4.151   2.608   3.757  1.6223  0.6412 -2.8333
 1393SOL     OW15640   4.706   3.175   6.881  0.0599 -0.0567 -0.1837
 1393SOL    HW115641   0.009   3.112   6.815  0.7370  2.6294 -2.4937
 1393SOL    HW215642   0.018   3.249   6.832 -0.3998 -0.7162 -1.5080
 1394SOL     OW15643   0.310   2.240  15.389 -0.7288  0.2870 -0.1208
 1394SOL    HW115644   0.292   2.189  15.469 -0.5640  1.3763  0.6101
 1394SOL    HW215645   0.249   2.198  15.328 -1.6486 -0.4947  1.3339
 1395SOL     OW15646   0.750   2.974   8.782  0.2662  0.1151 -0.3380
 1395SOL    HW115647   0.803   3.011   8.853 -0.1894  1.7911 -0.8781
 1395SOL    HW215648   0.703   2.906   8.830 -0.0580  0.2124 -0.5242
 1396SOL     OW15649   2.251   4.324  13.684  0.2012  0.7092 -0.3342
 1396SOL    HW115650   2.158   4.305  13.672  0.5995 -0.3634 -1.7634
 1396SOL    HW215651   2.269   4.254  13.747 -4.1031  0.9642  1.2086
 1397SOL     OW15652   1.393   1.088  10.726  0.4167 -0.4565 -0.2173
 1397SOL    HW115653   1.316   1.142  10.745  0.6875 -0.6523  1.4776
 1397SOL    HW215654   1.464   1.143  10.695  0.2717 -0.1900 -0.0812
 1398SOL     OW15655   3.726   1.176  11.581  0.6956 -0.3370  0.0052
 1398SOL    HW115656   3.650   1.185  11.523  1.9165 -2.2816 -1.9089
 1398SOL    HW215657   3.714   1.083  11.597  1.4481 -0.1111  1.9253
 1399SOL     OW15658   0.641   4.283   6.850 -0.2190  0.5129 -0.0409
 1399SOL    HW115659   0.635   4.208   6.909 -2.6220 -0.3478 -1.4094
 1399SOL    HW215660   0.550   4.310   6.842 -0.7147 -1.1673 -0.0428
 1400SOL     OW15661   1.626   2.814  13.903 -0.0175  0.0728 -0.1425
 1400SOL    HW115662   1.542   2.859  13.897  0.7799  1.4034 -1.3928
 1400SOL    HW215663   1.600   2.739  13.957  1.5916 -1.1471 -1.0715
 1401SOL     OW15664   1.058   3.877   8.415 -0.5201  0.4778 -0.0004
 1401SOL    HW115665   0.975   3.916   8.390 -0.1657  0.7776 -0.7052
 1401SOL    HW215666   1.040   3.783   8.411  1.9422  0.0276 -0.9795
 1402SOL     OW15667   2.870   0.153   4.859  0.2464 -0.0739 -0.3010
 1402SOL    HW115668   2.909   0.066   4.848  1.6168  0.2108  2.2901
 1402SOL    HW215669   2.796   0.127   4.913 -0.7015  1.8866 -0.6693
 1403SOL     OW15670   3.695   1.936   4.183  0.1942  0.0004  0.3874
 1403SOL    HW115671   3.773   1.945   4.239 -0.8253  0.5993  1.6929
 1403SOL    HW215672   3.625   1.945   4.247 -1.7802 -0.9330 -1.6594
 1404SOL     OW15673   4.050   3.895   7.167  0.1855  0.0552 -0.3768
 1404SOL    HW115674   3.980   3.952   7.199 -0.7894 -0.8920 -0.8533
 1404SOL    HW215675   4.016   3.806   7.165 -2.1163  0.9715 -1.4305
 1405SOL     OW15676   2.380   1.729  10.777 -0.6184  0.0696  0.2199
 1405SOL    HW115677   2.472   1.756  10.776  0.0482 -2.1908  1.9562
 1405SOL    HW215678   2.375   1.694  10.688 -0.8362 -0.4362  0.4337
 1406SOL     OW15679   2.069   0.836  17.560 -0.6265  0.4706  0.6865
 1406SOL    HW115680   2.027   0.830  17.474  3.2403 -2.2719 -1.0019
 1406SOL    HW215681   2.141   0.897  17.543 -2.1917  3.1209  3.5283
 1407SOL     OW15682   3.555   0.970   8.347  0.2668 -0.0018  0.4898
 1407SOL    HW115683   3.600   0.888   8.368 -0.0291  0.1991  1.9029
 1407SOL    HW215684   3.618   1.000   8.282 -0.5700 -0.5317 -0.5830
 1408SOL     OW15685   0.077   2.659   5.683  0.0722  0.1889  0.2266
 1408SOL    HW115686   0.120   2.700   5.607  2.4260  0.6098  1.7974
 1408SOL    HW215687   0.023   2.736   5.700 -0.4347 -0.3952  1.2667
 1409SOL     OW15688   3.473   4.273   4.834 -0.2224  0.1114 -0.2323
 1409SOL    HW115689   3.486   4.363   4.864 -0.8055 -0.5276  1.9603
 1409SOL    HW215690   3.530   4.223   4.892 -3.0224 -2.8114  0.0158
 1410SOL     OW15691   0.099   0.224  11.809  0.1689  0.1418 -0.0386
 1410SOL    HW115692   0.149   0.202  11.887  0.1768 -1.0451 -0.3796
 1410SOL    HW215693   0.011   0.204  11.842  0.8486  0.7074  2.1364
 1411SOL     OW15694   3.776   3.703   9.926  0.2944  0.2294 -0.1917
 1411SOL    HW115695   3.769   3.657   9.843  0.5006 -1.8935  0.9555
 1411SOL    HW215696   3.701   3.763   9.927 -0.0742 -0.2258 -0.1550
 1412SOL     OW15697   4.430   1.535  10.157  0.0563 -0.2624  0.4585
 1412SOL    HW115698   4.506   1.593  10.170 -0.9298  0.4571  2.9387
 1412SOL    HW215699   4.468   1.482  10.087  1.2085 -0.1230  0.9807
 1413SOL     OW15700   2.409   2.128   0.342  0.5199  0.0319  0.4817
 1413SOL    HW115701   2.454   2.043   0.339  2.1891  0.9638 -0.2612
 1413SOL    HW215702   2.467   2.169   0.406 -0.1076  1.2037  0.3027
 1414SOL     OW15703   3.816   1.306   5.587 -0.4081  0.1223  0.4029
 1414SOL    HW115704   3.873   1.242   5.545 -0.8812  0.2538 -0.4409
 1414SOL    HW215705   3.876   1.336   5.655 -0.4905  0.3920  0.3576
 1415SOL     OW15706   0.598   2.296   5.073  1.0041  0.3800  0.4859
 1415SOL    HW115707   0.545   2.329   5.001  1.0489 -1.1204 -0.2476
 1415SOL    HW215708   0.529   2.304   5.138  1.9698 -0.5095  1.6104
 1416SOL     OW15709   4.454   1.736   3.228  0.3345  0.5220 -0.2168
 1416SOL    HW115710   4.368   1.721   3.189  0.5929 -0.5830 -0.3734
 1416SOL    HW215711   4.471   1.830   3.218  1.1287  0.2073 -1.8623
 1417SOL     OW15712   4.328   2.930   4.630 -0.2340 -1.2414  0.3495
 1417SOL    HW115713   4.249   2.983   4.622  0.8375  0.5484  1.4590
 1417SOL    HW215714   4.326   2.879   4.550  3.0275  0.0474 -0.5881
 1418SOL     OW15715   1.003   2.323  14.255 -0.5224 -0.6909 -0.0618
 1418SOL    HW115716   0.996   2.362  14.342  1.3278  1.4292 -0.8638
 1418SOL    HW215717   0.917   2.330  14.214 -0.4708  1.0524  0.1390
 1419SOL     OW15718   3.391   0.494   6.138 -0.4059 -0.4765 -0.2822
 1419SOL    HW115719   3.407   0.527   6.226  0.9426 -0.9056 -0.3767
 1419SOL    HW215720   3.316   0.551   6.122 -1.1372 -0.3894  3.3864
 1420SOL     OW15721   4.568   3.034   1.635  0.1632 -0.6303  0.1890
 1420SOL    HW115722   4.614   3.025   1.551  0.8481 -0.6514  0.5682
 1420SOL    HW215723   4.493   3.090   1.613 -1.6287 -3.1692 -0.1749
 1421SOL     OW15724   4.698   1.289   0.900 -0.8813  0.6160  0.2229
 1421SOL    HW115725   4.615   1.282   0.852 -1.6274 -0.1408  1.6271
 1421SOL    HW215726   4.670   1.257   0.986 -0.6664  0.0705  0.0883
 1422SOL     OW15727   2.990   4.385   4.881  0.7013  0.0925 -0.0332
 1422SOL    HW115728   3.007   4.295   4.854 -0.1064 -0.0378 -0.1136
 1422SOL    HW215729   2.900   4.405   4.855  0.5708 -0.9097 -0.3575
 1423SOL     OW15730   1.715   1.930   7.082 -0.5272 -0.4054 -0.1818
 1423SOL    HW115731   1.805   1.965   7.078 -0.8846  0.5952  0.5454
 1423SOL    HW215732   1.734   1.851   7.132 -2.5382  0.5919  2.1634
 1424SOL     OW15733   1.108   4.453   7.593 -0.1220 -0.2334 -0.0688
 1424SOL    HW115734   1.075   4.536   7.628  0.3233 -1.4792  3.2669
 1424SOL    HW215735   1.201   4.468   7.579  0.4244 -0.5197  3.1262
 1425SOL     OW15736   0.351   3.490   7.249 -0.5045  0.0452  0.1747
 1425SOL    HW115737   0.385   3.413   7.295  1.0150  0.6976  0.1394
 1425SOL    HW215738   0.357   3.559   7.315 -0.4828 -0.5269  0.7678
 1426SOL     OW15739   0.515   1.589  11.388  0.1338 -0.0330 -0.6114
 1426SOL    HW115740   0.609   1.590  11.410 -0.1873 -4.2798  1.1617
 1426SOL    HW215741   0.504   1.512  11.331 -0.4733 -0.7587  0.4820
 1427SOL     OW15742   0.129   1.540  16.344  0.0215  0.5847 -0.3931
 1427SOL    HW115743   0.137   1.490  16.425 -1.6043  2.7672  1.0929
 1427SOL    HW215744   0.214   1.522  16.302  0.0139 -0.4902  0.0612
 1428SOL     OW15745   0.004   0.997   1.919  0.3714 -0.1825 -0.1799
 1428SOL    HW115746   4.704   1.087   1.942  1.4072 -0.0239  0.2681
 1428SOL    HW215747   4.665   0.984   1.847  1.5560 -0.3722 -1.1683
 1429SOL     OW15748   4.236   4.587   1.559  0.3148 -0.0565 -0.0776
 1429SOL    HW115749   4.252   4.632   1.642  0.1910  0.7170 -0.4686
 1429SOL    HW215750   4.216   4.666   1.507  2.5901  0.5087 -0.0854
 1430SOL     OW15751   1.592   0.432   4.778 -0.1351  0.0087 -0.7505
 1430SOL    HW115752   1.519   0.371   4.786 -0.0093 -0.1451 -0.7782
 1430SOL    HW215753   1.674   0.392   4.807  0.7597  2.7871  0.5736
 1431SOL     OW15754   1.921   2.869  15.051  0.3527  0.0815 -0.0396
 1431SOL    HW115755   2.004   2.823  15.051 -0.7750 -1.9649  0.7411
 1431SOL    HW215756   1.889   2.844  14.965  0.5241 -0.8770  0.1787
 1432SOL     OW15757   3.053   3.182   4.198  0.1281 -0.1779  0.0706
 1432SOL    HW115758   3.051   3.238   4.276 -1.3697 -1.0373  0.6605
 1432SOL    HW215759   3.059   3.090   4.227 -0.4618 -1.0409 -2.5838
 1433SOL     OW15760   4.157   1.324   0.441 -0.1355  0.3019  0.1086
 1433SOL    HW115761   4.206   1.246   0.467  1.9527  2.3130  2.1885
 1433SOL    HW215762   4.078   1.308   0.492 -1.2601 -1.0032 -2.0297
 1434SOL     OW15763   1.730   1.125   3.080  0.4839  0.2810 -0.3041
 1434SOL    HW115764   1.807   1.144   3.026  0.1223 -0.6770 -1.1480
 1434SOL    HW215765   1.661   1.157   3.022 -0.9660 -1.4128  0.4847
 1435SOL     OW15766   2.298   1.946   2.252 -0.0832 -0.2080  0.0407
 1435SOL    HW115767   2.225   1.962   2.192 -1.0489 -1.1806  0.9668
 1435SOL    HW215768   2.272   1.861   2.288 -2.3191  0.2663 -0.4900
 1436SOL     OW15769   3.624   2.327  17.568  0.6102  0.8655 -0.7278
 1436SOL    HW115770   3.557   2.262  17.550  0.3392  0.7630  0.6798
 1436SOL    HW215771   3.681   2.315  17.491 -1.5120  0.4206 -2.2257
 1437SOL     OW15772   3.595   1.239   7.820  0.1567 -0.2970  0.0068
 1437SOL    HW115773   3.521   1.241   7.760  1.2185  0.3553 -1.2679
 1437SOL    HW215774   3.576   1.319   7.870 -1.3954 -1.3490  1.1024
 1438SOL     OW15775   4.070   2.223   5.764 -0.1101 -0.2606  0.1494
 1438SOL    HW115776   4.047   2.247   5.854  0.0033  1.2629 -0.2329
 1438SOL    HW215777   4.152   2.176   5.779  1.3055  2.3077  0.3279
 1439SOL     OW15778   1.297   3.755   8.084 -0.3382  0.0687  0.7509
 1439SOL    HW115779   1.225   3.696   8.106 -0.2514 -0.0776  0.6442
 1439SOL    HW215780   1.287   3.819   8.155 -1.2852  0.0738  0.6117
 1440SOL     OW15781   3.647   4.092  12.867 -0.2830  0.1290 -0.3637
 1440SOL    HW115782   3.685   4.045  12.793  0.6012  0.6541 -0.2409
 1440SOL    HW215783   3.553   4.077  12.859 -0.0287 -2.2130  1.1092
 1441SOL     OW15784   4.670   0.008   4.321 -0.1075  0.1402  0.0299
 1441SOL    HW115785   4.655   4.695   4.408  1.4283  1.7201  0.9523
 1441SOL    HW215786   4.621   0.090   4.330  1.2730  0.5618  3.8350
 1442SOL     OW15787   2.665   0.983   2.662  0.5272  0.2500  0.3564
 1442SOL    HW115788   2.696   0.994   2.752  0.9392  0.3981  0.1964
 1442SOL    HW215789   2.713   1.054   2.620 -1.4309  0.1529 -2.0742
 1443SOL     OW15790   1.397   2.886   7.228  0.0506 -0.6950 -0.2377
 1443SOL    HW115791   1.398   2.811   7.168 -3.9064 -0.0914 -1.0517
 1443SOL    HW215792   1.475   2.926   7.189  1.0540 -0.7121  1.7900
 1444SOL     OW15793   4.396   3.147   7.723 -0.5973 -0.1401 -0.3880
 1444SOL    HW115794   4.320   3.093   7.745 -1.1401  0.6429 -0.3250
 1444SOL    HW215795   4.466   3.106   7.773 -0.5040  0.1083 -0.3158
 1445SOL     OW15796   2.834   3.933  16.642 -0.1114  0.5495 -0.1021
 1445SOL    HW115797   2.803   3.874  16.712  1.4714 -1.5424 -1.1638
 1445SOL    HW215798   2.850   4.012  16.694  0.2237  1.0387 -0.9637
 1446SOL     OW15799   3.572   3.347   3.678 -0.7798  0.2528  0.1665
 1446SOL    HW115800   3.653   3.302   3.656  0.1463  0.9686  2.1920
 1446SOL    HW215801   3.537   3.273   3.726  1.3264 -0.2141  0.9502
 1447SOL     OW15802   2.171   0.409   6.493 -0.5374  0.8240 -0.0848
 1447SOL    HW115803   2.210   0.496   6.486  0.6239  0.4676  1.6855
 1447SOL    HW215804   2.151   0.389   6.402 -4.6431  0.2942  0.9463
 1448SOL     OW15805   3.170   4.540   3.086  0.1853  0.6090  0.6057
 1448SOL    HW115806   3.254   4.584   3.073 -1.3824  3.1596 -0.9184
 1448SOL    HW215807   3.204   4.451   3.098  0.5494  0.9472  2.0305
 1449SOL     OW15808   2.196   4.197   3.890  0.0588  0.3238  0.1322
 1449SOL    HW115809   2.242   4.233   3.814 -0.6740  0.1020 -0.4167
 1449SOL    HW215810   2.114   4.170   3.848  0.5165 -3.2731  1.5539
 1450SOL     OW15811   0.233   4.129   6.698  0.0479 -0.1443  0.2104
 1450SOL    HW115812   0.164   4.124   6.632  0.8305  0.1741 -0.6341
 1450SOL    HW215813   0.300   4.096   6.638 -1.1378 -0.2640 -1.0440
 1451SOL     OW15814   4.099   3.574   9.298 -0.5688  0.0586  0.4066
 1451SOL    HW115815   4.065   3.541   9.381 -0.3849  0.1964  0.5376
 1451SOL    HW215816   4.025   3.546   9.244  0.1608  1.3066 -1.2536
 1452SOL     OW15817   1.090   1.263   9.110  0.5061  0.2018  0.2601
 1452SOL    HW115818   1.061   1.264   9.201 -2.9569  0.4605 -0.8401
 1452SOL    HW215819   1.159   1.198   9.125  0.4105  0.1278  0.3776
 1453SOL     OW15820   0.671   3.717   8.469  0.3497  0.2639  0.2276
 1453SOL    HW115821   0.690   3.764   8.388  0.9234 -0.9155 -0.3129
 1453SOL    HW215822   0.584   3.751   8.491 -0.2708 -0.4560 -1.1284
 1454SOL     OW15823   1.239   2.991   4.669  0.3263 -0.4026  0.3067
 1454SOL    HW115824   1.178   2.956   4.604  0.4502 -0.7708  0.3884
 1454SOL    HW215825   1.235   2.914   4.726 -0.4001 -1.1106 -0.7012
 1455SOL     OW15826   0.763   0.049   3.972  0.1129 -0.4106 -0.2205
 1455SOL    HW115827   0.851   0.050   3.934 -0.0618 -1.0341 -0.6421
 1455SOL    HW215828   0.773   0.017   4.062 -0.1935 -1.9772 -0.7476
 1456SOL     OW15829   0.492   0.858   2.008  0.1717 -0.1764  0.1182
 1456SOL    HW115830   0.559   0.904   1.957 -1.0137  1.5696  0.1406
 1456SOL    HW215831   0.421   0.859   1.944  1.5748  1.0537 -1.4376
 1457SOL     OW15832   2.994   0.810   4.662 -0.6158 -0.7563 -0.4263
 1457SOL    HW115833   2.920   0.751   4.677 -3.4947  2.9956  0.1096
 1457SOL    HW215834   3.016   0.835   4.751 -2.3696 -0.5384 -0.0496
 1458SOL     OW15835   0.370   2.844   2.873  0.6702  0.4330  0.0906
 1458SOL    HW115836   0.392   2.775   2.935 -0.3450 -1.4876 -1.6747
 1458SOL    HW215837   0.351   2.785   2.800 -1.1167  0.8121  0.2664
 1459SOL     OW15838   4.426   2.706   6.522 -0.1642 -0.1834  0.1610
 1459SOL    HW115839   4.438   2.764   6.597  1.1743  1.4720 -1.3311
 1459SOL    HW215840   4.340   2.734   6.490  0.1982 -0.3513 -0.9234
 1460SOL     OW15841   3.841   2.206   4.308 -0.4262 -0.7888 -0.5502
 1460SOL    HW115842   3.908   2.241   4.367 -1.8936  2.3852 -0.7585
 1460SOL    HW215843   3.765   2.226   4.363 -1.5357  0.6750 -2.6320
 1461SOL     OW15844   0.452   1.649   0.234  0.3907 -0.0618  0.3752
 1461SOL    HW115845   0.435   1.556   0.218  1.4657 -0.2282  0.1814
 1461SOL    HW215846   0.457   1.687   0.146 -2.2632  0.3842  0.4041
 1462SOL     OW15847   4.350   3.355   3.186 -0.4162  0.4107  0.0689
 1462SOL    HW115848   4.259   3.382   3.187 -0.6792 -0.5966  2.2701
 1462SOL    HW215849   4.373   3.386   3.098  0.1121 -3.0467 -1.0239
 1463SOL     OW15850   4.232   0.575   4.297  0.3046  0.7516 -0.3146
 1463SOL    HW115851   4.283   0.636   4.243  1.3318  0.6606  0.5352
 1463SOL    HW215852   4.174   0.624   4.355  1.1903 -0.2309  1.4097
 1464SOL     OW15853   4.418   2.579   8.708  0.3764  0.5460 -0.3937
 1464SOL    HW115854   4.484   2.647   8.725 -0.6110  1.0493  1.5133
 1464SOL    HW215855   4.369   2.580   8.791  0.1810 -0.1113 -0.5038
 1465SOL     OW15856   1.333   4.600   2.317 -0.1699  0.2025  0.6940
 1465SOL    HW115857   1.366   4.606   2.227  0.6515  1.9121  1.0903
 1465SOL    HW215858   1.359   4.510   2.335  0.8191  0.1575 -0.9903
 1466SOL     OW15859   0.327   3.944   7.516 -0.3509  0.3841 -0.4473
 1466SOL    HW115860   0.267   3.934   7.590 -0.6885  4.2900 -0.1904
 1466SOL    HW215861   0.292   4.028   7.489 -2.8497 -0.6441 -0.4070
 1467SOL     OW15862   4.713   3.712   4.709 -0.2955 -0.1670 -0.1762
 1467SOL    HW115863   0.073   3.759   4.716 -0.9564  0.2823  5.2768
 1467SOL    HW215864   4.662   3.776   4.660  0.5261  0.2956 -0.4309
 1468SOL     OW15865   0.625   1.254   1.865  0.2979 -0.4516 -0.0523
 1468SOL    HW115866   0.687   1.279   1.934  0.4961  0.0165 -0.4014
 1468SOL    HW215867   0.640   1.160   1.863 -0.9518 -0.6426 -0.4658
 1469SOL     OW15868   2.180   4.698   6.680 -0.2993 -0.2819  0.0582
 1469SOL    HW115869   2.259   4.710   6.627  0.2578  2.5557  1.5318
 1469SOL    HW215870   2.201   4.609   6.710 -0.3506 -0.1609  0.4503
 1470SOL     OW15871   1.714   0.637   1.901  0.2241 -0.2440  0.0647
 1470SOL    HW115872   1.664   0.566   1.860 -0.2644  0.2769 -0.2417
 1470SOL    HW215873   1.806   0.611   1.897  0.5602  0.9196  0.2737
 1471SOL     OW15874   3.019   3.229   9.447 -0.4274 -0.5976 -0.2232
 1471SOL    HW115875   3.025   3.256   9.355 -2.5092  2.7193  0.6180
 1471SOL    HW215876   3.041   3.311   9.490  0.6847 -0.8835 -0.2231
 1472SOL     OW15877   0.512   2.951   3.548  0.0377  0.3383 -0.0274
 1472SOL    HW115878   0.561   2.972   3.469 -0.7424  1.7128 -0.1518
 1472SOL    HW215879   0.516   3.042   3.577 -1.5317 -0.0471  1.4440
 1473SOL     OW15880   1.479   3.968   0.832  0.5414  0.3279 -0.3825
 1473SOL    HW115881   1.453   3.890   0.880  1.9054 -0.8346 -1.5670
 1473SOL    HW215882   1.574   3.966   0.838  0.3087 -3.6999  1.2702
 1474SOL     OW15883   1.572   3.309   4.476  0.5092  0.1566 -0.3878
 1474SOL    HW115884   1.535   3.270   4.396 -2.0709  2.6655 -0.4272
 1474SOL    HW215885   1.541   3.241   4.536 -0.7142 -0.4900 -1.7151
 1475SOL     OW15886   0.549   0.635   6.174  0.1812 -0.7303  0.1206
 1475SOL    HW115887   0.457   0.614   6.153 -0.5339  2.7641 -0.1261
 1475SOL    HW215888   0.550   0.730   6.172  2.8271 -0.7685  0.2018
 1476SOL     OW15889   3.852   4.276   1.726  0.0380 -1.1534 -0.3396
 1476SOL    HW115890   3.944   4.295   1.707  0.9035 -3.1979  1.8444
 1476SOL    HW215891   3.801   4.319   1.657 -0.0571  0.9615  1.0685
 1477SOL     OW15892   2.156   1.213  14.052  0.0163 -0.0405 -0.4369
 1477SOL    HW115893   2.221   1.261  14.000 -0.9537  0.8748 -0.7834
 1477SOL    HW215894   2.130   1.277  14.118  1.7885  1.1115 -0.8601
 1478SOL     OW15895   3.664   4.118   4.942  0.0952  0.0729  0.1068
 1478SOL    HW115896   3.634   4.036   4.979  2.0349 -1.0290 -0.7533
 1478SOL    HW215897   3.737   4.093   4.886  1.1174  1.3110  0.8822
 1479SOL     OW15898   0.406   2.389  11.619  0.4160  0.8787 -0.1885
 1479SOL    HW115899   0.490   2.398  11.576  0.6579 -0.7935 -0.0663
 1479SOL    HW215900   0.414   2.463  11.679  2.0847  0.7828 -0.3055
 1480SOL     OW15901   3.864   2.293  14.642  0.1984  0.3683 -0.4196
 1480SOL    HW115902   3.938   2.240  14.669  0.4836 -0.1948 -2.2670
 1480SOL    HW215903   3.910   2.358  14.589  0.0147  1.8440  1.2537
 1481SOL     OW15904   3.531   0.640   8.640 -0.2315  0.5101 -0.2187
 1481SOL    HW115905   3.478   0.560   8.634 -0.1396  0.6975 -3.5222
 1481SOL    HW215906   3.541   0.641   8.735  0.4897  3.0703 -0.3311
 1482SOL     OW15907   2.193   0.262   3.527  0.0932  0.0430  0.2319
 1482SOL    HW115908   2.125   0.246   3.462  0.5672 -0.9061 -0.0332
 1482SOL    HW215909   2.253   0.195   3.494 -1.6495 -2.3517  1.9192
 1483SOL     OW15910   1.104   0.201   7.030  0.7753  0.5657 -0.1997
 1483SOL    HW115911   1.123   0.256   7.106  0.9549 -2.9226  2.2320
 1483SOL    HW215912   1.077   0.266   6.964  1.4222 -2.0863 -3.1113
 1484SOL     OW15913   2.443   0.723  13.270  0.3948  0.0215  0.6749
 1484SOL    HW115914   2.399   0.747  13.189  1.1980  2.2540  0.8687
 1484SOL    HW215915   2.379   0.660  13.301  0.3281 -0.1845  0.1158
 1485SOL     OW15916   3.311   3.195   5.649  0.2360  0.5315 -0.2080
 1485SOL    HW115917   3.355   3.252   5.712  0.2801  2.4310 -1.9713
 1485SOL    HW215918   3.228   3.241   5.641  0.6513  1.8084  2.7129
 1486SOL     OW15919   0.027   2.375  17.133  0.6317 -0.0507 -0.1836
 1486SOL    HW115920   0.110   2.350  17.173  0.7774 -0.1455 -0.5472
 1486SOL    HW215921   0.058   2.428  17.060  0.2971  0.0055 -0.2830
 1487SOL     OW15922   3.708   2.204   8.051  0.0166 -0.0433 -0.6161
 1487SOL    HW115923   3.755   2.181   8.132  0.7834 -1.2485 -1.3941
 1487SOL    HW215924   3.689   2.127   7.998  0.5759 -0.5620 -0.0680
 1488SOL     OW15925   2.947   0.193   8.167  0.4737 -0.3887  0.0420
 1488SOL    HW115926   2.900   0.191   8.250  0.5504  1.8054  0.1583
 1488SOL    HW215927   2.881   0.213   8.100  0.1208 -0.2803  0.4280
 1489SOL     OW15928   0.925   1.946   2.736  0.2549  0.1525  0.4235
 1489SOL    HW115929   0.892   1.902   2.815 -0.2764  0.6772  0.5000
 1489SOL    HW215930   0.916   2.038   2.761  1.8793  0.3971  0.0756
 1490SOL     OW15931   2.640   4.622   4.599  0.0385  0.0388  0.0946
 1490SOL    HW115932   2.676   4.612   4.510 -1.9280  1.5410 -0.8663
 1490SOL    HW215933   2.627   4.717   4.597 -1.3761 -0.1808 -1.1229
 1491SOL     OW15934   2.570   4.622   9.721  0.4819  0.3449  0.1125
 1491SOL    HW115935   2.554   4.557   9.653  1.1677 -1.2320  1.4586
 1491SOL    HW215936   2.477   4.636   9.742  0.6953  0.8532  0.7402
 1492SOL     OW15937   0.818   2.869   6.913 -0.4648  0.0469  0.2504
 1492SOL    HW115938   0.725   2.848   6.919 -0.2996 -0.6788  0.2354
 1492SOL    HW215939   0.855   2.865   7.002 -1.6362 -1.0437  0.6784
 1493SOL     OW15940   2.858   2.781   7.714  0.1596 -0.1205  0.0034
 1493SOL    HW115941   2.888   2.871   7.700  0.0690  0.2846  2.5290
 1493SOL    HW215942   2.826   2.790   7.803 -2.3202  2.2837 -1.1362
 1494SOL     OW15943   3.553   0.895  12.907 -0.1809  0.1296 -1.2493
 1494SOL    HW115944   3.627   0.944  12.871 -0.5508  2.3020  0.9526
 1494SOL    HW215945   3.488   0.965  12.903 -1.1873 -0.7466 -0.1953
 1495SOL     OW15946   2.992   2.248   7.630  0.0072  0.1296 -0.1028
 1495SOL    HW115947   3.037   2.251   7.715  2.2040  1.7339 -1.3400
 1495SOL    HW215948   2.957   2.337   7.620 -1.6014 -0.6706 -1.4672
 1496SOL     OW15949   4.390   3.569   6.063 -0.2934 -0.0504  0.7154
 1496SOL    HW115950   4.298   3.579   6.089 -0.8291  1.2105 -1.6281
 1496SOL    HW215951   4.404   3.474   6.067  1.6053  0.1902 -0.3531
 1497SOL     OW15952   1.012   3.353  12.133  0.0891 -0.3530  0.2394
 1497SOL    HW115953   1.084   3.322  12.077 -0.8033  0.1249 -1.1725
 1497SOL    HW215954   0.943   3.289  12.116 -0.9711  0.5944  0.9707
 1498SOL     OW15955   1.891   0.074   3.949 -0.0057 -0.3745 -0.4777
 1498SOL    HW115956   1.877   4.704   3.939 -0.5224 -0.3814  0.3557
 1498SOL    HW215957   1.876   0.081   4.043 -0.0240  1.2602 -0.6028
 1499SOL     OW15958   0.417   0.374   0.748  0.0392 -1.0924  0.0713
 1499SOL    HW115959   0.451   0.381   0.659 -1.0706 -2.6193 -0.4868
 1499SOL    HW215960   0.431   0.279   0.757  0.7175 -1.1362 -1.4708
 1500SOL     OW15961   1.024   3.939   4.288 -0.3130  0.5597 -0.0371
 1500SOL    HW115962   1.102   3.886   4.304 -0.4849  0.3973  0.2693
 1500SOL    HW215963   1.061   4.027   4.279  0.5561  0.1365 -0.5919
 1501SOL     OW15964   4.549   0.929   4.002 -0.5315 -0.0132  0.3593
 1501SOL    HW115965   4.508   1.015   4.001  0.8945  0.6586 -1.2293
 1501SOL    HW215966   4.517   0.892   3.919  1.6195  2.2691 -1.5056
 1502SOL     OW15967   2.248   1.501  11.426  0.0083 -0.0896  0.2396
 1502SOL    HW115968   2.298   1.423  11.451 -2.2669 -1.6887 -0.2976
 1502SOL    HW215969   2.199   1.481  11.347 -2.4347  0.5886  1.5897
 1503SOL     OW15970   2.304   4.389   1.743 -0.3357  1.4019 -0.1492
 1503SOL    HW115971   2.233   4.375   1.680 -0.2568  1.6028 -0.2831
 1503SOL    HW215972   2.325   4.480   1.720  0.1457  1.0034 -1.3066
 1504SOL     OW15973   1.977   4.495   2.837  0.4438  0.0673 -0.0508
 1504SOL    HW115974   1.983   4.571   2.779 -0.1843  0.9246  0.9885
 1504SOL    HW215975   2.032   4.540   2.902 -0.5196 -1.0009  1.4824
 1505SOL     OW15976   0.708   1.592   7.417  0.2965 -0.0655  1.1514
 1505SOL    HW115977   0.665   1.553   7.493  0.1688 -1.3940  0.3886
 1505SOL    HW215978   0.647   1.664   7.402 -0.6183 -1.7832 -3.3009
 1506SOL     OW15979   0.201   1.445   4.504  0.5654  0.4788  0.4742
 1506SOL    HW115980   0.109   1.420   4.497  0.5842  0.7715 -0.7805
 1506SOL    HW215981   0.242   1.363   4.478  1.1756  0.9954 -0.1763
 1507SOL     OW15982   4.197   3.505   2.731  0.0867 -0.8564  0.6868
 1507SOL    HW115983   4.151   3.442   2.786  0.9442 -0.8763  1.3759
 1507SOL    HW215984   4.280   3.502   2.779  0.3927  0.2334  0.2149
 1508SOL     OW15985   3.440   1.299  14.567  0.3104  0.1348  0.2381
 1508SOL    HW115986   3.349   1.321  14.551  0.6230  1.0488 -0.2618
 1508SOL    HW215987   3.448   1.232  14.498 -0.0104 -2.5108  2.7616
 1509SOL     OW15988   0.062   1.633   7.951  0.1300 -0.2193 -0.4355
 1509SOL    HW115989   0.060   1.599   7.861  0.6255  1.6130 -1.1604
 1509SOL    HW215990   0.117   1.571   7.999  0.6203  0.1727 -0.4852
 1510SOL     OW15991   2.378   3.705   1.592  0.2224 -0.3763 -0.1977
 1510SOL    HW115992   2.406   3.675   1.505  1.9992 -1.2910  0.6862
 1510SOL    HW215993   2.328   3.630   1.624  0.2782  0.1602  1.1593
 1511SOL     OW15994   0.778   2.966  16.343 -0.4717  0.3725  0.1982
 1511SOL    HW115995   0.853   2.973  16.401 -0.3214  1.2686 -0.1006
 1511SOL    HW215996   0.765   2.873  16.361  0.0674  0.6483  1.9936
 1512SOL     OW15997   2.860   0.718   7.954  0.2254 -0.1150  0.4093
 1512SOL    HW115998   2.915   0.796   7.958  0.1102  0.1100 -2.2672
 1512SOL    HW215999   2.807   0.746   7.880  0.9884  0.5573  0.1235
 1513SOL     OW16000   4.017   3.400  12.325  0.3870  0.5595 -0.7713
 1513SOL    HW116001   4.112   3.413  12.327  0.4598 -0.0394 -0.5293
 1513SOL    HW216002   3.984   3.479  12.368  2.4650 -0.2682  2.3863
 1514SOL     OW16003   2.936   2.031   5.312  0.1752  0.1865 -0.5515
 1514SOL    HW116004   2.861   1.973   5.296 -0.5326  1.1229 -0.6650
 1514SOL    HW216005   2.888   2.114   5.318 -0.2931 -0.1647  0.6512
 1515SOL     OW16006   2.753   0.581   1.958 -0.1152  0.7970  0.2340
 1515SOL    HW116007   2.799   0.654   1.918  0.3087  0.1307 -0.4914
 1515SOL    HW216008   2.821   0.514   1.949 -0.0827  0.4492  3.0028
 1516SOL     OW16009   1.739   4.319   8.253  0.2085 -0.4139  0.2603
 1516SOL    HW116010   1.781   4.345   8.171  0.0414 -0.0634  0.2852
 1516SOL    HW216011   1.678   4.391   8.269 -0.0357 -0.5194 -0.1886
 1517SOL     OW16012   2.892   4.063  11.607  0.0379 -0.0245  0.0391
 1517SOL    HW116013   2.830   4.094  11.672  0.7046  0.4317  0.4586
 1517SOL    HW216014   2.918   4.148  11.573  1.4064 -0.0968  0.8957
 1518SOL     OW16015   0.129   0.881   1.588 -0.1739 -0.0649  0.3967
 1518SOL    HW116016   0.093   0.923   1.510 -1.9584  0.9646  1.7913
 1518SOL    HW216017   0.066   0.811   1.599  1.2161 -1.4226 -0.2499
 1519SOL     OW16018   1.902   2.873   9.737 -0.0875 -0.7055 -0.6751
 1519SOL    HW116019   1.978   2.815   9.744 -0.5305 -1.5228 -2.7949
 1519SOL    HW216020   1.841   2.803   9.759 -2.2065  1.4207  0.1861
 1520SOL     OW16021   3.433   4.498   4.567 -0.5905  0.4288  0.0876
 1520SOL    HW116022   3.478   4.571   4.525 -3.3392  2.2819  0.4034
 1520SOL    HW216023   3.442   4.516   4.660  1.6426 -0.1807  0.0011
 1521SOL     OW16024   1.963   2.212  11.527  0.2656  0.8815 -0.2554
 1521SOL    HW116025   1.985   2.182  11.439 -1.5687 -2.5058  0.4378
 1521SOL    HW216026   2.051   2.207  11.565  0.0519 -1.4707 -0.0805
 1522SOL     OW16027   4.095   0.161   7.956  0.2054  0.0772  0.6120
 1522SOL    HW116028   4.024   0.219   7.930  1.2729  1.2023  0.2025
 1522SOL    HW216029   4.165   0.224   7.972  0.6803 -0.2339 -0.2569
 1523SOL     OW16030   1.421   1.495  13.290 -0.2918  0.0748 -0.2189
 1523SOL    HW116031   1.355   1.494  13.359  2.3301  2.1891  2.3297
 1523SOL    HW216032   1.373   1.549  13.227  0.1237  1.2624  0.4849
 1524SOL     OW16033   2.192   2.755  13.252  0.6366 -0.5669 -0.1794
 1524SOL    HW116034   2.120   2.694  13.266 -0.7584  0.9584 -0.6489
 1524SOL    HW216035   2.221   2.743  13.161  1.5121 -1.6671  0.2569
 1525SOL     OW16036   1.924   0.109   5.746  0.2257 -0.2573 -1.0047
 1525SOL    HW116037   1.975   0.107   5.827 -2.9737 -1.1711  0.9663
 1525SOL    HW216038   1.901   0.202   5.739  1.5185  0.2355  1.4202
 1526SOL     OW16039   2.880   0.762   6.413  0.7540  0.6120 -0.4423
 1526SOL    HW116040   2.925   0.742   6.495  1.4479  1.4428 -0.6131
 1526SOL    HW216041   2.793   0.779   6.449  2.2998 -1.2584  4.2128
 1527SOL     OW16042   2.723   1.540   0.481 -0.2719  0.0299 -0.3581
 1527SOL    HW116043   2.662   1.604   0.446  2.6987  1.9251 -2.0689
 1527SOL    HW216044   2.799   1.559   0.426 -1.8017  0.9570 -2.1440
 1528SOL     OW16045   3.569   1.623   8.943 -0.2913 -0.3460 -0.3286
 1528SOL    HW116046   3.522   1.545   8.974  0.3715 -1.1845 -1.4127
 1528SOL    HW216047   3.648   1.609   8.996 -0.8116  1.2963  0.8732
 1529SOL     OW16048   2.135   1.848   1.367  0.3377  0.1987 -1.1777
 1529SOL    HW116049   2.116   1.921   1.425  0.8973 -1.7548  1.4371
 1529SOL    HW216050   2.066   1.854   1.300 -0.4078 -1.6466 -0.5629
 1530SOL     OW16051   1.608   1.165   3.831  0.3911  0.2595  0.0390
 1530SOL    HW116052   1.655   1.095   3.877 -0.7496  0.0324  0.8540
 1530SOL    HW216053   1.630   1.149   3.739  0.9950 -0.9761  0.3904
 1531SOL     OW16054   3.880   3.712  15.860  0.1575  0.3202 -0.3040
 1531SOL    HW116055   3.818   3.668  15.919 -1.3066  0.9017 -1.4233
 1531SOL    HW216056   3.887   3.805  15.878 -1.1622  0.7261 -1.9133
 1532SOL     OW16057   0.857   0.721   8.268  0.0082  0.0354  0.0946
 1532SOL    HW116058   0.791   0.790   8.261  0.1708  0.2064  0.2543
 1532SOL    HW216059   0.793   0.650   8.263  1.9504 -1.7417  0.4339
 1533SOL     OW16060   2.974   3.227   6.700  0.3128  0.4679 -0.0099
 1533SOL    HW116061   3.011   3.157   6.647 -0.4720  0.4395 -0.5221
 1533SOL    HW216062   3.004   3.204   6.788 -0.0367 -0.0183 -0.0246
 1534SOL     OW16063   0.252   1.470  13.776 -0.1980 -0.2042  0.1176
 1534SOL    HW116064   0.219   1.556  13.751  2.0021  1.0427  1.5285
 1534SOL    HW216065   0.175   1.418  13.754 -0.1022  0.1526 -1.0508
 1535SOL     OW16066   4.253   3.969   4.931  0.4667  0.2263 -0.2764
 1535SOL    HW116067   4.271   4.003   4.844  1.5391  1.8011  0.5745
 1535SOL    HW216068   4.251   4.047   4.986  0.3314 -1.0099  1.4955
 1536SOL     OW16069   1.563   1.155  11.986 -0.2137  0.0596 -0.2327
 1536SOL    HW116070   1.568   1.240  11.943 -0.1561 -0.1228 -0.5842
 1536SOL    HW216071   1.520   1.113  11.912  2.2266 -2.4643 -0.2318
 1537SOL     OW16072   2.817   2.139   7.401 -0.2547  0.2486 -0.4814
 1537SOL    HW116073   2.857   2.167   7.483 -1.1218 -2.7232  0.9484
 1537SOL    HW216074   2.741   2.198   7.396 -0.0784  0.5007 -0.1479
 1538SOL     OW16075   3.820   0.503   6.294 -0.6825  0.2008  0.2862
 1538SOL    HW116076   3.902   0.490   6.342  0.3257  1.6575 -1.0390
 1538SOL    HW216077   3.758   0.441   6.333 -0.0700 -0.5133  0.1393
 1539SOL     OW16078   3.041   1.664  11.168  0.5054 -0.2341 -0.2790
 1539SOL    HW116079   3.082   1.746  11.195 -0.5669  0.3448 -0.4001
 1539SOL    HW216080   3.012   1.641  11.256  0.9883  0.3537  0.0306
 1540SOL     OW16081   2.688   3.562   3.041 -0.4702 -0.9066  0.1927
 1540SOL    HW116082   2.777   3.534   3.019  0.2930  1.0491  0.7944
 1540SOL    HW216083   2.657   3.600   2.959  1.5283  3.8511  1.6504
 1541SOL     OW16084   2.609   1.967   3.068  0.2080 -0.0129 -0.0732
 1541SOL    HW116085   2.586   2.059   3.079 -1.9363 -0.6697  1.1024
 1541SOL    HW216086   2.587   1.954   2.976 -3.2587 -0.8142  0.8430
 1542SOL     OW16087   3.200   4.343   8.985  0.8930 -0.6708 -0.6582
 1542SOL    HW116088   3.238   4.279   9.046 -0.8848  0.9376  2.1279
 1542SOL    HW216089   3.112   4.348   9.022  0.5217  0.8624 -1.7680
 1543SOL     OW16090   0.292   1.836   4.924  0.0472  0.0483 -0.2781
 1543SOL    HW116091   0.327   1.758   4.881  0.6225  0.1097  0.0766
 1543SOL    HW216092   0.377   1.877   4.942 -0.2009  0.3602  0.1947
 1544SOL     OW16093   0.614   2.557   0.235 -0.5192 -0.3910  0.0711
 1544SOL    HW116094   0.653   2.479   0.274 -0.6811 -0.5315 -0.0496
 1544SOL    HW216095   0.674   2.621   0.274 -1.0614  1.9165 -2.9315
 1545SOL     OW16096   0.811   1.787   4.822  0.0804  0.4377 -0.0425
 1545SOL    HW116097   0.742   1.728   4.792  1.0844 -0.3990 -0.7402
 1545SOL    HW216098   0.806   1.865   4.765 -2.5908 -2.0602 -3.2439
 1546SOL     OW16099   2.703   1.253   5.400  0.1123  0.1835 -0.2969
 1546SOL    HW116100   2.629   1.219   5.451  0.9026 -0.2876  0.5382
 1546SOL    HW216101   2.764   1.279   5.469  0.6641  1.6947 -1.3606
 1547SOL     OW16102   4.546   1.416   3.630 -0.5122  0.3773 -0.4903
 1547SOL    HW116103   4.486   1.345   3.607 -0.3140  0.1950 -0.4440
 1547SOL    HW216104   4.536   1.475   3.555 -0.3218 -1.8031 -2.2247
 1548SOL     OW16105   2.100   1.544   4.741  0.6095 -0.1671 -0.1397
 1548SOL    HW116106   2.148   1.522   4.661 -0.0960 -3.1916  0.2633
 1548SOL    HW216107   2.053   1.625   4.723  0.3608 -0.7046 -1.9012
 1549SOL     OW16108   0.286   0.904   6.060 -0.3217  0.0754  0.2218
 1549SOL    HW116109   0.234   0.870   5.988 -1.0721 -1.3272  1.4120
 1549SOL    HW216110   0.274   0.831   6.122  1.6084  0.2176  0.7835
 1550SOL     OW16111   2.810   0.959   2.033 -0.0180 -0.3122 -0.4415
 1550SOL    HW116112   2.775   0.982   1.947 -0.1571  2.3842  0.3390
 1550SOL    HW216113   2.740   0.939   2.095  0.0643  2.5231  0.5357
 1551SOL     OW16114   3.524   3.196   3.296  0.0589 -0.0352 -0.2343
 1551SOL    HW116115   3.613   3.173   3.267 -0.3440 -1.1428 -0.5820
 1551SOL    HW216116   3.471   3.155   3.229 -2.1801  2.8725 -0.2162
 1552SOL     OW16117   2.334   4.187   6.641 -0.3327  0.1059 -0.5476
 1552SOL    HW116118   2.305   4.114   6.696  2.5849  0.0519  0.9281
 1552SOL    HW216119   2.405   4.154   6.585  0.0226 -1.9528  1.1244
 1553SOL     OW16120   3.737   1.962   6.239  0.5678  0.1849 -0.1692
 1553SOL    HW116121   3.707   1.871   6.228  2.6180 -0.2766 -1.9469
 1553SOL    HW216122   3.804   1.953   6.172  0.9330 -1.6788  0.4360
 1554SOL     OW16123   3.074   3.445   0.209  0.6504  0.1287  0.1676
 1554SOL    HW116124   3.135   3.428   0.281 -0.2231 -1.0411  0.6302
 1554SOL    HW216125   3.039   3.532   0.229 -0.5027  0.3246 -2.6523
 1555SOL     OW16126   2.986   1.491   4.616 -0.0117 -0.0215 -0.3880
 1555SOL    HW116127   3.059   1.474   4.675  0.2171  2.9891  0.2231
 1555SOL    HW216128   3.004   1.573   4.570 -1.3978  1.2068  1.2698
 1556SOL     OW16129   1.892   2.761   7.116 -0.0508 -0.1550  0.2224
 1556SOL    HW116130   1.962   2.701   7.090  0.6407  0.4801  0.6162
 1556SOL    HW216131   1.929   2.817   7.183 -0.6665  1.8856 -1.1434
 1557SOL     OW16132   1.784   0.688   3.878 -0.4961 -0.4378  0.1053
 1557SOL    HW116133   1.709   0.644   3.917 -0.3770  0.2741  1.1407
 1557SOL    HW216134   1.829   0.704   3.961 -0.4936  0.8653 -0.1454
 1558SOL     OW16135   2.588   1.402   5.725  0.1138  0.2708 -0.5818
 1558SOL    HW116136   2.677   1.405   5.758  0.4633 -1.2135 -1.3929
 1558SOL    HW216137   2.571   1.496   5.724 -3.7966 -0.4320 -0.0761
 1559SOL     OW16138   1.524   3.369   2.765  0.2535  0.8120  0.5277
 1559SOL    HW116139   1.437   3.409   2.769 -0.5974 -0.9080 -1.1110
 1559SOL    HW216140   1.545   3.382   2.673 -1.6993 -0.2944 -0.0848
 1560SOL     OW16141   1.798   4.423   6.350  0.6069 -0.2466 -0.7068
 1560SOL    HW116142   1.892   4.439   6.354  0.6567 -0.4125 -1.2131
 1560SOL    HW216143   1.778   4.464   6.265 -1.7512 -1.7526 -0.8800
 1561SOL     OW16144   4.598   0.828   3.123 -0.4545  0.2757 -0.8929
 1561SOL    HW116145   4.672   0.881   3.093 -0.2499  0.4790 -0.0500
 1561SOL    HW216146   4.634   0.790   3.203  0.2369 -2.7937 -2.6858
 1562SOL     OW16147   0.053   2.896  14.280 -0.5482  0.0829 -0.1820
 1562SOL    HW116148   0.118   2.943  14.333 -0.4273  1.7620 -1.8375
 1562SOL    HW216149   4.703   2.956  14.269 -0.1634  0.8128  1.1504
 1563SOL     OW16150   0.634   0.762   3.318 -0.3629 -0.0064  0.6476
 1563SOL    HW116151   0.606   0.844   3.358  2.4991  1.2092  0.1760
 1563SOL    HW216152   0.554   0.727   3.279 -0.6085  1.1054  0.1292
 1564SOL     OW16153   4.130   1.202   2.872  0.2063 -0.5803  0.1923
 1564SOL    HW116154   4.141   1.287   2.916  2.2992 -0.5540 -0.3837
 1564SOL    HW216155   4.218   1.164   2.869  0.1501 -0.6309 -1.0376
 1565SOL     OW16156   0.460   2.355  15.166 -0.3995 -0.2951  0.1369
 1565SOL    HW116157   0.376   2.371  15.123  0.3275  1.7350 -0.5301
 1565SOL    HW216158   0.440   2.272  15.209  0.9665 -1.2445 -1.0511
 1566SOL     OW16159   4.561   0.449   6.565 -0.3853  0.2146 -0.0806
 1566SOL    HW116160   4.523   0.434   6.478 -0.0710 -1.7589  0.1133
 1566SOL    HW216161   4.476   0.460   6.608 -0.3306  1.3177 -0.2512
 1567SOL     OW16162   0.802   3.327  12.794  0.2794  0.6630 -0.2704
 1567SOL    HW116163   0.788   3.364  12.707 -3.2875 -0.9497 -0.4016
 1567SOL    HW216164   0.897   3.325  12.805  0.2539 -0.3728 -0.1559
 1568SOL     OW16165   1.438   2.160  16.039 -0.5223  0.1708 -0.6576
 1568SOL    HW116166   1.479   2.094  15.982  0.7096  0.6148 -0.2907
 1568SOL    HW216167   1.349   2.170  16.006 -0.0703  1.2263 -1.5636
 1569SOL     OW16168   2.686   4.365  12.073  0.2207 -0.2812  0.6936
 1569SOL    HW116169   2.642   4.446  12.048 -0.1573 -1.2248 -1.6759
 1569SOL    HW216170   2.610   4.330  12.119 -2.0908  1.5241 -1.7783
 1570SOL     OW16171   3.761   2.302   6.504  0.1617 -0.0086  0.0602
 1570SOL    HW116172   3.826   2.308   6.433  0.5641  0.7662  0.4913
 1570SOL    HW216173   3.818   2.318   6.579 -0.8862 -0.6968  0.9974
 1571SOL     OW16174   3.871   1.574   6.599  0.1898  0.3334  0.0598
 1571SOL    HW116175   3.869   1.660   6.557  2.2835 -0.4303 -1.6535
 1571SOL    HW216176   3.874   1.504   6.533 -0.2159  2.3645 -2.1048
 1572SOL     OW16177   2.250   4.163   5.028 -0.3376 -0.3876  0.4816
 1572SOL    HW116178   2.163   4.202   5.029 -1.4342 -2.7583 -1.9381
 1572SOL    HW216179   2.256   4.102   5.101  0.1963 -0.8437  0.0602
 1573SOL     OW16180   1.517   2.067   4.793  0.5403 -0.1459 -0.0278
 1573SOL    HW116181   1.448   2.053   4.858 -1.3378 -0.1669 -2.0378
 1573SOL    HW216182   1.550   2.154   4.816  0.5842  0.2868 -1.7260
 1574SOL     OW16183   3.085   1.475  13.200  0.3357 -0.0178  0.2441
 1574SOL    HW116184   3.069   1.391  13.157  3.5935 -0.5677  0.0980
 1574SOL    HW216185   3.000   1.515  13.183 -1.1125 -2.3865  1.9948
 1575SOL     OW16186   3.087   3.700   3.943 -0.4543 -0.3803  0.2925
 1575SOL    HW116187   3.042   3.697   4.028 -1.2136 -3.2839 -0.1958
 1575SOL    HW216188   3.080   3.794   3.930  3.0328 -0.3925 -1.6585
 1576SOL     OW16189   0.172   0.922  11.790  0.3479 -0.0672  0.4266
 1576SOL    HW116190   0.134   0.910  11.702  1.1013 -1.4421  0.2865
 1576SOL    HW216191   0.221   0.999  11.761  1.9354 -1.5939 -0.9213
 1577SOL     OW16192   2.789   1.548   1.992 -0.0445 -0.5247 -0.1952
 1577SOL    HW116193   2.766   1.502   1.911  0.2390 -2.0352  0.5866
 1577SOL    HW216194   2.774   1.639   1.964  1.0354 -0.0699  0.7122
 1578SOL     OW16195   3.356   1.828  12.349  0.3857  0.2673  0.0799
 1578SOL    HW116196   3.288   1.797  12.289  2.5126 -2.5609 -0.8436
 1578SOL    HW216197   3.298   1.877  12.408  2.8034  1.1719  1.6957
 1579SOL     OW16198   3.686   0.932   4.352 -0.3240 -0.4926 -0.1275
 1579SOL    HW116199   3.640   0.947   4.270 -3.0065  0.1065  1.4716
 1579SOL    HW216200   3.664   1.017   4.391  1.0781 -0.4662  0.5942
 1580SOL     OW16201   3.760   3.660  14.655 -0.5250 -0.2345 -0.2148
 1580SOL    HW116202   3.801   3.591  14.707  1.7854  0.4636 -1.0679
 1580SOL    HW216203   3.715   3.604  14.592 -0.1061 -1.2015  0.3548
 1581SOL     OW16204   2.354   3.007  14.673  0.0309 -0.1138 -0.0287
 1581SOL    HW116205   2.341   3.021  14.579 -2.4618 -4.4614 -0.3225
 1581SOL    HW216206   2.264   3.025  14.700  0.6199  0.0745  1.7919
 1582SOL     OW16207   2.406   0.846   2.036  0.0551 -0.4849 -0.0147
 1582SOL    HW116208   2.344   0.808   1.973 -0.6603 -0.3831  0.6206
 1582SOL    HW216209   2.438   0.766   2.079  1.2738 -0.8060 -1.5367
 1583SOL     OW16210   1.482   4.224   0.382 -0.8139 -0.2735 -0.1882
 1583SOL    HW116211   1.450   4.155   0.324 -2.3545  0.1340  0.1717
 1583SOL    HW216212   1.458   4.188   0.467  2.3679 -3.7586 -0.7971
 1584SOL     OW16213   2.257   0.023  16.269 -0.4118  0.3859 -0.0950
 1584SOL    HW116214   2.311   0.083  16.320 -1.1187  0.3213  0.7286
 1584SOL    HW216215   2.327   0.004  16.206 -0.5662 -1.8093  0.4107
 1585SOL     OW16216   4.017   2.284   2.531  0.4355 -0.4285  0.5016
 1585SOL    HW116217   3.987   2.367   2.494  1.4322 -0.0807  0.4693
 1585SOL    HW216218   4.007   2.224   2.457  0.1306 -2.5149  2.2124
 1586SOL     OW16219   3.223   2.845   6.883 -0.2410  0.5838  0.0086
 1586SOL    HW116220   3.164   2.775   6.912 -1.4641  1.2645 -0.8312
 1586SOL    HW216221   3.235   2.809   6.795  0.4005  0.2129  0.2485
 1587SOL     OW16222   0.985   4.132   2.315 -0.3661 -0.3576  0.1119
 1587SOL    HW116223   0.952   4.216   2.344  0.4030 -0.1831  0.4869
 1587SOL    HW216224   0.938   4.082   2.382 -1.2738  2.7054  1.7209
 1588SOL     OW16225   1.173   0.209   8.350  0.0723 -0.3635 -0.2547
 1588SOL    HW116226   1.084   0.178   8.332 -0.6856  0.6754  1.7413
 1588SOL    HW216227   1.202   0.252   8.270  1.0837  2.0511  1.4291
 1589SOL     OW16228   2.634   2.353   2.061  0.2118  0.0692  0.4190
 1589SOL    HW116229   2.560   2.296   2.038 -1.4390  3.6755 -3.2349
 1589SOL    HW216230   2.599   2.430   2.105 -0.3214  0.6866 -1.0905
 1590SOL     OW16231   1.022   1.110   5.116  0.6761 -0.2407 -0.3765
 1590SOL    HW116232   0.947   1.095   5.058 -0.9305  2.1303  1.1015
 1590SOL    HW216233   1.098   1.117   5.059  1.2095 -1.0295  0.2383
 1591SOL     OW16234   2.072   0.929   7.366 -0.3855  0.1085  0.4759
 1591SOL    HW116235   1.989   0.946   7.322 -0.0954 -2.9775 -1.2094
 1591SOL    HW216236   2.070   0.989   7.441  1.7637  2.5569 -1.4282
 1592SOL     OW16237   2.068   3.376   5.429  0.0537 -0.2391  0.1525
 1592SOL    HW116238   2.141   3.418   5.384 -1.7217  0.2472 -2.2623
 1592SOL    HW216239   2.110   3.307   5.480 -1.9100 -0.7278  1.1283
 1593SOL     OW16240   1.448   0.487   5.334  0.4453  0.1512 -0.2042
 1593SOL    HW116241   1.442   0.545   5.411  0.4337  1.5518 -1.2542
 1593SOL    HW216242   1.388   0.418   5.364  0.4997 -0.6355 -1.9526
 1594SOL     OW16243   1.485   1.493   7.623  0.0833  0.0022 -0.2830
 1594SOL    HW116244   1.436   1.571   7.595 -0.7814 -0.3140  0.3615
 1594SOL    HW216245   1.431   1.423   7.587 -1.0453  0.7204 -0.0070
 1595SOL     OW16246   4.212   2.854   3.463  0.4881  0.6785  0.3669
 1595SOL    HW116247   4.157   2.930   3.447 -1.4523 -0.9131 -0.6066
 1595SOL    HW216248   4.159   2.789   3.417 -1.7469  3.0590 -0.4184
 1596SOL     OW16249   1.970   4.646   4.655  0.2145 -0.6519  0.1345
 1596SOL    HW116250   2.013   0.005   4.635  0.2446 -1.2298 -2.2024
 1596SOL    HW216251   2.015   4.643   4.740 -0.3033  0.0424  0.4349
 1597SOL     OW16252   1.882   3.868  10.094  0.0045 -0.1624 -0.0437
 1597SOL    HW116253   1.872   3.940  10.032  0.6340  0.1146  0.1734
 1597SOL    HW216254   1.795   3.870  10.135 -0.4152  1.0215 -0.9785
 1598SOL     OW16255   1.023   4.453   4.015 -0.3042  0.1074 -0.2483
 1598SOL    HW116256   0.938   4.460   3.972 -1.5198 -0.4510  2.0497
 1598SOL    HW216257   1.000   4.423   4.103  0.3423  0.4015  0.0199
 1599SOL     OW16258   1.426   3.509   4.591 -0.2173  0.1169 -0.1339
 1599SOL    HW116259   1.491   3.451   4.551  0.3769  1.0412 -0.5038
 1599SOL    HW216260   1.484   3.578   4.624 -1.7222  0.6946  1.2888
 1600SOL     OW16261   2.328   4.516   8.914  0.6042 -0.6583  0.0166
 1600SOL    HW116262   2.256   4.575   8.937 -0.7804 -2.2472 -0.2181
 1600SOL    HW216263   2.316   4.457   8.988 -1.6663  1.3804  1.3135
 1601SOL     OW16264   4.324   0.908  11.407 -0.3494 -0.0111 -0.0903
 1601SOL    HW116265   4.297   0.992  11.444 -1.1461  0.6023 -2.0577
 1601SOL    HW216266   4.327   0.919  11.312 -0.3769 -3.4341 -0.5039
 1602SOL     OW16267   0.127   4.157   7.472 -0.6191 -0.5315  0.2027
 1602SOL    HW116268   0.110   4.231   7.413  1.2952 -1.2017 -1.1883
 1602SOL    HW216269   0.047   4.108   7.452 -1.0086  0.7676 -1.4393
 1603SOL     OW16270   0.631   2.823  15.812 -0.2456 -0.6884  0.4804
 1603SOL    HW116271   0.591   2.736  15.820 -0.6982 -0.4091  1.2112
 1603SOL    HW216272   0.720   2.800  15.839  0.3343 -0.7922 -1.5196
 1604SOL     OW16273   2.359   3.837  16.942  0.6537  0.6845  0.4430
 1604SOL    HW116274   2.313   3.774  16.887  2.0290  0.9207 -0.9539
 1604SOL    HW216275   2.353   3.911  16.881  0.5552 -0.6909 -1.2168
 1605SOL     OW16276   3.766   3.507  10.234  0.1276 -0.2333  0.4941
 1605SOL    HW116277   3.675   3.537  10.234  0.2376  0.1075 -3.0880
 1605SOL    HW216278   3.774   3.476  10.324  1.3911 -0.6795  0.2384
 1606SOL     OW16279   3.336   2.481   6.781 -0.2592  0.5597 -0.3120
 1606SOL    HW116280   3.263   2.536   6.753 -2.4908 -1.2706  1.9240
 1606SOL    HW216281   3.396   2.493   6.707 -1.5962  2.0261 -1.1637
 1607SOL     OW16282   1.291   0.154   2.510 -0.5508  0.9660  0.2501
 1607SOL    HW116283   1.327   0.139   2.597  0.1949  2.0392  0.1221
 1607SOL    HW216284   1.226   0.221   2.531  1.0918  2.9080 -0.9353
 1608SOL     OW16285   4.007   2.950   7.215  0.4504  0.1834 -0.0307
 1608SOL    HW116286   3.971   2.935   7.303 -3.0760  0.9387 -1.3427
 1608SOL    HW216287   4.083   3.004   7.238 -0.9100  1.5887  1.2157
 1609SOL     OW16288   2.718   2.773   2.225 -0.7595  0.4730 -0.0811
 1609SOL    HW116289   2.809   2.792   2.245 -1.6710  0.9871  3.7673
 1609SOL    HW216290   2.687   2.741   2.310  1.8394 -0.8636  0.3444
 1610SOL     OW16291   4.434   3.949   4.056  0.1700 -0.2130  0.3571
 1610SOL    HW116292   4.432   3.917   4.146 -1.1036 -0.6046  0.1904
 1610SOL    HW216293   4.416   3.875   3.998 -2.2517  1.4268 -0.9841
 1611SOL     OW16294   1.978   3.967   2.243 -0.2189 -0.0156  0.4351
 1611SOL    HW116295   2.012   3.880   2.265 -0.7792 -0.4757 -0.5187
 1611SOL    HW216296   1.987   4.016   2.325  0.0928  0.2801  0.2213
 1612SOL     OW16297   0.114   0.700  15.679  0.0654  0.5181 -0.1371
 1612SOL    HW116298   0.204   0.680  15.652  0.1492  2.3303 -1.2169
 1612SOL    HW216299   0.118   0.674  15.771 -1.2713 -1.2971 -0.5810
 1613SOL     OW16300   2.617   4.422   7.635  0.5456 -0.6656  0.7742
 1613SOL    HW116301   2.523   4.425   7.651  0.3622 -1.0948 -0.1883
 1613SOL    HW216302   2.656   4.481   7.699 -2.0655  0.4477  1.3221
 1614SOL     OW16303   2.931   3.683  10.939 -0.5619  0.1498  0.8498
 1614SOL    HW116304   2.915   3.768  10.898 -1.4094 -0.7119 -0.6302
 1614SOL    HW216305   3.007   3.711  10.990 -0.2611  2.6970 -0.9707
 1615SOL     OW16306   2.360   3.164   5.969  0.3661 -0.2908 -0.3433
 1615SOL    HW116307   2.444   3.206   5.949 -0.6970  2.0351  0.1152
 1615SOL    HW216308   2.311   3.234   6.011  0.2947 -0.7992  0.4199
 1616SOL     OW16309   4.545   3.324   0.001 -0.1155  0.0644  0.1646
 1616SOL    HW116310   4.497   3.360   0.075 -2.1355  0.1422 -1.1759
 1616SOL    HW216311   4.512   3.376  17.624  0.7078 -0.5611 -0.6488
 1617SOL     OW16312   3.919   3.550   4.065  0.1004 -0.2522 -0.3328
 1617SOL    HW116313   4.012   3.565   4.046  0.8411 -3.5754  0.8121
 1617SOL    HW216314   3.883   3.505   3.989 -0.5811 -1.2592  0.5951
 1618SOL     OW16315   4.429   4.199   0.513 -0.0537 -0.1223 -0.0923
 1618SOL    HW116316   4.356   4.152   0.554  2.4658 -3.6734  0.3586
 1618SOL    HW216317   4.467   4.137   0.450  1.1902 -0.3514  0.8753
 1619SOL     OW16318   0.256   2.373  14.646 -0.6456  0.2125 -0.1558
 1619SOL    HW116319   0.263   2.430  14.722  0.9060  0.1926 -0.2829
 1619SOL    HW216320   0.196   2.304  14.674 -2.6429  1.8380 -0.4192
 1620SOL     OW16321   0.231   2.508   7.778 -0.0319 -0.0975  0.0889
 1620SOL    HW116322   0.282   2.545   7.850  1.1234  0.2819 -0.9253
 1620SOL    HW216323   0.239   2.415   7.797  2.2237  0.4827  2.0704
 1621SOL     OW16324   3.400   1.134  12.875 -0.2508 -0.1418 -0.2915
 1621SOL    HW116325   3.399   1.209  12.815 -0.9435  2.1822  2.6400
 1621SOL    HW216326   3.433   1.180  12.953 -2.3229  1.6122 -0.4569
 1622SOL     OW16327   1.392   1.852  14.263  1.2094  0.0542  0.4912
 1622SOL    HW116328   1.358   1.806  14.340 -1.0334  2.1127  0.7416
 1622SOL    HW216329   1.313   1.898  14.234  1.3777  0.0594  0.0419
 1623SOL     OW16330   1.093   3.338   1.673 -0.8580  0.1547  0.2723
 1623SOL    HW116331   1.129   3.417   1.713 -1.2054 -0.0300  0.9584
 1623SOL    HW216332   1.000   3.357   1.679 -0.9583 -0.0372 -0.8047
 1624SOL     OW16333   2.338   3.643   3.140  0.2249 -0.4589 -0.2474
 1624SOL    HW116334   2.322   3.593   3.059  3.4003  1.6100 -2.1492
 1624SOL    HW216335   2.246   3.646   3.164  0.2330  0.0502 -0.2916
 1625SOL     OW16336   3.831   0.877   4.783  0.0300  0.8460 -0.0925
 1625SOL    HW116337   3.830   0.797   4.836  3.9208  2.3211  2.2433
 1625SOL    HW216338   3.916   0.918   4.802 -1.2529  3.3891  0.0840
 1626SOL     OW16339   3.557   2.078  14.345  0.0180 -0.7258 -0.6836
 1626SOL    HW116340   3.536   1.985  14.337  1.1331 -1.1459  1.1939
 1626SOL    HW216341   3.541   2.115  14.258 -1.6192 -1.3716 -0.6654
 1627SOL     OW16342   2.455   3.326   5.663 -0.4469  0.5465  0.2077
 1627SOL    HW116343   2.417   3.413   5.663  0.0599  0.7706 -0.3664
 1627SOL    HW216344   2.507   3.329   5.744 -0.8059  2.5973  0.3590
 1628SOL     OW16345   2.644   1.130   9.067  0.2845  0.1961  0.3627
 1628SOL    HW116346   2.721   1.082   9.037 -0.4921 -0.2291 -0.9448
 1628SOL    HW216347   2.580   1.100   9.002  0.0465 -3.1925  2.1535
 1629SOL     OW16348   0.374   1.203  13.032  0.4483 -0.2402  0.5349
 1629SOL    HW116349   0.368   1.298  13.026 -1.9298 -0.3599  1.0981
 1629SOL    HW216350   0.447   1.189  12.972  0.3397 -1.5030  0.6986
 1630SOL     OW16351   3.451   0.355   8.701  0.5620 -0.9436 -0.1443
 1630SOL    HW116352   3.510   0.284   8.728 -0.4476 -1.5870  0.3669
 1630SOL    HW216353   3.422   0.381   8.789  2.8979 -1.0528  0.6508
 1631SOL     OW16354   0.142   2.494   1.987  0.0173  0.4648  0.1966
 1631SOL    HW116355   0.139   2.587   1.964  0.3792  0.1809 -1.0025
 1631SOL    HW216356   0.222   2.466   1.943  0.4719  1.0603  0.6435
 1632SOL     OW16357   3.576   2.701   2.693  0.1249 -0.1961 -0.1599
 1632SOL    HW116358   3.667   2.699   2.723  0.3974  0.5093 -0.9656
 1632SOL    HW216359   3.591   2.653   2.612 -0.6177 -0.6938 -0.0094
 1633SOL     OW16360   2.025   3.075   2.848 -0.1815 -0.5076  0.1943
 1633SOL    HW116361   2.061   3.020   2.778  1.0023 -0.4071  0.7233
 1633SOL    HW216362   2.092   3.143   2.836 -0.3638 -0.1357  1.3448
 1634SOL     OW16363   0.778   0.762   9.550  0.3735 -0.6405  0.6641
 1634SOL    HW116364   0.719   0.836   9.535 -0.0732 -1.3323 -1.0523
 1634SOL    HW216365   0.854   0.777   9.494 -0.1265  1.0244  0.4275
 1635SOL     OW16366   2.503   2.665   4.578  0.4104 -0.3287  0.4938
 1635SOL    HW116367   2.564   2.674   4.505 -0.8250 -2.1615 -0.7413
 1635SOL    HW216368   2.433   2.731   4.576  1.5303  0.8362 -0.7777
 1636SOL     OW16369   0.672   0.123   1.348 -0.1448 -0.2891  0.2016
 1636SOL    HW116370   0.629   0.165   1.273 -2.3726 -0.8883  1.1560
 1636SOL    HW216371   0.753   0.172   1.335  1.6956 -3.7187 -1.0328
 1637SOL     OW16372   3.963   4.688  12.616 -0.1139 -0.0003 -0.1093
 1637SOL    HW116373   3.896   0.024  12.649  0.7807  2.1108 -2.0812
 1637SOL    HW216374   4.021   0.034  12.585  1.6178 -0.4519  2.0701
 1638SOL     OW16375   1.721   0.777   3.424  0.0338  0.1468 -0.0425
 1638SOL    HW116376   1.748   0.839   3.356  1.9427  0.0112  0.6015
 1638SOL    HW216377   1.668   0.718   3.371  0.0260 -0.2794  0.4364
 1639SOL     OW16378   0.248   3.753   6.465  0.2925  0.3627  0.7072
 1639SOL    HW116379   0.328   3.806   6.459  0.3634 -0.0452 -1.8122
 1639SOL    HW216380   0.265   3.687   6.533 -0.8446  0.3711  1.0014
 1640SOL     OW16381   0.009   0.925   8.386  0.0464  0.3281  0.1992
 1640SOL    HW116382   0.022   0.892   8.297  0.5360  2.1467 -0.3953
 1640SOL    HW216383   4.638   0.928   8.392 -0.0640 -0.2166 -1.5243
 1641SOL     OW16384   3.680   1.697   0.552  0.1930 -0.0425 -0.1028
 1641SOL    HW116385   3.728   1.616   0.534  1.2038  0.7086 -0.7827
 1641SOL    HW216386   3.756   1.755   0.553 -1.1201  1.7241 -1.5499
 1642SOL     OW16387   4.311   4.104   5.964  0.3895  0.2305 -0.0668
 1642SOL    HW116388   4.405   4.113   5.951  0.5430 -0.6558  0.4311
 1642SOL    HW216389   4.288   4.045   5.891  1.3316  0.5977 -0.6568
 1643SOL     OW16390   4.547   2.414   9.681 -0.4158  0.0665 -0.1931
 1643SOL    HW116391   4.632   2.451   9.705 -0.4577 -1.1884  1.8575
 1643SOL    HW216392   4.546   2.404   9.586 -0.0530 -0.3430 -0.1545
 1644SOL     OW16393   3.388   1.810   6.475  0.4596 -0.1340 -0.6504
 1644SOL    HW116394   3.367   1.826   6.383 -1.5135  2.5466  0.2691
 1644SOL    HW216395   3.333   1.882   6.506  3.5808  2.0895 -0.3879
 1645SOL     OW16396   3.206   0.964  16.019  0.3945 -0.4744  0.0771
 1645SOL    HW116397   3.202   1.036  16.081  1.1334  0.3139 -0.8075
 1645SOL    HW216398   3.114   0.966  15.992 -0.0561 -0.6684  1.5724
 1646SOL     OW16399   1.873   4.534   2.205  0.0776 -0.3257 -0.1183
 1646SOL    HW116400   1.920   4.476   2.145 -0.7001 -0.1941 -0.8371
 1646SOL    HW216401   1.941   4.556   2.269 -0.9880  0.2174  0.8370
 1647SOL     OW16402   0.280   0.897   7.524 -0.0640 -0.4068  0.2318
 1647SOL    HW116403   0.318   0.980   7.495 -1.0771  0.5848  1.7123
 1647SOL    HW216404   0.319   0.838   7.460  0.8915  0.0720  0.3814
 1648SOL     OW16405   3.950   4.247   2.917 -0.3130 -0.3610 -0.6259
 1648SOL    HW116406   3.906   4.200   2.846  2.2236  0.6475 -2.8519
 1648SOL    HW216407   3.958   4.329   2.868 -1.8657  0.3938  0.4187
 1649SOL     OW16408   1.077   3.566   7.807  0.1056 -0.2501 -0.5279
 1649SOL    HW116409   1.152   3.618   7.836 -0.0438 -0.3911  0.0990
 1649SOL    HW216410   1.030   3.626   7.749 -3.3004 -0.1459  2.3886
 1650SOL     OW16411   1.191   2.063   0.875 -0.2637 -0.5449  0.5569
 1650SOL    HW116412   1.207   2.052   0.782  1.3924  1.3376  0.6075
 1650SOL    HW216413   1.159   2.154   0.876  0.5760 -0.2339 -0.9761
 1651SOL     OW16414   0.103   1.211   8.400 -0.7383  0.4375 -0.2589
 1651SOL    HW116415   0.099   1.118   8.379 -1.4260 -0.7130  5.1015
 1651SOL    HW216416   0.022   1.242   8.359 -0.5808 -0.8723 -1.5757
 1652SOL     OW16417   0.289   1.294   1.925 -0.2207  0.4192 -1.1232
 1652SOL    HW116418   0.345   1.350   1.979 -1.3690  0.7802 -0.3018
 1652SOL    HW216419   0.200   1.327   1.940  0.3380  2.4882 -2.2876
 1653SOL     OW16420   2.498   0.057   6.677  0.4057 -0.1504  0.2312
 1653SOL    HW116421   2.476   0.143   6.641 -1.3068 -1.2004 -1.2091
 1653SOL    HW216422   2.483   0.061   6.772 -0.8138  2.1000 -0.0599
 1654SOL     OW16423   1.319   1.625  12.801 -0.2496  0.0124 -0.0712
 1654SOL    HW116424   1.410   1.655  12.793  0.4339 -1.6405  1.4021
 1654SOL    HW216425   1.334   1.539  12.840  0.7655  0.2370  0.0553
 1655SOL     OW16426   1.859   1.759   3.601  0.1846  0.1730  0.2729
 1655SOL    HW116427   1.899   1.691   3.546  0.2291  0.1711  0.3081
 1655SOL    HW216428   1.768   1.744   3.573  0.1859 -1.0512  0.9161
 1656SOL     OW16429   1.692   2.526   7.129  0.1504 -0.5443 -0.2375
 1656SOL    HW116430   1.759   2.587   7.098 -0.3071 -0.3302 -0.7870
 1656SOL    HW216431   1.612   2.578   7.126 -0.1778 -0.9713  0.8597
 1657SOL     OW16432   1.026   0.116  15.555 -0.3586 -0.2024  0.2799
 1657SOL    HW116433   0.977   0.197  15.574 -1.3230 -0.9649  1.0110
 1657SOL    HW216434   0.959   0.065  15.509 -0.4000 -0.8358  1.0531
 1658SOL     OW16435   1.832   2.574   2.497  0.2422 -0.8465  0.4182
 1658SOL    HW116436   1.886   2.648   2.521  1.0942 -0.8629 -1.4407
 1658SOL    HW216437   1.897   2.504   2.492 -0.0865 -1.2338  1.6128
 1659SOL     OW16438   0.553   2.552  12.879 -0.5063  0.0501  0.3311
 1659SOL    HW116439   0.473   2.536  12.930 -1.3021 -1.1368 -1.2806
 1659SOL    HW216440   0.622   2.514  12.933  1.1552  1.6199 -0.6791
 1660SOL     OW16441   0.785   3.457   2.416 -0.3759  0.4794  0.5013
 1660SOL    HW116442   0.690   3.459   2.407 -0.3477  0.7363  0.2825
 1660SOL    HW216443   0.798   3.514   2.491  1.5131  3.4385 -2.0796
 1661SOL     OW16444   3.654   0.627   5.312  0.0345  0.2721 -0.5773
 1661SOL    HW116445   3.719   0.562   5.339  1.1757  1.1725 -1.1747
 1661SOL    HW216446   3.700   0.672   5.241 -2.1813  1.4220 -1.2997
 1662SOL     OW16447   2.948   2.795   9.923  0.8896 -0.3375  0.5387
 1662SOL    HW116448   2.990   2.867   9.877  2.4325 -0.7162  1.3476
 1662SOL    HW216449   2.873   2.781   9.866  0.2195  1.9372  0.8847
 1663SOL     OW16450   4.534   2.777   3.251  0.0510 -0.2846  0.4928
 1663SOL    HW116451   4.592   2.713   3.209 -0.4192 -1.5656  1.8197
 1663SOL    HW216452   4.568   2.854   3.205 -1.4875 -0.2241 -0.5297
 1664SOL     OW16453   3.069   1.119   8.091 -0.3147  0.2902  0.4781
 1664SOL    HW116454   3.111   1.202   8.114  2.6123 -1.1549  0.2759
 1664SOL    HW216455   3.068   1.072   8.175  0.3317  1.2583  1.0280
 1665SOL     OW16456   0.983   0.518   5.142 -0.3788  0.2574 -0.0306
 1665SOL    HW116457   1.066   0.471   5.141 -1.2286 -1.2576  0.3293
 1665SOL    HW216458   1.012   0.596   5.095  0.5032 -0.6817 -1.0188
 1666SOL     OW16459   1.496   3.191  11.597  0.0019 -0.6268 -0.5466
 1666SOL    HW116460   1.475   3.105  11.632  1.4689 -1.0676 -0.7494
 1666SOL    HW216461   1.537   3.166  11.514 -1.2537 -0.1189 -1.3307
 1667SOL     OW16462   2.358   1.037   8.139 -0.8259  0.0166  0.3466
 1667SOL    HW116463   2.416   0.960   8.137  2.1314  2.2490  0.0709
 1667SOL    HW216464   2.280   0.995   8.175  0.7003 -3.1686 -0.0242
 1668SOL     OW16465   1.750   2.031  15.855  0.0327 -0.3908 -0.3740
 1668SOL    HW116466   1.783   1.983  15.931 -0.6115  0.2357  0.3039
 1668SOL    HW216467   1.662   2.001  15.833  0.4151 -1.8206  0.0345
 1669SOL     OW16468   1.270   1.159  12.988  0.3940 -0.6562  0.2517
 1669SOL    HW116469   1.346   1.101  12.986 -0.7024 -2.0410 -1.3273
 1669SOL    HW216470   1.278   1.174  13.082 -3.1603 -0.5792  0.5533
 1670SOL     OW16471   4.192   3.766   3.396 -0.0319 -0.7275  0.1305
 1670SOL    HW116472   4.203   3.861   3.403 -2.6012 -0.4081 -0.4045
 1670SOL    HW216473   4.272   3.744   3.347 -0.4276  1.8242 -1.6823
 1671SOL     OW16474   3.413   2.143   7.985  0.1615 -0.0334 -0.2386
 1671SOL    HW116475   3.329   2.153   7.941  0.7449  0.2055 -1.2922
 1671SOL    HW216476   3.392   2.080   8.054 -0.7409  0.5151 -0.0140
 1672SOL     OW16477   1.952   4.252   2.235 -0.2839  0.1728 -0.1155
 1672SOL    HW116478   2.039   4.270   2.201 -0.5337  0.8486 -0.4049
 1672SOL    HW216479   1.950   4.156   2.233 -0.2451  0.1992 -1.5225
 1673SOL     OW16480   4.088   1.550   9.909 -0.0008 -0.3447  0.7616
 1673SOL    HW116481   4.115   1.556  10.001 -1.2628  0.8490  1.0537
 1673SOL    HW216482   4.051   1.638   9.899  0.5558 -0.2994 -0.7412
 1674SOL     OW16483   1.013   2.178   2.863  0.0379  0.3534  0.0154
 1674SOL    HW116484   1.071   2.205   2.791  0.3753 -1.8828 -0.5661
 1674SOL    HW216485   0.993   2.263   2.902  1.2580 -0.6484  2.8228
 1675SOL     OW16486   0.112   4.391  10.783 -0.1993 -0.0804 -0.6736
 1675SOL    HW116487   0.083   4.376  10.873 -0.5338  4.7745  0.0562
 1675SOL    HW216488   0.110   4.487  10.780 -0.8148 -0.0374  0.9713
 1676SOL     OW16489   3.795   0.171   8.085 -0.0401  0.1547  0.1381
 1676SOL    HW116490   3.746   0.119   8.148  0.1453  0.4542  0.5314
 1676SOL    HW216491   3.886   0.154   8.106  0.2485 -0.1286 -1.3133
 1677SOL     OW16492   2.459   2.355   7.267  0.5034  0.1762 -1.0480
 1677SOL    HW116493   2.518   2.384   7.337 -1.3320 -2.5564  1.6652
 1677SOL    HW216494   2.464   2.260   7.282  0.1060  0.5856  1.7519
 1678SOL     OW16495   1.245   0.079   7.969 -0.3996  0.4384  0.3712
 1678SOL    HW116496   1.275   0.042   7.887 -2.0601  0.1080 -0.0980
 1678SOL    HW216497   1.165   0.026   7.973 -0.4834  0.5850  0.6989
 1679SOL     OW16498   0.051   2.770   4.298 -0.1790  0.6622 -0.1850
 1679SOL    HW116499   0.078   2.683   4.329  2.0964  1.3498 -0.2192
 1679SOL    HW216500   0.005   2.800   4.377 -1.5208 -1.9862  0.0419
 1680SOL     OW16501   3.336   1.883   2.812  0.3703 -0.4330 -0.0731
 1680SOL    HW116502   3.361   1.848   2.897  0.0385  0.7072  0.4992
 1680SOL    HW216503   3.411   1.941   2.797 -0.4132  0.5193 -0.3147
 1681SOL     OW16504   1.194   2.622   2.359 -0.0338 -0.3769  0.1135
 1681SOL    HW116505   1.203   2.531   2.331 -0.1335  0.0477 -1.2881
 1681SOL    HW216506   1.283   2.642   2.387 -0.9294 -0.0689  2.8227
 1682SOL     OW16507   3.773   1.353   2.756 -0.4358 -0.3536  0.4768
 1682SOL    HW116508   3.830   1.278   2.739 -0.5271 -0.4741  0.7124
 1682SOL    HW216509   3.697   1.314   2.799 -1.0149  0.2606  0.0220
 1683SOL     OW16510   2.019   0.029  15.714 -0.0500 -0.6544  0.5799
 1683SOL    HW116511   2.023   4.659  15.730  0.3691 -0.7962 -0.3626
 1683SOL    HW216512   2.087   0.062  15.772  0.3800 -1.9133  0.7833
 1684SOL     OW16513   2.138   3.818   8.421  0.1752  0.1545 -0.8535
 1684SOL    HW116514   2.155   3.807   8.514  1.9925  0.0232 -1.1972
 1684SOL    HW216515   2.054   3.772   8.411 -0.2419  0.4960  1.1339
 1685SOL     OW16516   4.474   3.345   6.309 -0.4314 -0.0410  0.3647
 1685SOL    HW116517   4.528   3.292   6.250  0.3405  2.5555 -1.2998
 1685SOL    HW216518   4.402   3.284   6.323 -0.8530  0.0996 -1.1555
 1686SOL     OW16519   1.517   2.480   4.122 -0.4249  0.3024  0.7192
 1686SOL    HW116520   1.549   2.566   4.096 -0.8978  0.6295  1.2064
 1686SOL    HW216521   1.562   2.410   4.076 -2.4816 -1.1005  0.8625
 1687SOL     OW16522   0.633   4.466   8.699 -0.0646 -0.0413 -0.0570
 1687SOL    HW116523   0.603   4.554   8.677 -0.9519 -0.5610 -0.9083
 1687SOL    HW216524   0.586   4.444   8.779  0.6106  2.5186  1.0400
 1688SOL     OW16525   1.381   2.393   0.722  0.0525  0.5304 -0.1432
 1688SOL    HW116526   1.372   2.396   0.817 -2.5805  2.2023 -0.4292
 1688SOL    HW216527   1.396   2.486   0.704  1.7154  0.3379  0.1945
 1689SOL     OW16528   0.876   0.713  11.107 -0.3126  0.3260 -0.1445
 1689SOL    HW116529   0.829   0.631  11.120 -0.5292  0.8061  2.0278
 1689SOL    HW216530   0.870   0.750  11.195 -0.7002 -0.2120  0.0533
 1690SOL     OW16531   3.570   0.991   7.956 -0.4094  0.0577  0.5060
 1690SOL    HW116532   3.576   1.071   8.008 -0.0664 -0.4459  1.2278
 1690SOL    HW216533   3.579   1.035   7.871 -2.3499  0.8765  0.7320
 1691SOL     OW16534   0.036   2.571   4.547 -0.6645  0.2241  0.2757
 1691SOL    HW116535   0.037   2.561   4.642 -1.6980  1.5348  0.4168
 1691SOL    HW216536   4.667   2.593   4.540 -1.2964 -2.6891 -0.5394
 1692SOL     OW16537   0.114   4.643   5.472  0.1119 -0.1254  0.7146
 1692SOL    HW116538   0.020   4.626   5.481 -0.2766  1.8932  0.5273
 1692SOL    HW216539   0.108   0.012   5.447  0.9891 -0.0182  0.9013
 1693SOL     OW16540   0.534   1.619   6.262  0.2259 -0.3447 -0.6608
 1693SOL    HW116541   0.603   1.655   6.207  0.7065 -0.2357  0.0148
 1693SOL    HW216542   0.539   1.524   6.252 -0.9693 -0.3040 -1.7173
 1694SOL     OW16543   0.643   3.778  13.181  0.6319 -0.6817  0.6873
 1694SOL    HW116544   0.593   3.747  13.105 -1.4882  1.1542  1.3259
 1694SOL    HW216545   0.682   3.855  13.141  0.0473 -0.3511  0.7452
 1695SOL     OW16546   3.657   2.605  15.292  0.1275 -0.0717  0.3752
 1695SOL    HW116547   3.708   2.683  15.269  3.3243 -1.9774  0.9592
 1695SOL    HW216548   3.727   2.543  15.313  0.4978  0.0846 -0.3732
 1696SOL     OW16549   0.015   2.922   7.127 -0.2454  0.4454 -0.2469
 1696SOL    HW116550   4.656   2.949   7.087  0.1773  1.6230 -0.3396
 1696SOL    HW216551   0.006   2.944   7.219  3.6833  0.7757  0.0867
 1697SOL     OW16552   3.844   3.134   7.587  0.3898  0.3122 -0.3285
 1697SOL    HW116553   3.830   3.196   7.516 -0.8810  0.0234 -0.3317
 1697SOL    HW216554   3.935   3.150   7.611  0.4952 -1.7397  0.6713
 1698SOL     OW16555   2.285   2.643  11.563 -0.3346 -0.0969 -0.0657
 1698SOL    HW116556   2.222   2.592  11.614 -0.2610 -0.8735 -0.7546
 1698SOL    HW216557   2.356   2.580  11.559 -0.3518 -0.2466  2.1379
 1699SOL     OW16558   4.470   0.563  14.070  0.0621 -0.0410  0.3899
 1699SOL    HW116559   4.389   0.572  14.019 -0.0505 -0.2684  0.5264
 1699SOL    HW216560   4.431   0.557  14.157 -1.1757 -2.1038 -0.2807
 1700SOL     OW16561   0.142   4.540   0.415  1.2178 -0.0665 -0.8803
 1700SOL    HW116562   0.084   4.607   0.380  2.1969 -0.3330 -2.9947
 1700SOL    HW216563   0.155   4.474   0.347  1.0913 -3.8361  2.7210
 1701SOL     OW16564   4.635   0.450   8.750 -0.1019 -0.0770  0.2408
 1701SOL    HW116565   4.668   0.427   8.663  1.9917  0.6148  0.8534
 1701SOL    HW216566   4.548   0.482   8.727 -0.5090 -1.1344  0.3125
 1702SOL     OW16567   3.905   3.709  15.139  0.5860  0.1056  0.7533
 1702SOL    HW116568   3.814   3.684  15.122  1.1540 -0.7127 -1.0987
 1702SOL    HW216569   3.962   3.668  15.074 -0.4467 -4.3931  2.7091
 1703SOL     OW16570   1.633   2.727   0.590  0.1045  0.1499 -0.2000
 1703SOL    HW116571   1.552   2.679   0.570 -0.7061 -0.5689  4.8658
 1703SOL    HW216572   1.599   2.783   0.659  0.1320 -0.8527  0.6239
 1704SOL     OW16573   1.268   0.429   8.178 -0.3562 -0.2329  0.2170
 1704SOL    HW116574   1.356   0.393   8.180  0.1122  0.9440  1.3627
 1704SOL    HW216575   1.253   0.432   8.084  1.4305  0.0173 -0.0575
 1705SOL     OW16576   3.421   3.591   8.040 -0.1642  0.7136 -0.3891
 1705SOL    HW116577   3.408   3.561   8.130  0.4468  1.0554 -0.1891
 1705SOL    HW216578   3.465   3.519   7.996  1.3822  0.8295  0.9833
 1706SOL     OW16579   1.992   2.841   5.307 -0.0281 -0.0839 -0.2437
 1706SOL    HW116580   1.920   2.806   5.359  0.3413 -1.1823 -0.4655
 1706SOL    HW216581   1.954   2.916   5.262  1.8875  0.1630 -1.4622
 1707SOL     OW16582   4.466   4.400   8.844 -0.1548 -0.1118 -0.0421
 1707SOL    HW116583   4.377   4.422   8.818 -0.3967 -0.3792  0.5659
 1707SOL    HW216584   4.450   4.426   8.935  1.9430  2.4056 -0.3937
 1708SOL     OW16585   2.934   2.667  10.374 -0.3132 -0.1903 -0.0201
 1708SOL    HW116586   2.906   2.637  10.461 -0.0618 -1.0013 -0.2248
 1708SOL    HW216587   2.991   2.741  10.393  1.8553 -1.5454 -1.3998
 1709SOL     OW16588   1.964   1.568   0.390  0.1581  0.3280 -0.4647
 1709SOL    HW116589   1.984   1.533   0.303 -0.1635  0.1176 -0.4548
 1709SOL    HW216590   1.925   1.496   0.440 -2.4517  0.8238 -1.7984
 1710SOL     OW16591   4.254   0.329   2.717 -0.2805  0.7265  0.8477
 1710SOL    HW116592   4.322   0.350   2.780  1.1597 -0.7084 -0.2113
 1710SOL    HW216593   4.243   0.412   2.670 -1.4831 -0.1227 -0.3789
 1711SOL     OW16594   3.066   1.296   0.971  0.0451  0.0427  0.2751
 1711SOL    HW116595   3.103   1.227   0.916  2.2512  3.0710 -2.0485
 1711SOL    HW216596   3.143   1.351   0.986  1.1831 -2.0095  2.0257
 1712SOL     OW16597   3.654   3.756   9.058 -0.3795 -0.3517 -0.6833
 1712SOL    HW116598   3.634   3.786   9.146  2.8779  1.0575 -0.3958
 1712SOL    HW216599   3.643   3.664   9.081  0.0429 -0.6118 -1.5162
 1713SOL     OW16600   4.444   0.856   7.912 -0.0986  0.2103  0.6161
 1713SOL    HW116601   4.350   0.844   7.905 -0.2968  1.4706  1.2485
 1713SOL    HW216602   4.453   0.923   7.845 -1.5289  0.7642  0.9883
 1714SOL     OW16603   0.375   2.032  15.837 -0.2640 -0.1049  0.4189
 1714SOL    HW116604   0.285   2.065  15.838 -0.1143  0.2724  0.9158
 1714SOL    HW216605   0.397   2.045  15.744 -0.5286 -0.0255  0.3682
 1715SOL     OW16606   3.359   0.109   7.737 -0.1109  0.2522 -0.6875
 1715SOL    HW116607   3.444   0.071   7.717  0.0864  0.0995  0.4491
 1715SOL    HW216608   3.296   0.075   7.674 -0.2538 -0.2195 -0.2905
 1716SOL     OW16609   0.608   3.013   5.172 -0.0360 -0.2091 -0.4924
 1716SOL    HW116610   0.637   2.931   5.131  1.7564  0.1124  0.1064
 1716SOL    HW216611   0.667   3.076   5.130 -0.1199  0.6439  0.6721
 1717SOL     OW16612   3.526   1.502  12.177  0.0860 -0.3060 -0.0506
 1717SOL    HW116613   3.581   1.465  12.246 -2.5690 -0.7086  1.8397
 1717SOL    HW216614   3.439   1.512  12.216 -0.1761 -0.2077 -0.6651
 1718SOL     OW16615   3.715   2.530   5.985  0.1552  0.3654 -0.0614
 1718SOL    HW116616   3.649   2.502   6.048 -0.3433  0.5972 -0.4847
 1718SOL    HW216617   3.717   2.624   6.000  1.4850  0.9972 -4.2583
 1719SOL     OW16618   3.242   0.169  10.968  0.3816  0.0472 -0.0043
 1719SOL    HW116619   3.243   0.259  10.999 -1.0577  0.6119 -1.6097
 1719SOL    HW216620   3.299   0.126  11.032 -2.4723 -1.8370  1.2832
 1720SOL     OW16621   3.464   1.140   4.251  0.3778 -0.3359  0.1413
 1720SOL    HW116622   3.433   1.079   4.318  0.8916  0.1491  0.8196
 1720SOL    HW216623   3.467   1.087   4.171 -0.7949 -0.1427 -0.0359
 1721SOL     OW16624   4.528   1.902   7.779 -0.5106  1.0460 -0.0033
 1721SOL    HW116625   4.445   1.928   7.818 -0.2005  2.3748 -0.2048
 1721SOL    HW216626   4.529   1.969   7.710  0.4288  1.9926  0.9236
 1722SOL     OW16627   0.294   4.220   7.834  0.1174 -0.0053 -0.0698
 1722SOL    HW116628   0.304   4.138   7.881 -0.6548 -0.6050 -0.9405
 1722SOL    HW216629   0.355   4.202   7.763  0.0450  1.3378 -0.4905
 1723SOL     OW16630   2.128   3.423  11.456 -0.4460  0.0833 -0.5912
 1723SOL    HW116631   2.176   3.351  11.496  0.6884  1.6989  0.9589
 1723SOL    HW216632   2.040   3.386  11.458 -0.2589 -0.2838  0.8817
 1724SOL     OW16633   1.218   0.413   5.174  0.5277  0.0073 -0.2417
 1724SOL    HW116634   1.213   0.344   5.241  2.4708 -0.4135 -0.5153
 1724SOL    HW216635   1.298   0.463   5.191 -0.9600  2.3023 -0.0781
 1725SOL     OW16636   3.616   4.127   5.744  0.4738  0.0867  1.0556
 1725SOL    HW116637   3.696   4.164   5.781  0.4701  0.6991  0.4412
 1725SOL    HW216638   3.642   4.109   5.654  1.6439 -2.5227  1.9217
 1726SOL     OW16639   3.002   1.090  15.606  0.3057  0.6481 -0.4793
 1726SOL    HW116640   3.049   1.168  15.634  1.4627 -0.1600 -0.2093
 1726SOL    HW216641   2.952   1.135  15.537 -4.0301 -2.3306  0.7411
 1727SOL     OW16642   3.964   2.020   6.059 -0.5658 -0.0991  0.1173
 1727SOL    HW116643   3.978   1.981   5.972 -0.2859 -0.4526  0.3207
 1727SOL    HW216644   3.959   2.108   6.022  1.4215  0.3815  0.9882
 1728SOL     OW16645   1.591   4.446  17.089 -0.4396  0.6016  0.1369
 1728SOL    HW116646   1.622   4.415  17.174  0.5584 -0.8874 -0.7712
 1728SOL    HW216647   1.638   4.391  17.026  0.0559  2.2340 -0.9085
 1729SOL     OW16648   2.380   3.108   5.118 -0.1287 -0.1644 -0.0269
 1729SOL    HW116649   2.300   3.057   5.099 -0.1676 -0.3117  0.5240
 1729SOL    HW216650   2.349   3.152   5.197 -2.5120  2.8409 -2.6267
 1730SOL     OW16651   3.887   2.540   4.396  0.3046  0.1667  0.4389
 1730SOL    HW116652   3.940   2.620   4.396  0.2641  0.1832 -0.9404
 1730SOL    HW216653   3.950   2.472   4.374  1.2906  0.5341  2.1019
 1731SOL     OW16654   4.708   4.044  15.679  0.3087  0.4621 -0.5845
 1731SOL    HW116655   4.717   3.949  15.677 -1.9299  0.2199  0.8894
 1731SOL    HW216656   4.686   4.069  15.589 -1.0272  0.9880 -0.1040
 1732SOL     OW16657   2.234   2.452   7.775  0.1392  0.1485  0.1895
 1732SOL    HW116658   2.190   2.395   7.838  2.8417 -0.4471  1.5708
 1732SOL    HW216659   2.267   2.522   7.832  0.2602  0.9592 -0.8904
 1733SOL     OW16660   0.507   2.508   6.290 -0.1061  0.0108 -0.3800
 1733SOL    HW116661   0.482   2.600   6.291  1.8764  0.5447 -0.9525
 1733SOL    HW216662   0.509   2.481   6.198 -0.4118 -1.6442  0.0982
 1734SOL     OW16663   1.484   2.249   3.724 -0.2666  0.0934  0.3481
 1734SOL    HW116664   1.512   2.330   3.767 -0.4763 -0.4504  1.5017
 1734SOL    HW216665   1.571   2.212   3.707 -1.0789 -1.2598 -0.9523
 1735SOL     OW16666   3.396   3.821  14.895  0.0315 -0.0947  0.3186
 1735SOL    HW116667   3.355   3.896  14.851  2.9322  1.0723 -0.4206
 1735SOL    HW216668   3.485   3.839  14.865  0.7895 -0.8248  2.1654
 1736SOL     OW16669   3.589   1.099  10.637  0.2022  0.1294  0.7587
 1736SOL    HW116670   3.577   1.041  10.712 -0.4672 -1.6210 -0.7017
 1736SOL    HW216671   3.593   1.186  10.676 -1.3320  2.2975 -3.8664
 1737SOL     OW16672   3.532   0.490  16.453 -0.0206 -0.2812  0.7448
 1737SOL    HW116673   3.495   0.437  16.383 -0.9252  0.3045  0.7791
 1737SOL    HW216674   3.572   0.563  16.406 -0.1448 -0.1430  0.8535
 1738SOL     OW16675   0.787   3.282  13.068 -0.5124  0.2166  0.2398
 1738SOL    HW116676   0.785   3.290  12.972 -0.1807 -0.9696  0.1363
 1738SOL    HW216677   0.867   3.332  13.085  0.2329 -0.6187 -0.8342
 1739SOL     OW16678   1.192   1.532   6.726 -0.4367 -0.3116  0.4591
 1739SOL    HW116679   1.231   1.444   6.724 -1.6580 -0.8021 -1.2768
 1739SOL    HW216680   1.268   1.576   6.765  0.2139 -1.7182  0.8015
 1740SOL     OW16681   0.531   3.253   8.245 -0.3177  0.5093  0.0644
 1740SOL    HW116682   0.551   3.292   8.331  3.1724  0.6006 -0.7942
 1740SOL    HW216683   0.437   3.244   8.263 -0.0068 -1.2712  0.7978
 1741SOL     OW16684   1.736   0.366   2.334 -0.2671 -0.0032  0.9954
 1741SOL    HW116685   1.658   0.310   2.331 -1.0210  1.1758 -0.8591
 1741SOL    HW216686   1.694   0.444   2.299  0.8371  0.6907  1.2357
 1742SOL     OW16687   4.262   4.500   9.058  0.1636 -0.4794 -0.3482
 1742SOL    HW116688   4.205   4.447   9.001  0.4220  1.8870 -2.8334
 1742SOL    HW216689   4.275   4.580   9.006  2.6262 -0.2634  0.6164
 1743SOL     OW16690   0.319   3.782   7.907 -0.2229 -0.5082  0.4022
 1743SOL    HW116691   0.276   3.724   7.843  0.2728  1.0309 -1.3197
 1743SOL    HW216692   0.409   3.770   7.876  0.8065 -0.5545  3.4815
 1744SOL     OW16693   1.940   1.387   7.841 -0.5440 -0.4361  0.1415
 1744SOL    HW116694   1.845   1.390   7.837 -0.5232  3.0565  2.0414
 1744SOL    HW216695   1.957   1.316   7.903  0.9039  0.7584  1.1341
 1745SOL     OW16696   3.300   3.224   1.195  0.4668 -0.3362 -0.0547
 1745SOL    HW116697   3.220   3.172   1.189 -1.6606  2.6383  1.9722
 1745SOL    HW216698   3.350   3.166   1.252 -0.1301  0.4662  1.2832
 1746SOL     OW16699   0.456   2.468  15.406 -0.1180  0.1044 -0.4810
 1746SOL    HW116700   0.408   2.389  15.428  0.5973 -0.6347 -1.6178
 1746SOL    HW216701   0.482   2.442  15.318 -0.7143 -2.7523  0.1981
 1747SOL     OW16702   2.560   4.065  14.506 -0.3625  0.0094  0.4214
 1747SOL    HW116703   2.504   4.003  14.553 -0.6862  0.0511  0.0830
 1747SOL    HW216704   2.510   4.082  14.426 -0.8551 -1.4869  0.4068
 1748SOL     OW16705   0.073   3.091   6.515  0.0447  0.4298  0.1973
 1748SOL    HW116706   0.114   3.085   6.429  0.3589 -1.1871  0.4640
 1748SOL    HW216707   4.703   3.084   6.496  0.3164 -1.3319 -0.5369
 1749SOL     OW16708   3.097   4.072   0.671 -0.4421  0.0539  0.0116
 1749SOL    HW116709   3.135   4.107   0.751 -2.0088 -0.6008  1.0550
 1749SOL    HW216710   3.088   3.980   0.697 -0.5421 -0.1673 -0.8174
 1750SOL     OW16711   0.556   0.729   3.752 -0.4703  0.0815  0.2040
 1750SOL    HW116712   0.644   0.767   3.745  0.0627 -1.3855 -0.9996
 1750SOL    HW216713   0.553   0.656   3.691  2.2837  0.9841 -1.0178
 1751SOL     OW16714   4.489   1.702   6.127  0.0511 -0.2136  0.5100
 1751SOL    HW116715   4.439   1.775   6.163 -0.7238 -0.7135  0.4292
 1751SOL    HW216716   4.492   1.647   6.205 -4.1407  2.2502  2.3863
 1752SOL     OW16717   1.932   4.560   3.571 -0.0033 -0.7148  0.0346
 1752SOL    HW116718   1.964   4.472   3.590  1.7405  0.2859  1.7938
 1752SOL    HW216719   1.855   4.560   3.626 -0.4313 -1.5321 -0.5732
 1753SOL     OW16720   0.406   0.147   7.662 -0.4196 -0.1000 -0.1758
 1753SOL    HW116721   0.335   0.083   7.657 -0.9807  0.4438  0.9572
 1753SOL    HW216722   0.445   0.128   7.747  0.0663  2.1249  0.1156
 1754SOL     OW16723   2.629   1.830   5.954 -0.0224 -0.6091  0.5278
 1754SOL    HW116724   2.615   1.880   6.035  1.3862  0.2334  0.2553
 1754SOL    HW216725   2.724   1.839   5.952 -0.0641 -0.3360 -0.2549
 1755SOL     OW16726   0.992   2.734   1.989 -0.0467 -0.2462 -0.4792
 1755SOL    HW116727   0.928   2.761   1.923  0.1949  2.8417  0.5222
 1755SOL    HW216728   1.048   2.689   1.926  0.1175 -0.8246  0.0818
 1756SOL     OW16729   3.427   4.141   5.946  0.2652  0.0991  0.0860
 1756SOL    HW116730   3.435   4.236   5.946 -1.0958  0.2152  0.7642
 1756SOL    HW216731   3.505   4.117   5.897  2.5623  1.4240  3.0951
 1757SOL     OW16732   0.849   3.723  11.109 -0.7333 -0.1229  0.1555
 1757SOL    HW116733   0.790   3.677  11.169 -1.1402  1.1438  0.7170
 1757SOL    HW216734   0.934   3.696  11.144 -0.5434 -0.9810 -0.9696
 1758SOL     OW16735   0.145   0.324   1.981 -0.5788  1.0770 -0.5310
 1758SOL    HW116736   0.089   0.402   1.981  1.3974  2.5261 -4.5720
 1758SOL    HW216737   0.141   0.296   1.889  3.1106 -0.9270 -0.0510
 1759SOL     OW16738   4.329   0.744   8.693 -0.1256  0.0490  0.4222
 1759SOL    HW116739   4.237   0.768   8.683 -0.2204  0.1310  1.5666
 1759SOL    HW216740   4.370   0.792   8.621 -0.8277 -1.2110 -0.8347
 1760SOL     OW16741   0.017   0.720  16.560  0.4098  0.1411  0.2440
 1760SOL    HW116742   0.103   0.713  16.519 -0.4266 -0.3205 -1.4236
 1760SOL    HW216743   0.015   0.813  16.581 -1.2738 -0.4411  2.6290
 1761SOL     OW16744   4.003   2.091   9.456 -0.5041  0.7363  0.2663
 1761SOL    HW116745   4.090   2.051   9.465  0.0059  2.3630  2.6243
 1761SOL    HW216746   3.952   2.016   9.426 -0.1885  0.5972  0.0784
 1762SOL     OW16747   2.812   3.272  14.231  0.2256  0.1516  0.1507
 1762SOL    HW116748   2.873   3.336  14.267 -1.3973  2.0453 -0.4889
 1762SOL    HW216749   2.745   3.325  14.187  1.4558  0.9382 -0.7505
 1763SOL     OW16750   1.863   4.698   7.914 -0.3677  0.1286  0.1340
 1763SOL    HW116751   1.887   0.048   7.857  2.3179  0.2798  1.4365
 1763SOL    HW216752   1.941   4.681   7.968  1.7673  0.7245 -2.7528
 1764SOL     OW16753   0.368   4.468  11.869  0.2840 -0.5654  0.0562
 1764SOL    HW116754   0.374   4.556  11.907  0.7205 -1.7960  2.8288
 1764SOL    HW216755   0.429   4.413  11.917  0.8644  1.2597  1.4078
 1765SOL     OW16756   1.845   2.625  15.905 -0.0453 -0.2097  0.1993
 1765SOL    HW116757   1.822   2.707  15.863  0.2158  1.0854  2.6146
 1765SOL    HW216758   1.938   2.635  15.922 -0.5961  2.4462  1.6302
 1766SOL     OW16759   1.433   3.293   3.826 -0.3254  0.2660  0.4039
 1766SOL    HW116760   1.405   3.217   3.774 -1.4104  1.0618 -0.1715
 1766SOL    HW216761   1.386   3.274   3.907 -1.0666 -1.5314 -0.4360
 1767SOL     OW16762   4.588   1.636  11.508  0.0039  0.2348  0.1557
 1767SOL    HW116763   4.659   1.672  11.561 -0.3904 -1.9855  2.2081
 1767SOL    HW216764   4.514   1.677  11.554  0.1236 -1.7712  2.1551
 1768SOL     OW16765   3.154   1.763   0.753 -0.3483 -0.5762 -0.0707
 1768SOL    HW116766   3.094   1.825   0.713  0.3424  0.1567  0.0261
 1768SOL    HW216767   3.237   1.759   0.705  0.9572 -0.8106  2.1635
 1769SOL     OW16768   0.244   2.651   7.545  1.1037 -0.3408  0.6199
 1769SOL    HW116769   0.221   2.606   7.626  1.0992 -0.6053  0.4709
 1769SOL    HW216770   0.339   2.651   7.549  0.9901  1.1665  2.8783
 1770SOL     OW16771   3.976   3.661  12.433 -0.0863 -0.1284  0.2940
 1770SOL    HW116772   4.029   3.698  12.363 -1.3127 -0.5091 -0.8320
 1770SOL    HW216773   3.912   3.729  12.451  1.4353  1.8841 -1.9271
 1771SOL     OW16774   2.079   1.553  12.179 -0.1300  0.0696  0.6786
 1771SOL    HW116775   2.152   1.580  12.235  1.1684 -0.9252 -0.5278
 1771SOL    HW216776   2.082   1.458  12.186  3.6442  0.1879  0.3899
 1772SOL     OW16777   3.338   0.396  11.700  0.2211  0.0877 -0.0725
 1772SOL    HW116778   3.381   0.448  11.632  0.1736 -0.7752 -0.7627
 1772SOL    HW216779   3.321   0.320  11.644 -1.5242  1.1201 -0.9459
 1773SOL     OW16780   4.013   0.801   5.995 -0.3344  0.3295  0.4060
 1773SOL    HW116781   4.024   0.832   6.085  1.5350  1.4642 -0.2064
 1773SOL    HW216782   3.949   0.866   5.965 -2.0819 -1.3496  0.4542
 1774SOL     OW16783   4.605   3.014   3.118 -0.2791  0.4139 -0.3569
 1774SOL    HW116784   4.633   2.989   3.030  1.1993 -0.0902  0.2577
 1774SOL    HW216785   4.536   3.077   3.099 -0.1969 -0.4435 -3.5227
 1775SOL     OW16786   2.715   1.002   4.575 -0.3831  0.4120  0.3364
 1775SOL    HW116787   2.718   0.916   4.617  1.4925  1.2234  1.8763
 1775SOL    HW216788   2.626   1.026   4.602 -1.5527 -1.5704 -1.8045
 1776SOL     OW16789   4.189   4.499   7.007 -0.2097  0.2504 -0.6856
 1776SOL    HW116790   4.142   4.537   7.081  0.2067 -0.0223 -0.2861
 1776SOL    HW216791   4.208   4.570   6.945  3.0246 -0.1929 -0.2293
 1777SOL     OW16792   3.424   3.393  12.821 -0.2242 -1.0095  0.1252
 1777SOL    HW116793   3.423   3.441  12.739 -0.5879 -1.2365 -0.0007
 1777SOL    HW216794   3.342   3.347  12.805 -0.2967 -1.5370  2.0312
 1778SOL     OW16795   2.690   2.901   0.412  0.8476  0.2809  0.1545
 1778SOL    HW116796   2.596   2.895   0.398  1.0016 -2.2333  0.3178
 1778SOL    HW216797   2.715   2.971   0.351 -1.4912  0.6518 -0.3663
 1779SOL     OW16798   1.130   2.462   4.323  0.0780 -0.6473 -0.2665
 1779SOL    HW116799   1.185   2.422   4.391  0.9309  1.6009  0.3647
 1779SOL    HW216800   1.188   2.447   4.249  0.3650  3.6496 -0.8902
 1780SOL     OW16801   1.913   2.940   6.501  0.0429  0.2017  0.0159
 1780SOL    HW116802   1.907   3.032   6.526 -0.1221  0.4125 -0.7922
 1780SOL    HW216803   1.963   2.906   6.575 -1.9951 -0.5280  1.0399
 1781SOL     OW16804   2.903   2.162   2.954  0.1922  0.2090  0.3234
 1781SOL    HW116805   2.993   2.135   2.971  0.7704  1.0014 -1.4260
 1781SOL    HW216806   2.905   2.213   2.873  1.5539 -1.2777 -0.5657
 1782SOL     OW16807   4.236   4.160   2.495  0.5852 -0.4956 -0.4022
 1782SOL    HW116808   4.146   4.189   2.477 -0.3602 -0.8527  3.6868
 1782SOL    HW216809   4.273   4.147   2.408 -1.0966 -0.4255 -1.1370
 1783SOL     OW16810   1.840   1.906   6.263  0.4735  0.1184  0.4633
 1783SOL    HW116811   1.853   1.841   6.194  0.3030 -2.2171  2.6468
 1783SOL    HW216812   1.763   1.873   6.308  0.1404  0.2939  0.0254
 1784SOL     OW16813   4.386   1.006   8.845 -0.2962 -0.1222 -0.0053
 1784SOL    HW116814   4.481   1.017   8.840 -0.5019  0.3489 -3.0432
 1784SOL    HW216815   4.390   0.925   8.896  1.9887 -2.5738 -4.0492
 1785SOL     OW16816   2.567   1.547   2.498 -0.3483  0.2635  0.5302
 1785SOL    HW116817   2.572   1.562   2.593  0.7095 -0.3515  0.5742
 1785SOL    HW216818   2.660   1.531   2.480 -0.3435 -1.6889  2.2481
 1786SOL     OW16819   1.419   2.670   6.465  0.1314 -0.2520  0.5469
 1786SOL    HW116820   1.503   2.633   6.439  0.0774 -0.4730  0.6909
 1786SOL    HW216821   1.449   2.706   6.548 -2.2152 -0.0905  1.3250
 1787SOL     OW16822   1.686   3.052   3.749 -0.2002  0.0344  0.9362
 1787SOL    HW116823   1.623   3.041   3.820 -1.6288  1.6814 -0.0626
 1787SOL    HW216824   1.640   3.109   3.687  1.1947 -2.0206 -1.9393
 1788SOL     OW16825   3.132   3.054   2.951  0.1709  0.3988 -0.3724
 1788SOL    HW116826   3.060   3.037   3.012  2.3379  0.3209  2.1655
 1788SOL    HW216827   3.088   3.065   2.866 -0.8175  0.5411  0.1615
 1789SOL     OW16828   3.096   0.500   3.819  0.1642  0.1186  0.1661
 1789SOL    HW116829   3.037   0.481   3.892  0.0071  0.7457  0.2027
 1789SOL    HW216830   3.039   0.494   3.743  2.2179  0.7856 -1.4251
 1790SOL     OW16831   2.075   2.605  13.640 -0.2838  0.2578  0.5020
 1790SOL    HW116832   2.001   2.646  13.684 -0.8289 -1.5173  1.2308
 1790SOL    HW216833   2.090   2.680  13.582  0.8620  0.6811  1.3394
 1791SOL     OW16834   2.859   0.862   4.090  0.3679  0.4320  0.2267
 1791SOL    HW116835   2.936   0.811   4.116  0.2467  1.1743  1.9889
 1791SOL    HW216836   2.849   0.901   4.177  2.5426  1.6172 -0.0594
 1792SOL     OW16837   1.771   2.512   8.172 -0.1991 -0.4670 -0.0629
 1792SOL    HW116838   1.792   2.477   8.085 -1.7140 -2.5304  0.3959
 1792SOL    HW216839   1.696   2.459   8.198  0.5084 -0.6269  1.6172
 1793SOL     OW16840   3.022   0.326   5.006  0.5168  0.3647  0.1737
 1793SOL    HW116841   2.965   0.286   4.940 -2.3232  1.0102  2.2190
 1793SOL    HW216842   3.109   0.289   4.992  0.4405  0.7149 -1.2560
 1794SOL     OW16843   4.464   1.553   7.672 -0.2300  0.0890  0.3612
 1794SOL    HW116844   4.495   1.545   7.582  0.7210 -2.5082  0.8938
 1794SOL    HW216845   4.411   1.632   7.664  0.1485  0.3833  0.7668
 1795SOL     OW16846   1.434   1.097   7.058 -0.1596  0.3330 -0.0123
 1795SOL    HW116847   1.393   1.011   7.054 -0.2695  0.2362  3.1842
 1795SOL    HW216848   1.366   1.163   7.070 -0.2185  0.2655  0.0298
 1796SOL     OW16849   2.283   1.161   8.936 -0.0770  0.4271 -0.7321
 1796SOL    HW116850   2.373   1.157   8.902  0.1768 -1.0918  0.0993
 1796SOL    HW216851   2.265   1.067   8.930  0.6188  0.2845 -0.6168
 1797SOL     OW16852   1.733   3.687   4.434 -0.0681 -0.0248  0.3021
 1797SOL    HW116853   1.789   3.764   4.424  0.1749  0.0215  1.9403
 1797SOL    HW216854   1.793   3.615   4.455 -0.6683 -0.3120  1.0449
 1798SOL     OW16855   0.474   3.585  10.786 -0.1479 -0.0783 -0.4412
 1798SOL    HW116856   0.420   3.663  10.797 -1.0723 -0.7732  0.0180
 1798SOL    HW216857   0.533   3.574  10.860 -2.5880  0.2851  1.5739
 1799SOL     OW16858   2.272   1.969   4.718 -0.5050  0.1693 -0.1456
 1799SOL    HW116859   2.328   1.943   4.792  0.8615 -0.1131 -1.2691
 1799SOL    HW216860   2.309   2.055   4.700  0.1714  0.0277  0.5360
 1800SOL     OW16861   0.456   1.429   1.392 -0.4465  0.5951 -0.0935
 1800SOL    HW116862   0.427   1.340   1.376  0.3558  0.0325  1.5301
 1800SOL    HW216863   0.439   1.444   1.486 -1.0440  2.2647 -0.4609
 1801SOL     OW16864   2.987   2.231  12.501  0.5202  0.3699 -0.1931
 1801SOL    HW116865   2.989   2.177  12.581 -0.3172  0.7728  0.1046
 1801SOL    HW216866   3.029   2.310  12.536  1.4675 -1.5116  2.9572
 1802SOL     OW16867   2.881   1.224   8.328  0.0038  0.8018  0.5069
 1802SOL    HW116868   2.796   1.194   8.359  0.4432  0.7245  1.6505
 1802SOL    HW216869   2.849   1.301   8.281  1.2185  0.0951 -1.4348
 1803SOL     OW16870   2.795   2.271  13.347 -0.2641 -0.4564 -0.5316
 1803SOL    HW116871   2.831   2.187  13.321  0.7293 -0.0052 -0.6153
 1803SOL    HW216872   2.724   2.246  13.405  0.4686  0.8998  0.9525
 1804SOL     OW16873   3.209   3.702  16.114  0.1421  0.0260  0.2660
 1804SOL    HW116874   3.297   3.681  16.083 -0.6027 -2.1825 -0.3210
 1804SOL    HW216875   3.220   3.675  16.206 -0.3756 -0.6292  0.1297
 1805SOL     OW16876   1.169   1.659   4.490 -0.4044  0.4004 -0.2814
 1805SOL    HW116877   1.152   1.692   4.579  1.1317  2.2475 -0.6760
 1805SOL    HW216878   1.250   1.706   4.472 -0.3653  1.4472  2.5437
 1806SOL     OW16879   0.357   0.657  13.211  0.6035 -0.2580  0.9094
 1806SOL    HW116880   0.452   0.664  13.207  0.4795  1.8994  1.6039
 1806SOL    HW216881   0.327   0.737  13.168  1.2079  0.5320  1.9494
 1807SOL     OW16882   4.506   0.849  16.195  0.2501 -0.3012 -0.2700
 1807SOL    HW116883   4.454   0.918  16.236  0.9411 -1.3496  2.3212
 1807SOL    HW216884   4.477   0.849  16.103 -0.1826  0.3639 -0.1305
 1808SOL     OW16885   1.885   3.942   5.267  0.2897  0.1085 -0.2180
 1808SOL    HW116886   1.790   3.948   5.270  0.3553  0.3528  1.5902
 1808SOL    HW216887   1.913   4.024   5.308  0.9731  0.2597 -0.9928
 1809SOL     OW16888   1.373   0.888   3.947 -0.3327  0.0689  0.3374
 1809SOL    HW116889   1.464   0.860   3.960 -0.2058 -0.3323 -1.4009
 1809SOL    HW216890   1.319   0.831   4.002 -1.0204  1.4563  1.0914
 1810SOL     OW16891   0.166   2.071  15.249 -0.4005  0.2422  0.2757
 1810SOL    HW116892   0.081   2.055  15.291 -0.0730 -0.2204  0.7666
 1810SOL    HW216893   0.169   1.978  15.227 -3.5470  0.6644 -1.8546
 1811SOL     OW16894   1.566   2.046   8.371  0.3279 -0.1325  0.2716
 1811SOL    HW116895   1.482   2.030   8.414 -1.1349  1.8440 -1.8855
 1811SOL    HW216896   1.604   1.958   8.379  1.0443  0.0995 -0.5151
 1812SOL     OW16897   0.279   3.377   2.089 -0.0190  0.1917 -0.3170
 1812SOL    HW116898   0.278   3.282   2.080 -1.7382  0.0703  1.1445
 1812SOL    HW216899   0.194   3.388   2.047  0.1788  0.4249 -0.6578
 1813SOL     OW16900   4.219   1.146   8.211  1.0982 -0.0196  0.5425
 1813SOL    HW116901   4.265   1.063   8.225 -0.0722 -0.6996  0.3441
 1813SOL    HW216902   4.288   1.199   8.170 -1.9491  1.8544 -2.2142
 1814SOL     OW16903   1.291   1.169  13.531 -0.5063 -0.1523 -0.4370
 1814SOL    HW116904   1.290   1.262  13.554  1.6855 -0.0504 -0.7425
 1814SOL    HW216905   1.329   1.128  13.609 -0.5344  1.9495  0.6794
 1815SOL     OW16906   1.137   4.696   3.971  0.4981 -0.3926 -0.0205
 1815SOL    HW116907   1.091   4.613   3.977 -1.1019  0.1704 -4.3369
 1815SOL    HW216908   1.069   0.029   3.934  0.0696 -0.7932  0.1605
 1816SOL     OW16909   3.062   0.781   9.402  0.1687 -0.7377  0.0463
 1816SOL    HW116910   3.113   0.850   9.359 -0.4708  0.9571  1.9997
 1816SOL    HW216911   3.035   0.743   9.319 -2.3233  0.8667  0.1386
 1817SOL     OW16912   0.684   4.240  12.664 -0.1470  0.4621 -0.0293
 1817SOL    HW116913   0.710   4.308  12.602  1.3902 -0.5967 -0.5450
 1817SOL    HW216914   0.717   4.164  12.616 -0.9383  1.6166 -2.3694
 1818SOL     OW16915   0.425   3.482   9.358  0.0857  0.9060 -0.1538
 1818SOL    HW116916   0.501   3.427   9.338 -1.5496 -1.1859 -0.6159
 1818SOL    HW216917   0.444   3.502   9.450 -1.0288 -3.4841  1.0561
 1819SOL     OW16918   0.659   3.263  15.549  0.5935 -0.1426 -0.3407
 1819SOL    HW116919   0.638   3.181  15.593  0.3441  0.1761  0.1215
 1819SOL    HW216920   0.578   3.294  15.508  0.6690 -1.8231 -1.7650
 1820SOL     OW16921   2.867   0.855   6.878 -0.1244 -0.0725 -0.0494
 1820SOL    HW116922   2.780   0.892   6.861  0.9731  1.9703 -1.2239
 1820SOL    HW216923   2.859   0.826   6.969  0.6058 -3.2162 -0.9890
 1821SOL     OW16924   2.478   4.189  16.618 -0.0939 -0.1214 -0.2417
 1821SOL    HW116925   2.475   4.155  16.529  0.8779 -1.3695  0.2087
 1821SOL    HW216926   2.488   4.284  16.604  0.6015 -0.0302  0.8631
 1822SOL     OW16927   1.637   1.778   8.350  0.2263 -0.1085  0.0280
 1822SOL    HW116928   1.550   1.761   8.315 -0.0832 -0.7087  1.0852
 1822SOL    HW216929   1.678   1.691   8.345 -2.8529 -1.5448 -0.0708
 1823SOL     OW16930   1.193   1.013   9.206 -0.6823 -0.0571 -0.0809
 1823SOL    HW116931   1.289   1.020   9.199 -0.7719 -0.8373 -2.0579
 1823SOL    HW216932   1.174   1.052   9.292  0.4985  0.7782 -0.1902
 1824SOL     OW16933   4.469   1.772   8.556 -0.1875 -1.0023  0.3996
 1824SOL    HW116934   4.425   1.690   8.575  0.8108 -1.6579 -0.0833
 1824SOL    HW216935   4.503   1.792   8.643 -0.6440 -1.0838  0.5965
 1825SOL     OW16936   3.972   1.756  17.673  0.0343 -0.0522  0.0289
 1825SOL    HW116937   4.025   1.778  17.597 -0.5885  0.5522 -0.2266
 1825SOL    HW216938   3.933   1.681  17.628  1.1675  0.0766 -1.1470
 1826SOL     OW16939   1.273   3.872  14.489  0.4949 -0.3747  0.5136
 1826SOL    HW116940   1.357   3.865  14.444  0.8816 -2.0490  1.4874
 1826SOL    HW216941   1.277   3.963  14.518 -0.8723 -0.2630  0.3457
 1827SOL     OW16942   2.338   4.112  11.190 -0.0050  0.3121 -0.1723
 1827SOL    HW116943   2.339   4.019  11.166  1.5446  0.4854 -0.7756
 1827SOL    HW216944   2.428   4.129  11.215  0.2848 -0.1226 -0.9058
 1828SOL     OW16945   4.620   3.180   9.354  0.0241 -0.4873  0.3012
 1828SOL    HW116946   4.657   3.267   9.346  0.8305 -1.1061 -2.7912
 1828SOL    HW216947   4.534   3.201   9.318 -0.3346 -1.3032  0.6665
 1829SOL     OW16948   1.723   1.184   2.551  0.1975 -0.1574  0.0081
 1829SOL    HW116949   1.722   1.178   2.456  2.4905  0.6207 -0.0654
 1829SOL    HW216950   1.636   1.145   2.559 -0.0147  0.4480  0.6276
 1830SOL     OW16951   1.434   0.857   5.399  0.3009 -0.1841 -0.6902
 1830SOL    HW116952   1.389   0.880   5.480 -1.1748 -0.5352 -1.3982
 1830SOL    HW216953   1.466   0.778   5.443 -0.4613 -0.0630  0.0828
 1831SOL     OW16954   0.799   3.324   7.632 -0.1759  0.1488 -0.4288
 1831SOL    HW116955   0.812   3.355   7.542  2.3215  1.0038  0.2145
 1831SOL    HW216956   0.851   3.391   7.676  0.4414 -0.3727 -0.3662
 1832SOL     OW16957   3.065   0.366   9.073 -0.2390 -0.3874 -0.0650
 1832SOL    HW116958   3.118   0.365   8.994 -1.6029  1.3637 -0.9872
 1832SOL    HW216959   2.980   0.343   9.037 -0.2800  1.8890 -1.4179
 1833SOL     OW16960   4.695   0.625   4.931 -0.2490 -0.0728  0.0661
 1833SOL    HW116961   0.053   0.625   4.881 -0.2264  0.6432  0.1020
 1833SOL    HW216962   4.703   0.553   4.993 -1.2174  1.0446  1.5084
 1834SOL     OW16963   4.257   1.376   6.402 -0.8676 -0.3926 -0.6906
 1834SOL    HW116964   4.215   1.426   6.332  0.2955  0.3380 -0.8685
 1834SOL    HW216965   4.344   1.416   6.401 -1.4170  0.8363  0.0363
 1835SOL     OW16966   2.750   1.144   1.226  0.0791 -0.3023  0.1158
 1835SOL    HW116967   2.700   1.217   1.190 -0.1102  0.3814  1.7812
 1835SOL    HW216968   2.758   1.095   1.144  0.6101  0.3407 -0.2124
 1836SOL     OW16969   1.883   2.952  10.555  0.5632  0.3010 -0.5539
 1836SOL    HW116970   1.973   2.953  10.587 -0.3691  1.2869  2.0479
 1836SOL    HW216971   1.832   2.901  10.618 -0.3430  1.7712 -0.1133
 1837SOL     OW16972   1.865   3.336   3.298  0.0345 -0.0745 -0.2921
 1837SOL    HW116973   1.959   3.353   3.289  0.4951 -2.2502  0.5303
 1837SOL    HW216974   1.825   3.417   3.328  0.2356 -1.1855  2.9713
 1838SOL     OW16975   0.451   4.592   2.539  0.0518 -0.4412 -0.5491
 1838SOL    HW116976   0.476   4.601   2.447 -3.6455  0.0232 -1.5233
 1838SOL    HW216977   0.500   4.669   2.569  1.2113 -0.4898 -2.3190
 1839SOL     OW16978   1.611   2.513   5.986  0.3705  0.0313 -0.4309
 1839SOL    HW116979   1.546   2.584   5.982 -0.6620 -0.9673 -1.2163
 1839SOL    HW216980   1.588   2.475   6.071  2.6646 -0.4736 -0.0517
 1840SOL     OW16981   2.785   0.769  16.524  0.8257  0.1730 -0.1385
 1840SOL    HW116982   2.723   0.744  16.593  2.0859  2.0210  1.6760
 1840SOL    HW216983   2.726   0.795  16.454 -0.7242  1.2024  1.5677
 1841SOL     OW16984   3.461   1.553   9.707  0.0685 -0.6686  0.0700
 1841SOL    HW116985   3.535   1.520   9.759  1.2933  0.3276 -1.0459
 1841SOL    HW216986   3.383   1.530   9.757  1.1960  0.0534  2.1903
 1842SOL     OW16987   2.236   2.501   3.822  0.4327 -0.3875 -0.0709
 1842SOL    HW116988   2.238   2.415   3.864 -1.9711  0.0398  0.9260
 1842SOL    HW216989   2.141   2.515   3.818  0.6319  0.9678 -0.0107
 1843SOL     OW16990   1.594   2.797   5.706  0.0943 -0.4675 -0.2362
 1843SOL    HW116991   1.576   2.890   5.687 -0.8492 -0.6273 -0.1425
 1843SOL    HW216992   1.517   2.782   5.761  0.2499 -0.6274 -0.0624
 1844SOL     OW16993   0.523   3.405  11.978 -0.0397 -0.3144 -0.7641
 1844SOL    HW116994   0.599   3.415  12.035  2.3209  0.6523 -4.0527
 1844SOL    HW216995   0.490   3.495  11.981  1.5810  0.3140 -1.7362
 1845SOL     OW16996   1.163   4.671   5.730 -0.1512 -0.0999  0.4476
 1845SOL    HW116997   1.209   0.024   5.764  0.0376  0.6195 -1.4590
 1845SOL    HW216998   1.235   4.608   5.735 -0.3344 -0.4617 -1.7102
 1846SOL     OW16999   4.427   3.444   7.805 -0.0529  0.2122 -0.0516
 1846SOL    HW117000   4.449   3.477   7.718 -1.2678 -0.1351 -0.4826
 1846SOL    HW217001   4.487   3.370   7.803  0.1608  0.4018 -0.9981
 1847SOL     OW17002   0.789   3.348  11.448  0.8813  0.5468  0.4285
 1847SOL    HW117003   0.763   3.415  11.512 -1.9356  0.3024 -0.4246
 1847SOL    HW217004   0.842   3.285  11.496  1.0072 -1.3113 -2.1846
 1848SOL     OW17005   0.991   1.376  13.504  0.2975 -1.2685  0.5720
 1848SOL    HW117006   1.052   1.304  13.519  1.4642 -0.2028  0.9299
 1848SOL    HW217007   0.965   1.361  13.414  1.3265  0.3736  0.0030
 1849SOL     OW17008   0.721   1.609   1.893 -0.6179  0.1311  0.1274
 1849SOL    HW117009   0.661   1.649   1.830  0.5621 -0.7158 -1.5368
 1849SOL    HW217010   0.803   1.610   1.842 -0.9580  0.3057 -0.4265
 1850SOL     OW17011   0.114   0.137   1.186  0.1880  0.3111  0.1283
 1850SOL    HW117012   0.059   0.187   1.246  1.8606  2.5611 -0.2200
 1850SOL    HW217013   0.179   0.096   1.242 -1.3154 -2.3442 -0.0775
 1851SOL     OW17014   4.417   0.129   2.293  0.1384 -0.1612 -0.5358
 1851SOL    HW117015   4.323   0.114   2.284 -0.5241  1.9157  2.8825
 1851SOL    HW217016   4.418   0.222   2.271 -1.5715 -0.0881 -0.2856
 1852SOL     OW17017   2.218   2.167   2.482 -0.4107 -0.6107  0.2409
 1852SOL    HW117018   2.270   2.119   2.547  0.0824  0.4148  0.6107
 1852SOL    HW217019   2.175   2.105   2.423 -2.1490 -0.1754  1.0555
 1853SOL     OW17020   3.809   4.270   3.129  0.6242 -0.2400  0.5744
 1853SOL    HW117021   3.757   4.191   3.134  1.2443 -0.6336  0.8292
 1853SOL    HW217022   3.862   4.260   3.050  0.0619  0.0951  0.1536
 1854SOL     OW17023   2.969   0.592   9.190  0.4454 -0.2392 -0.3767
 1854SOL    HW117024   2.916   0.543   9.253 -2.1567  0.4455 -2.0381
 1854SOL    HW217025   3.028   0.523   9.158 -0.4183 -0.5686 -1.2764
 1855SOL     OW17026   4.245   0.049   7.398 -0.2830  0.4629 -0.2128
 1855SOL    HW117027   4.291   0.132   7.407  1.7466 -0.3635 -3.1113
 1855SOL    HW217028   4.307   4.720   7.348 -1.3150  0.4233 -1.4596
 1856SOL     OW17029   3.748   4.029   1.679  0.1510  0.3392  0.0960
 1856SOL    HW117030   3.689   4.051   1.607 -0.3586 -0.0525  0.3917
 1856SOL    HW217031   3.784   4.115   1.700  0.8551 -0.0139  0.3546
 1857SOL     OW17032   4.534   3.149   4.480 -0.1373  0.1658 -0.3928
 1857SOL    HW117033   4.556   3.059   4.455 -0.5592  0.2066 -0.9036
 1857SOL    HW217034   4.520   3.145   4.574 -1.4793  0.1732 -0.5951
 1858SOL     OW17035   0.383   2.284   3.342  0.1282  0.1962 -0.6870
 1858SOL    HW117036   0.382   2.189   3.326  0.6283 -0.2441  1.8500
 1858SOL    HW217037   0.295   2.285   3.380  1.0922  1.8731  1.5319
 1859SOL     OW17038   4.664   3.439   9.269  0.1482  0.1246 -0.0043
 1859SOL    HW117039   4.713   3.456   9.189  0.8310  1.2744  0.6565
 1859SOL    HW217040   4.577   3.471   9.246  0.1430  0.3361  0.3095
 1860SOL     OW17041   0.394   4.349   2.084 -0.1714 -0.8543 -0.1087
 1860SOL    HW117042   0.348   4.431   2.070  0.6878 -0.7024 -2.0262
 1860SOL    HW217043   0.448   4.338   2.006  2.9828  1.2609  1.7442
 1861SOL     OW17044   2.906   1.720  14.920 -0.1934  0.1366  0.8067
 1861SOL    HW117045   2.893   1.815  14.915  0.8378  0.0810 -2.6514
 1861SOL    HW217046   3.001   1.715  14.909 -0.2941  0.5481 -0.2177
 1862SOL     OW17047   2.917   1.367  17.665  0.2685  0.0284  0.3114
 1862SOL    HW117048   2.872   1.450  17.680  0.7776 -0.2084  3.1130
 1862SOL    HW217049   2.918   1.330   0.057  2.2081  1.7741  1.0169
 1863SOL     OW17050   2.590   3.681  16.947 -0.3872 -0.5898 -0.4766
 1863SOL    HW117051   2.511   3.723  16.982  0.5270  1.3543 -0.7435
 1863SOL    HW217052   2.658   3.748  16.939 -0.1817 -0.7086  0.2564
 1864SOL     OW17053   1.341   3.833   4.298 -0.1870 -0.5692 -0.4514
 1864SOL    HW117054   1.382   3.754   4.335  1.6870 -0.0706 -1.4476
 1864SOL    HW217055   1.396   3.826   4.220  0.1268  0.4679 -0.3306
 1865SOL     OW17056   2.126   0.561   3.971 -0.0117 -0.2189  0.1790
 1865SOL    HW117057   2.112   0.648   4.008 -1.4011 -0.5983  0.5350
 1865SOL    HW217058   2.188   0.526   4.035  0.1458  2.0404  1.2655
 1866SOL     OW17059   1.758   0.806   1.485  0.0717  0.7898  0.0641
 1866SOL    HW117060   1.767   0.711   1.482 -0.3814  0.7306  0.4937
 1866SOL    HW217061   1.845   0.834   1.512  0.2224  0.5169 -0.1489
 1867SOL     OW17062   3.274   2.831   4.045 -0.1703 -0.2913  0.2984
 1867SOL    HW117063   3.284   2.769   4.118  0.2349  0.8904  1.2452
 1867SOL    HW217064   3.326   2.905   4.076 -1.6157  0.4631  0.9100
 1868SOL     OW17065   2.686   2.102   7.703 -0.2986 -0.0740  0.5195
 1868SOL    HW117066   2.594   2.121   7.685  0.1175  1.5735  0.1299
 1868SOL    HW217067   2.711   2.177   7.757 -0.2243 -0.1551  0.5976
 1869SOL     OW17068   3.585   1.207   2.045  0.4307  0.3807 -0.5451
 1869SOL    HW117069   3.645   1.223   1.972  3.8072  1.8698  2.5325
 1869SOL    HW217070   3.503   1.180   2.004  0.1941 -0.5846  0.5573
 1870SOL     OW17071   4.687   3.516  16.162  0.0810 -0.0637 -0.0829
 1870SOL    HW117072   4.625   3.475  16.223 -0.7983  0.4598 -0.6357
 1870SOL    HW217073   0.005   3.439  16.123 -1.0987 -0.6129 -0.2629
 1871SOL     OW17074   1.099   0.317   4.728 -0.2315 -0.3330 -0.4837
 1871SOL    HW117075   1.124   0.235   4.771 -0.3697  0.4089  1.0187
 1871SOL    HW217076   1.035   0.353   4.790  0.1107  1.2690 -1.0687
 1872SOL     OW17077   0.539   4.110   8.805  0.7400  0.0915 -0.1825
 1872SOL    HW117078   0.504   4.166   8.874  0.7923 -0.1872  0.0725
 1872SOL    HW217079   0.561   4.035   8.860 -1.4385  1.6857  2.8405
 1873SOL     OW17080   2.752   4.096   7.280  0.0680  0.1577 -0.3559
 1873SOL    HW117081   2.846   4.104   7.292  0.4632 -2.5507 -1.6655
 1873SOL    HW217082   2.723   4.170   7.333  3.6491  0.4425  1.1990
 1874SOL     OW17083   0.907   0.888   4.434  0.4630 -0.2792 -0.2174
 1874SOL    HW117084   0.896   0.942   4.512 -0.3086  0.1571 -0.6234
 1874SOL    HW217085   0.991   0.844   4.447  0.0152 -0.9408  0.3917
 1875SOL     OW17086   2.027   1.468   8.904 -0.0115  0.1888  0.3965
 1875SOL    HW117087   1.945   1.506   8.873  0.2454  0.8781  0.5720
 1875SOL    HW217088   1.985   1.417   8.973  2.1377 -1.1363  0.7464
 1876SOL     OW17089   3.388   2.007   7.579 -0.2279  0.7446  0.2370
 1876SOL    HW117090   3.337   1.998   7.499  0.7622 -2.1876 -0.0591
 1876SOL    HW217091   3.311   2.005   7.636  0.1246  0.3374  0.7023
 1877SOL     OW17092   1.860   4.146   8.471 -0.2101  0.1809 -0.5142
 1877SOL    HW117093   1.786   4.135   8.411 -0.1799 -3.6581  0.1103
 1877SOL    HW217094   1.866   4.060   8.512 -0.8821 -0.2490 -1.2995
 1878SOL     OW17095   2.871   4.210   8.514 -0.3973  0.1434  0.1036
 1878SOL    HW117096   2.792   4.170   8.477 -2.3231  1.2133  3.0710
 1878SOL    HW217097   2.917   4.240   8.436 -1.2497  2.3261  0.4188
 1879SOL     OW17098   1.889   3.720  15.160  0.1010  0.3399 -0.4403
 1879SOL    HW117099   1.921   3.803  15.126  0.6012 -0.7106 -2.5525
 1879SOL    HW217100   1.970   3.668  15.159  0.5850  1.1032 -0.6733
 1880SOL     OW17101   2.663   1.280   1.448 -0.4983  0.0582 -0.1476
 1880SOL    HW117102   2.693   1.249   1.362 -0.7170 -0.9414  0.1364
 1880SOL    HW217103   2.692   1.371   1.445  2.3963 -0.8609  0.0524
 1881SOL     OW17104   4.110   1.337   4.336  0.4953  0.1622  0.0152
 1881SOL    HW117105   4.068   1.319   4.252  0.9345 -0.0070 -0.1686
 1881SOL    HW217106   4.161   1.258   4.353 -0.6595 -1.0294 -1.9984
 1882SOL     OW17107   1.322   3.934   8.987 -0.0436  0.2802  0.0270
 1882SOL    HW117108   1.412   3.909   8.964 -0.8336  0.2440 -3.1255
 1882SOL    HW217109   1.270   3.859   8.961  1.3339 -1.1628  1.4505
 1883SOL     OW17110   0.508   1.262   3.548  0.3856  0.0421  0.4902
 1883SOL    HW117111   0.413   1.252   3.535  0.3217 -1.4618  2.0572
 1883SOL    HW217112   0.522   1.209   3.626 -1.5638  1.8029  2.0442
 1884SOL     OW17113   0.634   4.511   4.038  0.4658 -0.4641  0.7777
 1884SOL    HW117114   0.653   4.518   4.131 -1.4706 -1.4893  1.2448
 1884SOL    HW217115   0.539   4.512   4.024  0.9024  4.2192 -1.9280
 1885SOL     OW17116   0.830   3.276   4.004  0.2040  0.9213  0.2485
 1885SOL    HW117117   0.783   3.345   3.957  0.4549  0.7165 -0.3055
 1885SOL    HW217118   0.917   3.296   3.969 -0.4987 -0.1885 -2.1131
 1886SOL     OW17119   1.472   4.152   6.423 -0.5836 -0.3789 -0.5446
 1886SOL    HW117120   1.458   4.142   6.517 -0.0996  1.1240 -0.3102
 1886SOL    HW217121   1.568   4.152   6.419 -0.5543  0.0030  0.2538
 1887SOL     OW17122   3.953   0.652   1.591 -0.1014 -0.1243  0.2756
 1887SOL    HW117123   3.863   0.659   1.558 -0.8416 -0.4619  2.2173
 1887SOL    HW217124   3.943   0.580   1.654 -1.4879  2.0706  2.5497
 1888SOL     OW17125   1.483   4.454   0.243  0.1414  0.1184  0.0054
 1888SOL    HW117126   1.479   4.522   0.310  0.0632  0.6481 -0.5337
 1888SOL    HW217127   1.482   4.372   0.292  0.7987 -0.5598 -1.0919
 1889SOL     OW17128   3.552   1.517  14.149 -0.2455  0.7049 -0.0606
 1889SOL    HW117129   3.521   1.480  14.066 -1.1878  0.4709  0.3971
 1889SOL    HW217130   3.488   1.589  14.155  0.5846  1.2350  2.1480
 1890SOL     OW17131   3.667   0.456  11.157  0.5736  0.6358 -0.1683
 1890SOL    HW117132   3.582   0.456  11.113  1.9999 -1.2005 -2.9111
 1890SOL    HW217133   3.703   0.376  11.119 -0.4174 -1.0960  2.5648
 1891SOL     OW17134   4.160   1.567  15.113  0.1299  0.4135 -0.2804
 1891SOL    HW117135   4.078   1.546  15.068  0.1820  0.7072 -0.5100
 1891SOL    HW217136   4.187   1.641  15.060  1.8087 -0.7639 -1.0867
 1892SOL     OW17137   2.525   1.585   2.773 -0.5699  0.0434 -0.4668
 1892SOL    HW117138   2.589   1.624   2.832 -2.1966  0.8192  0.7939
 1892SOL    HW217139   2.470   1.550   2.843  0.4959 -0.8511 -0.0813
 1893SOL     OW17140   0.042   0.700   7.070  0.0515 -0.0019 -0.5426
 1893SOL    HW117141   0.043   0.621   7.015  1.5764 -0.1668 -0.2573
 1893SOL    HW217142   0.089   0.762   7.014  0.8254  1.9533  2.3009
 1894SOL     OW17143   4.662   1.588  16.567  0.0691 -0.0207  0.3343
 1894SOL    HW117144   4.635   1.675  16.598  0.0185  0.6864 -1.6659
 1894SOL    HW217145   4.586   1.533  16.586 -0.6250  0.8943  0.2124
 1895SOL     OW17146   3.091   3.245  11.773 -0.4025  0.3830 -0.0674
 1895SOL    HW117147   3.100   3.282  11.685  1.0889 -1.2935 -0.6262
 1895SOL    HW217148   3.157   3.176  11.768 -0.3237  0.5138 -0.9037
 1896SOL     OW17149   1.521   2.496   1.993 -0.6383  0.4280  0.3832
 1896SOL    HW117150   1.523   2.429   1.925  0.0240  1.2245 -0.3855
 1896SOL    HW217151   1.597   2.473   2.046 -0.2537  0.2891 -0.2322
 1897SOL     OW17152   1.041   0.570   1.674 -0.0469 -0.2960 -0.0885
 1897SOL    HW117153   0.975   0.538   1.736 -1.4136  1.2252 -0.7705
 1897SOL    HW217154   1.078   0.638   1.730 -1.6670 -1.1285  2.0106
 1898SOL     OW17155   0.825   4.622   4.582 -0.0562  0.6392  0.3564
 1898SOL    HW117156   0.889   4.564   4.541 -1.1294  0.1262 -0.6177
 1898SOL    HW217157   0.803   4.586   4.668 -0.0586 -0.3898 -0.0746
 1899SOL     OW17158   0.383   2.558   4.240 -0.3108  0.3232  0.0674
 1899SOL    HW117159   0.390   2.559   4.145  0.8053 -1.2044  0.1300
 1899SOL    HW217160   0.292   2.535   4.260  0.1906 -2.4633 -0.8229
 1900SOL     OW17161   0.856   2.409   4.717  0.3162  0.3374 -0.0894
 1900SOL    HW117162   0.863   2.390   4.623  2.0720  4.8128 -0.8720
 1900SOL    HW217163   0.818   2.329   4.751  1.0919 -0.4408 -1.0568
 1901SOL     OW17164   3.600   3.728   7.834  0.0451 -0.9399  0.1128
 1901SOL    HW117165   3.609   3.709   7.927 -2.3253 -1.9654  0.1226
 1901SOL    HW217166   3.528   3.669   7.814 -0.0997  0.0218 -2.2191
 1902SOL     OW17167   0.822   1.800  16.287 -0.7979 -0.2004 -0.1286
 1902SOL    HW117168   0.839   1.815  16.380 -0.9948 -4.0458  0.5199
 1902SOL    HW217169   0.913   1.804  16.260 -0.7890 -1.7313 -0.2935
 1903SOL     OW17170   4.041   0.951   6.843  0.0823 -0.2719 -0.2004
 1903SOL    HW117171   4.009   0.926   6.929 -0.6583  0.9259 -0.1194
 1903SOL    HW217172   4.101   1.024   6.858 -1.0837  0.3442  1.4929
 1904SOL     OW17173   2.135   4.626   9.977 -0.1526 -0.3264 -0.3122
 1904SOL    HW117174   2.130   4.651  10.069  0.7496  1.4609 -0.7481
 1904SOL    HW217175   2.130   4.530   9.977  0.8568 -0.3818 -0.3511
 1905SOL     OW17176   3.099   1.581   5.291  0.2043 -0.0502 -0.5287
 1905SOL    HW117177   3.026   1.609   5.235 -1.4479  1.7966  2.5582
 1905SOL    HW217178   3.114   1.659   5.345 -1.0135 -0.1058 -0.1157
 1906SOL     OW17179   1.752   1.376   4.984  0.0282 -0.3199 -1.0066
 1906SOL    HW117180   1.788   1.399   4.898 -0.7473  1.5946 -0.8154
 1906SOL    HW217181   1.772   1.282   4.985 -1.5500 -0.6703 -1.2418
 1907SOL     OW17182   1.757   1.460  10.748  0.3921 -0.2683  0.1750
 1907SOL    HW117183   1.778   1.533  10.807  0.4796 -0.1748  0.0280
 1907SOL    HW217184   1.833   1.455  10.691  1.1229  1.4678  0.9981
 1908SOL     OW17185   4.581   0.776   2.126  0.3710 -0.0407  0.0304
 1908SOL    HW117186   4.626   0.763   2.043 -1.0886 -0.2978 -0.7162
 1908SOL    HW217187   4.580   0.872   2.127  1.6390 -0.0034 -2.2073
 1909SOL     OW17188   0.176   0.851   2.065  0.2011  0.1632  0.1610
 1909SOL    HW117189   0.110   0.901   2.017 -0.8391  0.1649  1.5828
 1909SOL    HW217190   0.241   0.920   2.074  0.7545 -0.0601 -2.1643
 1910SOL     OW17191   3.561   0.966   7.631 -0.3977 -0.4376 -0.4371
 1910SOL    HW117192   3.497   1.031   7.603  1.2449  1.9032  1.1492
 1910SOL    HW217193   3.636   0.986   7.574  1.4722  1.9642  2.8357
 1911SOL     OW17194   3.793   3.001  17.101 -0.5925  0.6286 -0.2392
 1911SOL    HW117195   3.745   3.064  17.156  0.4582  2.1058 -0.9963
 1911SOL    HW217196   3.728   2.959  17.044 -0.7349 -0.8160  0.9946
 1912SOL     OW17197   2.582   0.375   7.231 -0.5684 -0.4809 -0.0037
 1912SOL    HW117198   2.616   0.345   7.316 -3.4296  0.3422  1.4589
 1912SOL    HW217199   2.563   0.465   7.257  1.7136 -0.5704  1.9778
 1913SOL     OW17200   4.695   4.405   8.464  0.2503 -0.0856 -0.3126
 1913SOL    HW117201   4.668   4.318   8.434 -1.8824  0.5421 -0.1780
 1913SOL    HW217202   0.051   4.385   8.515  0.0035  0.9704  0.4910
 1914SOL     OW17203   0.554   2.092   6.294 -0.1822 -0.1025 -0.4390
 1914SOL    HW117204   0.627   2.151   6.313 -1.1761  1.4618 -1.4662
 1914SOL    HW217205   0.577   2.019   6.353 -2.8076 -0.1320  0.5248
 1915SOL     OW17206   2.528   2.061   5.392  0.1994 -0.4413  0.2147
 1915SOL    HW117207   2.540   2.110   5.474 -0.6494 -0.4152  0.3204
 1915SOL    HW217208   2.436   2.083   5.375 -0.4202 -1.9560  1.6019
 1916SOL     OW17209   1.555   1.647   3.830 -0.1713  0.3844 -0.6535
 1916SOL    HW117210   1.625   1.672   3.890 -1.5480  2.1788  0.2335
 1916SOL    HW217211   1.553   1.552   3.838  0.0412  0.6069  2.0151
 1917SOL     OW17212   4.047   1.902   3.976  0.2823  0.2943  0.4222
 1917SOL    HW117213   4.035   1.991   4.010 -0.9584 -0.4019  1.8115
 1917SOL    HW217214   4.027   1.848   4.053 -0.9285  0.4664  0.2356
 1918SOL     OW17215   2.193   4.414  17.101  0.2315 -0.4032  0.2495
 1918SOL    HW117216   2.181   4.507  17.080  3.4250 -0.2588 -1.0190
 1918SOL    HW217217   2.161   4.405  17.191  0.1473 -0.2214  0.2377
 1919SOL     OW17218   4.656   0.478   9.858  0.4552  0.3068 -0.0472
 1919SOL    HW117219   0.006   0.417   9.864  1.6156  1.5610 -1.8424
 1919SOL    HW217220   4.592   0.425   9.906  1.1260 -0.0327  0.4672
 1920SOL     OW17221   3.988   2.751   1.951  0.2214  0.8035 -0.5126
 1920SOL    HW117222   4.056   2.753   2.017 -0.7388 -0.5758  0.5192
 1920SOL    HW217223   3.965   2.658   1.947 -1.1764  1.1696 -1.0199
 1921SOL     OW17224   0.976   2.465   2.249  0.0262 -0.5865  0.1872
 1921SOL    HW117225   1.029   2.539   2.278 -0.4972  0.5888 -1.8390
 1921SOL    HW217226   0.982   2.475   2.154  1.3114  0.4224  0.3828
 1922SOL     OW17227   2.525   0.821   3.569 -0.2777 -0.2147 -0.3021
 1922SOL    HW117228   2.562   0.900   3.529 -0.4604 -0.3426 -0.7227
 1922SOL    HW217229   2.604   0.773   3.592  0.1963  1.5126  1.6844
 1923SOL     OW17230   1.802   0.668   8.076  0.5239 -0.4269  0.6250
 1923SOL    HW117231   1.866   0.616   8.027  0.9138  0.2055  0.4632
 1923SOL    HW217232   1.727   0.609   8.080 -0.0340  0.1102 -1.4158
 1924SOL     OW17233   0.628   0.707  11.666  0.4059 -0.1579  0.3339
 1924SOL    HW117234   0.653   0.780  11.610  0.8731 -0.6015 -0.0362
 1924SOL    HW217235   0.583   0.756  11.735  2.1764 -0.3282  1.5986
 1925SOL     OW17236   3.620   0.065   4.741 -0.3587  0.3809 -0.5363
 1925SOL    HW117237   3.686   0.129   4.768  2.3683 -1.3001 -3.1874
 1925SOL    HW217238   3.575   0.099   4.664 -3.4240 -0.3189  0.9487
 1926SOL     OW17239   2.036   1.661   7.877  0.7175  0.1783  0.0699
 1926SOL    HW117240   2.015   1.705   7.795  0.7668  0.4960  0.2308
 1926SOL    HW217241   2.007   1.576   7.843  1.3207 -0.4136  1.0335
 1927SOL     OW17242   1.962   2.923   4.779  0.2229 -0.1853 -0.1784
 1927SOL    HW117243   1.909   2.987   4.731  1.0908 -0.5004 -1.5816
 1927SOL    HW217244   1.978   2.969   4.861 -0.7362 -0.3443  0.0971
 1928SOL     OW17245   1.315   3.980   4.814 -0.3240 -0.1374 -0.5621
 1928SOL    HW117246   1.262   3.946   4.742  0.2922 -1.1673 -0.5324
 1928SOL    HW217247   1.319   3.904   4.873 -1.0380  0.2391 -0.0279
 1929SOL     OW17248   2.424   1.079   7.867 -0.3571  0.0555 -0.1711
 1929SOL    HW117249   2.392   1.083   7.957  1.4777  0.7036  0.4471
 1929SOL    HW217250   2.381   1.153   7.825 -0.5413  1.4967  2.5539
 1930SOL     OW17251   3.425   0.609   6.410 -0.1137 -0.3227  0.5113
 1930SOL    HW117252   3.430   0.534   6.470 -0.0712  1.0933  2.2545
 1930SOL    HW217253   3.356   0.668   6.440 -0.4494 -0.2508 -0.4078
 1931SOL     OW17254   1.473   3.250   1.564  0.8643 -0.1455 -0.3522
 1931SOL    HW117255   1.401   3.200   1.526  1.9747 -1.1389 -1.1352
 1931SOL    HW217256   1.530   3.174   1.558  1.1530 -0.1968  2.8318
 1932SOL     OW17257   1.425   2.895   1.340 -0.2943  0.1326 -0.1573
 1932SOL    HW117258   1.506   2.942   1.322 -1.4133  1.6109 -1.3285
 1932SOL    HW217259   1.378   2.959   1.393  1.8451  2.4878 -1.1135
 1933SOL     OW17260   4.630   1.146   3.064 -0.4681  0.3584 -0.0404
 1933SOL    HW117261   4.631   1.239   3.040  0.5019  0.4997  0.5465
 1933SOL    HW217262   4.722   1.120   3.071 -0.3270  0.5416 -1.2446
 1934SOL     OW17263   4.507   4.666   6.870  0.3816  0.1999  0.4435
 1934SOL    HW117264   4.515   0.014   6.933  0.8436 -0.6667  1.3880
 1934SOL    HW217265   4.532   4.587   6.919  0.2053  0.0681  0.3204
 1935SOL     OW17266   1.901   4.014   8.738  0.1435  0.1407 -0.3619
 1935SOL    HW117267   1.895   3.930   8.783  0.4726  0.1148 -0.3659
 1935SOL    HW217268   1.807   4.034   8.742  0.9272  3.6058  0.2333
 1936SOL     OW17269   4.536   0.965   0.806 -0.0599  0.5012 -0.2636
 1936SOL    HW117270   4.537   1.007   0.720  1.6449 -0.0182 -0.4972
 1936SOL    HW217271   4.508   0.878   0.777  0.6223 -0.0476  0.7337
 1937SOL     OW17272   1.602   4.483   9.427 -0.3252 -0.0675 -1.0809
 1937SOL    HW117273   1.521   4.522   9.394 -1.3528 -2.0296 -0.8945
 1937SOL    HW217274   1.577   4.392   9.442 -1.0890  0.4423  0.7767
 1938SOL     OW17275   0.139   1.703   3.708 -0.0981 -0.3859 -0.0260
 1938SOL    HW117276   0.047   1.677   3.711 -0.5725  1.3980  0.4732
 1938SOL    HW217277   0.158   1.682   3.799 -0.8146  1.1239  0.4611
 1939SOL     OW17278   3.311   3.582  16.367 -0.4660 -0.1258  0.4190
 1939SOL    HW117279   3.285   3.493  16.391  0.2565  0.0269  1.7849
 1939SOL    HW217280   3.319   3.610  16.458  1.3054  2.6828 -0.5982
 1940SOL     OW17281   3.154   1.056   7.210  0.5322 -0.4681  0.4688
 1940SOL    HW117282   3.094   1.068   7.283  1.8769  1.4502  1.2686
 1940SOL    HW217283   3.109   0.983   7.168  1.2270 -0.4887 -0.2461
 1941SOL     OW17284   3.228   3.783   2.120 -0.1577 -0.1365  0.3396
 1941SOL    HW117285   3.160   3.846   2.099  1.1267  1.4293  0.8280
 1941SOL    HW217286   3.303   3.841   2.136  1.6360 -2.1701 -0.5708
 1942SOL     OW17287   4.617   4.666   4.586 -0.5583 -0.3055  0.5204
 1942SOL    HW117288   4.523   4.644   4.586 -0.5569 -0.3191  0.1057
 1942SOL    HW217289   4.615   4.716   4.667  4.0284  0.8055 -0.0411
 1943SOL     OW17290   0.341   1.652   1.820 -0.3202  0.2612  0.4376
 1943SOL    HW117291   0.418   1.666   1.765  1.4027 -1.1050  2.4988
 1943SOL    HW217292   0.270   1.682   1.763 -0.7471 -0.9529  0.3252
 1944SOL     OW17293   0.221   0.453   4.420 -0.0519 -0.6930  0.1207
 1944SOL    HW117294   0.311   0.461   4.450  0.2013 -1.7618 -0.3698
 1944SOL    HW217295   0.197   0.543   4.399 -0.2091 -1.2575 -2.0671
 1945SOL     OW17296   1.516   3.109   4.626 -0.3391 -0.3830 -0.1013
 1945SOL    HW117297   1.492   3.025   4.586  1.2125 -0.6159 -0.5467
 1945SOL    HW217298   1.430   3.127   4.663  0.4991 -1.0113  2.1286
 1946SOL     OW17299   2.839   0.280   8.955 -0.3083  0.7732  0.3568
 1946SOL    HW117300   2.827   0.186   8.939 -0.0719  0.8353 -0.1976
 1946SOL    HW217301   2.769   0.315   8.900 -0.2699  1.8202  0.9862
 1947SOL     OW17302   0.066   4.429  11.047 -0.2853 -0.1216 -0.0802
 1947SOL    HW117303   4.716   4.486  11.069 -1.0766 -1.3889  0.6075
 1947SOL    HW217304   0.122   4.459  11.117  2.6574 -0.0489 -2.4657
 1948SOL     OW17305   3.140   4.396  11.429  0.0650 -0.6568  0.0125
 1948SOL    HW117306   3.127   4.317  11.377 -0.4399  0.0784 -0.9820
 1948SOL    HW217307   3.070   4.381  11.491  0.2697  0.9487  0.6480
 1949SOL     OW17308   0.740   3.457  13.650 -0.0246 -0.3152 -0.0841
 1949SOL    HW117309   0.669   3.394  13.659 -0.6769  0.6687  1.7087
 1949SOL    HW217310   0.765   3.438  13.560 -0.6249  0.1270 -0.3476
 1950SOL     OW17311   3.674   3.455   4.350 -0.2772  0.0154 -0.3872
 1950SOL    HW117312   3.660   3.413   4.435  0.2748 -0.5970 -0.5976
 1950SOL    HW217313   3.605   3.522   4.351  0.5187  0.8053  0.8910
 1951SOL     OW17314   4.311   4.649  10.196  0.1127  0.3553  0.1087
 1951SOL    HW117315   4.352   4.688  10.273 -1.2435  1.7399  0.1307
 1951SOL    HW217316   4.219   4.667  10.217  0.5665  3.4104 -0.5847
 1952SOL     OW17317   1.270   0.840   7.342 -0.1080 -0.9239 -0.6926
 1952SOL    HW117318   1.193   0.823   7.288 -0.3233 -1.0813 -0.3373
 1952SOL    HW217319   1.233   0.879   7.421 -1.6739 -0.8111 -1.4877
 1953SOL     OW17320   3.818   0.438   3.315 -0.5456 -0.3828 -0.1754
 1953SOL    HW117321   3.871   0.373   3.268 -4.0934 -2.8044 -0.8154
 1953SOL    HW217322   3.863   0.521   3.296  0.5302 -1.1177 -0.8784
 1954SOL     OW17323   4.677   3.907   8.658 -0.0549  0.2792 -0.0625
 1954SOL    HW117324   4.619   3.873   8.727  0.1374 -1.0855 -0.5932
 1954SOL    HW217325   4.670   4.000   8.681  1.9273  0.3146  0.3501
 1955SOL     OW17326   3.066   4.282   4.462 -0.2672  0.0329  0.1049
 1955SOL    HW117327   3.088   4.310   4.373 -1.1931  1.1129  0.2180
 1955SOL    HW217328   3.154   4.290   4.500  0.3278 -1.2381 -1.0235
 1956SOL     OW17329   2.134   2.586   8.414  0.1076  0.6570  0.6680
 1956SOL    HW117330   2.229   2.581   8.414  0.0390 -0.4578 -0.4216
 1956SOL    HW217331   2.113   2.497   8.442 -1.4606  1.6181  2.5584
 1957SOL     OW17332   0.654   2.764   7.996  0.2005 -0.2432 -0.0113
 1957SOL    HW117333   0.600   2.786   7.921  1.0074  0.9444 -0.2500
 1957SOL    HW217334   0.636   2.847   8.042 -0.5575  0.4786 -1.6220
 1958SOL     OW17335   3.152   1.854   4.184  0.3762  0.4042  0.0902
 1958SOL    HW117336   3.100   1.878   4.260  0.5050  1.1178 -0.0482
 1958SOL    HW217337   3.103   1.901   4.116 -0.2448  0.4900  0.5976
 1959SOL     OW17338   0.205   0.817  14.337  0.1103  0.6497 -0.2514
 1959SOL    HW117339   0.204   0.845  14.428 -2.2824  1.1349 -0.4320
 1959SOL    HW217340   0.293   0.832  14.303  0.2707 -1.2137 -0.6092
 1960SOL     OW17341   1.479   3.647   7.569 -0.7708 -0.6424  0.3976
 1960SOL    HW117342   1.448   3.562   7.537 -0.7387  0.1276 -1.6951
 1960SOL    HW217343   1.398   3.680   7.608 -0.1360 -0.8142  1.8610
 1961SOL     OW17344   1.602   4.314  14.071  0.6657 -0.0221  0.7350
 1961SOL    HW117345   1.671   4.280  14.013  0.5900  1.7543 -0.3993
 1961SOL    HW217346   1.632   4.395  14.112  2.1221 -0.4886  0.5784
 1962SOL     OW17347   0.239   4.157  11.023  0.4078  0.0447 -0.0054
 1962SOL    HW117348   0.163   4.107  10.993 -0.3810  1.0865  0.2565
 1962SOL    HW217349   0.198   4.243  11.031  0.3685  0.1591 -1.5471
 1963SOL     OW17350   3.550   0.917  11.283  0.0484 -0.0185  0.2280
 1963SOL    HW117351   3.595   0.988  11.237  2.4055 -1.6176  0.0529
 1963SOL    HW217352   3.463   0.921  11.243  1.0460  1.3641 -1.7862
 1964SOL     OW17353   2.704   0.716  13.193 -0.0123  0.3481 -0.9379
 1964SOL    HW117354   2.615   0.709  13.227  0.1756 -0.4708 -0.6121
 1964SOL    HW217355   2.750   0.667  13.261 -0.2278 -0.4414 -1.3617
 1965SOL     OW17356   3.235   3.838  16.524 -0.1453 -0.1947 -0.3076
 1965SOL    HW117357   3.161   3.801  16.475 -1.8143  1.7531  0.7362
 1965SOL    HW217358   3.253   3.765  16.583 -2.1747 -1.5550 -1.3493
 1966SOL     OW17359   3.299   3.642   5.425 -0.1395  0.2723 -0.0866
 1966SOL    HW117360   3.207   3.652   5.450 -0.3709  0.1739 -0.8895
 1966SOL    HW217361   3.336   3.700   5.492 -1.5205  0.6555  0.3460
 1967SOL     OW17362   2.134   4.117   0.159  0.5997 -0.3716 -0.0219
 1967SOL    HW117363   2.184   4.043   0.125  1.0818 -0.5223  1.0128
 1967SOL    HW217364   2.200   4.152   0.219 -0.9886  1.6214  0.5874
 1968SOL     OW17365   4.486   1.290   2.150  0.0636 -0.4436 -0.0983
 1968SOL    HW117366   4.478   1.311   2.243  2.4219 -0.4270  0.1049
 1968SOL    HW217367   4.406   1.335   2.124 -0.6532 -1.4891  0.2692
 1969SOL     OW17368   4.122   2.570   9.812 -0.8516 -0.5253  0.2222
 1969SOL    HW117369   4.032   2.540   9.810 -0.5705 -1.3568 -0.0804
 1969SOL    HW217370   4.143   2.569   9.718 -0.6373  0.4438  0.2568
 1970SOL     OW17371   0.989   2.140   6.611  0.4230 -0.6463 -0.0192
 1970SOL    HW117372   0.935   2.074   6.655  0.1297 -1.9044 -2.3060
 1970SOL    HW217373   0.941   2.220   6.632  1.2684 -0.1052 -0.1520
 1971SOL     OW17374   1.734   2.539  11.226 -0.0783  0.0433  0.0682
 1971SOL    HW117375   1.785   2.554  11.146 -1.0088  0.1784 -0.5120
 1971SOL    HW217376   1.715   2.447  11.208 -0.3452 -0.4453  2.8388
 1972SOL     OW17377   3.052   1.593   8.656  0.4605  0.2274 -0.5399
 1972SOL    HW117378   3.048   1.534   8.580 -0.0368 -0.0898 -0.2681
 1972SOL    HW217379   3.143   1.577   8.681  0.1701 -2.7416 -1.3624
 1973SOL     OW17380   3.086   0.351   0.446  0.0221 -0.5584 -0.8838
 1973SOL    HW117381   2.991   0.359   0.437 -0.1658 -2.8514 -0.9214
 1973SOL    HW217382   3.112   0.442   0.457 -0.4100 -0.7749  2.0259
 1974SOL     OW17383   4.110   3.639   0.463  0.3265  0.4016  0.3921
 1974SOL    HW117384   4.016   3.654   0.447  0.6033  1.2401 -0.4248
 1974SOL    HW217385   4.110   3.591   0.546  1.3068  0.1151  0.2223
 1975SOL     OW17386   2.238   2.768   2.822  0.1915 -0.0636  0.4837
 1975SOL    HW117387   2.210   2.837   2.761  0.6469 -1.9803 -1.8935
 1975SOL    HW217388   2.174   2.699   2.804 -0.2646  0.8260 -1.2831
 1976SOL     OW17389   3.231   4.384   7.294 -0.6119  0.5621 -0.5911
 1976SOL    HW117390   3.156   4.429   7.256 -0.9200 -0.5758 -1.3507
 1976SOL    HW217391   3.247   4.324   7.221 -0.3913  1.1790 -1.0413
 1977SOL     OW17392   1.286   2.343   4.523 -0.2836 -0.0770  0.5101
 1977SOL    HW117393   1.224   2.338   4.595 -1.5357  1.2084 -0.4833
 1977SOL    HW217394   1.324   2.258   4.502 -1.4132 -0.1748 -1.1576
 1978SOL     OW17395   1.008   1.256   3.588  0.1870  0.2452  0.5320
 1978SOL    HW117396   1.055   1.173   3.584  0.3731  0.3569  0.4242
 1978SOL    HW217397   0.913   1.240   3.587  0.6872 -2.7722 -0.2679
 1979SOL     OW17398   2.225   1.112   3.779  0.5668  0.0136 -0.4894
 1979SOL    HW117399   2.180   1.177   3.834  0.8053  0.0470 -0.3328
 1979SOL    HW217400   2.227   1.170   3.703 -1.5019  0.3978 -0.2688
 1980SOL     OW17401   0.324   2.683  10.587  0.2371 -0.2499  0.1910
 1980SOL    HW117402   0.322   2.614  10.521 -2.5365  1.8646 -1.9648
 1980SOL    HW217403   0.355   2.758  10.537 -0.1055 -1.3398 -1.6770
 1981SOL     OW17404   1.625   4.336   2.088  0.1180  0.0030  0.5478
 1981SOL    HW117405   1.706   4.330   2.038 -0.6930 -0.0246 -0.7513
 1981SOL    HW217406   1.661   4.384   2.163  0.7485  1.6319 -0.7968
 1982SOL     OW17407   3.910   3.096  14.133  0.1327 -0.6391 -0.4270
 1982SOL    HW117408   3.823   3.117  14.167 -1.0521 -0.9029 -3.2779
 1982SOL    HW217409   3.951   3.058  14.211 -1.3935  1.0854  1.2357
 1983SOL     OW17410   1.177   3.315   6.450 -0.4794  0.1810  0.1584
 1983SOL    HW117411   1.243   3.372   6.488 -1.1054  0.7063  0.4664
 1983SOL    HW217412   1.107   3.313   6.515 -1.5111 -1.5804 -0.9947
 1984SOL     OW17413   0.961   0.767  15.820  0.0403 -0.3477 -0.5096
 1984SOL    HW117414   0.939   0.723  15.738 -0.8391 -0.1173 -0.4003
 1984SOL    HW217415   0.967   0.692  15.880 -0.9652  0.0649  0.1086
 1985SOL     OW17416   1.969   3.061   4.164 -0.2240 -0.0430  0.4426
 1985SOL    HW117417   1.976   3.045   4.258  1.8678  0.8255  0.4403
 1985SOL    HW217418   1.908   3.133   4.155  2.2341  2.0012  0.0750
 1986SOL     OW17419   4.280   0.582   7.271 -0.6570  0.1453 -0.2759
 1986SOL    HW117420   4.362   0.575   7.223 -0.7639 -1.6280 -0.2125
 1986SOL    HW217421   4.271   0.677   7.285 -0.0059 -0.2018  2.5687
 1987SOL     OW17422   2.170   2.301   4.865  0.1080 -0.0177 -0.6516
 1987SOL    HW117423   2.227   2.255   4.927 -1.0908 -0.7427 -0.0637
 1987SOL    HW217424   2.236   2.362   4.832  0.2372 -0.7761 -1.8142
 1988SOL     OW17425   1.583   1.149   6.619 -0.4177  0.5205 -0.1370
 1988SOL    HW117426   1.536   1.142   6.536 -1.2302 -2.2704  0.5702
 1988SOL    HW217427   1.535   1.082   6.668 -1.6134  1.2749 -0.2628
 1989SOL     OW17428   1.142   2.996   5.939 -0.3341  0.0864  0.2848
 1989SOL    HW117429   1.204   3.058   5.978  1.4825 -2.3142  1.1922
 1989SOL    HW217430   1.076   2.982   6.006 -1.5969  1.4104 -0.6816
 1990SOL     OW17431   1.263   2.415  13.050  0.1295 -0.4938 -0.0545
 1990SOL    HW117432   1.283   2.453  12.964 -0.0389 -1.7430 -0.6536
 1990SOL    HW217433   1.347   2.379  13.077  0.9032 -0.3114 -2.2043
 1991SOL     OW17434   3.691   3.306   4.115 -0.2602  0.3008  0.0934
 1991SOL    HW117435   3.669   3.352   4.196  1.3593  0.8297  0.2359
 1991SOL    HW217436   3.733   3.382   4.074 -0.2791 -1.0752 -2.5270
 1992SOL     OW17437   1.545   1.922   1.868 -0.6495 -0.3544 -0.5450
 1992SOL    HW117438   1.553   1.863   1.793 -1.5403 -1.2247  0.0485
 1992SOL    HW217439   1.637   1.919   1.896 -0.2013  1.0624 -1.9019
 1993SOL     OW17440   1.870   1.933   0.285 -0.1252 -0.4719 -0.3539
 1993SOL    HW117441   1.821   2.014   0.274  0.4792 -0.2881 -1.7176
 1993SOL    HW217442   1.814   1.885   0.346  0.6378  1.9274  2.2170
 1994SOL     OW17443   0.036   1.359  17.560  0.2105 -0.4121  0.4027
 1994SOL    HW117444   0.065   1.385  17.647 -1.4720 -1.0711  1.1427
 1994SOL    HW217445   0.117   1.350  17.509 -0.6371  1.2747 -1.2584
 1995SOL     OW17446   3.539   3.345   6.020  0.1597  0.0122  0.2957
 1995SOL    HW117447   3.588   3.360   6.101  0.2649 -1.0725  0.4324
 1995SOL    HW217448   3.480   3.420   6.020  0.1015 -0.0381  1.7363
 1996SOL     OW17449   0.116   0.862   5.843 -0.3960 -0.3572 -0.2557
 1996SOL    HW117450   0.110   0.829   5.753  0.4559 -0.6798 -0.1946
 1996SOL    HW217451   0.029   0.897   5.859  0.4722  0.0774  3.3711
 1997SOL     OW17452   1.159   3.547  14.027  0.1846  0.0057  0.2092
 1997SOL    HW117453   1.174   3.564  13.934 -0.0999  1.7672  0.4948
 1997SOL    HW217454   1.126   3.457  14.024 -0.9731  0.4306  0.4180
 1998SOL     OW17455   3.201   2.528   5.073 -0.3749 -0.9767 -0.2879
 1998SOL    HW117456   3.296   2.538   5.072 -0.3568 -1.0896  1.0987
 1998SOL    HW217457   3.174   2.474   5.147 -1.1983  2.2709  1.8152
 1999SOL     OW17458   4.525   1.742   2.745 -0.1622  0.0117 -0.0810
 1999SOL    HW117459   4.430   1.734   2.749 -0.2247  0.0899 -1.4236
 1999SOL    HW217460   4.550   1.822   2.791 -2.0858 -1.3162  3.2752
 2000SOL     OW17461   1.699   2.808   5.398 -0.0984 -0.6549 -0.7647
 2000SOL    HW117462   1.687   2.753   5.476 -2.0474 -0.9842 -1.2879
 2000SOL    HW217463   1.696   2.741   5.329 -1.4521 -0.6961 -0.6747
 2001SOL     OW17464   0.133   1.359   7.474 -0.0765 -0.1942 -0.2510
 2001SOL    HW117465   0.218   1.378   7.434  0.8404  0.3858  1.9455
 2001SOL    HW217466   0.085   1.326   7.398 -0.7709 -0.9433  0.5121
 2002SOL     OW17467   0.509   3.699  13.650 -0.3811  0.6953  0.5100
 2002SOL    HW117468   0.569   3.627  13.627 -0.3945  0.8079  0.1264
 2002SOL    HW217469   0.429   3.651  13.669 -1.0986  0.9723 -1.7494
 2003SOL     OW17470   1.076   2.551   2.609 -0.2867 -0.6488 -0.2799
 2003SOL    HW117471   1.092   2.583   2.520  3.4310  0.4890  0.8062
 2003SOL    HW217472   1.021   2.618   2.650 -1.1818 -2.0786  0.8665
 2004SOL     OW17473   3.964   1.178   2.663 -0.2117  0.2650 -0.3672
 2004SOL    HW117474   4.026   1.115   2.625  0.0476  1.2075 -1.5082
 2004SOL    HW217475   4.015   1.204   2.739  0.4455  2.4872 -1.5720
 2005SOL     OW17476   3.940   3.839   1.702  0.3538 -0.8418 -0.0644
 2005SOL    HW117477   3.949   3.772   1.634 -3.8711 -1.3953 -0.1000
 2005SOL    HW217478   3.890   3.915   1.672  0.5477 -0.2086  1.2134
 2006SOL     OW17479   0.493   4.579   2.262  0.0440  0.0645  0.0999
 2006SOL    HW117480   0.469   4.497   2.219 -0.5006 -0.0888  0.6878
 2006SOL    HW217481   0.583   4.595   2.235 -0.6076  0.8638 -1.6289
 2007SOL     OW17482   4.098   3.989   8.959  0.3497 -1.0040  0.3930
 2007SOL    HW117483   4.044   3.992   9.038 -0.3434  0.0714 -0.1113
 2007SOL    HW217484   4.155   4.064   8.978 -1.0683  0.7515 -2.1949
 2008SOL     OW17485   1.145   2.147   5.506 -0.3069 -0.5841  0.8843
 2008SOL    HW117486   1.226   2.112   5.544  0.8596  1.3172  0.1649
 2008SOL    HW217487   1.113   2.076   5.451  1.8728 -0.4583 -0.5428
 2009SOL     OW17488   0.963   0.785   8.490  0.0556  0.8674  0.4457
 2009SOL    HW117489   1.044   0.834   8.476 -0.3496  1.5663  0.4953
 2009SOL    HW217490   0.937   0.769   8.400 -0.1033 -1.0112  0.8380
 2010SOL     OW17491   3.549   0.794  13.719 -0.0663  0.7083 -0.0379
 2010SOL    HW117492   3.618   0.735  13.750 -0.0816  0.4479 -0.4999
 2010SOL    HW217493   3.596   0.834  13.646  3.3401 -2.2808  0.5193
 2011SOL     OW17494   4.142   0.611  11.354 -0.8520 -0.4705 -0.1098
 2011SOL    HW117495   4.196   0.544  11.396  0.9028 -0.8897 -3.0188
 2011SOL    HW217496   4.067   0.619  11.413 -0.3919  2.8536  0.0107
 2012SOL     OW17497   1.967   1.526   1.370 -0.0226 -0.1110 -0.3656
 2012SOL    HW117498   2.032   1.479   1.423  0.6628 -0.6420 -1.6791
 2012SOL    HW217499   2.002   1.614   1.380  0.2280 -0.4870  2.0602
 2013SOL     OW17500   1.657   2.745   4.135 -0.1081  0.3285  0.3422
 2013SOL    HW117501   1.712   2.760   4.212 -1.9234 -0.6241  1.8258
 2013SOL    HW217502   1.727   2.706   4.083  0.1416 -0.9812  1.6495
 2014SOL     OW17503   3.518   0.516   7.793 -0.1338  0.0478  0.5395
 2014SOL    HW117504   3.452   0.452   7.820  0.3517 -0.1900  1.1483
 2014SOL    HW217505   3.451   0.564   7.745 -1.2143 -2.7399 -0.7370
 2015SOL     OW17506   3.596   3.312   8.175  0.4748 -0.2015 -0.6330
 2015SOL    HW117507   3.632   3.238   8.125 -0.5612  0.2024 -1.9887
 2015SOL    HW217508   3.567   3.350   8.092  0.1706  0.3906 -0.2481
 2016SOL     OW17509   3.035   0.449   2.723 -0.3543  0.2055  0.4304
 2016SOL    HW117510   3.076   0.363   2.710  2.0978  1.4152  0.0990
 2016SOL    HW217511   3.056   0.507   2.651  3.8652  0.0013  1.5003
 2017SOL     OW17512   1.527   3.923   7.144  0.1473 -0.0758 -0.2926
 2017SOL    HW117513   1.615   3.938   7.109  1.0256  0.4414  2.1357
 2017SOL    HW217514   1.516   4.006   7.190 -0.2613 -1.1861  1.6083
 2018SOL     OW17515   4.547   2.116   1.520 -0.0334 -0.1493 -0.8739
 2018SOL    HW117516   4.546   2.027   1.554 -2.2289 -0.6299 -2.1390
 2018SOL    HW217517   4.548   2.160   1.605 -3.2329 -1.2667 -0.2648
 2019SOL     OW17518   0.958   1.278   6.658 -0.1273  0.2786 -0.3019
 2019SOL    HW117519   1.014   1.283   6.735 -0.5391 -0.3668  0.0342
 2019SOL    HW217520   1.022   1.277   6.587  2.0441 -0.0429  1.6819
 2020SOL     OW17521   0.720   2.283   7.472 -0.0468  0.3797  0.5603
 2020SOL    HW117522   0.753   2.323   7.392 -0.0622  1.9060  1.3039
 2020SOL    HW217523   0.664   2.354   7.503 -0.9121 -0.4029  0.7915
 2021SOL     OW17524   0.273   2.511  10.343  0.4643 -0.2422 -0.4885
 2021SOL    HW117525   0.234   2.427  10.319 -1.7258  0.7460 -0.3166
 2021SOL    HW217526   0.357   2.478  10.376 -0.1280 -1.1197  0.1466
 2022SOL     OW17527   1.667   1.066   8.299 -0.1419  0.3589  0.4148
 2022SOL    HW117528   1.708   1.055   8.385  0.1744  2.0467  0.4675
 2022SOL    HW217529   1.576   1.055   8.324  0.2938  0.5986  2.0958
 2023SOL     OW17530   1.197   0.570  17.544  0.0812  0.4657 -0.3194
 2023SOL    HW117531   1.109   0.550  17.514 -0.0284  1.5801 -0.7498
 2023SOL    HW217532   1.197   0.665  17.556  0.6753  0.1600  2.1115
 2024SOL     OW17533   1.204   1.236   7.081  0.4268  0.7097  0.0351
 2024SOL    HW117534   1.149   1.280   7.145 -2.1491  0.2899 -1.9268
 2024SOL    HW217535   1.183   1.284   7.002  0.6412 -0.8877 -0.9941
 2025SOL     OW17536   1.449   2.752   3.290 -0.2422 -0.2852  0.5162
 2025SOL    HW117537   1.476   2.827   3.238 -1.3849 -1.0972 -1.2215
 2025SOL    HW217538   1.369   2.722   3.247  1.1958 -0.3275 -2.0597
 2026SOL     OW17539   3.084   0.495   2.989  0.3055 -0.4246  0.3015
 2026SOL    HW117540   3.090   0.590   2.992 -2.0774 -0.2533 -0.5605
 2026SOL    HW217541   3.079   0.475   2.895 -1.2588  0.0642  0.2760
 2027SOL     OW17542   0.537   1.118  10.696 -0.8417  0.3049 -0.1162
 2027SOL    HW117543   0.626   1.125  10.730 -0.9728 -2.7581  0.8274
 2027SOL    HW217544   0.553   1.065  10.618  0.8795  0.1233  0.3465
 2028SOL     OW17545   3.239   3.531   2.199  0.2206 -0.3197  0.4680
 2028SOL    HW117546   3.229   3.622   2.169  0.3031 -0.1643  0.9094
 2028SOL    HW217547   3.200   3.532   2.286  0.3748 -1.3566  0.5445
 2029SOL     OW17548   1.764   4.449   8.005  0.9038 -0.4893  0.8438
 2029SOL    HW117549   1.806   4.528   7.971 -3.6929  2.0103  0.8816
 2029SOL    HW217550   1.669   4.461   7.996  0.9140 -1.2296 -0.2594
 2030SOL     OW17551   1.323   0.673   2.310 -0.4652 -0.1662  0.0188
 2030SOL    HW117552   1.291   0.668   2.400 -0.3975  1.0521  0.1142
 2030SOL    HW217553   1.320   0.767   2.291  0.7054 -0.2476 -0.5542
 2031SOL     OW17554   2.645   0.110   4.413  0.0020 -0.0520  0.7654
 2031SOL    HW117555   2.600   0.164   4.348  1.0597  0.0165  0.0960
 2031SOL    HW217556   2.647   0.018   4.386 -0.5530 -0.6059  2.6607
 2032SOL     OW17557   4.660   2.980  11.936  0.2565 -0.3297 -0.5359
 2032SOL    HW117558   4.723   3.052  11.935 -0.7666  0.5979  1.0977
 2032SOL    HW217559   4.712   2.921  11.991 -2.2208 -0.7840  1.3180
 2033SOL     OW17560   1.878   2.930   7.347 -0.3667 -0.0505 -0.1835
 2033SOL    HW117561   1.857   3.021   7.326 -1.1369  0.0386  0.9272
 2033SOL    HW217562   1.798   2.893   7.383  0.2705  0.4537  1.7661
 2034SOL     OW17563   2.966   3.040   2.713  0.0794  0.2936 -0.2424
 2034SOL    HW117564   3.013   2.965   2.676 -0.5027 -0.3567  0.3205
 2034SOL    HW217565   2.903   3.063   2.644  2.1258  1.6624 -1.6342
 2035SOL     OW17566   4.215   3.586   4.095 -0.1583  0.0510  0.2370
 2035SOL    HW117567   4.283   3.590   4.163 -0.3571 -1.4295  0.5265
 2035SOL    HW217568   4.223   3.491   4.084 -0.4122  0.1436 -0.7485
 2036SOL     OW17569   3.659   2.090  16.875 -0.2181  0.4532  0.3649
 2036SOL    HW117570   3.654   2.184  16.857  1.1664  1.6917  6.5310
 2036SOL    HW217571   3.635   2.081  16.967  0.7590 -0.4837  0.5356
 2037SOL     OW17572   0.873   1.053   3.091  0.8490 -0.6017  0.2893
 2037SOL    HW117573   0.934   1.052   3.164  1.5204  2.3868 -0.2621
 2037SOL    HW217574   0.910   1.120   3.034 -0.7389 -0.7176 -0.9036
 2038SOL     OW17575   2.176   2.400   5.323 -0.0139 -0.3578 -0.3046
 2038SOL    HW117576   2.163   2.442   5.408 -1.4039 -2.1307  0.3506
 2038SOL    HW217577   2.257   2.436   5.287 -0.9675  0.5201 -1.6070
 2039SOL     OW17578   4.554   4.681   2.458  0.0513  0.3973 -0.4328
 2039SOL    HW117579   4.502   0.021   2.409 -0.0016  1.3817  0.9077
 2039SOL    HW217580   4.534   4.611   2.397 -0.6324 -0.6089  0.9554
 2040SOL     OW17581   3.591   2.724   4.613 -0.1058 -0.3632 -0.2329
 2040SOL    HW117582   3.635   2.804   4.584 -2.3817  1.1014  0.3022
 2040SOL    HW217583   3.523   2.761   4.670 -0.7795 -2.3627  0.2654
 2041SOL     OW17584   0.266   0.402   4.741  0.1155  0.2330 -0.2033
 2041SOL    HW117585   0.311   0.397   4.825 -0.6393 -0.1249  0.1733
 2041SOL    HW217586   0.260   0.497   4.734  1.3617  0.3186 -0.0757
 2042SOL     OW17587   4.477   4.448  17.161  0.0169 -0.4811 -0.1658
 2042SOL    HW117588   4.393   4.491  17.145  0.5489  0.1705 -1.1776
 2042SOL    HW217589   4.507   4.492  17.240 -0.6009 -0.9485  0.3333
 2043SOL     OW17590   1.211   1.596   1.930  0.5867 -0.2746  0.2496
 2043SOL    HW117591   1.301   1.590   1.898  1.2533  2.4206  1.6113
 2043SOL    HW217592   1.193   1.504   1.949  0.5472 -0.1464  0.8435
 2044SOL     OW17593   3.355   4.078   5.656 -0.4299 -0.1188  1.0724
 2044SOL    HW117594   3.330   4.162   5.616  3.2454  1.0173  1.1563
 2044SOL    HW217595   3.446   4.080   5.687 -0.8556  2.3452  2.1830
 2045SOL     OW17596   0.384   3.043   6.743  0.2264  0.2829 -0.0617
 2045SOL    HW117597   0.392   2.952   6.769 -1.1076  0.0767 -0.4060
 2045SOL    HW217598   0.407   3.033   6.651  1.0971 -1.0393  0.3041
 2046SOL     OW17599   2.273   1.780   3.377  0.8482 -0.4050 -0.3604
 2046SOL    HW117600   2.340   1.776   3.309  1.0445  1.0940 -0.2715
 2046SOL    HW217601   2.221   1.704   3.352  1.7145 -1.5916  1.4566
 2047SOL     OW17602   1.442   3.842   9.227  0.2889 -0.0894  0.2330
 2047SOL    HW117603   1.532   3.869   9.213  0.6078 -1.0514  0.4013
 2047SOL    HW217604   1.400   3.893   9.157  1.2996  0.8131  0.2926
 2048SOL     OW17605   2.103   3.681   5.855 -0.3933 -0.2417 -0.2040
 2048SOL    HW117606   2.192   3.650   5.874 -0.2190  0.1235 -0.4134
 2048SOL    HW217607   2.106   3.676   5.760 -0.5883  1.6557 -0.3212
 2049SOL     OW17608   4.206   4.348   5.317  0.3923  0.0544  0.3047
 2049SOL    HW117609   4.234   4.328   5.406 -1.1044 -1.5794  0.4229
 2049SOL    HW217610   4.206   4.443   5.323 -1.8450  0.2221 -2.1356
 2050SOL     OW17611   2.678   4.638   7.856 -0.6454 -0.0511  0.4293
 2050SOL    HW117612   2.768   4.666   7.837 -0.7664 -0.2909 -0.4565
 2050SOL    HW217613   2.625   4.699   7.806  3.2533  1.3993 -1.9406
 2051SOL     OW17614   4.036   2.185  16.468  0.3837  0.8041 -0.1629
 2051SOL    HW117615   3.979   2.262  16.476 -1.0015 -0.3317  0.8580
 2051SOL    HW217616   3.971   2.116  16.456  2.2614 -0.7041 -1.5661
 2052SOL     OW17617   0.330   4.599   6.210 -0.0745  0.2881 -0.5659
 2052SOL    HW117618   0.365   4.533   6.151 -0.7358  0.8404 -1.5759
 2052SOL    HW217619   0.414   4.616   6.252  0.8400  1.6845 -2.9599
 2053SOL     OW17620   0.969   3.192   9.139  0.2211  0.0230  0.2486
 2053SOL    HW117621   1.056   3.157   9.121 -0.0675 -2.1717  3.2678
 2053SOL    HW217622   0.978   3.258   9.208 -0.7042  0.2901  0.1139
 2054SOL     OW17623   3.459   3.633  17.041 -0.0872 -0.0391 -0.3299
 2054SOL    HW117624   3.488   3.624  17.132 -2.3104  0.3552  0.4352
 2054SOL    HW217625   3.400   3.559  17.024  0.9681 -0.9244 -0.0913
 2055SOL     OW17626   2.804   2.662   3.029  0.1851  0.1141 -0.3152
 2055SOL    HW117627   2.777   2.750   3.052 -1.1253 -0.3163 -0.2064
 2055SOL    HW217628   2.861   2.656   3.106  0.5454 -1.7339 -0.7091
 2056SOL     OW17629   4.703   4.019   6.859  0.4612  0.6166 -0.4194
 2056SOL    HW117630   4.713   4.103   6.815  2.6219  0.3341 -0.5014
 2056SOL    HW217631   4.654   3.975   6.791 -0.5381 -1.3661  1.5793
 2057SOL     OW17632   2.667   1.908   5.211  0.4479  0.0530  0.0652
 2057SOL    HW117633   2.683   1.950   5.127 -1.6512 -0.5117 -0.6043
 2057SOL    HW217634   2.609   1.970   5.256  0.9360  0.3919  0.2298
 2058SOL     OW17635   4.554   4.684   6.597  0.4436  0.2665 -0.1062
 2058SOL    HW117636   4.549   4.691   6.693 -0.0180 -0.8167 -0.0446
 2058SOL    HW217637   4.648   4.700   6.590  0.3415 -0.1068 -2.2245
 2059SOL     OW17638   3.812   1.328   4.172 -0.2653  0.0372 -0.1893
 2059SOL    HW117639   3.721   1.302   4.156  0.0007  0.3253 -2.1128
 2059SOL    HW217640   3.815   1.400   4.235 -0.7155 -0.2613  0.1759
 2060SOL     OW17641   3.786   3.299  13.476  0.6564 -0.1196  0.0578
 2060SOL    HW117642   3.853   3.262  13.419  1.0810  0.6709  0.0434
 2060SOL    HW217643   3.722   3.325  13.410  1.0911 -0.8463 -0.6504
 2061SOL     OW17644   2.903   3.367   4.755 -0.1976  0.8678  0.0413
 2061SOL    HW117645   2.906   3.274   4.735 -0.5279  1.2094 -1.5680
 2061SOL    HW217646   2.970   3.371   4.823  0.2656  4.9976 -0.6489
 2062SOL     OW17647   1.027   3.721  17.693  0.5089  0.2050 -0.6901
 2062SOL    HW117648   1.088   3.667  17.643  0.2343  0.1940 -1.0185
 2062SOL    HW217649   0.963   3.747  17.626 -1.6401  0.9194  1.6317
 2063SOL     OW17650   3.947   0.858   5.559 -0.4645 -0.2225 -0.6353
 2063SOL    HW117651   4.018   0.808   5.600 -2.4497 -3.3281 -1.0380
 2063SOL    HW217652   3.886   0.786   5.543  0.6905 -1.1801 -0.7603
 2064SOL     OW17653   3.721   4.230  15.739 -0.3587  0.1354 -0.2592
 2064SOL    HW117654   3.764   4.229  15.654 -0.3947  2.5252 -0.3001
 2064SOL    HW217655   3.801   4.226  15.792 -2.6854  0.7147  3.2716
 2065SOL     OW17656   0.450   3.611   4.878  0.2587 -0.1101  0.1414
 2065SOL    HW117657   0.469   3.524   4.913 -0.0297 -0.7024 -1.1535
 2065SOL    HW217658   0.494   3.674   4.934  1.3076 -1.0355  0.3505
 2066SOL     OW17659   3.543   1.816   7.909 -0.1416 -0.6586 -0.3383
 2066SOL    HW117660   3.509   1.788   7.824  1.5881 -2.1166 -0.5521
 2066SOL    HW217661   3.558   1.910   7.894  3.0747 -1.0142  0.5473
 2067SOL     OW17662   2.992   2.956   5.254 -0.6069 -0.1335  0.4060
 2067SOL    HW117663   2.958   3.019   5.191 -2.5244  0.3621  1.9613
 2067SOL    HW217664   3.025   3.008   5.327  0.7899 -2.5259  1.4787
 2068SOL     OW17665   2.652   3.764   4.910  0.1360  0.1122 -0.0619
 2068SOL    HW117666   2.609   3.732   4.831 -1.8098  1.5347  0.4155
 2068SOL    HW217667   2.696   3.842   4.876 -2.2048  2.2632  1.8339
 2069SOL     OW17668   1.547   3.360   5.645 -0.0580 -0.1389  0.5035
 2069SOL    HW117669   1.563   3.432   5.706  3.4526 -0.6109  0.1694
 2069SOL    HW217670   1.551   3.291   5.711  2.6872 -0.9382 -0.4979
 2070SOL     OW17671   1.580   1.730  12.685  1.1516  0.0855 -0.6506
 2070SOL    HW117672   1.674   1.746  12.679  1.1191  0.9840  1.6479
 2070SOL    HW217673   1.570   1.699  12.595 -1.4352 -0.7603 -0.0574
 2071SOL     OW17674   2.282   2.204   8.278  0.5888  0.1993 -0.3750
 2071SOL    HW117675   2.265   2.110   8.270  0.2898  0.2082  0.1402
 2071SOL    HW217676   2.235   2.218   8.360  1.1211  1.5617 -0.3041
 2072SOL     OW17677   2.305   4.687   7.652  0.0228  0.2413  0.2680
 2072SOL    HW117678   2.388   4.716   7.688 -0.2247  1.2962 -0.0351
 2072SOL    HW217679   2.318   4.592   7.653  1.6373  0.4643 -0.4160
 2073SOL     OW17680   0.904   4.699  17.062  0.1607  0.4144  0.4661
 2073SOL    HW117681   0.902   0.071  17.062 -1.1119  0.4005 -1.9041
 2073SOL    HW217682   0.981   4.694  17.118  0.5841  1.7919  0.0210
 2074SOL     OW17683   0.987   3.700   5.369 -0.1631  0.2179  0.3580
 2074SOL    HW117684   1.069   3.739   5.400  0.8896  1.0160 -3.5048
 2074SOL    HW217685   0.992   3.709   5.274  1.1709 -0.6073  0.3452
 2075SOL     OW17686   2.986   0.514   1.640 -0.2228 -0.0985  0.3562
 2075SOL    HW117687   2.902   0.542   1.604 -0.0403  0.6446  0.5161
 2075SOL    HW217688   2.959   0.490   1.728 -0.8263  0.3255  0.2816
 2076SOL     OW17689   1.944   4.503   3.909  0.4525 -0.3956  0.0922
 2076SOL    HW117690   2.025   4.551   3.895 -0.6646  1.5050  0.1435
 2076SOL    HW217691   1.967   4.437   3.975  4.3737  1.2802  0.3463
 2077SOL     OW17692   1.852   1.247  10.357 -0.1644 -0.1599  0.1822
 2077SOL    HW117693   1.892   1.162  10.373  1.2685  0.8153  1.7646
 2077SOL    HW217694   1.869   1.258  10.263  0.0757  1.8614  0.4522
 2078SOL     OW17695   4.530   0.056   1.816  0.5497 -0.3006  0.6442
 2078SOL    HW117696   4.592   4.708   1.805 -0.3499 -0.8585 -0.7821
 2078SOL    HW217697   4.504   0.038   1.906  0.2726 -0.7035  0.4852
 2079SOL     OW17698   4.143   2.388   6.532  0.3089  0.7456  0.6438
 2079SOL    HW117699   4.155   2.325   6.603  1.4103 -0.9035 -0.9937
 2079SOL    HW217700   4.231   2.406   6.499 -0.1556  0.9305 -0.4974
 2080SOL     OW17701   2.266   2.214   8.717 -0.4861 -0.0912  0.4702
 2080SOL    HW117702   2.252   2.121   8.698  3.8104 -0.3014 -1.5255
 2080SOL    HW217703   2.344   2.215   8.772 -1.0803  1.3032  1.2954
 2081SOL     OW17704   3.945   2.763   3.196 -0.1208  0.5175 -0.0431
 2081SOL    HW117705   3.997   2.789   3.120  0.8115 -1.6057 -0.1564
 2081SOL    HW217706   3.901   2.845   3.214  2.5780  1.7561  0.8973
 2082SOL     OW17707   3.331   3.127   7.394 -0.1162  0.1207  0.3862
 2082SOL    HW117708   3.271   3.122   7.468  0.8240 -1.4087  1.0555
 2082SOL    HW217709   3.294   3.052   7.346  1.8076  0.1894 -1.1938
 2083SOL     OW17710   4.262   0.356   7.067 -0.2692 -0.0706 -0.0317
 2083SOL    HW117711   4.189   0.417   7.072  0.9367  1.3672 -0.0346
 2083SOL    HW217712   4.244   0.318   7.153  0.3617 -3.1842 -1.2583
 2084SOL     OW17713   0.096   2.000   0.685  0.0272  0.9830 -0.4069
 2084SOL    HW117714   0.187   1.969   0.690 -0.7677 -1.6383 -2.2762
 2084SOL    HW217715   0.088   2.059   0.760 -0.2577  1.0476 -0.4880
 2085SOL     OW17716   1.085   2.395   3.563  0.1039 -0.6329 -0.3365
 2085SOL    HW117717   1.075   2.463   3.497 -0.8849  1.5916  2.0825
 2085SOL    HW217718   0.992   2.379   3.583  0.7102 -1.2347  2.0430
 2086SOL     OW17719   1.107   0.636   8.737  0.5396 -0.0176  0.1757
 2086SOL    HW117720   1.159   0.559   8.759  3.4467  1.3954 -1.7256
 2086SOL    HW217721   1.176   0.697   8.759  1.4105 -1.1414  0.5736
 2087SOL     OW17722   3.269   4.603   7.000 -0.1455  0.1497 -0.0859
 2087SOL    HW117723   3.260   4.537   7.069  2.4081 -0.3814 -0.2671
 2087SOL    HW217724   3.194   4.663   7.007 -1.0581 -1.0419  0.3096
 2088SOL     OW17725   0.886   1.727   1.311  0.3805 -0.2829  0.5582
 2088SOL    HW117726   0.913   1.635   1.308 -0.7919 -0.4863 -3.0532
 2088SOL    HW217727   0.793   1.715   1.330  0.1420  0.4993 -0.1546
 2089SOL     OW17728   4.335   2.597  11.240  0.2562  0.3411  0.4346
 2089SOL    HW117729   4.334   2.653  11.317  1.3583 -0.4365  1.0130
 2089SOL    HW217730   4.327   2.513  11.285 -3.5702  0.2625 -0.4312
 2090SOL     OW17731   4.340   2.830   5.900 -0.6810  0.2298  0.2343
 2090SOL    HW117732   4.249   2.806   5.921 -0.2717 -0.6489  1.0062
 2090SOL    HW217733   4.371   2.744   5.928  1.7932  0.9931 -0.1785
 2091SOL     OW17734   0.031   4.602   2.130 -0.8307  0.4054  0.3857
 2091SOL    HW117735   0.040   4.692   2.161 -0.7589  0.5634 -0.0819
 2091SOL    HW217736   0.059   4.554   2.208 -0.6041  0.1659  0.1615
 2092SOL     OW17737   1.728   1.025  10.167  0.4990  0.0591  0.7304
 2092SOL    HW117738   1.637   1.009  10.144  0.9448 -0.6426 -0.5307
 2092SOL    HW217739   1.736   1.027  10.263 -0.3256 -1.4815  0.8279
 2093SOL     OW17740   0.140   3.572   5.064 -0.4218 -0.4467 -0.1477
 2093SOL    HW117741   0.234   3.562   5.078 -0.4969  0.0276  0.6563
 2093SOL    HW217742   0.123   3.660   5.097 -1.7118 -1.7166  2.6318
 2094SOL     OW17743   3.787   1.611   8.541 -0.0021  0.9330 -0.2890
 2094SOL    HW117744   3.764   1.520   8.523 -0.6909  1.5032 -2.3454
 2094SOL    HW217745   3.697   1.643   8.551 -0.1285  0.8620 -1.2343
 2095SOL     OW17746   0.950   1.853   3.247 -0.2360 -0.4727 -0.0198
 2095SOL    HW117747   0.857   1.828   3.250 -0.3154 -0.0944  0.6731
 2095SOL    HW217748   0.960   1.883   3.338  0.1156  1.3379 -0.6537
 2096SOL     OW17749   3.772   1.624   1.478  0.1297  0.2155  0.7044
 2096SOL    HW117750   3.811   1.675   1.407  0.6846 -0.4045  0.5671
 2096SOL    HW217751   3.742   1.696   1.534  3.1252  2.4905 -0.5523
 2097SOL     OW17752   1.084   3.752  13.564  0.3151  0.0418 -0.5879
 2097SOL    HW117753   1.014   3.733  13.626  0.0208  1.3893 -0.5078
 2097SOL    HW217754   1.029   3.765  13.487  0.5768  1.5685 -0.5073
 2098SOL     OW17755   1.794   1.140   6.103  0.8973 -0.5164  0.0669
 2098SOL    HW117756   1.717   1.197   6.103  0.3864 -1.2099 -1.0549
 2098SOL    HW217757   1.830   1.172   6.186  2.2721  1.7418 -1.3976
 2099SOL     OW17758   1.772   2.264  11.208  0.3446 -0.2096  0.4238
 2099SOL    HW117759   1.731   2.203  11.270  1.5343 -2.0667 -0.6257
 2099SOL    HW217760   1.799   2.199  11.144  1.4012  0.2042  0.4547
 2100SOL     OW17761   4.617   3.555   9.540 -0.3358  0.0086  0.0226
 2100SOL    HW117762   4.657   3.520   9.460 -0.3343  1.6390 -0.7030
 2100SOL    HW217763   4.584   3.476   9.582 -0.3258 -0.7963 -1.4696
 2101SOL     OW17764   0.328   3.813   0.040  0.0358  0.1554  0.1376
 2101SOL    HW117765   0.330   3.763  17.655 -0.8124 -3.0009  2.0109
 2101SOL    HW217766   0.382   3.759   0.099 -0.8575 -1.7182 -0.7375
 2102SOL     OW17767   3.704   1.391   6.214 -0.5380  0.6229  1.0766
 2102SOL    HW117768   3.727   1.302   6.186  1.3851  1.1301  1.0727
 2102SOL    HW217769   3.656   1.420   6.136  3.7076  2.4795 -0.8752
 2103SOL     OW17770   2.136   3.656   6.919  0.3208 -0.5327  0.2624
 2103SOL    HW117771   2.080   3.714   6.970 -2.4867 -1.0471 -2.2642
 2103SOL    HW217772   2.084   3.654   6.839  1.0856  0.8954 -0.2496
 2104SOL     OW17773   4.552   1.838   4.104 -0.6404 -0.0247  0.4820
 2104SOL    HW117774   4.511   1.924   4.099 -0.0678  0.1449 -1.3779
 2104SOL    HW217775   4.635   1.863   4.146 -0.1113 -1.2654  0.1829
 2105SOL     OW17776   2.761   2.270   9.541 -0.2351  0.2181 -0.2994
 2105SOL    HW117777   2.849   2.301   9.562  0.7906 -2.4015 -0.8641
 2105SOL    HW217778   2.757   2.199   9.605  2.2697 -0.4709 -0.9111
 2106SOL     OW17779   3.531   1.531   3.011 -0.0935  0.1554 -0.1409
 2106SOL    HW117780   3.474   1.481   2.952 -0.8544  1.2276 -0.3160
 2106SOL    HW217781   3.467   1.598   3.035 -0.6954  0.1157 -1.5947
 2107SOL     OW17782   2.238   0.056   6.397  0.0514  0.2362 -0.0085
 2107SOL    HW117783   2.258   0.112   6.322 -3.1325 -1.5417 -2.2102
 2107SOL    HW217784   2.143   0.055   6.413 -0.0763 -0.1290 -0.8111
 2108SOL     OW17785   1.593   2.148   5.951 -0.4762 -0.2050  0.1219
 2108SOL    HW117786   1.666   2.136   6.012 -0.1928  0.2743 -0.1185
 2108SOL    HW217787   1.547   2.065   5.954 -0.4071 -0.1865  1.7755
 2109SOL     OW17788   2.972   3.089   4.752 -0.2565  0.2362  0.2303
 2109SOL    HW117789   3.011   3.092   4.839 -0.8690  1.0419  0.4789
 2109SOL    HW217790   2.962   2.997   4.728  1.4266  0.4392 -1.2710
 2110SOL     OW17791   2.727   3.082   4.564 -0.0864 -0.0429 -0.5149
 2110SOL    HW117792   2.818   3.056   4.576 -0.0216  0.3353 -0.1936
 2110SOL    HW217793   2.696   3.050   4.650 -1.2937 -2.2656 -1.7619
 2111SOL     OW17794   2.087   4.625   3.038 -0.4811  0.5323 -0.0202
 2111SOL    HW117795   2.160   4.687   3.046 -0.7421  0.8682 -0.2139
 2111SOL    HW217796   2.023   4.650   3.105 -1.8180 -1.2188 -0.6549
 2112SOL     OW17797   1.754   2.832   4.397  0.4323  0.3436 -0.1133
 2112SOL    HW117798   1.755   2.788   4.482 -1.6560  2.0757  0.8153
 2112SOL    HW217799   1.804   2.910   4.421  3.0769 -1.6580  0.8683
 2113SOL     OW17800   3.413   3.077   4.390 -0.3228 -0.2503  0.4122
 2113SOL    HW117801   3.426   3.169   4.366 -0.5102 -0.5241 -0.7560
 2113SOL    HW217802   3.349   3.070   4.460 -0.8803 -1.0380 -0.1717
 2114SOL     OW17803   3.080   3.545   3.518  0.2877  0.3619  0.4104
 2114SOL    HW117804   3.106   3.483   3.449 -2.4044 -0.2365 -0.0558
 2114SOL    HW217805   3.164   3.591   3.528  1.1444 -0.1364 -4.3410
 2115SOL     OW17806   3.608   3.309   4.593  0.5404  0.5401  0.1748
 2115SOL    HW117807   3.679   3.345   4.646 -0.3093  0.1053  1.6121
 2115SOL    HW217808   3.582   3.232   4.642 -2.3140  1.7589  0.5652
 2116SOL     OW17809   1.350   0.299  12.858 -0.2148  0.0795 -0.3734
 2116SOL    HW117810   1.279   0.249  12.817  0.3961 -1.6039  0.6423
 2116SOL    HW217811   1.380   0.355  12.786 -2.7634  1.7379 -0.1841
 2117SOL     OW17812   3.156   1.749  14.835  0.1684  0.1461 -0.2549
 2117SOL    HW117813   3.215   1.824  14.826  0.6152 -0.1750  0.0278
 2117SOL    HW217814   3.213   1.674  14.851 -2.6346 -1.7471  0.9536
 2118SOL     OW17815   4.653   3.843  16.890  0.1455  0.9924 -0.0060
 2118SOL    HW117816   4.657   3.852  16.795  1.1733 -0.9974 -0.1506
 2118SOL    HW217817   4.610   3.924  16.917 -2.4782 -0.6453  0.7371
 2119SOL     OW17818   2.781   3.041   7.337 -0.2756 -0.5595  0.3210
 2119SOL    HW117819   2.688   3.040   7.359 -0.1320 -1.9624  0.8917
 2119SOL    HW217820   2.787   2.959   7.287 -2.9957 -0.2691 -0.4252
 2120SOL     OW17821   2.122   1.203  10.138 -0.1613 -0.0681 -0.8697
 2120SOL    HW117822   2.141   1.277  10.196 -4.0004  1.6969 -1.8652
 2120SOL    HW217823   2.159   1.130  10.188 -1.1777  0.5195  0.7341
 2121SOL     OW17824   1.325   2.167   2.972  0.0413  0.2345  0.1273
 2121SOL    HW117825   1.240   2.134   3.001  0.3631 -1.0074 -0.3485
 2121SOL    HW217826   1.299   2.259   2.970  0.9668  0.4361 -2.3325
 2122SOL     OW17827   2.691   4.309   0.896  0.1921 -0.0361  0.2470
 2122SOL    HW117828   2.735   4.293   0.813  0.3659  0.6862  0.1981
 2122SOL    HW217829   2.647   4.226   0.916 -1.7713  0.5934 -1.5054
 2123SOL     OW17830   4.379   0.240   8.453 -0.4835  0.2246 -0.2392
 2123SOL    HW117831   4.400   0.324   8.411 -1.9283  0.4983 -0.4099
 2123SOL    HW217832   4.355   0.266   8.542  1.2172  0.9326  0.0182
 2124SOL     OW17833   4.332   2.860  14.018  0.8245  0.0342  0.5847
 2124SOL    HW117834   4.264   2.792  14.021  0.9111 -0.1614 -2.2312
 2124SOL    HW217835   4.339   2.870  13.923 -0.5405 -2.4070  0.2089
 2125SOL     OW17836   1.228   3.783  17.396 -0.6503  0.2161  0.1794
 2125SOL    HW117837   1.270   3.819  17.317 -0.5412 -1.3504 -0.4866
 2125SOL    HW217838   1.144   3.752  17.362  0.4983  0.4191 -2.8857
 2126SOL     OW17839   3.542   3.768   4.828  0.0535 -0.6351  0.1870
 2126SOL    HW117840   3.477   3.830   4.796  1.0154  0.1818 -0.1731
 2126SOL    HW217841   3.515   3.687   4.785  0.9479 -0.6587 -0.3245
 2127SOL     OW17842   0.105   3.906   2.660  0.1227 -0.0369 -0.3303
 2127SOL    HW117843   0.149   3.920   2.744 -0.3066  0.7642 -0.2411
 2127SOL    HW217844   0.155   3.830   2.628 -0.6189  0.6993 -3.2430
 2128SOL     OW17845   3.891   2.117  15.107 -0.5157 -0.3037 -0.1498
 2128SOL    HW117846   3.955   2.179  15.071  0.2127 -1.3350 -0.6181
 2128SOL    HW217847   3.888   2.055  15.034  0.3790 -1.3117  0.6769
 2129SOL     OW17848   0.793   3.356  13.923  0.0885  0.1524  0.0967
 2129SOL    HW117849   0.726   3.368  13.990  0.6436  2.5798  0.2234
 2129SOL    HW217850   0.743   3.363  13.841 -0.5748 -1.5848  0.3465
 2130SOL     OW17851   3.334   0.524   2.197 -0.8328 -0.3890  0.4628
 2130SOL    HW117852   3.311   0.466   2.124 -1.6332 -1.5368  1.6190
 2130SOL    HW217853   3.430   0.522   2.205 -0.7619 -2.4010 -0.7675
 2131SOL     OW17854   2.447   0.258   6.327 -0.0897  0.3324 -0.1901
 2131SOL    HW117855   2.511   0.200   6.286  1.0196  3.1427 -2.3874
 2131SOL    HW217856   2.476   0.348   6.312  1.6217  0.2035  2.3085
 2132SOL     OW17857   1.026   1.382   2.473 -0.0607 -0.3015 -0.2627
 2132SOL    HW117858   0.944   1.430   2.468  0.5787  0.8407  0.1528
 2132SOL    HW217859   1.045   1.348   2.386 -0.2036 -2.0173  0.3637
 2133SOL     OW17860   3.501   2.605   3.672  0.2778 -0.4011 -0.3730
 2133SOL    HW117861   3.499   2.561   3.757  1.6417 -0.8684 -0.5794
 2133SOL    HW217862   3.488   2.692   3.711 -0.8983  0.0449 -1.7846
 2134SOL     OW17863   0.145   3.668   3.248  0.2571 -0.4075  0.1892
 2134SOL    HW117864   0.053   3.646   3.263  0.7504 -2.8020 -0.3066
 2134SOL    HW217865   0.141   3.693   3.156  3.1704 -3.0050 -0.6436
 2135SOL     OW17866   2.809   1.716   9.366 -0.3412  0.5129  0.4162
 2135SOL    HW117867   2.761   1.634   9.372  1.8168 -0.6884  1.1651
 2135SOL    HW217868   2.741   1.776   9.336 -0.9021  0.0988  0.8519
 2136SOL     OW17869   3.824   1.387  10.413 -0.2867 -0.2580 -0.0619
 2136SOL    HW117870   3.851   1.449  10.345 -1.5977  0.5555  0.1644
 2136SOL    HW217871   3.867   1.439  10.481  1.4833  1.3365 -2.3974
 2137SOL     OW17872   1.307   1.772   6.150 -0.0771  0.6116  0.0401
 2137SOL    HW117873   1.217   1.784   6.118 -0.2473  0.3627  0.4277
 2137SOL    HW217874   1.285   1.753   6.241  1.8543  0.4106  0.4550
 2138SOL     OW17875   1.902   1.442   0.133  0.2823 -0.0767  0.6528
 2138SOL    HW117876   1.819   1.480   0.162 -0.0666 -0.1791 -0.2134
 2138SOL    HW217877   1.911   1.486   0.048 -0.6931  0.6033  0.9018
 2139SOL     OW17878   3.023   0.706   5.704  0.3128 -0.0958  0.2742
 2139SOL    HW117879   2.940   0.753   5.713  0.5967  0.4158  0.2109
 2139SOL    HW217880   3.003   0.658   5.624 -0.9392 -1.3298  1.3193
 2140SOL     OW17881   2.667   0.037  13.358  0.1392  0.4117 -0.3829
 2140SOL    HW117882   2.605   0.108  13.372  0.2692  0.6573 -1.0850
 2140SOL    HW217883   2.755   0.064  13.385  0.4599  0.5101 -1.5657
 2141SOL     OW17884   2.314   0.127  13.052  0.0387  0.1840  0.0478
 2141SOL    HW117885   2.283   0.046  13.092 -0.4529  1.2769  1.8685
 2141SOL    HW217886   2.406   0.121  13.080 -0.9884 -2.0145  2.9133
 2142SOL     OW17887   3.713   3.039   8.128 -0.0385  0.1606  0.0394
 2142SOL    HW117888   3.708   2.983   8.051 -0.5410  0.4573 -0.1441
 2142SOL    HW217889   3.632   3.019   8.175  0.8488  1.4550  2.1577
 2143SOL     OW17890   2.734   1.469   4.790 -0.1723 -0.2137 -0.3567
 2143SOL    HW117891   2.776   1.474   4.704  1.3171  0.0698  0.3732
 2143SOL    HW217892   2.649   1.512   4.780  0.9703  2.2261  0.1603
 2144SOL     OW17893   2.007   1.212   1.104  0.0498 -0.4226  0.1734
 2144SOL    HW117894   2.081   1.209   1.044  1.5103 -0.1620  1.9698
 2144SOL    HW217895   2.051   1.188   1.185 -1.8412 -2.8266  0.4753
 2145SOL     OW17896   3.754   4.535   4.777 -0.2956  0.4179  1.0830
 2145SOL    HW117897   3.780   4.539   4.869 -3.6571 -2.3792  2.1707
 2145SOL    HW217898   3.718   4.623   4.764  1.0986  0.8596  0.2912
 2146SOL     OW17899   3.806   2.250   4.856  0.4471  0.0653 -0.2698
 2146SOL    HW117900   3.861   2.241   4.934 -1.8877 -3.8156  0.9797
 2146SOL    HW217901   3.824   2.343   4.843  1.1962 -0.0001  0.3383
 2147SOL     OW17902   3.204   4.297  17.631  0.7934 -0.2495 -0.0079
 2147SOL    HW117903   3.159   4.243  17.565  0.2945  1.3625 -1.0085
 2147SOL    HW217904   3.244   4.229  17.684  3.1433  0.5971 -0.7148
 2148SOL     OW17905   3.308   2.278   5.855 -0.6667  0.0741  0.8896
 2148SOL    HW117906   3.366   2.203   5.871 -1.1194 -0.3942  0.2991
 2148SOL    HW217907   3.359   2.350   5.893  0.2166 -0.3361  0.4721
 2149SOL     OW17908   0.269   1.976   8.115 -0.5974  0.3458  0.4401
 2149SOL    HW117909   0.271   1.885   8.142 -1.1745  0.2687  0.2148
 2149SOL    HW217910   0.187   1.984   8.067 -0.6552  0.0794  0.4999
 2150SOL     OW17911   0.932   3.034   5.317 -0.5602 -0.3359  0.2422
 2150SOL    HW117912   0.988   2.988   5.255  0.0130  0.1614  0.3928
 2150SOL    HW217913   1.001   3.084   5.360 -1.1574  1.0803 -0.4052
 2151SOL     OW17914   2.882   0.724  15.839 -0.0542  0.4858  0.3139
 2151SOL    HW117915   2.916   0.693  15.923 -0.2997 -0.2858  0.1275
 2151SOL    HW217916   2.878   0.818  15.853 -1.7357  0.4357  0.1341
 2152SOL     OW17917   2.588   1.628  16.404 -0.2184 -0.0115  0.3426
 2152SOL    HW117918   2.508   1.576  16.402  0.2170 -0.6003 -1.5267
 2152SOL    HW217919   2.603   1.645  16.497  0.1901  1.0573  0.0816
 2153SOL     OW17920   3.305   0.958  11.207  0.0847  0.3046  0.1885
 2153SOL    HW117921   3.319   1.004  11.125 -1.1074 -0.6593 -0.5730
 2153SOL    HW217922   3.217   0.919  11.201 -0.3087  0.9020  2.3681
 2154SOL     OW17923   0.079   0.133   2.196 -0.6895 -0.1403 -0.4593
 2154SOL    HW117924   0.113   0.175   2.117 -3.4781  1.3223 -0.8746
 2154SOL    HW217925   0.035   0.200   2.249  1.2387  0.1894  0.7254
 2155SOL     OW17926   0.100   4.516  13.597  0.4214  0.2363 -0.6269
 2155SOL    HW117927   0.141   4.573  13.532 -0.1532  0.1181 -1.0836
 2155SOL    HW217928   0.034   4.481  13.537 -2.4486  3.2606  0.7504
 2156SOL     OW17929   0.000   1.239   5.222 -0.4772 -0.2622  0.3795
 2156SOL    HW117930   4.698   1.326   5.253 -2.6656 -1.0125  0.6313
 2156SOL    HW217931   0.014   1.262   5.130 -1.2766  2.0994  0.8413
 2157SOL     OW17932   3.013   0.990   3.116  0.4459 -0.3156 -1.0233
 2157SOL    HW117933   2.936   1.027   3.160  0.9067  0.8784 -1.2349
 2157SOL    HW217934   3.036   1.053   3.048 -1.0829  2.0819  0.6495
 2158SOL     OW17935   1.911   2.490   4.059  0.1196 -0.3064  0.3085
 2158SOL    HW117936   1.934   2.518   3.970  1.7104  0.5869  0.9952
 2158SOL    HW217937   1.906   2.575   4.104 -0.3650  0.2192 -0.7433
 2159SOL     OW17938   0.326   0.370   3.255 -0.4068  0.0024 -0.3159
 2159SOL    HW117939   0.365   0.283   3.245 -1.6677 -0.8574  2.1032
 2159SOL    HW217940   0.272   0.350   3.332 -0.6612 -1.1729 -0.8044
 2160SOL     OW17941   3.804   4.365   3.765 -0.1836  0.3025 -0.5625
 2160SOL    HW117942   3.756   4.353   3.847  0.8628  1.0031  0.1531
 2160SOL    HW217943   3.868   4.295   3.777  0.9530  1.4177 -0.1234
 2161SOL     OW17944   1.834   2.799   3.643 -0.4105 -0.4425 -0.3587
 2161SOL    HW117945   1.815   2.875   3.699 -1.9327 -0.1256 -1.2969
 2161SOL    HW217946   1.768   2.805   3.574 -0.9812 -0.7246  0.1586
 2162SOL     OW17947   1.700   3.776   6.791 -0.0336  0.2475  0.4872
 2162SOL    HW117948   1.750   3.741   6.717  0.8247  1.1609  0.6382
 2162SOL    HW217949   1.666   3.700   6.837 -0.6614 -1.1017 -2.2257
 2163SOL     OW17950   2.222   1.121  14.551 -0.1316 -0.0853 -0.1670
 2163SOL    HW117951   2.211   1.073  14.469 -1.3496  0.4324 -0.3002
 2163SOL    HW217952   2.134   1.123  14.589 -0.2330 -3.7882 -0.2271
 2164SOL     OW17953   1.443   1.382  12.859  0.1498  0.6469 -0.1727
 2164SOL    HW117954   1.536   1.391  12.877  0.1019  0.8238 -0.0202
 2164SOL    HW217955   1.436   1.310  12.796  0.7738  0.0178  0.4775
 2165SOL     OW17956   4.041   1.019   4.441  0.0989  0.0244 -0.1423
 2165SOL    HW117957   3.953   1.056   4.437  0.6772  1.4314  0.0185
 2165SOL    HW217958   4.084   1.074   4.506  0.2717  0.2908 -0.4802
 2166SOL     OW17959   1.083   1.278   6.043 -0.1833  0.1461  0.3145
 2166SOL    HW117960   1.031   1.290   5.964  0.1311  0.2164  0.1186
 2166SOL    HW217961   1.047   1.194   6.073  0.4954  0.3664  1.7727
 2167SOL     OW17962   2.433   1.981  13.011  0.0268  0.1690 -0.3500
 2167SOL    HW117963   2.356   1.974  12.955  1.7747  1.5916 -2.9061
 2167SOL    HW217964   2.397   1.922  13.078  1.7230  0.6283  0.9782
 2168SOL     OW17965   2.466   2.900   5.516  0.0349 -0.1067  0.2139
 2168SOL    HW117966   2.479   2.826   5.576 -0.8282 -0.5454 -0.1416
 2168SOL    HW217967   2.394   2.852   5.474  0.5274 -2.3373  1.8982
 2169SOL     OW17968   1.860   0.332   4.423 -0.0713 -0.1689 -0.0533
 2169SOL    HW117969   1.861   0.388   4.501  0.6952 -0.1636 -0.0660
 2169SOL    HW217970   1.911   0.385   4.363 -1.8446  1.8994  0.2531
 2170SOL     OW17971   0.815   1.261   5.615 -0.6010 -0.5631  0.0825
 2170SOL    HW117972   0.853   1.177   5.590 -0.2874  0.0600 -1.5316
 2170SOL    HW217973   0.733   1.245   5.661 -1.3108 -0.6788 -1.2123
 2171SOL     OW17974   3.140   0.559   9.824 -0.0691 -0.0536  0.1807
 2171SOL    HW117975   3.184   0.583   9.906  1.6722 -0.5875 -0.5817
 2171SOL    HW217976   3.169   0.470   9.807  0.9469  0.4067 -0.5505
 2172SOL     OW17977   2.636   4.653   5.790  0.0285  0.5794 -0.7489
 2172SOL    HW117978   2.700   4.581   5.787  0.3590  0.7856  1.9648
 2172SOL    HW217979   2.646   4.697   5.874  2.0594 -2.1867  0.4900
 2173SOL     OW17980   2.953   1.264   6.648 -0.0983 -0.6827  0.6268
 2173SOL    HW117981   2.927   1.234   6.561  0.0199 -0.1172  0.3914
 2173SOL    HW217982   2.989   1.181   6.678  0.2887 -0.7798 -0.0898
 2174SOL     OW17983   0.871   0.263   1.674 -0.0580  0.4263  0.4862
 2174SOL    HW117984   0.865   0.354   1.702  0.7965  0.7853 -0.5303
 2174SOL    HW217985   0.936   0.225   1.733  0.6203 -0.2761 -0.7088
 2175SOL     OW17986   1.447   3.435  12.306  0.8822  0.2646  0.7663
 2175SOL    HW117987   1.461   3.422  12.399  1.8914 -1.6026  0.3450
 2175SOL    HW217988   1.525   3.474  12.267 -0.7145  0.7836 -1.9721
 2176SOL     OW17989   1.425   1.144  11.729  0.1366 -0.5161 -0.6219
 2176SOL    HW117990   1.435   1.051  11.707  0.6235 -0.4133 -0.8128
 2176SOL    HW217991   1.360   1.175  11.666 -0.7714 -1.5532 -0.1929
 2177SOL     OW17992   0.555   0.825  13.760 -0.2586  0.2554 -0.0303
 2177SOL    HW117993   0.579   0.777  13.681 -0.0696  1.5258 -0.7505
 2177SOL    HW217994   0.559   0.760  13.830  0.4909  1.5047  1.0846
 2178SOL     OW17995   0.661   2.154   7.032 -0.3747 -0.3701  0.1780
 2178SOL    HW117996   0.584   2.206   7.057  0.7502  1.9901 -1.3246
 2178SOL    HW217997   0.638   2.131   6.942  4.0428 -2.3637 -0.4016
 2179SOL     OW17998   2.146   2.858  11.517  0.1950 -0.1259 -0.4070
 2179SOL    HW117999   2.102   2.859  11.602  1.2611 -0.9729  0.1534
 2179SOL    HW218000   2.211   2.790  11.534  1.4122  1.0860 -0.1843
 2180SOL     OW18001   1.212   2.568  14.672  0.4984 -0.7157 -0.2726
 2180SOL    HW118002   1.215   2.641  14.610 -0.6322  2.1420  3.0337
 2180SOL    HW218003   1.277   2.604  14.733  1.1439 -0.8420 -0.8890
 2181SOL     OW18004   0.199   1.515   8.326 -0.3176  0.0392  0.3827
 2181SOL    HW118005   0.191   1.420   8.332  1.5491 -0.0193  1.8901
 2181SOL    HW218006   0.116   1.538   8.285 -0.1474  2.5065  1.4186
 2182SOL     OW18007   2.783   0.075  10.976 -0.4817 -0.1817  0.1592
 2182SOL    HW118008   2.792   0.170  10.974 -0.5274 -0.2674 -3.3174
 2182SOL    HW218009   2.875   0.060  10.999 -0.2531  0.8260 -0.0890
 2183SOL     OW18010   1.517   2.717   2.558 -0.1451  0.3011  0.5711
 2183SOL    HW118011   1.582   2.716   2.629  0.3577  3.2001  0.1437
 2183SOL    HW218012   1.570   2.681   2.487 -0.4440 -0.4347  0.7121
 2184SOL     OW18013   2.518   3.859  16.598 -0.1762  0.0294 -0.0359
 2184SOL    HW118014   2.441   3.809  16.623 -0.0991 -1.1842 -2.2866
 2184SOL    HW218015   2.479   3.928  16.545  1.5426  1.0329  0.0134
 2185SOL     OW18016   2.916   1.956   2.369  0.0408  0.0110 -0.0225
 2185SOL    HW118017   2.850   1.976   2.302 -0.6962  1.8097  1.2538
 2185SOL    HW218018   2.894   2.026   2.431  0.5442  1.9045 -1.9695
 2186SOL     OW18019   2.595   3.297   5.911 -0.1513 -0.4352  0.0050
 2186SOL    HW118020   2.619   3.313   6.002  1.4134 -0.2897 -0.4229
 2186SOL    HW218021   2.681   3.311   5.871  1.5682 -0.2446  3.7894
 2187SOL     OW18022   3.685   4.369   5.462  0.0547  0.6077 -0.8664
 2187SOL    HW118023   3.614   4.427   5.490 -1.2165 -0.7684 -1.2294
 2187SOL    HW218024   3.660   4.353   5.371 -2.8454  0.6665 -0.0751
 2188SOL     OW18025   1.204   0.735   0.672  0.3595 -0.0997  0.3509
 2188SOL    HW118026   1.187   0.650   0.711 -1.9612 -0.4710 -1.4344
 2188SOL    HW218027   1.213   0.786   0.753 -2.2153  1.4364 -0.3167
 2189SOL     OW18028   1.163   3.619  12.595  0.2668  0.0153 -0.4243
 2189SOL    HW118029   1.203   3.560  12.659  1.6595  1.3106 -0.0908
 2189SOL    HW218030   1.205   3.574  12.521  1.0616  0.0309  0.0107
 2190SOL     OW18031   4.473   4.701   2.063 -0.0946  0.1949 -0.0888
 2190SOL    HW118032   4.526   4.624   2.084  0.5757  0.6260 -0.2115
 2190SOL    HW218033   4.473   0.021   2.148 -0.1366  0.0454 -0.0125
 2191SOL     OW18034   2.766   4.051   4.103  0.1744  0.8634 -0.0146
 2191SOL    HW118035   2.772   4.144   4.126 -2.8504  0.9272  0.4907
 2191SOL    HW218036   2.741   4.032   4.194  1.5043  0.0351  0.1773
 2192SOL     OW18037   4.483   3.726   8.815  0.0498 -0.9194 -0.1350
 2192SOL    HW118038   4.490   3.670   8.892 -1.4842 -0.6993  0.1781
 2192SOL    HW218039   4.403   3.697   8.771 -0.4314 -1.6192  1.2020
 2193SOL     OW18040   4.423   1.182   2.711  0.3265  0.4259  0.3729
 2193SOL    HW118041   4.425   1.161   2.804 -1.2255 -0.5439  0.1906
 2193SOL    HW218042   4.420   1.277   2.717 -0.1391  0.3935  0.6614
 2194SOL     OW18043   3.495   1.126  14.330 -0.0438 -0.0334  0.2969
 2194SOL    HW118044   3.475   1.144  14.238 -0.9925 -0.1098  0.4863
 2194SOL    HW218045   3.453   1.043  14.352  1.4096 -0.5796  1.0362
 2195SOL     OW18046   0.172   3.425  15.830 -0.1112  0.3120 -0.1608
 2195SOL    HW118047   0.125   3.508  15.824 -2.4156 -0.8105  1.8433
 2195SOL    HW218048   0.135   3.397  15.914  0.3043 -2.5598 -0.9099
 2196SOL     OW18049   3.937   4.584   6.904  0.1492 -0.3892 -0.2433
 2196SOL    HW118050   3.947   4.576   6.999  1.7102  0.6849 -0.3178
 2196SOL    HW218051   4.029   4.564   6.886  0.5386  1.9320 -0.7608
 2197SOL     OW18052   2.105   2.884   4.441  0.8635 -0.2110 -0.1805
 2197SOL    HW118053   2.053   2.960   4.466 -2.5908 -2.6312  0.0625
 2197SOL    HW218054   2.186   2.923   4.409 -0.1264  0.2951 -2.0826
 2198SOL     OW18055   4.311   1.248   7.806 -0.5007  0.0842 -0.0634
 2198SOL    HW118056   4.331   1.320   7.747 -2.1480  0.6933  0.1235
 2198SOL    HW218057   4.395   1.204   7.824  0.2167  0.5045 -2.4022
 2199SOL     OW18058   0.581   1.482   6.877 -0.2207  0.7162  0.2081
 2199SOL    HW118059   0.512   1.540   6.909  0.0721 -0.3041  2.6573
 2199SOL    HW218060   0.653   1.488   6.939  1.1426 -0.9535 -1.2143
 2200SOL     OW18061   3.102   4.185   2.713  0.4047 -0.1156 -0.8190
 2200SOL    HW118062   3.184   4.154   2.676  0.6816  0.6167 -0.8223
 2200SOL    HW218063   3.098   4.131   2.792 -2.8479 -1.8562 -2.2032
 2201SOL     OW18064   1.444   0.715   7.929 -0.6639  0.2798 -0.3740
 2201SOL    HW118065   1.369   0.753   7.883  1.9096  1.0232 -3.9104
 2201SOL    HW218066   1.505   0.702   7.857 -1.2439 -0.9062 -0.6430
 2202SOL     OW18067   3.211   2.808   3.090 -0.4267 -0.3822 -0.3073
 2202SOL    HW118068   3.230   2.879   3.028 -2.1845  1.9510  1.8069
 2202SOL    HW218069   3.202   2.734   3.029 -0.1940 -0.6582 -0.0049
 2203SOL     OW18070   4.347   3.116   1.464 -0.0420 -0.1139 -0.4361
 2203SOL    HW118071   4.295   3.038   1.445  0.4023 -0.5434  0.1439
 2203SOL    HW218072   4.284   3.183   1.491 -1.0790 -0.8064 -1.1216
 2204SOL     OW18073   4.519   4.203   3.983 -1.2445  0.5183 -0.0359
 2204SOL    HW118074   4.489   4.112   3.974 -0.4990  0.4608 -2.1551
 2204SOL    HW218075   4.492   4.252   3.905 -1.0721  3.1035  1.5472
 2205SOL     OW18076   0.667   3.798  15.029  0.0513  0.2880 -0.3180
 2205SOL    HW118077   0.675   3.703  15.043  0.1696  0.2555 -0.6029
 2205SOL    HW218078   0.612   3.790  14.951  1.9335  0.1378 -1.6420
 2206SOL     OW18079   1.664   2.494   2.690  0.5644 -0.5245 -0.4864
 2206SOL    HW118080   1.721   2.514   2.616  2.0763 -1.6105  0.3941
 2206SOL    HW218081   1.714   2.550   2.749  0.5629 -1.3795  0.3270
 2207SOL     OW18082   0.231   4.243  16.873 -0.6650  0.1340  0.6952
 2207SOL    HW118083   0.319   4.281  16.866 -0.4763 -0.0100  2.3514
 2207SOL    HW218084   0.243   4.162  16.922  0.8428 -1.4687 -2.2977
 2208SOL     OW18085   1.184   2.056   7.411  0.3540 -0.3508 -0.3065
 2208SOL    HW118086   1.252   2.115   7.379 -0.8632  0.3573 -1.5643
 2208SOL    HW218087   1.114   2.083   7.351  1.1507 -1.2207 -1.6348
 2209SOL     OW18088   2.294   3.131   7.628  0.1556  0.0441 -0.6550
 2209SOL    HW118089   2.265   3.057   7.681 -2.0529  1.5707  0.2402
 2209SOL    HW218090   2.215   3.173   7.593  1.0212  2.1533 -0.0471
 2210SOL     OW18091   1.493   1.029  15.761  0.4164  0.7622  0.0965
 2210SOL    HW118092   1.512   1.100  15.822 -0.2888  1.9683 -1.0869
 2210SOL    HW218093   1.525   0.954  15.812 -3.9598 -0.1516  1.4227
 2211SOL     OW18094   3.740   2.496  14.232 -0.1569  0.4126 -0.1335
 2211SOL    HW118095   3.668   2.490  14.295 -0.3090 -0.1388 -0.3594
 2211SOL    HW218096   3.767   2.406  14.250  1.1930  0.6805 -0.7825
 2212SOL     OW18097   1.474   0.765  10.940  0.4830 -0.6865  0.2905
 2212SOL    HW118098   1.439   0.693  10.887  0.8091  0.0942 -0.9765
 2212SOL    HW218099   1.539   0.796  10.877 -1.1464  1.1748 -0.4680
 2213SOL     OW18100   1.110   2.031   3.080  0.3216 -0.0886 -0.7773
 2213SOL    HW118101   1.064   2.085   3.016 -0.3658 -0.6552 -0.7739
 2213SOL    HW218102   1.041   1.968   3.102 -0.5192  1.2831  0.5380
 2214SOL     OW18103   4.200   4.715   7.741 -0.3100 -0.3814  0.2246
 2214SOL    HW118104   4.185   0.054   7.812 -2.1321  0.2476 -0.7093
 2214SOL    HW218105   4.213   0.050   7.666  1.6313 -0.6483  0.3416
 2215SOL     OW18106   0.141   1.946  11.232  0.5006 -0.0169 -0.2582
 2215SOL    HW118107   0.060   1.896  11.244  0.5920 -0.3431 -1.0133
 2215SOL    HW218108   0.196   1.887  11.182 -0.4698  1.8848 -3.6064
 2216SOL     OW18109   4.035   2.237   7.408  0.2902 -0.6336  0.3939
 2216SOL    HW118110   4.026   2.274   7.496  0.8695 -0.0490  0.2114
 2216SOL    HW218111   4.108   2.284   7.368 -0.5870 -0.9658 -1.5542
 2217SOL     OW18112   4.458   1.931  10.853 -0.3973 -0.0558  0.0143
 2217SOL    HW118113   4.553   1.939  10.850 -0.3222 -1.3590 -1.1185
 2217SOL    HW218114   4.449   1.851  10.904  0.7067  0.4928  1.0691
 2218SOL     OW18115   1.964   4.494   1.810 -0.3385 -0.0392  0.3499
 2218SOL    HW118116   1.967   4.407   1.850 -0.8958 -0.7339 -1.1222
 2218SOL    HW218117   1.968   4.485   1.715 -0.4708  0.8915  0.2517
 2219SOL     OW18118   4.195   1.045   2.520 -0.2239 -0.3335 -0.0729
 2219SOL    HW118119   4.164   1.009   2.436 -2.8931 -0.6929  1.0702
 2219SOL    HW218120   4.240   1.124   2.490  0.6984 -0.8491 -0.0348
 2220SOL     OW18121   4.612   3.048   9.712  0.9175 -0.0177 -0.8088
 2220SOL    HW118122   4.651   2.970   9.673 -1.7914 -1.2267 -1.0775
 2220SOL    HW218123   4.531   3.053   9.660 -0.7398 -2.2028  1.5837
 2221SOL     OW18124   1.461   4.401  12.206 -0.0971  0.4058  0.4016
 2221SOL    HW118125   1.419   4.461  12.145  1.2262  1.7820  0.8394
 2221SOL    HW218126   1.548   4.439  12.215  0.6752 -1.6151  1.5926
 2222SOL     OW18127   4.654   0.109   3.091  0.2069  0.0031  0.2786
 2222SOL    HW118128   0.011   0.155   3.069  1.0438 -0.2129  2.8774
 2222SOL    HW218129   4.692   0.023   3.070 -0.6829  0.2660 -2.4552
 2223SOL     OW18130   1.817   1.134   5.104 -0.0344 -0.0689  0.3142
 2223SOL    HW118131   1.838   1.073   5.033 -1.4778 -2.4257  1.8956
 2223SOL    HW218132   1.891   1.110   5.160 -0.1625  3.8762  2.1594
 2224SOL     OW18133   1.072   3.140   3.691 -0.5629 -0.5229 -0.3793
 2224SOL    HW118134   1.133   3.122   3.763  1.3057 -0.9924 -2.0770
 2224SOL    HW218135   1.043   3.223   3.729  0.6004 -0.3649  0.1642
 2225SOL     OW18136   3.329   2.783   3.369 -0.1803 -0.2808 -0.4239
 2225SOL    HW118137   3.422   2.796   3.353 -0.0079 -2.2594 -0.9671
 2225SOL    HW218138   3.284   2.795   3.285 -1.3491  2.9101  0.6411
 2226SOL     OW18139   1.436   1.527  16.564  0.1698  0.4911  0.0401
 2226SOL    HW118140   1.445   1.476  16.645  3.2861  2.2167  0.7858
 2226SOL    HW218141   1.526   1.551  16.543 -0.5393  2.3449 -0.8506
 2227SOL     OW18142   1.269   1.407  13.642  0.2401 -0.3664 -0.2975
 2227SOL    HW118143   1.322   1.451  13.708 -1.5952  0.9739  0.2627
 2227SOL    HW218144   1.198   1.471  13.637  1.3081  0.8036 -0.5495
 2228SOL     OW18145   2.552   1.079   4.811  0.4212 -0.3367 -0.2765
 2228SOL    HW118146   2.476   1.137   4.808 -2.6259 -4.3027  0.5512
 2228SOL    HW218147   2.620   1.144   4.830 -1.1475  1.5811 -1.2196
 2229SOL     OW18148   3.877   3.376   8.986  0.4144 -0.0261 -0.3578
 2229SOL    HW118149   3.957   3.427   8.973  1.6378 -1.6028  0.9482
 2229SOL    HW218150   3.839   3.421   9.061  1.3790 -2.7868  1.7795
 2230SOL     OW18151   2.080   3.791  12.222  0.0369 -0.0393  0.1692
 2230SOL    HW118152   2.112   3.759  12.307  2.3578  0.7771 -0.3891
 2230SOL    HW218153   1.996   3.833  12.238  0.3092  0.9837 -1.1282
 2231SOL     OW18154   2.651   3.804   8.962 -0.1978  0.0876  0.3649
 2231SOL    HW118155   2.647   3.894   8.995 -0.6428  0.3374 -0.3824
 2231SOL    HW218156   2.660   3.755   9.044 -0.3310 -0.4611  0.0474
 2232SOL     OW18157   2.187   2.630  14.778 -0.1843  0.0637  0.0548
 2232SOL    HW118158   2.102   2.645  14.820 -0.4244 -0.3070 -0.3024
 2232SOL    HW218159   2.177   2.547  14.732 -0.1620 -0.8398  1.6899
 2233SOL     OW18160   3.008   3.820   6.367  0.3240  0.1964 -0.2645
 2233SOL    HW118161   3.014   3.898   6.422 -1.1399  0.6461 -0.7353
 2233SOL    HW218162   3.100   3.796   6.358 -0.7071 -3.7034 -0.5733
 2234SOL     OW18163   4.214   0.119   1.461  0.3827 -0.1952 -0.4710
 2234SOL    HW118164   4.236   0.195   1.407  1.8513  1.0413  1.8620
 2234SOL    HW218165   4.161   0.163   1.528 -1.0063 -2.7441  0.1211
 2235SOL     OW18166   4.195   2.641   6.691  0.4416 -0.2156  0.6185
 2235SOL    HW118167   4.283   2.603   6.687  0.2864 -0.7237  1.9644
 2235SOL    HW218168   4.145   2.569   6.653 -0.8911  0.7592  0.5223
 2236SOL     OW18169   1.848   4.454   5.302 -0.1932 -0.0267 -0.4480
 2236SOL    HW118170   1.777   4.455   5.237  1.2492 -0.7818 -2.0156
 2236SOL    HW218171   1.922   4.497   5.259 -1.2095  0.6541 -1.5199
 2237SOL     OW18172   0.141   4.361  11.478 -0.2473  0.2074 -0.6836
 2237SOL    HW118173   0.051   4.391  11.466 -1.2215 -1.7137  1.8116
 2237SOL    HW218174   0.151   4.365  11.573 -0.4411 -0.0926 -0.6466
 2238SOL     OW18175   1.705   3.406   0.530 -0.5341 -0.2281  0.6202
 2238SOL    HW118176   1.707   3.446   0.616  1.4826  2.6011 -0.7636
 2238SOL    HW218177   1.683   3.313   0.542 -2.1156 -0.1241 -1.3825
 2239SOL     OW18178   3.846   2.538   3.958 -0.7864  0.5218 -0.3437
 2239SOL    HW118179   3.798   2.470   3.910 -0.5129  1.7880 -2.3892
 2239SOL    HW218180   3.789   2.612   3.936 -1.7052  0.0382  0.4041
 2240SOL     OW18181   2.650   1.251   3.422 -0.0440 -0.1957  0.1045
 2240SOL    HW118182   2.688   1.228   3.506 -1.7722 -2.7923  0.1956
 2240SOL    HW218183   2.595   1.173   3.412 -2.8905  2.0131 -1.6743
 2241SOL     OW18184   3.367   3.841   0.931  0.1671  0.5888  0.4202
 2241SOL    HW118185   3.293   3.786   0.905 -0.0598  0.6601  0.9113
 2241SOL    HW218186   3.355   3.921   0.881 -0.9270 -0.1850 -0.5535
 2242SOL     OW18187   0.482   2.455   7.424 -0.5464 -0.1145 -0.3095
 2242SOL    HW118188   0.430   2.446   7.344  0.8724 -1.0434 -1.1297
 2242SOL    HW218189   0.517   2.544   7.415  1.4518 -0.7851  0.9751
 2243SOL     OW18190   3.646   1.493  14.598  0.2790 -0.4288 -0.2275
 2243SOL    HW118191   3.713   1.456  14.541  0.2551 -0.7016 -0.0808
 2243SOL    HW218192   3.574   1.433  14.576 -0.4515  0.5869 -0.5811
 2244SOL     OW18193   1.019   2.393   1.957  0.1565  0.7327  0.3113
 2244SOL    HW118194   1.097   2.431   1.997 -1.1943  1.3638  2.3293
 2244SOL    HW218195   1.050   2.312   1.916  1.0241 -0.1106  2.6401
 2245SOL     OW18196   3.143   2.127   6.649 -0.0936  0.6772 -0.2623
 2245SOL    HW118197   3.155   2.135   6.554  2.8641  3.0705  0.2916
 2245SOL    HW218198   3.228   2.123   6.693  0.6001 -0.8257 -1.7340
 2246SOL     OW18199   4.315   3.594   8.018  0.0125 -0.1759  0.1528
 2246SOL    HW118200   4.346   3.681   7.991 -2.5408  0.9050  0.6793
 2246SOL    HW218201   4.329   3.538   7.941 -1.2197 -0.5529  0.2113
 2247SOL     OW18202   4.319   1.614   7.362  0.0695  0.1816 -0.3066
 2247SOL    HW118203   4.349   1.677   7.427  1.6603  0.8648 -1.6841
 2247SOL    HW218204   4.228   1.599   7.387  0.2025  0.7631  0.5381
 2248SOL     OW18205   1.637   4.098   4.188 -0.3882 -0.5062  0.3301
 2248SOL    HW118206   1.714   4.086   4.244 -0.4401 -1.2889  0.2393
 2248SOL    HW218207   1.629   4.005   4.164  1.0839 -0.5828  0.1312
 2249SOL     OW18208   0.362   3.789   3.364  0.1094 -0.1583  0.2732
 2249SOL    HW118209   0.348   3.761   3.455 -0.4288  0.0069  0.2399
 2249SOL    HW218210   0.291   3.742   3.320  1.5700  0.1098 -2.3926
 2250SOL     OW18211   2.900   1.101   4.808  0.0783  0.2868 -0.4083
 2250SOL    HW118212   2.828   1.075   4.750 -1.6299  1.2988  1.2236
 2250SOL    HW218213   2.910   1.018   4.853  3.1940  0.5278 -0.6413
 2251SOL     OW18214   0.896   0.592   3.613 -0.0610 -0.1093  0.8711
 2251SOL    HW118215   0.859   0.674   3.646 -3.6780 -2.5206  2.7925
 2251SOL    HW218216   0.976   0.622   3.570  1.6166 -3.6340  1.5357
 2252SOL     OW18217   2.534   2.563   2.215  0.6771  0.1616 -0.0797
 2252SOL    HW118218   2.498   2.548   2.302 -0.4022 -1.4241 -0.7991
 2252SOL    HW218219   2.599   2.632   2.230  0.9469 -0.8199  3.2530
 2253SOL     OW18220   2.296   3.059   7.048 -0.1174  0.3959 -0.2884
 2253SOL    HW118221   2.344   3.016   6.977  0.3416 -2.2228  1.6000
 2253SOL    HW218222   2.304   3.005   7.126 -0.3984  0.4381 -0.2306
 2254SOL     OW18223   4.265   1.920   6.595  0.7106 -0.1068  0.3731
 2254SOL    HW118224   4.222   1.900   6.678  2.8290  0.6727  1.6630
 2254SOL    HW218225   4.192   1.968   6.556  1.6460  0.9444 -0.1064
 2255SOL     OW18226   4.245   4.615  17.067 -0.7669 -0.6800 -0.1731
 2255SOL    HW118227   4.162   4.577  17.095 -1.2588  1.0621  0.6647
 2255SOL    HW218228   4.228   4.650  16.980  1.2876  1.1149  0.1616
 2256SOL     OW18229   3.193   1.620   8.942 -0.1386 -1.1540 -0.0358
 2256SOL    HW118230   3.100   1.601   8.955 -0.2022 -1.1045 -0.4161
 2256SOL    HW218231   3.232   1.580   9.020  0.6873 -0.1818  0.0402
 2257SOL     OW18232   1.112   0.687   1.921  0.1326  0.3420  0.1599
 2257SOL    HW118233   1.076   0.644   1.999  1.0561 -0.4574  0.1498
 2257SOL    HW218234   1.122   0.776   1.953  0.5284  0.3899 -0.0999
 2258SOL     OW18235   2.465   3.667   9.497 -0.0593  0.0601 -0.2408
 2258SOL    HW118236   2.395   3.653   9.560  1.2648 -0.9555  1.0159
 2258SOL    HW218237   2.440   3.603   9.430  0.3297  0.7141 -1.0056
 2259SOL     OW18238   2.992   0.855   3.351  0.3985  0.0945 -0.5342
 2259SOL    HW118239   3.024   0.938   3.316  2.8106 -0.6351 -0.0566
 2259SOL    HW218240   2.969   0.875   3.442  0.3101  1.5779 -0.8825
 2260SOL     OW18241   2.425   3.524  10.155  0.3455  0.3491 -0.0665
 2260SOL    HW118242   2.513   3.500  10.184  0.3003 -1.7149 -1.6619
 2260SOL    HW218243   2.453   3.562  10.072  1.1522  0.9834  0.4977
 2261SOL     OW18244   1.223   3.935   6.391  0.0422 -0.0444 -0.0297
 2261SOL    HW118245   1.295   3.941   6.454 -1.7300 -0.7691  2.0808
 2261SOL    HW218246   1.256   3.985   6.317 -1.3230 -0.4539 -0.9261
 2262SOL     OW18247   0.059   1.964   3.655  0.2738  0.2541  0.2757
 2262SOL    HW118248   0.037   1.960   3.748 -0.7256  1.1858  0.0819
 2262SOL    HW218249   0.091   1.875   3.640 -0.6522  0.2957 -1.9710
 2263SOL     OW18250   4.554   0.351   2.506  0.5871 -0.2151  0.2768
 2263SOL    HW118251   4.483   0.359   2.442 -0.4648 -1.6679  1.2623
 2263SOL    HW218252   4.523   0.408   2.576  0.6731  1.1989 -0.8271
 2264SOL     OW18253   3.816   0.991  10.163  0.0765  0.5440  0.3205
 2264SOL    HW118254   3.910   1.003  10.149 -0.0527  1.7310  0.4738
 2264SOL    HW218255   3.811   0.965  10.255 -0.8888 -2.1758 -0.5093
 2265SOL     OW18256   0.932   1.045   6.113  0.7557  0.0719 -0.8964
 2265SOL    HW118257   1.024   1.040   6.089  0.5216 -1.3687 -1.4810
 2265SOL    HW218258   0.900   0.957   6.092  0.3921 -0.3296  1.3682
 2266SOL     OW18259   0.524   2.922   2.572 -0.5535  0.3411 -0.3826
 2266SOL    HW118260   0.557   2.832   2.571  1.0680  0.9166  2.6914
 2266SOL    HW218261   0.576   2.958   2.644  0.9284 -1.3512 -0.6084
 2267SOL     OW18262   0.062   1.482   3.209  0.1875  0.2226  0.1327
 2267SOL    HW118263   0.114   1.555   3.176 -0.4202 -0.4148 -2.2894
 2267SOL    HW218264   0.024   1.442   3.131 -0.1888  1.2169 -0.1923
 2268SOL     OW18265   0.993   3.550   0.213 -0.1409  0.0829  0.2202
 2268SOL    HW118266   1.025   3.462   0.192  0.6445  0.6100 -0.7934
 2268SOL    HW218267   1.027   3.603   0.141  0.0020  0.1813  0.3588
 2269SOL     OW18268   3.911   0.611   7.631  0.0429 -0.0189 -0.0717
 2269SOL    HW118269   3.896   0.696   7.672 -1.7253 -0.5071  0.3063
 2269SOL    HW218270   4.003   0.604   7.608  0.6511 -0.9483  2.6696
 2270SOL     OW18271   4.160   2.800   0.514 -0.3768 -0.3005 -0.6314
 2270SOL    HW118272   4.157   2.878   0.458 -0.7387 -0.1714 -0.4316
 2270SOL    HW218273   4.124   2.851   0.586  0.8210  0.7513 -0.7836
 2271SOL     OW18274   1.309   3.279   8.136  0.1671 -0.2685  0.6533
 2271SOL    HW118275   1.405   3.281   8.142  0.0684  0.1247  2.1177
 2271SOL    HW218276   1.303   3.374   8.123  0.9510 -0.4318 -0.9076
 2272SOL     OW18277   1.561   1.944   7.602 -0.4230  0.0779 -0.2251
 2272SOL    HW118278   1.545   1.898   7.519  0.2738 -1.5773  0.5586
 2272SOL    HW218279   1.522   2.028   7.578  0.3494  0.3514 -0.5248
 2273SOL     OW18280   4.408   3.203   9.018 -0.4248  0.2912  0.5886
 2273SOL    HW118281   4.354   3.278   9.043 -1.4553  0.0648 -0.9299
 2273SOL    HW218282   4.471   3.252   8.964 -0.3850 -1.7214 -1.1567
 2274SOL     OW18283   3.631   1.417   6.711 -0.0530 -0.1219 -0.6908
 2274SOL    HW118284   3.637   1.322   6.718 -0.3541 -0.1536 -0.8562
 2274SOL    HW218285   3.683   1.433   6.632  0.3860 -0.4848 -0.4720
 2275SOL     OW18286   3.733   3.012   2.178  0.4316  0.6053 -0.1123
 2275SOL    HW118287   3.786   3.075   2.129  0.6437  0.4451 -0.0878
 2275SOL    HW218288   3.653   3.012   2.126  0.3480 -2.3297  0.0158
 2276SOL     OW18289   3.370   2.809   3.785  0.0086  0.0503  0.3923
 2276SOL    HW118290   3.354   2.898   3.755  1.7829  0.1678 -0.1738
 2276SOL    HW218291   3.313   2.810   3.863 -0.2525 -0.9020  0.2155
 2277SOL     OW18292   1.306   0.374   3.735  0.2495 -0.6370  0.1510
 2277SOL    HW118293   1.388   0.345   3.694  2.3272  1.2474  3.0010
 2277SOL    HW218294   1.311   0.351   3.827 -1.7381  2.7876  1.1128
 2278SOL     OW18295   4.661   4.041   3.164  0.7470 -0.5730  1.0562
 2278SOL    HW118296   0.017   4.020   3.213  2.0651  0.9490 -0.4020
 2278SOL    HW218297   4.671   4.134   3.142  0.9620 -0.7195  0.5535
 2279SOL     OW18298   2.888   3.575   7.991  0.4765 -0.0204 -0.3328
 2279SOL    HW118299   2.970   3.572   8.041  0.7680  1.0321 -0.7393
 2279SOL    HW218300   2.835   3.639   8.038 -0.3946 -0.5236 -0.6311
 2280SOL     OW18301   1.832   3.231   0.025  0.2482  0.5662 -0.3559
 2280SOL    HW118302   1.758   3.188  17.679  2.3618 -3.2594 -0.1929
 2280SOL    HW218303   1.850   3.169   0.096  1.5610  0.4378 -0.8054
 2281SOL     OW18304   3.002   3.584   3.022  0.0461 -0.2267 -0.2621
 2281SOL    HW118305   2.945   3.650   3.061  1.0657  0.0501  0.7580
 2281SOL    HW218306   3.004   3.598   2.927 -1.9365 -0.4761 -0.3389
 2282SOL     OW18307   3.011   4.547  11.230 -0.7221 -0.8827 -0.2102
 2282SOL    HW118308   2.962   4.604  11.289  1.5364  1.3038 -0.4555
 2282SOL    HW218309   3.077   4.511  11.289 -0.8052  1.4733  1.2970
 2283SOL     OW18310   3.607   4.115  17.173  0.2581  0.2106 -0.5058
 2283SOL    HW118311   3.698   4.143  17.169  1.3252 -3.1642  0.3804
 2283SOL    HW218312   3.584   4.079  17.087  1.4749 -0.3533 -0.5924
 2284SOL     OW18313   0.386   3.721   1.078 -0.1391  0.4297 -0.3032
 2284SOL    HW118314   0.449   3.672   1.025 -0.0899 -1.3424  1.3688
 2284SOL    HW218315   0.381   3.663   1.154  0.8186  1.0710  0.2471
 2285SOL     OW18316   2.439   2.173   7.599  0.3695 -0.3704  0.4538
 2285SOL    HW118317   2.456   2.157   7.506  0.1158 -0.0351  0.3533
 2285SOL    HW218318   2.357   2.222   7.601 -0.6259 -2.0025  0.0722
 2286SOL     OW18319   1.718   1.352   8.137 -0.3674 -0.1179  0.0971
 2286SOL    HW118320   1.696   1.375   8.047  0.4279 -0.2526 -0.1362
 2286SOL    HW218321   1.634   1.310   8.156  0.4197 -1.0761  1.4534
 2287SOL     OW18322   1.361   2.179  12.525  0.1671  0.3242  0.7835
 2287SOL    HW118323   1.285   2.141  12.570 -1.9170  1.2327 -1.9002
 2287SOL    HW218324   1.380   2.260  12.571 -2.3846  1.5520 -0.2974
 2288SOL     OW18325   0.470   3.610  13.967  0.7231  0.3181  0.4381
 2288SOL    HW118326   0.417   3.614  13.887 -0.0912  1.2279  1.0243
 2288SOL    HW218327   0.532   3.541  13.944  0.4243  0.3958 -0.5824
 2289SOL     OW18328   4.168   1.710   3.177 -0.2061 -0.3250  0.2742
 2289SOL    HW118329   4.101   1.740   3.115 -0.2845 -1.9971 -0.4665
 2289SOL    HW218330   4.131   1.742   3.258 -0.2272  0.9203 -0.2367
 2290SOL     OW18331   0.265   2.927   3.204 -0.3976  0.5805  0.8230
 2290SOL    HW118332   0.219   2.850   3.172 -1.0290  1.6180 -0.7295
 2290SOL    HW218333   0.265   2.909   3.298  0.3909 -2.7221  0.2001
 2291SOL     OW18334   1.064   0.572  16.843 -0.0735 -0.3886  0.4762
 2291SOL    HW118335   1.061   0.594  16.936  1.5002  0.5612  0.3089
 2291SOL    HW218336   1.035   0.481  16.837  1.0905 -0.7883  0.9043
 2292SOL     OW18337   1.402   0.185   8.163 -0.0724 -0.5057  0.0084
 2292SOL    HW118338   1.342   0.170   8.090  2.3991  1.0402 -2.3300
 2292SOL    HW218339   1.472   0.126   8.136  1.7507  1.9849 -0.7202
 2293SOL     OW18340   1.138   3.961   0.500 -0.8258  0.1038  0.0097
 2293SOL    HW118341   1.080   3.886   0.507 -2.1039  1.2373  1.3978
 2293SOL    HW218342   1.127   3.996   0.588  0.3199 -0.1861  0.2682
 2294SOL     OW18343   4.167   2.264  13.339  0.2242 -0.1917 -0.2912
 2294SOL    HW118344   4.238   2.300  13.393 -0.8829  0.4822  0.7055
 2294SOL    HW218345   4.091   2.306  13.379  0.1221 -0.2899 -0.3828
 2295SOL     OW18346   1.108   1.019   1.835 -0.0799 -0.0071 -0.1297
 2295SOL    HW118347   1.031   0.994   1.785 -0.7479  0.7718  0.5094
 2295SOL    HW218348   1.095   0.981   1.922  0.8503  0.6542  0.2939
 2296SOL     OW18349   0.636   1.503   5.406 -0.2348  0.3594 -0.6201
 2296SOL    HW118350   0.578   1.575   5.432  0.5304  0.7550  0.0062
 2296SOL    HW218351   0.584   1.429   5.437 -0.2086  0.3103 -0.6930
 2297SOL     OW18352   0.023   0.217  12.736  0.7993 -0.3036 -0.2942
 2297SOL    HW118353   0.045   0.309  12.755 -1.0962 -0.0975  0.9932
 2297SOL    HW218354   4.687   0.205  12.810  1.1901  1.1514  0.2568
 2298SOL     OW18355   3.645   0.720   3.024 -0.1185 -0.6164 -0.7005
 2298SOL    HW118356   3.621   0.721   3.117  2.9633 -0.4641  0.0907
 2298SOL    HW218357   3.588   0.652   2.987 -2.1927  1.0414 -0.5352
 2299SOL     OW18358   4.412   1.257   7.045  0.1672 -0.2990 -0.5418
 2299SOL    HW118359   4.361   1.240   7.124 -1.5703  0.7777 -1.4327
 2299SOL    HW218360   4.443   1.346   7.059 -1.4892  0.4523 -1.6215
 2300SOL     OW18361   0.859   2.974  12.327  0.7739 -0.5267  0.2678
 2300SOL    HW118362   0.770   2.979  12.361  1.0669 -1.4890  1.1532
 2300SOL    HW218363   0.899   3.028  12.395 -0.6113 -1.4640  1.8358
 2301SOL     OW18364   0.296   3.138   1.021  0.0233  0.3922  0.1879
 2301SOL    HW118365   0.241   3.140   0.942 -0.6842  0.5003  0.6817
 2301SOL    HW218366   0.302   3.232   1.038  0.3979  0.7762 -2.0234
 2302SOL     OW18367   3.360   1.288   6.457 -0.1928 -0.1816 -0.0034
 2302SOL    HW118368   3.400   1.371   6.433 -1.7055  0.2962 -0.9067
 2302SOL    HW218369   3.280   1.317   6.502  0.0099  1.5260 -0.7522
 2303SOL     OW18370   3.951   0.718  15.972  0.5826  0.1994  0.4963
 2303SOL    HW118371   3.885   0.780  16.003 -0.0207  0.4874 -1.3586
 2303SOL    HW218372   3.906   0.679  15.897  1.4778 -0.2941  0.2114
 2304SOL     OW18373   3.226   4.238  10.920  0.1185  0.1256  0.2567
 2304SOL    HW118374   3.296   4.276  10.972  1.3049 -1.2278 -0.3687
 2304SOL    HW218375   3.170   4.314  10.938  1.9037  1.2333  1.1171
 2305SOL     OW18376   2.882   3.182  12.833 -0.1654  0.2768 -0.1707
 2305SOL    HW118377   2.902   3.257  12.888  0.8086  0.4917 -0.8360
 2305SOL    HW218378   2.824   3.137  12.895  0.2282 -1.1553 -0.8279
 2306SOL     OW18379   2.698   4.113   6.025 -0.0988 -0.1222 -0.7150
 2306SOL    HW118380   2.675   4.150   6.110 -0.9074 -0.1994 -0.8965
 2306SOL    HW218381   2.784   4.154   6.022  0.1235 -0.4006  2.0438
 2307SOL     OW18382   2.382   1.818   7.669  0.1275 -0.5380 -0.2960
 2307SOL    HW118383   2.434   1.754   7.718  0.3889  1.5926  2.1832
 2307SOL    HW218384   2.329   1.862   7.735  1.2427  1.4481 -0.7174
 2308SOL     OW18385   2.821   1.309   5.052 -0.1890 -0.5818 -0.3492
 2308SOL    HW118386   2.899   1.258   5.029 -2.5998 -4.1946 -0.5526
 2308SOL    HW218387   2.817   1.363   4.974 -1.7336 -0.5266 -0.2354
 2309SOL     OW18388   2.824   0.794   7.443 -0.4980 -0.5662 -0.6788
 2309SOL    HW118389   2.768   0.854   7.493 -1.1380  1.0396 -3.2958
 2309SOL    HW218390   2.814   0.712   7.490  0.6190 -0.0882  0.3771
 2310SOL     OW18391   1.808   0.509   7.743 -0.0202  0.8910 -0.0406
 2310SOL    HW118392   1.895   0.524   7.779 -0.1450 -0.1945  0.7070
 2310SOL    HW218393   1.786   0.419   7.769  1.8215  0.5088  0.2378
 2311SOL     OW18394   1.062   3.108   9.481  0.3919 -0.5794  0.0397
 2311SOL    HW118395   1.085   3.186   9.430  2.9563 -0.8348  0.7644
 2311SOL    HW218396   1.048   3.039   9.417  2.0899 -1.0341  0.1562
 2312SOL     OW18397   0.120   3.202  10.015  0.4218 -0.0810  0.4890
 2312SOL    HW118398   0.174   3.278   9.994 -1.1059  0.9275  0.1569
 2312SOL    HW218399   0.051   3.239  10.071  0.7592  0.9239  0.2392
 2313SOL     OW18400   3.521   3.390   5.142 -0.3658  0.4312 -0.2566
 2313SOL    HW118401   3.509   3.377   5.236 -2.3707 -3.2872 -1.0558
 2313SOL    HW218402   3.449   3.448   5.117 -1.9365 -1.1127  0.7240
 2314SOL     OW18403   4.258   4.387   7.493 -0.0195  0.1649 -0.3070
 2314SOL    HW118404   4.170   4.366   7.460 -0.4623  1.1108  0.2573
 2314SOL    HW218405   4.240   4.391   7.587  1.2277  2.1192 -0.1517
 2315SOL     OW18406   4.181   2.147   4.610  0.5142  0.5437 -0.7347
 2315SOL    HW118407   4.098   2.125   4.652  1.6061  1.5650  1.9670
 2315SOL    HW218408   4.232   2.066   4.602  0.6108  0.4886  0.5634
 2316SOL     OW18409   2.453   3.143   4.588  0.1537 -0.3417  0.9966
 2316SOL    HW118410   2.532   3.145   4.535 -0.3412  1.1799  0.3401
 2316SOL    HW218411   2.500   3.111   4.665  0.7569 -0.9703  0.3584
 2317SOL     OW18412   3.429   4.606   6.291  0.1895 -0.0541  0.8764
 2317SOL    HW118413   3.378   4.534   6.327  0.9278 -1.2796 -0.5347
 2317SOL    HW218414   3.511   4.561   6.273  0.4479  1.4527 -1.6090
 2318SOL     OW18415   1.079   3.320   4.487 -0.2797 -0.2029 -0.0364
 2318SOL    HW118416   1.040   3.408   4.493 -0.8018 -0.3232 -1.5232
 2318SOL    HW218417   1.002   3.270   4.460  0.6666 -3.0428  2.5528
 2319SOL     OW18418   4.568   2.353  17.508  0.1899  0.6206  0.1048
 2319SOL    HW118419   4.540   2.261  17.516 -0.8750  1.0465  1.1970
 2319SOL    HW218420   4.491   2.376  17.457  2.1696  2.4382 -2.0442
 2320SOL     OW18421   2.745   1.924   7.874  0.2347 -0.1314  0.0726
 2320SOL    HW118422   2.742   1.843   7.822 -1.9188 -0.1142  0.1755
 2320SOL    HW218423   2.721   1.988   7.807 -0.5592 -0.2114  0.2796
 2321SOL     OW18424   0.201   3.509   4.350 -0.6634 -0.0162 -0.4960
 2321SOL    HW118425   0.128   3.507   4.412  2.8156  1.2312  3.5332
 2321SOL    HW218426   0.153   3.491   4.269 -1.9838  0.2480  0.2235
 2322SOL     OW18427   4.494   1.209   8.589  0.4201  0.2150 -0.0108
 2322SOL    HW118428   4.554   1.234   8.660 -0.0447  0.2619  0.3667
 2322SOL    HW218429   4.539   1.225   8.506  1.8159 -1.2664  0.4474
 2323SOL     OW18430   4.330   2.187   3.854 -0.1478 -0.2225  0.3768
 2323SOL    HW118431   4.240   2.191   3.823 -0.4222 -0.7523  1.1139
 2323SOL    HW218432   4.364   2.115   3.801  2.5515  1.5228 -0.2631
 2324SOL     OW18433   2.884   3.700   6.964  0.1538 -0.8220  0.3858
 2324SOL    HW118434   2.932   3.624   6.932  0.9442  0.0515 -0.4993
 2324SOL    HW218435   2.822   3.662   7.026  0.5443  0.6819  1.6904
 2325SOL     OW18436   3.441   1.022  11.902 -0.1093 -0.1789  0.1363
 2325SOL    HW118437   3.483   1.102  11.930 -0.2968  0.2617 -0.8348
 2325SOL    HW218438   3.508   0.969  11.945  1.3576  0.5699 -1.2437
 2326SOL     OW18439   0.911   0.752   5.636  0.1595  0.1404  0.9089
 2326SOL    HW118440   0.879   0.682   5.692 -0.5621 -0.2863 -0.0373
 2326SOL    HW218441   0.945   0.703   5.562  0.6108  0.7357  0.7203
 2327SOL     OW18442   1.424   2.835   4.249 -0.3570  0.5121  0.2783
 2327SOL    HW118443   1.503   2.789   4.218 -1.2024 -0.3597 -0.5865
 2327SOL    HW218444   1.346   2.786   4.221  0.6019 -0.0318 -1.4731
 2328SOL     OW18445   1.711   1.431   2.365  0.0155 -0.3202 -0.0791
 2328SOL    HW118446   1.757   1.430   2.281  2.0892  2.0310  1.0210
 2328SOL    HW218447   1.709   1.339   2.392  0.6423 -0.3251 -0.0372
 2329SOL     OW18448   3.075   1.244   6.981 -0.4917 -0.4745 -0.6019
 2329SOL    HW118449   3.101   1.181   6.914  0.3391 -0.4587 -0.2912
 2329SOL    HW218450   3.076   1.189   7.059 -0.8447  1.7059  0.9362
 2330SOL     OW18451   2.166   2.585   6.293 -0.3493 -0.2946  0.0200
 2330SOL    HW118452   2.223   2.551   6.362  1.4803  3.2172  0.2324
 2330SOL    HW218453   2.184   2.677   6.311 -0.9844 -0.1386 -0.1523
 2331SOL     OW18454   4.167   3.004   3.754 -0.8050 -0.1170  0.2743
 2331SOL    HW118455   4.186   2.943   3.682  0.5707  1.7418 -0.9339
 2331SOL    HW218456   4.101   2.959   3.807 -0.0430  0.0748  1.3801
 2332SOL     OW18457   0.924   3.003  16.729 -0.4302  0.5115  0.6589
 2332SOL    HW118458   0.958   2.959  16.651 -0.3296  1.9205 -0.0914
 2332SOL    HW218459   0.942   2.933  16.791  0.0875  0.0234 -0.0346
 2333SOL     OW18460   1.830   0.640   4.911  0.3585  0.2568 -0.4350
 2333SOL    HW118461   1.826   0.624   5.005  0.7605  1.3736 -0.2254
 2333SOL    HW218462   1.754   0.591   4.879  1.9604 -0.4860 -3.1029
 2334SOL     OW18463   3.086   2.004   9.540 -0.6484 -0.3471 -0.6658
 2334SOL    HW118464   3.139   2.006   9.619 -3.0001 -1.1019  0.9132
 2334SOL    HW218465   3.081   2.097   9.517 -0.9310  0.0741  1.1570
 2335SOL     OW18466   1.588   2.155  16.721 -0.3495  0.4866 -0.4132
 2335SOL    HW118467   1.509   2.159  16.775  0.1292  1.5783  0.2064
 2335SOL    HW218468   1.657   2.205  16.766 -1.2787 -0.3709  1.9827
 2336SOL     OW18469   2.644   1.059  16.400  0.1950  0.2042 -0.0727
 2336SOL    HW118470   2.658   1.033  16.491  1.6427  0.2599 -0.2758
 2336SOL    HW218471   2.640   0.976  16.351 -1.1290  0.2653 -0.0766
 2337SOL     OW18472   1.129   2.400   5.609  0.0476  0.0265  0.3942
 2337SOL    HW118473   1.127   2.308   5.584 -0.4843 -0.5016  2.3703
 2337SOL    HW218474   1.217   2.416   5.641  0.4135 -0.9588 -0.1091
 2338SOL     OW18475   2.071   1.320   3.881  0.2274 -0.0058 -0.6292
 2338SOL    HW118476   2.012   1.316   3.806 -1.6302  0.7620  0.7918
 2338SOL    HW218477   2.009   1.308   3.953  0.5216 -2.2922 -0.7724
 2339SOL     OW18478   0.521   0.609   3.019  0.2933  0.1191 -0.2405
 2339SOL    HW118479   0.450   0.567   2.971  0.7210  0.9715 -1.6326
 2339SOL    HW218480   0.539   0.695   2.980  1.0396  0.2309  0.3442
 2340SOL     OW18481   0.724   4.220   2.012  0.6061  0.2047 -0.2746
 2340SOL    HW118482   0.676   4.270   1.946  0.1060 -0.2335 -0.2471
 2340SOL    HW218483   0.684   4.133   2.014  1.0124 -0.0430 -3.0141
 2341SOL     OW18484   0.439   1.177   0.366  0.2060 -0.4923 -0.0156
 2341SOL    HW118485   0.469   1.267   0.378  0.9520 -0.5158 -1.8356
 2341SOL    HW218486   0.454   1.148   0.456  0.6607 -1.3225 -0.3670
 2342SOL     OW18487   4.228   0.005   6.861  0.5102 -0.2540 -0.9168
 2342SOL    HW118488   4.303   0.064   6.861  0.3341 -0.0262  1.9706
 2342SOL    HW218489   4.244   4.694   6.773 -3.9567 -1.3071 -1.3310
 2343SOL     OW18490   4.575   0.977   6.346  0.2058  0.4865  0.4510
 2343SOL    HW118491   4.521   0.947   6.273  0.1307  0.9016  0.3355
 2343SOL    HW218492   4.639   1.008   6.281 -1.4616  0.1016 -1.3808
 2344SOL     OW18493   2.167   4.349   5.323 -1.0071 -0.3837  0.0187
 2344SOL    HW118494   2.122   4.380   5.401  0.5193  1.2224  0.2463
 2344SOL    HW218495   2.141   4.418   5.262 -0.5876  0.3578  0.6805
 2345SOL     OW18496   0.487   0.780   0.740 -0.5217 -0.2936 -0.4737
 2345SOL    HW118497   0.426   0.826   0.798  1.0528  1.4489 -0.1839
 2345SOL    HW218498   0.451   0.783   0.652 -1.2966 -1.8376 -0.2073
 2346SOL     OW18499   2.618   3.718   1.782 -0.2547 -0.6306  0.2905
 2346SOL    HW118500   2.551   3.714   1.714  1.5752  0.6084 -1.5800
 2346SOL    HW218501   2.612   3.812   1.801 -2.6116 -0.6462 -0.3452
 2347SOL     OW18502   1.271   2.587   5.994  0.4074  0.2463 -0.2202
 2347SOL    HW118503   1.180   2.589   6.023  0.2999 -0.5063 -0.5119
 2347SOL    HW218504   1.286   2.495   6.015 -0.3297  0.1729 -0.0255
 2348SOL     OW18505   1.860   4.342   6.796 -0.0131 -0.3647  0.1708
 2348SOL    HW118506   1.891   4.305   6.713 -0.7680  0.4076 -0.4457
 2348SOL    HW218507   1.838   4.262   6.845  0.3330 -0.8280 -0.4256
 2349SOL     OW18508   1.910   0.789   4.080  0.4212 -0.0665  0.1115
 2349SOL    HW118509   1.987   0.839   4.054  0.8522 -0.3597  0.8246
 2349SOL    HW218510   1.872   0.844   4.148 -2.0641 -1.0797 -0.4356
 2350SOL     OW18511   0.164   0.568   6.845 -0.0829  0.0962 -0.3213
 2350SOL    HW118512   0.104   0.495   6.830  1.3715 -0.5836 -2.8968
 2350SOL    HW218513   0.246   0.520   6.836 -0.3475 -0.0591 -1.9808
 2351SOL     OW18514   1.583   0.585   7.190  0.4851 -0.7264 -0.5733
 2351SOL    HW118515   1.658   0.552   7.240  1.1928 -1.9894 -2.4719
 2351SOL    HW218516   1.596   0.527   7.115 -1.5369 -1.6443 -0.2091
 2352SOL     OW18517   2.782   0.166   8.389 -0.1440 -0.7818 -0.0140
 2352SOL    HW118518   2.687   0.177   8.394  0.2006  2.1418  0.0216
 2352SOL    HW218519   2.808   0.244   8.437 -1.1200  0.1756 -1.0462
 2353SOL     OW18520   4.418   4.586   9.269  0.0178 -0.2003 -0.4603
 2353SOL    HW118521   4.357   4.532   9.219  0.0283 -0.9791  0.3629
 2353SOL    HW218522   4.422   4.663   9.213  0.1159 -0.3247 -0.6247
 2354SOL     OW18523   3.593   2.406  14.494  0.2314 -0.0198  0.0025
 2354SOL    HW118524   3.601   2.475  14.560  1.2850 -0.4421  0.3074
 2354SOL    HW218525   3.501   2.417  14.469  0.3761  3.9160  1.1380
 2355SOL     OW18526   3.949   1.767   7.977 -0.0212  0.3114 -0.6919
 2355SOL    HW118527   3.953   1.806   7.890  0.4056 -0.3487 -0.9677
 2355SOL    HW218528   4.038   1.760   8.014  0.1497 -3.1885 -1.8426
 2356SOL     OW18529   1.644   1.507   0.192 -0.2932  0.0180 -0.2017
 2356SOL    HW118530   1.570   1.491   0.133  0.7996 -1.4520 -1.1719
 2356SOL    HW218531   1.610   1.577   0.247  2.0180  0.7291  0.2986
 2357SOL     OW18532   0.342   1.900   3.811  0.1147 -0.2930  0.4791
 2357SOL    HW118533   0.270   1.884   3.750  0.2642  0.0106  0.2298
 2357SOL    HW218534   0.324   1.986   3.850  0.3355  0.8108 -1.9030
 2358SOL     OW18535   0.205   1.668   3.079 -0.0608  0.6444 -0.6226
 2358SOL    HW118536   0.243   1.734   3.021 -1.2212  1.3617 -0.5718
 2358SOL    HW218537   0.184   1.595   3.022  3.9320  0.6037 -2.0397
 2359SOL     OW18538   1.006   4.065   6.544 -0.0193  0.2213  0.3673
 2359SOL    HW118539   1.072   4.014   6.497 -2.1259 -1.4498 -0.7988
 2359SOL    HW218540   1.025   4.150   6.505  0.2817  0.5665  1.2723
 2360SOL     OW18541   2.729   1.260  15.831 -0.3251  0.3831 -0.2058
 2360SOL    HW118542   2.777   1.342  15.834 -0.2534  0.3104  0.8757
 2360SOL    HW218543   2.639   1.274  15.862  0.7616  0.4389  2.9329
 2361SOL     OW18544   1.593   3.402   6.690  0.2862 -0.0206  0.0669
 2361SOL    HW118545   1.651   3.336   6.730 -0.1476  0.5857  1.6923
 2361SOL    HW218546   1.505   3.374   6.715 -0.0183  0.8246 -0.0762
 2362SOL     OW18547   1.768   2.274   6.362 -0.7366 -0.3056  0.2878
 2362SOL    HW118548   1.746   2.349   6.306 -1.1815 -0.5561  0.1250
 2362SOL    HW218549   1.805   2.220   6.291  1.2755 -0.2349  1.2934
 2363SOL     OW18550   3.962   0.554   4.182 -0.2417 -0.8265 -0.1334
 2363SOL    HW118551   4.055   0.560   4.204 -0.4802 -1.2970  0.9691
 2363SOL    HW218552   3.964   0.536   4.088  3.7574  0.9597 -0.4083
 2364SOL     OW18553   3.225   1.568  11.396 -0.0658 -0.0570 -0.2011
 2364SOL    HW118554   3.142   1.607  11.421 -0.0315  0.5689 -1.0843
 2364SOL    HW218555   3.206   1.475  11.384 -1.1950  0.1471  0.0239
 2365SOL     OW18556   3.881   2.561  11.428 -0.2999 -0.1930  0.5099
 2365SOL    HW118557   3.823   2.582  11.354  1.2132  4.3236  0.6057
 2365SOL    HW218558   3.935   2.498  11.381  0.9068 -0.1472  1.8501
 2366SOL     OW18559   1.841   3.337  14.082 -0.3632 -0.3576 -0.0209
 2366SOL    HW118560   1.832   3.395  14.157  0.4887  1.0857 -1.0186
 2366SOL    HW218561   1.761   3.286  14.086 -0.3258 -0.3979  0.1814
 2367SOL     OW18562   0.797   1.747  10.590  0.1781  0.1747  0.0260
 2367SOL    HW118563   0.878   1.794  10.611 -1.6497  4.3679 -2.2500
 2367SOL    HW218564   0.735   1.811  10.555 -0.5031 -1.4541 -1.7534
 2368SOL     OW18565   3.232   1.960   2.360 -0.0360 -0.1433 -0.2700
 2368SOL    HW118566   3.175   2.019   2.313 -0.9012 -1.0411 -0.3401
 2368SOL    HW218567   3.214   1.992   2.449  1.3241  0.1491 -0.0856
 2369SOL     OW18568   2.798   3.597  13.386 -0.1456 -0.2729  0.3464
 2369SOL    HW118569   2.756   3.680  13.360 -0.2024  0.1508  1.8207
 2369SOL    HW218570   2.772   3.547  13.308 -1.3507  0.7848  0.0644
 2370SOL     OW18571   1.590   3.068   7.078 -0.5528 -0.0367 -0.0359
 2370SOL    HW118572   1.637   3.150   7.094 -2.2984  0.9157  0.3191
 2370SOL    HW218573   1.650   3.027   7.017  1.5696 -1.1599  2.8229
 2371SOL     OW18574   2.879   2.061   5.960  0.2429 -0.1913 -0.4530
 2371SOL    HW118575   2.861   2.028   5.872 -0.0967 -0.2914 -0.3457
 2371SOL    HW218576   2.849   2.152   5.956  1.4557  0.2874  1.1965
 2372SOL     OW18577   3.580   3.252  14.774  0.0722  0.6257 -0.0670
 2372SOL    HW118578   3.623   3.219  14.852  0.4234 -0.7792 -0.8623
 2372SOL    HW218579   3.513   3.184  14.773  0.7822 -0.0535 -1.6399
 2373SOL     OW18580   4.597   1.301   8.304 -0.1894 -0.0200 -0.5885
 2373SOL    HW118581   4.606   1.392   8.277 -1.2724  0.4965  0.7668
 2373SOL    HW218582   4.535   1.270   8.238  0.9937  0.2429 -1.7992
 2374SOL     OW18583   3.666   0.271   9.770 -0.3151 -0.6495 -0.6045
 2374SOL    HW118584   3.753   0.239   9.747  0.9869  3.9890 -2.1480
 2374SOL    HW218585   3.656   0.256   9.864  1.2168 -1.7743 -0.6185
 2375SOL     OW18586   0.050   4.265   1.601 -0.1957  0.2058 -0.4729
 2375SOL    HW118587   0.135   4.256   1.644  0.6810 -1.0280 -2.4982
 2375SOL    HW218588   0.066   4.211   1.524  0.2617 -1.3742  0.7151
 2376SOL     OW18589   1.826   0.688   6.259  0.1552  0.6379  0.2653
 2376SOL    HW118590   1.809   0.636   6.338  1.5772 -1.7505 -0.9943
 2376SOL    HW218591   1.774   0.764   6.284  0.1889  1.3721 -1.8627
 2377SOL     OW18592   0.100   2.981   5.966  0.8541 -0.0498 -0.2715
 2377SOL    HW118593   0.181   3.000   5.919 -0.7818  3.4758 -1.6603
 2377SOL    HW218594   0.045   2.957   5.891  0.0648  0.3334  0.1728
 2378SOL     OW18595   1.177   2.763   4.807 -0.6003 -0.2088 -0.0528
 2378SOL    HW118596   1.255   2.710   4.822 -0.8882 -0.7423 -0.4548
 2378SOL    HW218597   1.118   2.736   4.877  0.9028  0.4845  1.4978
 2379SOL     OW18598   1.694   1.014   7.824 -0.1164 -0.1538 -0.3123
 2379SOL    HW118599   1.656   0.931   7.796 -1.2089  0.2991 -0.1505
 2379SOL    HW218600   1.621   1.061   7.864  0.7099  0.5094  0.4304
 2380SOL     OW18601   3.874   1.187   7.755  0.5926 -0.4954  0.2088
 2380SOL    HW118602   3.893   1.222   7.842  2.4219 -0.5118 -0.1985
 2380SOL    HW218603   3.779   1.193   7.770  0.7873  2.3715  0.3348
 2381SOL     OW18604   0.649   0.569   3.500  0.1466  0.3942 -0.1321
 2381SOL    HW118605   0.742   0.568   3.519  0.5217  0.9770 -1.9282
 2381SOL    HW218606   0.647   0.635   3.431  0.9356  0.2950 -0.2446
 2382SOL     OW18607   3.887   0.908   3.452 -0.1953  0.1716 -0.3342
 2382SOL    HW118608   3.962   0.923   3.395  0.4939 -0.1883  0.4748
 2382SOL    HW218609   3.826   0.873   3.387 -0.6300  0.9428 -0.3439
 2383SOL     OW18610   2.018   4.324   6.561  0.3415 -0.1844 -0.5364
 2383SOL    HW118611   2.026   4.353   6.470  0.9133 -1.2638 -0.8281
 2383SOL    HW218612   2.097   4.361   6.602 -1.5016  1.9763  1.1032
 2384SOL     OW18613   1.545   1.580   6.388 -0.5682 -0.6955  0.2142
 2384SOL    HW118614   1.617   1.544   6.335  0.8860  2.0681  0.3575
 2384SOL    HW218615   1.531   1.506   6.448  0.2761 -0.8324  0.2492
 2385SOL     OW18616   1.612   2.246  12.852  0.4745  0.1769 -0.2879
 2385SOL    HW118617   1.592   2.155  12.828 -2.0626  0.1769  1.7593
 2385SOL    HW218618   1.589   2.285  12.768  1.6975  2.8362  0.6362
 2386SOL     OW18619   4.069   1.796   6.169  0.8200  0.3504  0.2824
 2386SOL    HW118620   4.016   1.855   6.223  0.7735  1.5519 -1.1084
 2386SOL    HW218621   4.063   1.824   6.078 -2.9403 -1.3812  0.0090
 2387SOL     OW18622   1.819   2.305  12.619  0.6387 -0.0955 -0.1649
 2387SOL    HW118623   1.849   2.391  12.650 -1.5805  0.5488  0.1843
 2387SOL    HW218624   1.860   2.250  12.686  0.9997  3.0129  2.1917
 2388SOL     OW18625   4.396   4.420   6.575 -0.5275  0.5200 -0.1104
 2388SOL    HW118626   4.474   4.475   6.576 -1.1790  1.4559 -0.5335
 2388SOL    HW218627   4.339   4.489   6.610 -1.4400  0.0121 -0.6077
 2389SOL     OW18628   2.078   3.696  13.385 -0.6994 -0.5606  0.0357
 2389SOL    HW118629   1.985   3.678  13.395 -1.1509  1.7753 -0.0562
 2389SOL    HW218630   2.073   3.783  13.423  1.9410  0.2014 -1.3458
 2390SOL     OW18631   1.914   3.438   4.176 -0.0437  0.2801  0.0982
 2390SOL    HW118632   1.873   3.359   4.141 -0.7226 -0.0824  1.7254
 2390SOL    HW218633   1.893   3.419   4.267 -0.7822 -1.0183 -0.3307
 2391SOL     OW18634   3.619   2.473   5.529 -0.0560  0.4110  0.0325
 2391SOL    HW118635   3.568   2.397   5.502 -0.4435  0.5176  0.4571
 2391SOL    HW218636   3.570   2.507   5.604  0.8343 -0.9953  1.2603
 2392SOL     OW18637   4.723   4.556   7.010 -0.0258  0.2678  0.6942
 2392SOL    HW118638   0.024   4.648   7.011 -0.3199  0.3673 -0.8137
 2392SOL    HW218639   0.082   4.511   6.994  0.7351  2.2420 -0.7539
 2393SOL     OW18640   0.514   1.480   3.864  0.6265  0.5348 -0.0936
 2393SOL    HW118641   0.547   1.499   3.776  0.6194  2.9010  0.4304
 2393SOL    HW218642   0.579   1.418   3.899  0.0398 -0.1626 -0.2383
 2394SOL     OW18643   3.379   1.425   7.384  0.3978  0.0309  0.1885
 2394SOL    HW118644   3.286   1.442   7.370  1.2533  3.2978 -1.5051
 2394SOL    HW218645   3.414   1.514   7.386  1.2483 -0.2737 -1.4909
 2395SOL     OW18646   3.657   3.203  17.277  0.1395 -0.3324 -0.2823
 2395SOL    HW118647   3.654   3.150  17.356  0.7804  1.3782  0.8755
 2395SOL    HW218648   3.599   3.276  17.293 -0.5834 -0.9800  0.0517
 2396SOL     OW18649   4.207   1.076  12.117  0.5036  0.0802 -0.4153
 2396SOL    HW118650   4.234   1.010  12.180 -2.7610 -0.9624 -0.1051
 2396SOL    HW218651   4.262   1.059  12.040  1.3184 -0.4342  0.2913
 2397SOL     OW18652   0.796   1.630   9.540  0.5661 -0.5337 -0.8750
 2397SOL    HW118653   0.878   1.580   9.537  0.2698 -1.0688  0.1340
 2397SOL    HW218654   0.796   1.690   9.465  0.4019 -0.8503 -1.1318
 2398SOL     OW18655   1.639   2.810  11.236 -0.4297 -0.3075  0.1307
 2398SOL    HW118656   1.566   2.801  11.175  1.5226 -1.6024 -2.0140
 2398SOL    HW218657   1.678   2.722  11.240  1.0308  0.4001  1.5241
 2399SOL     OW18658   0.986   3.721   6.450 -0.3591  0.0316 -0.4954
 2399SOL    HW118659   1.044   3.782   6.404 -0.4822 -0.0534 -0.7632
 2399SOL    HW218660   1.044   3.647   6.469  2.2069  2.0801 -0.2291
 2400SOL     OW18661   4.289   2.462  13.030  0.3785 -0.3341 -0.4413
 2400SOL    HW118662   4.217   2.525  13.042  0.8249 -0.1703  1.4694
 2400SOL    HW218663   4.250   2.383  13.068 -1.1544  1.0198  0.8497
 2401SOL     OW18664   3.754   0.409  11.498  0.1133 -0.2887  0.2073
 2401SOL    HW118665   3.802   0.487  11.524 -1.7098  0.8661  0.1252
 2401SOL    HW218666   3.661   0.428  11.513  0.2590  0.5032  0.1303
 2402SOL     OW18667   0.607   1.340  11.294 -0.4147 -0.2400  0.1308
 2402SOL    HW118668   0.686   1.391  11.312 -0.4165 -1.0527  2.4805
 2402SOL    HW218669   0.613   1.336  11.199 -1.2521 -2.7292  0.1915
 2403SOL     OW18670   3.461   0.370   9.970 -0.0701 -0.1373  0.2659
 2403SOL    HW118671   3.496   0.411   9.891  1.3273  1.4082  1.6732
 2403SOL    HW218672   3.390   0.430   9.991 -0.9152 -1.8187  2.2014
 2404SOL     OW18673   3.955   1.412   1.452 -0.4825 -0.0339 -0.0050
 2404SOL    HW118674   3.992   1.390   1.366  2.0600  0.4280  0.9901
 2404SOL    HW218675   3.901   1.490   1.440  0.9218  1.0467  0.6685
 2405SOL     OW18676   0.749   4.531   4.278  0.4925  0.0361  0.1404
 2405SOL    HW118677   0.838   4.508   4.306  0.5750  0.0478 -0.1097
 2405SOL    HW218678   0.695   4.458   4.308 -1.4960  1.7383  0.6274
 2406SOL     OW18679   4.346   3.850   2.150 -0.0461  0.2108 -0.8234
 2406SOL    HW118680   4.342   3.883   2.060 -3.2502  0.1601 -0.7058
 2406SOL    HW218681   4.270   3.791   2.149 -1.1089  1.5832 -0.0330
 2407SOL     OW18682   3.048   3.237   0.049 -0.2002  0.2774 -0.0946
 2407SOL    HW118683   3.113   3.250  17.676 -0.5553  2.9411  0.0903
 2407SOL    HW218684   3.072   3.311   0.104  1.8854 -1.0098  0.7428
 2408SOL     OW18685   2.630   1.676   7.298 -0.1203 -0.3477 -0.3207
 2408SOL    HW118686   2.597   1.766   7.304 -1.8404 -1.0219  0.1646
 2408SOL    HW218687   2.565   1.619   7.257  0.2329 -1.5487  0.7754
 2409SOL     OW18688   1.395   0.996   6.752 -0.1096  0.0019  0.3595
 2409SOL    HW118689   1.343   0.933   6.701 -1.0940  1.0814  0.0297
 2409SOL    HW218690   1.376   0.974   6.843  1.3015 -1.5190  0.2929
 2410SOL     OW18691   4.435   2.082   3.407  0.7757 -0.0533  0.2569
 2410SOL    HW118692   4.385   2.052   3.483 -1.9670 -0.7023 -1.7831
 2410SOL    HW218693   4.523   2.082   3.445  1.0885 -0.5826 -0.4712
 2411SOL     OW18694   2.903   1.638   7.208  0.2411  0.0788 -0.4756
 2411SOL    HW118695   2.880   1.729   7.225 -1.5841  0.0110 -2.6486
 2411SOL    HW218696   2.817   1.611   7.238 -0.1302  1.3900 -0.3746
 2412SOL     OW18697   4.660   1.645  10.236  0.3685 -0.0136 -0.3942
 2412SOL    HW118698   4.663   1.650  10.331  1.3453  1.5213 -0.5222
 2412SOL    HW218699   4.659   1.737  10.211 -0.6767 -0.2491 -1.2407
 2413SOL     OW18700   4.711   0.404  13.651  0.2284 -0.3575  0.4966
 2413SOL    HW118701   4.691   0.319  13.690 -1.0702 -0.3355 -0.1321
 2413SOL    HW218702   0.029   0.448  13.725  0.8532  0.9297 -0.6209
 2414SOL     OW18703   0.569   4.166   8.529  0.3084 -0.4482  0.2805
 2414SOL    HW118704   0.586   4.164   8.624 -0.7102  0.8664  0.4814
 2414SOL    HW218705   0.475   4.153   8.526 -0.3073  4.0726  0.2168
 2415SOL     OW18706   3.870   0.536   2.667 -0.5470  0.0619  0.0609
 2415SOL    HW118707   3.922   0.455   2.663 -1.4952 -0.6586  2.0735
 2415SOL    HW218708   3.787   0.500   2.699 -1.8540  2.0605 -1.1083
 2416SOL     OW18709   3.756   1.243   2.248  0.1389 -0.3115 -0.1005
 2416SOL    HW118710   3.692   1.218   2.181 -1.0352 -0.0237  0.9065
 2416SOL    HW218711   3.833   1.195   2.216 -1.1550 -1.8748 -0.8520
 2417SOL     OW18712   1.112   2.876   4.418  0.4143  0.0521 -0.4847
 2417SOL    HW118713   1.165   2.950   4.388 -1.2148  0.2595 -2.8886
 2417SOL    HW218714   1.168   2.801   4.396  1.6560  1.8754 -3.6516
 2418SOL     OW18715   0.294   1.486  14.177  0.2943  0.1803 -0.1337
 2418SOL    HW118716   0.340   1.503  14.260  0.1570  2.7706 -0.5920
 2418SOL    HW218717   0.262   1.574  14.155  0.9893  0.7172  0.9760
 2419SOL     OW18718   1.844   3.212   5.397 -0.2048 -0.0413 -0.5962
 2419SOL    HW118719   1.891   3.141   5.352 -0.7007 -0.5191 -0.3548
 2419SOL    HW218720   1.902   3.288   5.393 -0.7418  0.3963  0.0056
 2420SOL     OW18721   2.305   1.337   3.370 -0.0649  0.7175  0.5294
 2420SOL    HW118722   2.262   1.258   3.337 -0.0126  0.9599 -0.1179
 2420SOL    HW218723   2.333   1.312   3.458 -0.5007 -1.5859  0.0250
 2421SOL     OW18724   3.461   2.986   4.130  0.4248 -0.2990  0.1485
 2421SOL    HW118725   3.543   3.036   4.122  0.5703 -0.6555 -0.6338
 2421SOL    HW218726   3.452   2.999   4.224  0.6315 -1.2811  0.3040
 2422SOL     OW18727   2.771   3.848  16.234 -0.0353 -0.3311 -0.3360
 2422SOL    HW118728   2.695   3.879  16.185 -1.1384 -1.1566  0.8233
 2422SOL    HW218729   2.812   3.793  16.167  2.9403  1.3595  0.0970
 2423SOL     OW18730   0.249   4.531   3.012  0.1415  0.3240 -0.6642
 2423SOL    HW118731   0.154   4.543   3.019  0.1099  0.5201 -1.4053
 2423SOL    HW218732   0.269   4.582   2.933 -1.8645  0.5668 -1.0099
 2424SOL     OW18733   2.234   4.629   8.178 -0.3974 -0.0041  0.1607
 2424SOL    HW118734   2.151   4.628   8.227  0.0888  0.0157  0.9847
 2424SOL    HW218735   2.208   4.580   8.100  0.3757  2.1776 -1.4580
 2425SOL     OW18736   0.759   1.293   7.218  0.2851 -0.1869  0.1635
 2425SOL    HW118737   0.765   1.251   7.133  2.1027 -0.2945  0.3343
 2425SOL    HW218738   0.731   1.380   7.189  0.6794 -0.7635 -1.9490
 2426SOL     OW18739   4.224   1.611   0.460 -0.4630 -0.0900 -0.0604
 2426SOL    HW118740   4.296   1.633   0.402 -0.4920 -0.5598 -0.2770
 2426SOL    HW218741   4.229   1.515   0.457 -1.4234 -0.1590  0.4661
 2427SOL     OW18742   0.397   3.296  16.832 -0.1747 -0.2445 -0.2628
 2427SOL    HW118743   0.358   3.374  16.793 -0.4468  0.3264  1.1169
 2427SOL    HW218744   0.429   3.244  16.759 -0.4266 -1.1631  0.2779
 2428SOL     OW18745   4.718   3.178  17.493  0.0194  0.1699 -0.4617
 2428SOL    HW118746   0.020   3.227  17.415 -0.5280  0.6420 -0.3455
 2428SOL    HW218747   4.680   3.098  17.456 -2.1756  1.1848 -0.3776
 2429SOL     OW18748   2.388   1.778   2.558 -0.0573  0.3448  0.4024
 2429SOL    HW118749   2.344   1.741   2.481  0.1361 -0.5022  0.6941
 2429SOL    HW218750   2.423   1.706   2.611  1.6246  0.0628 -1.0831
 2430SOL     OW18751   2.266   3.788   8.687 -0.1692 -0.2573 -0.1059
 2430SOL    HW118752   2.289   3.875   8.720  0.1629 -0.2055 -0.4710
 2430SOL    HW218753   2.246   3.741   8.768  0.3188  0.7306  0.5926
 2431SOL     OW18754   1.709   2.005   4.591 -0.3197 -0.1921  0.4651
 2431SOL    HW118755   1.774   2.062   4.631 -2.8668  1.2706  2.4948
 2431SOL    HW218756   1.655   1.975   4.664 -0.7373 -0.0071  0.2312
 2432SOL     OW18757   3.468   4.195  17.400 -0.3547  0.2498 -0.2873
 2432SOL    HW118758   3.480   4.178  17.307  0.9321 -0.2020 -0.0458
 2432SOL    HW218759   3.529   4.127  17.430 -0.7820  0.2538  0.6054
 2433SOL     OW18760   2.466   2.719   5.723 -0.2054 -0.3356  0.4132
 2433SOL    HW118761   2.507   2.638   5.691 -0.9197 -0.9124  0.9474
 2433SOL    HW218762   2.379   2.684   5.743  0.1351 -0.9840  0.7635
 2434SOL     OW18763   3.373   0.328   4.786 -0.3764 -0.6041  0.4262
 2434SOL    HW118764   3.394   0.421   4.794 -0.6427 -0.8245  3.6717
 2434SOL    HW218765   3.346   0.295   4.872 -0.0573 -0.7348  0.4757
 2435SOL     OW18766   2.177   2.924  10.963  0.1888  0.2022 -0.3926
 2435SOL    HW118767   2.262   2.930  11.007 -0.0019  3.6707 -0.4921
 2435SOL    HW218768   2.126   3.001  10.987  0.7808  0.2379  0.7494
 2436SOL     OW18769   2.464   3.559   9.064 -0.0596 -0.3189  0.1403
 2436SOL    HW118770   2.428   3.497   9.128 -1.3871  1.1292  0.8045
 2436SOL    HW218771   2.551   3.523   9.051 -0.8196 -2.0373 -0.2370
 2437SOL     OW18772   2.581   1.925  10.747  0.2654 -0.1184  0.2241
 2437SOL    HW118773   2.615   1.988  10.683 -1.4311 -0.2925 -0.8575
 2437SOL    HW218774   2.636   1.950  10.821 -0.4054 -1.8938  1.3087
 2438SOL     OW18775   1.842   2.828   1.352 -0.4246 -0.0732  0.2658
 2438SOL    HW118776   1.895   2.791   1.423  0.7504  0.8758 -0.1015
 2438SOL    HW218777   1.910   2.822   1.284  0.8452  1.0027  1.4298
 2439SOL     OW18778   3.565   3.751   1.101 -0.5412 -0.1207  0.0674
 2439SOL    HW118779   3.499   3.778   1.165 -0.9044  2.6739 -1.4783
 2439SOL    HW218780   3.512   3.757   1.021  0.1031 -0.3532 -0.3786
 2440SOL     OW18781   4.475   3.071   0.301  0.2961 -0.2214 -0.1135
 2440SOL    HW118782   4.508   3.002   0.359 -0.1371  1.8044  2.5168
 2440SOL    HW218783   4.539   3.062   0.230  1.2070 -0.8716  0.7945
 2441SOL     OW18784   1.905   1.171   4.040  0.1861 -0.0490 -0.2572
 2441SOL    HW118785   1.860   1.096   4.001  1.0718  1.2916 -3.8484
 2441SOL    HW218786   1.856   1.183   4.121  1.5897 -0.3423  0.6435
 2442SOL     OW18787   2.185   2.676  10.892  0.1043 -0.3168 -0.1711
 2442SOL    HW118788   2.266   2.656  10.844 -0.3344 -1.4197 -0.4434
 2442SOL    HW218789   2.194   2.768  10.917  0.1589  0.5072 -3.2040
 2443SOL     OW18790   2.236   1.954   3.092 -0.1539 -0.3050 -0.3073
 2443SOL    HW118791   2.261   1.863   3.108  1.7181 -0.1849 -2.4654
 2443SOL    HW218792   2.192   1.949   3.008 -2.2515  1.0712  0.7111
 2444SOL     OW18793   2.143   1.537   1.789 -0.4399  0.0622  0.3918
 2444SOL    HW118794   2.144   1.471   1.720  1.2240 -0.9759  1.3974
 2444SOL    HW218795   2.199   1.503   1.859 -1.3557 -0.6090  0.7863
 2445SOL     OW18796   2.239   1.054   1.260 -0.1883 -0.4559 -0.8391
 2445SOL    HW118797   2.267   1.091   1.343  1.3763 -0.4695 -1.3487
 2445SOL    HW218798   2.283   0.970   1.272  1.2646  0.5545  0.8120
 2446SOL     OW18799   1.494   3.940   2.771  0.2852 -0.4547 -0.2147
 2446SOL    HW118800   1.570   3.992   2.746 -0.0823  0.3013  0.2766
 2446SOL    HW218801   1.538   3.857   2.792  2.5521  0.6046 -0.8476
 2447SOL     OW18802   2.934   2.168   8.086  0.5253  0.0513  0.0411
 2447SOL    HW118803   2.857   2.148   8.140 -0.3616 -0.1248 -1.2898
 2447SOL    HW218804   2.958   2.082   8.053  1.6813 -0.7154  2.9380
 2448SOL     OW18805   0.332   2.302   4.501 -0.3578  0.0631 -0.1491
 2448SOL    HW118806   0.287   2.350   4.432 -0.5690  0.1651  0.0599
 2448SOL    HW218807   0.423   2.328   4.484 -0.7220  0.3888 -1.5835
 2449SOL     OW18808   1.342   1.252   7.530  0.2037 -0.1305  0.3359
 2449SOL    HW118809   1.287   1.174   7.526 -0.0700 -0.0156  1.9130
 2449SOL    HW218810   1.283   1.316   7.490 -0.5879 -1.1605 -0.1229
 2450SOL     OW18811   0.161   0.042   8.425 -0.7184 -0.0991 -0.3645
 2450SOL    HW118812   0.163   4.702   8.353 -1.8235  0.5805 -1.0018
 2450SOL    HW218813   0.072   0.078   8.428 -1.6605 -2.4346 -0.0110
 2451SOL     OW18814   4.713   3.243   3.207  0.2504 -0.1504  0.2985
 2451SOL    HW118815   4.719   3.237   3.303  2.5126 -0.5591  0.1404
 2451SOL    HW218816   4.704   3.149   3.194 -0.2344 -0.3554  2.1705
 2452SOL     OW18817   2.978   3.332  10.875 -0.0905 -0.3822 -0.4854
 2452SOL    HW118818   3.029   3.380  10.940 -1.1087 -1.6843  1.2829
 2452SOL    HW218819   2.891   3.323  10.915 -0.7655  0.7035 -1.7188
 2453SOL     OW18820   1.025   1.793   2.036  0.0537 -0.1724  0.6293
 2453SOL    HW118821   1.061   1.709   2.010  1.0095  0.6885 -0.8460
 2453SOL    HW218822   1.100   1.848   2.013 -0.0838  0.8886  2.6834
 2454SOL     OW18823   1.153   3.613   0.441 -0.6843 -0.2918 -0.1563
 2454SOL    HW118824   1.123   3.599   0.351  1.3114  1.0900 -1.0402
 2454SOL    HW218825   1.238   3.570   0.437  0.9548  3.2324 -2.3346
 2455SOL     OW18826   3.800   4.508   4.378 -0.6247 -0.3274 -0.0507
 2455SOL    HW118827   3.883   4.533   4.418 -0.9801  1.4806 -0.4006
 2455SOL    HW218828   3.742   4.584   4.387 -0.9751 -0.7067  0.8665
 2456SOL     OW18829   1.493   1.590   5.974  0.1167 -0.1070 -0.3451
 2456SOL    HW118830   1.508   1.668   6.028 -0.8043 -0.3836  0.3051
 2456SOL    HW218831   1.582   1.582   5.940  0.3559 -0.7863  0.4568
 2457SOL     OW18832   0.984   2.657   5.980 -0.3642  0.5859  0.4647
 2457SOL    HW118833   0.931   2.578   5.977  1.3580 -0.4643 -1.6591
 2457SOL    HW218834   0.951   2.708   5.906 -2.3436  0.2284  1.1002
 2458SOL     OW18835   0.630   3.978   4.453 -0.1958 -0.1409 -0.2170
 2458SOL    HW118836   0.673   4.061   4.431 -0.2475 -0.0310  0.0946
 2458SOL    HW218837   0.647   3.928   4.374  2.3756  1.4815 -0.6564
 2459SOL     OW18838   1.745   1.761   7.362  0.0083 -0.4089  1.1839
 2459SOL    HW118839   1.741   1.673   7.399 -0.9325 -1.5869 -1.7057
 2459SOL    HW218840   1.651   1.779   7.354 -0.0158 -0.8138  0.6018
 2460SOL     OW18841   2.217   2.648   5.789 -0.2584  0.0633 -0.5472
 2460SOL    HW118842   2.197   2.730   5.835 -3.2797  0.6339 -2.8398
 2460SOL    HW218843   2.190   2.582   5.853 -0.9601  0.5308 -0.3537
 2461SOL     OW18844   3.881   0.722  14.764 -0.1037 -0.1434  0.5090
 2461SOL    HW118845   3.847   0.637  14.791 -0.5511  1.0828  3.7648
 2461SOL    HW218846   3.846   0.785  14.827 -1.3575 -0.1548 -0.1758
 2462SOL     OW18847   1.067   1.112   6.906 -0.3784 -0.3087 -0.2142
 2462SOL    HW118848   1.007   1.041   6.929 -0.4123 -0.3970 -0.5677
 2462SOL    HW218849   1.126   1.138   6.977 -0.6393 -1.3679  0.3878
 2463SOL     OW18850   0.367   3.976  12.699  0.3002  0.0619  0.2892
 2463SOL    HW118851   0.436   4.015  12.752  0.7447 -0.3251 -0.0099
 2463SOL    HW218852   0.300   3.950  12.762  0.0508  1.3575  0.5621
 2464SOL     OW18853   3.561   0.534   2.435  0.5220 -0.0412  0.1781
 2464SOL    HW118854   3.599   0.485   2.508 -0.7229 -0.8224  0.3119
 2464SOL    HW218855   3.546   0.467   2.369  0.2365 -0.7270  0.9366
 2465SOL     OW18856   1.515   4.533   3.316 -0.2624  0.1945 -0.0186
 2465SOL    HW118857   1.464   4.510   3.239 -2.1321  0.6554  1.0980
 2465SOL    HW218858   1.559   4.447   3.320  1.0420  0.9052  1.1176
 2466SOL     OW18859   1.623   1.140   3.529  0.2442 -0.1386 -0.7126
 2466SOL    HW118860   1.553   1.086   3.567 -1.3494  0.8738 -2.1727
 2466SOL    HW218861   1.616   1.126   3.434  1.5728 -0.5807 -0.7439
 2467SOL     OW18862   1.035   2.822   6.196 -1.0998  0.1294  0.0396
 2467SOL    HW118863   0.957   2.871   6.218 -0.3931  1.2697 -0.0145
 2467SOL    HW218864   1.004   2.762   6.128  0.8331 -0.3574 -0.4238
 2468SOL     OW18865   3.015   3.599   5.419 -1.1727 -0.2880  0.3735
 2468SOL    HW118866   2.964   3.664   5.468 -1.2261  1.4566 -2.0430
 2468SOL    HW218867   2.948   3.576   5.355 -1.2275  2.2904 -0.4644
 2469SOL     OW18868   1.402   3.325   7.042 -0.5524 -0.0827  0.4979
 2469SOL    HW118869   1.374   3.416   7.034  0.3918  0.3587  2.2634
 2469SOL    HW218870   1.382   3.296   6.953 -0.2917  1.7724 -0.1642
 2470SOL     OW18871   0.479   2.328   3.054  0.4001 -0.1319  0.2133
 2470SOL    HW118872   0.470   2.377   3.136 -3.0268 -0.2087 -0.0952
 2470SOL    HW218873   0.553   2.370   3.010 -2.5759  2.1954 -2.6310
 2471SOL     OW18874   2.817   1.966   4.199 -0.1117  0.0400 -0.7344
 2471SOL    HW118875   2.887   1.963   4.134 -1.0072  0.7204 -1.7250
 2471SOL    HW218876   2.740   2.001   4.153 -0.8956 -1.8886 -0.9024
 2472SOL     OW18877   1.372   2.058  11.275 -0.0883  0.3787 -0.3513
 2472SOL    HW118878   1.337   2.057  11.364  1.1484 -1.9191  0.1059
 2472SOL    HW218879   1.287   2.051  11.230 -0.4113 -1.1099  0.4818
 2473SOL     OW18880   3.755   0.703   8.354  0.7724 -0.1560  0.0938
 2473SOL    HW118881   3.786   0.731   8.269 -0.6881 -0.4231 -0.5357
 2473SOL    HW218882   3.686   0.639   8.336  1.0118  0.0156 -1.3519
 2474SOL     OW18883   3.493   2.250   5.390 -0.3038 -0.4089 -0.1550
 2474SOL    HW118884   3.492   2.267   5.296 -2.1970 -2.4146 -0.4910
 2474SOL    HW218885   3.556   2.180   5.405 -0.6643 -1.3844 -3.3269
 2475SOL     OW18886   1.222   0.110  14.913  0.8676  0.2991  0.0827
 2475SOL    HW118887   1.295   0.086  14.855  1.5383  1.0719  0.5937
 2475SOL    HW218888   1.228   0.054  14.990 -0.2970 -0.1878 -0.1795
 2476SOL     OW18889   2.322   2.121  17.517 -0.1706 -0.3065 -0.0504
 2476SOL    HW118890   2.324   2.159  17.429 -0.9053  0.6946  0.3679
 2476SOL    HW218891   2.361   2.188  17.573 -1.3823 -0.5592  1.1043
 2477SOL     OW18892   3.777   1.672   3.370 -0.0346  0.6941 -1.1071
 2477SOL    HW118893   3.792   1.674   3.275 -0.7804  0.1024 -1.2346
 2477SOL    HW218894   3.709   1.739   3.372 -0.7471 -0.1036  2.2716
 2478SOL     OW18895   3.590   2.576  16.021 -0.4844  0.2832  0.1617
 2478SOL    HW118896   3.555   2.643  16.079 -0.4322 -0.2271  0.7939
 2478SOL    HW218897   3.565   2.493  16.063  0.7218 -0.9425 -1.5298
 2479SOL     OW18898   1.352   1.041   4.307 -0.1681  0.0277  0.3347
 2479SOL    HW118899   1.290   1.003   4.245  0.7141 -1.9625  0.6881
 2479SOL    HW218900   1.331   0.999   4.390  1.8101  0.6237  1.1518
 2480SOL     OW18901   2.235   2.714   5.428  0.2075 -0.4022 -0.2927
 2480SOL    HW118902   2.188   2.656   5.488  1.3508 -1.0299 -0.0015
 2480SOL    HW218903   2.165   2.775   5.406  1.6695  1.3481 -0.0446
 2481SOL     OW18904   2.902   3.928   2.714 -0.2860 -0.2816  0.1542
 2481SOL    HW118905   2.836   3.957   2.651  1.2809  0.3619 -1.1798
 2481SOL    HW218906   2.979   3.930   2.658 -0.0298 -0.4240  0.5014
 2482SOL     OW18907   4.289   1.975  11.168 -0.3621 -0.2823  0.0663
 2482SOL    HW118908   4.363   1.935  11.122 -0.4520 -1.1317  0.6467
 2482SOL    HW218909   4.332   2.018  11.241 -0.4241 -0.5750  0.2756
 2483SOL     OW18910   4.456   3.956  10.026  0.4806 -0.3674 -0.2164
 2483SOL    HW118911   4.404   4.037  10.026  2.6559  1.0290  1.3710
 2483SOL    HW218912   4.473   3.951   9.932  0.0580 -0.9951 -0.2607
 2484SOL     OW18913   1.183   4.163   1.773  0.1523  0.0979  0.1614
 2484SOL    HW118914   1.095   4.179   1.741 -0.1466 -0.4815  0.6975
 2484SOL    HW218915   1.172   4.095   1.839 -2.5371 -0.0099 -0.4162
 2485SOL     OW18916   2.487   4.261   4.297  0.4439 -0.5785  0.4545
 2485SOL    HW118917   2.506   4.354   4.283 -2.4758 -0.0804 -0.0331
 2485SOL    HW218918   2.454   4.242   4.209  2.2380  0.9023 -0.5485
 2486SOL     OW18919   4.512   4.664   9.525 -0.3340  0.2785 -0.4105
 2486SOL    HW118920   4.445   4.687   9.590 -0.0541  1.9728 -0.7128
 2486SOL    HW218921   4.461   4.634   9.450  0.4849 -1.0045 -0.4518
 2487SOL     OW18922   3.697   4.021   3.206  0.2171 -0.0234 -0.0021
 2487SOL    HW118923   3.647   3.974   3.140 -1.4596 -0.1849  1.3918
 2487SOL    HW218924   3.681   3.964   3.281  2.4355 -1.9283 -0.9687
 2488SOL     OW18925   3.690   0.872  17.458 -0.3076 -0.4524 -0.0510
 2488SOL    HW118926   3.764   0.862  17.398  1.0842  1.2016  1.4104
 2488SOL    HW218927   3.692   0.789  17.506  1.2360  0.3709  1.3424
 2489SOL     OW18928   2.309   4.613   1.023  0.2582  1.1923  0.1758
 2489SOL    HW118929   2.253   4.604   1.101  2.1477 -1.1774  1.2500
 2489SOL    HW218930   2.353   4.698   1.031  0.6014  0.8613  1.9151
 2490SOL     OW18931   1.555   4.083  14.167  0.0000  0.3644  0.9357
 2490SOL    HW118932   1.558   4.163  14.115 -0.3445 -0.0562  0.2772
 2490SOL    HW218933   1.460   4.084  14.179 -0.0002  0.3708  0.9337
 2491SOL     OW18934   1.752   0.262   6.225  0.2460 -0.3165  0.1371
 2491SOL    HW118935   1.774   0.169   6.227 -2.7258 -1.0311 -1.0494
 2491SOL    HW218936   1.734   0.272   6.318 -0.0493  0.1549  0.0273
 2492SOL     OW18937   0.328   4.697   8.624 -0.1152  0.3060 -0.1652
 2492SOL    HW118938   0.300   0.023   8.701 -0.1006  0.6868 -0.4029
 2492SOL    HW218939   0.252   4.695   8.566 -0.3275 -0.3463  0.1384
 2493SOL     OW18940   2.868   2.176  12.086 -0.1231 -0.5038  0.1896
 2493SOL    HW118941   2.900   2.236  12.154 -0.2505 -1.0804  0.7644
 2493SOL    HW218942   2.933   2.108  12.103 -1.3057 -1.5914  0.3058
 2494SOL     OW18943   0.239   1.819   5.859  0.0153  0.4929 -0.5703
 2494SOL    HW118944   0.164   1.760   5.855 -0.8674  1.6172 -0.6546
 2494SOL    HW218945   0.302   1.767   5.809 -0.2991 -0.1244 -0.3207
 2495SOL     OW18946   0.409   1.639   7.271  0.1779 -0.2437 -0.6562
 2495SOL    HW118947   0.382   1.614   7.183  0.8330  0.8040 -1.1562
 2495SOL    HW218948   0.480   1.702   7.258 -0.5127  0.4924 -0.8077
 2496SOL     OW18949   3.440   4.176  16.455  0.2979 -0.0804  0.1166
 2496SOL    HW118950   3.425   4.254  16.402  1.7390  0.9046  1.1614
 2496SOL    HW218951   3.403   4.112  16.395  0.5625  0.3620 -0.5143
 2497SOL     OW18952   0.156   2.973   0.322  0.0420  0.0992  0.2061
 2497SOL    HW118953   0.192   3.061   0.326 -0.0304  0.0683  1.5873
 2497SOL    HW218954   0.163   2.959   0.227  0.3748 -2.9324  0.6701
 2498SOL     OW18955   1.444   3.241   7.742 -0.1446 -0.2824 -0.3402
 2498SOL    HW118956   1.441   3.176   7.812  0.6733 -0.0727 -0.1081
 2498SOL    HW218957   1.353   3.263   7.719 -0.9237 -1.4442  1.6813
 2499SOL     OW18958   3.343   0.250  11.476 -0.2755  0.3670  0.1269
 2499SOL    HW118959   3.260   0.226  11.435  0.4738  0.2150 -1.2872
 2499SOL    HW218960   3.392   0.167  11.475 -2.0001 -0.6421 -0.6307
 2500SOL     OW18961   0.747   3.595   7.231  0.2120 -0.4989  0.4508
 2500SOL    HW118962   0.801   3.553   7.297 -0.2529 -0.5840  0.7747
 2500SOL    HW218963   0.714   3.520   7.182  0.0791  0.5158 -1.0561
 2501SOL     OW18964   3.940   3.577   5.931 -0.0139 -0.2975 -0.2783
 2501SOL    HW118965   4.007   3.509   5.921  1.8601  1.9438 -3.0727
 2501SOL    HW218966   3.977   3.645   5.873 -0.8879 -0.5411 -1.1203
 2502SOL     OW18967   3.482   4.362   8.170  0.5637  0.4277  0.6200
 2502SOL    HW118968   3.415   4.296   8.189  1.2236 -1.1258 -2.5939
 2502SOL    HW218969   3.441   4.423   8.232  0.8129 -1.5643  2.7418
 2503SOL     OW18970   3.448   4.098  10.769  0.3571  0.2598  0.1146
 2503SOL    HW118971   3.391   4.153  10.822  0.5582  2.0313 -1.5120
 2503SOL    HW218972   3.518   4.075  10.829  0.4447  2.7865  0.9455
 2504SOL     OW18973   4.701   3.902   6.543  0.3688  0.1124  0.3523
 2504SOL    HW118974   4.703   3.996   6.561  2.3686 -0.0039  0.8028
 2504SOL    HW218975   0.044   3.895   6.475  0.0096  2.2701 -0.2154
 2505SOL     OW18976   1.509   4.127   8.125 -0.2333 -0.0542  0.1687
 2505SOL    HW118977   1.458   4.166   8.197  0.4807 -0.2237  0.7652
 2505SOL    HW218978   1.598   4.119   8.160 -0.6537 -0.5158  1.1399
 2506SOL     OW18979   4.630   3.104  13.846  0.4700 -0.3807 -0.4615
 2506SOL    HW118980   4.710   3.137  13.887 -0.7105  1.9281 -0.0326
 2506SOL    HW218981   4.590   3.181  13.805  0.0728  1.0043  2.4840
 2507SOL     OW18982   3.157   3.022   1.105 -0.1296  0.1348 -0.2962
 2507SOL    HW118983   3.232   2.977   1.066  1.7363  2.0161  1.0794
 2507SOL    HW218984   3.135   2.948   1.161  2.0402 -0.5383 -0.3115
 2508SOL     OW18985   2.740   3.590   7.153 -0.2992  0.2843  0.4319
 2508SOL    HW118986   2.820   3.554   7.191  0.8682  0.9459 -1.4072
 2508SOL    HW218987   2.669   3.551   7.203 -0.6479 -1.4137 -1.3827
 2509SOL     OW18988   3.969   3.264   6.334  0.8092 -0.1096 -0.2076
 2509SOL    HW118989   3.884   3.298   6.306  1.4747  2.2301  0.6256
 2509SOL    HW218990   4.011   3.342   6.370  0.4765 -0.6297  1.2889
 2510SOL     OW18991   1.615   3.815   0.476 -0.3589 -0.2116  0.6683
 2510SOL    HW118992   1.643   3.881   0.539  0.8970  1.1886 -1.3272
 2510SOL    HW218993   1.531   3.848   0.443 -0.7605 -0.9571  0.9368
 2511SOL     OW18994   0.814   4.164   0.526 -0.4427  0.6903  0.2846
 2511SOL    HW118995   0.850   4.109   0.596  0.3590 -0.8314 -1.3035
 2511SOL    HW218996   0.760   4.099   0.482  0.3319  1.6455 -2.0809
 2512SOL     OW18997   0.411   1.373   0.119 -0.2077 -0.6052  0.1071
 2512SOL    HW118998   0.431   1.289   0.162  0.8170  0.2133  1.2371
 2512SOL    HW218999   0.380   1.343   0.034 -1.0106  1.3451 -0.2887
 2513SOL     OW19000   2.010   0.702  10.614  0.4549  0.0835 -0.0134
 2513SOL    HW119001   2.087   0.756  10.631  1.2976 -1.2044  0.2926
 2513SOL    HW219002   1.939   0.766  10.617 -0.4476 -0.9812  1.4210
 2514SOL     OW19003   4.344   0.013   8.899 -0.1521 -0.1625  0.6847
 2514SOL    HW119004   4.296   0.096   8.896  0.4850  0.2267  1.2322
 2514SOL    HW219005   4.414   0.038   8.839 -0.9576 -3.1226 -1.4757
 2515SOL     OW19006   2.646   3.134   5.544 -0.3967 -1.1894  0.1003
 2515SOL    HW119007   2.570   3.188   5.565 -0.0933  0.0520 -1.9753
 2515SOL    HW219008   2.600   3.050   5.536 -0.9933 -0.8109 -0.4131
 2516SOL     OW19009   2.774   4.513  15.342 -0.5897 -0.0292 -0.3173
 2516SOL    HW119010   2.741   4.443  15.286 -1.6902  0.7414 -0.6319
 2516SOL    HW219011   2.774   4.473  15.429  3.1964 -0.3607 -0.4466
 2517SOL     OW19012   4.079   0.465  10.353  0.0608 -0.1688 -0.4690
 2517SOL    HW119013   4.061   0.487  10.444 -0.5184 -0.9029 -0.4059
 2517SOL    HW219014   4.015   0.516  10.304  0.8579  1.0677 -0.2116
 2518SOL     OW19015   4.205   1.775  10.375 -0.3232 -0.2569 -0.4991
 2518SOL    HW119016   4.292   1.771  10.413 -0.0321  0.5457 -1.0707
 2518SOL    HW219017   4.222   1.828  10.297  0.5967 -0.6152 -0.5394
 2519SOL     OW19018   0.872   0.409   4.843 -0.5252  0.0201  0.4706
 2519SOL    HW119019   0.833   0.407   4.755  0.3357  1.8254  0.0622
 2519SOL    HW219020   0.806   0.464   4.885  1.0688  0.5611  2.2404
 2520SOL     OW19021   0.600   3.906   5.077 -0.4804  0.0464  0.1175
 2520SOL    HW119022   0.547   3.950   5.011 -0.0958 -1.6695 -1.3559
 2520SOL    HW219023   0.683   3.891   5.031 -0.7339  0.4744 -0.4789
 2521SOL     OW19024   2.240   4.708   8.685 -0.2680  0.1999 -0.2229
 2521SOL    HW119025   2.214   4.655   8.761  0.7882  0.5391  0.3604
 2521SOL    HW219026   2.155   0.024   8.664 -1.4468 -0.5346  3.0508
 2522SOL     OW19027   0.591   4.024   3.094 -0.1154 -0.4340 -0.4181
 2522SOL    HW119028   0.504   4.063   3.099 -0.0628 -0.5665  1.6728
 2522SOL    HW219029   0.632   4.062   3.016  0.7397  0.5346  0.4925
 2523SOL     OW19030   2.150   2.103   5.721 -0.0534 -0.7096 -0.4394
 2523SOL    HW119031   2.136   2.050   5.642  0.2499 -0.7445 -0.4691
 2523SOL    HW219032   2.078   2.165   5.708 -0.2313  0.0219  4.2673
 2524SOL     OW19033   4.443   1.024  12.390 -0.4782 -0.0888  0.5459
 2524SOL    HW119034   4.389   0.959  12.345  0.5902 -0.6927  0.1302
 2524SOL    HW219035   4.374   1.082  12.422 -2.1646 -0.8597 -1.7062
 2525SOL     OW19036   1.782   2.472   7.877  0.5471  0.1804  0.4813
 2525SOL    HW119037   1.808   2.445   7.789 -1.7607  2.6881 -0.9317
 2525SOL    HW219038   1.802   2.564   7.864  0.4131  0.0462 -0.6597
 2526SOL     OW19039   4.539   0.212   3.633 -0.5129  0.4523  0.2635
 2526SOL    HW119040   4.571   0.237   3.719 -1.1190 -1.3091  1.0052
 2526SOL    HW219041   4.518   0.298   3.598  1.1661 -0.2531 -2.4989
 2527SOL     OW19042   3.327   3.962  15.128  0.8726 -0.5763 -0.1456
 2527SOL    HW119043   3.350   3.945  15.037  3.3914  1.4084  0.1428
 2527SOL    HW219044   3.328   4.058  15.128 -0.9868 -0.5536 -0.1901
 2528SOL     OW19045   1.856   0.605  13.476 -0.0494 -0.1843 -0.5044
 2528SOL    HW119046   1.855   0.701  13.477  0.5544 -0.2248  3.4813
 2528SOL    HW219047   1.774   0.584  13.432 -0.9917  0.2685  1.0424
 2529SOL     OW19048   4.130   0.181   9.199 -0.2481 -0.4825 -0.2341
 2529SOL    HW119049   4.072   0.140   9.135  0.4587 -1.4269 -0.2706
 2529SOL    HW219050   4.206   0.123   9.195  0.0652 -0.1937  1.6381
 2530SOL     OW19051   0.685   2.033   4.358  0.2148  0.1126 -0.1409
 2530SOL    HW119052   0.641   2.117   4.371  0.8573  0.6622 -1.5022
 2530SOL    HW219053   0.727   2.039   4.272 -1.8632  0.2356 -1.1360
 2531SOL     OW19054   2.776   3.175   2.871 -0.6646 -0.1479 -0.3304
 2531SOL    HW119055   2.847   3.124   2.832 -0.3829 -0.0703  0.0740
 2531SOL    HW219056   2.791   3.164   2.965  2.4744  0.7965 -0.7154
 2532SOL     OW19057   0.481   0.751   8.113 -0.2000 -0.0549 -0.4333
 2532SOL    HW119058   0.457   0.831   8.067 -3.6883 -1.3699 -0.9008
 2532SOL    HW219059   0.568   0.742   8.074 -0.6047 -0.1954 -1.3041
 2533SOL     OW19060   4.650   2.866   4.554  0.2663 -0.0262 -0.8236
 2533SOL    HW119061   0.017   2.864   4.584  0.9819  2.3610 -2.9154
 2533SOL    HW219062   4.613   2.924   4.621  0.3194 -0.6411 -0.2655
 2534SOL     OW19063   0.983   2.655  13.816  0.2016  0.4475 -0.0959
 2534SOL    HW119064   0.934   2.730  13.781 -1.5579 -0.7201 -0.1185
 2534SOL    HW219065   1.062   2.674  13.766 -1.0676  1.2251 -1.7844
 2535SOL     OW19066   3.343   4.572   8.826 -0.1147 -0.4242 -0.7196
 2535SOL    HW119067   3.292   4.504   8.869 -3.2881  0.8086 -2.5386
 2535SOL    HW219068   3.287   4.602   8.754 -2.8669 -0.5143  1.3938
 2536SOL     OW19069   2.940   2.281  11.634 -0.6854 -0.1647 -0.1346
 2536SOL    HW119070   2.870   2.320  11.582 -0.5134  0.9648  0.4721
 2536SOL    HW219071   2.886   2.252  11.708 -0.1719 -1.9273 -0.4455
 2537SOL     OW19072   1.402   0.336   3.989 -0.1124 -0.8399  0.4755
 2537SOL    HW119073   1.491   0.321   3.958  0.9688 -0.9009  3.6164
 2537SOL    HW219074   1.398   0.299   4.077  0.7395 -0.2858  0.7483
 2538SOL     OW19075   2.522   1.820   6.681  0.0806  0.1927  0.0317
 2538SOL    HW119076   2.594   1.757   6.673  0.8175  0.8672  1.4292
 2538SOL    HW219077   2.457   1.769   6.729  0.4971 -0.8041 -0.4604
 2539SOL     OW19078   1.716   1.858   5.261 -0.2864 -0.1159  0.3524
 2539SOL    HW119079   1.714   1.953   5.249  1.6652 -0.1693 -0.2838
 2539SOL    HW219080   1.726   1.822   5.173 -1.1091 -3.6285  1.6847
 2540SOL     OW19081   3.940   0.599  11.547  0.2940 -0.3052 -0.5859
 2540SOL    HW119082   3.915   0.692  11.550  0.7228 -0.2621  2.0301
 2540SOL    HW219083   4.022   0.592  11.596  0.5581  1.1349 -0.8218
 2541SOL     OW19084   2.099   0.068   7.101 -0.2384  0.7622  0.0947
 2541SOL    HW119085   2.107   4.701   7.131  3.2000  1.0985  0.2955
 2541SOL    HW219086   2.167   0.116   7.149  0.3644 -1.3646  1.3454
 2542SOL     OW19087   3.244   1.315   4.512  0.1962 -0.2477 -0.0545
 2542SOL    HW119088   3.331   1.353   4.520  0.1580  0.1941 -1.7655
 2542SOL    HW219089   3.221   1.308   4.605  1.4562 -0.5729  0.2414
 2543SOL     OW19090   0.306   2.304   0.442 -0.2344 -0.0943 -0.0117
 2543SOL    HW119091   0.317   2.360   0.365  2.4615 -1.7485 -0.8579
 2543SOL    HW219092   0.343   2.227   0.398 -2.5705 -1.7335  0.9361
 2544SOL     OW19093   0.867   2.027   3.755  0.2575 -0.2023  0.3086
 2544SOL    HW119094   0.918   1.953   3.721 -0.1243  0.6065 -2.0405
 2544SOL    HW219095   0.778   1.996   3.738  1.4537 -2.9825 -0.8731
 2545SOL     OW19096   2.142   2.300   8.492 -0.1095  0.1323 -0.2729
 2545SOL    HW119097   2.169   2.278   8.581  2.0445  0.9077 -0.7365
 2545SOL    HW219098   2.050   2.319   8.514 -0.5130 -3.1219  0.8253
 2546SOL     OW19099   4.567   3.334   8.859 -0.0120 -0.1649 -0.0732
 2546SOL    HW119100   4.642   3.329   8.800  0.6461  0.5134  0.6986
 2546SOL    HW219101   4.601   3.389   8.930  2.0385 -1.8872  0.2489
 2547SOL     OW19102   1.618   3.393   5.372  1.0442 -0.0505  0.3495
 2547SOL    HW119103   1.695   3.336   5.374  0.7891 -0.4055 -0.2834
 2547SOL    HW219104   1.590   3.390   5.463  0.4033 -2.0671  0.0777
 2548SOL     OW19105   1.473   3.236  17.002  0.3057 -0.0198  0.3572
 2548SOL    HW119106   1.546   3.289  17.035  0.5980 -0.1750 -0.0445
 2548SOL    HW219107   1.404   3.266  17.062  0.1336 -1.9562  1.1366
 2549SOL     OW19108   4.715   2.446   5.450  0.6253  0.6961 -0.2282
 2549SOL    HW119109   4.668   2.378   5.403 -3.6090  1.9853  2.1052
 2549SOL    HW219110   4.668   2.453   5.534 -0.5552 -1.1153 -0.7452
 2550SOL     OW19111   0.341   0.473  13.939 -0.0761  0.1709 -0.1676
 2550SOL    HW119112   0.360   0.389  13.897  1.8321  0.1441  0.7552
 2550SOL    HW219113   0.254   0.493  13.903 -0.9892  0.4287  2.2027
 2551SOL     OW19114   4.143   0.304   2.264 -0.4115 -0.5601 -0.2617
 2551SOL    HW119115   4.052   0.333   2.263  1.0596  3.9173 -1.3030
 2551SOL    HW219116   4.143   0.213   2.295  0.0441  0.6950  3.3373
 2552SOL     OW19117   4.489   1.165  11.284  0.6874  0.1883  0.4250
 2552SOL    HW119118   4.432   1.120  11.222  0.5737  1.9669 -0.7752
 2552SOL    HW219119   4.418   1.178  11.346  0.6835 -0.1263  0.4879
 2553SOL     OW19120   1.688   2.022  13.110  0.3224 -0.4473  0.2247
 2553SOL    HW119121   1.768   2.018  13.058 -0.7792  1.1912 -1.6037
 2553SOL    HW219122   1.710   1.982  13.194 -1.5937 -2.6000 -0.2911
 2554SOL     OW19123   3.775   4.229   8.778 -0.0996 -0.0542  0.5600
 2554SOL    HW119124   3.755   4.274   8.696  1.6570  1.8192  1.1281
 2554SOL    HW219125   3.837   4.291   8.819  1.2663 -1.0538  0.0120
 2555SOL     OW19126   0.895   0.128   5.016 -0.5261 -0.1723  0.0504
 2555SOL    HW119127   0.953   0.086   4.952 -1.0153  0.6604 -0.9259
 2555SOL    HW219128   0.879   0.211   4.971 -0.7370  0.2078  0.8226
 2556SOL     OW19129   1.292   1.714   5.095  0.2868 -0.4050  0.2013
 2556SOL    HW119130   1.325   1.756   5.015  0.6576 -0.6132  0.2449
 2556SOL    HW219131   1.346   1.635   5.100 -0.5461 -1.0481 -0.9928
 2557SOL     OW19132   1.164   2.042   4.228 -0.3338  0.3629  0.5991
 2557SOL    HW119133   1.149   2.053   4.134 -0.0101 -1.6345  0.2960
 2557SOL    HW219134   1.247   2.088   4.242 -0.3157  0.5162 -0.0349
 2558SOL     OW19135   2.936   2.009  16.586  0.2194 -0.1811 -0.3803
 2558SOL    HW119136   3.019   1.975  16.553  0.2263  1.6162 -2.2523
 2558SOL    HW219137   2.938   1.983  16.677  1.1920 -1.4611 -0.7768
 2559SOL     OW19138   2.438   3.048  10.588 -0.3377  0.5796  0.2326
 2559SOL    HW119139   2.457   3.061  10.680  0.5518  1.0014 -0.0082
 2559SOL    HW219140   2.444   2.952  10.593  0.6394  0.7142  1.6342
 2560SOL     OW19141   1.806   3.269  11.052  0.6280  0.6817  0.2477
 2560SOL    HW119142   1.731   3.210  11.052  1.6962 -0.6747 -4.0234
 2560SOL    HW219143   1.773   3.348  11.095  0.4552  0.8394 -0.1652
 2561SOL     OW19144   0.944   1.305   3.288  0.8105 -0.8947  0.2669
 2561SOL    HW119145   0.947   1.215   3.319  0.8436 -0.7881  0.5755
 2561SOL    HW219146   1.014   1.301   3.224  2.6861  1.1615  2.1728
 2562SOL     OW19147   3.100   4.696   5.377 -0.6662  0.0526  0.0252
 2562SOL    HW119148   3.061   4.621   5.423  0.2464 -0.3585  0.1390
 2562SOL    HW219149   3.171   4.650   5.332 -1.9012 -1.4232 -0.4537
 2563SOL     OW19150   1.202   3.921   3.109 -0.5315  0.0575 -0.1485
 2563SOL    HW119151   1.135   3.975   3.151 -1.6122  0.2743 -2.1401
 2563SOL    HW219152   1.225   3.975   3.033  2.7884 -1.4378 -0.2079
 2564SOL     OW19153   0.014   3.451   0.932  0.2275  0.2868 -0.0893
 2564SOL    HW119154   0.097   3.441   0.979  0.4977  0.2889 -0.5562
 2564SOL    HW219155   4.713   3.361   0.910  0.4344 -0.1965  1.7070
 2565SOL     OW19156   4.354   3.704   3.176 -0.1143 -0.0143  0.2223
 2565SOL    HW119157   4.273   3.653   3.166 -1.4852  2.0619  0.8304
 2565SOL    HW219158   4.346   3.753   3.094  1.1716  0.0588  0.1407
 2566SOL     OW19159   2.500   2.179   8.479 -0.3337 -0.2760 -0.9695
 2566SOL    HW119160   2.470   2.116   8.545 -1.2291  0.8764 -0.2875
 2566SOL    HW219161   2.421   2.230   8.464 -0.4796 -0.0641  0.5248
 2567SOL     OW19162   3.559   0.725  10.949 -0.1417 -1.0175 -0.1155
 2567SOL    HW119163   3.634   0.677  10.982  0.7774  1.1981  1.0023
 2567SOL    HW219164   3.486   0.667  10.969 -1.3984  0.5716 -0.0537
 2568SOL     OW19165   1.434   2.659  11.945  0.4664 -0.0560 -0.6081
 2568SOL    HW119166   1.481   2.584  11.910  0.1156 -0.6636  0.2129
 2568SOL    HW219167   1.387   2.680  11.864 -2.3624 -2.7690  0.3464
 2569SOL     OW19168   3.828   0.863   2.399 -0.1745  0.3719  0.0345
 2569SOL    HW119169   3.734   0.850   2.394 -0.5268  3.1461 -0.8146
 2569SOL    HW219170   3.845   0.905   2.315 -1.6073 -0.1379 -0.5041
 2570SOL     OW19171   4.300   0.658   8.226 -0.0372  0.0231  0.6488
 2570SOL    HW119172   4.379   0.670   8.174 -2.0133 -0.2450 -2.4232
 2570SOL    HW219173   4.235   0.612   8.174 -0.2829 -0.3837  1.3098
 2571SOL     OW19174   1.959   0.630   3.540  0.5909  0.3802 -1.0022
 2571SOL    HW119175   2.025   0.656   3.604  0.0203 -2.3676  0.6999
 2571SOL    HW219176   2.016   0.582   3.480  0.4552 -2.2682  0.9709
 2572SOL     OW19177   4.049   3.234   8.527 -0.1517  0.2713 -0.3967
 2572SOL    HW119178   4.091   3.318   8.511  2.4509 -0.7542  0.9898
 2572SOL    HW219179   3.992   3.230   8.450 -0.2730  0.6538 -0.3261
 2573SOL     OW19180   0.725   2.603  14.154  0.2717  0.2070  0.0665
 2573SOL    HW119181   0.741   2.614  14.247  1.3579 -0.2274 -0.0591
 2573SOL    HW219182   0.814   2.569  14.138  0.3765  0.5902 -0.1647
 2574SOL     OW19183   1.615   1.155   7.523 -0.3557 -0.4070 -0.4767
 2574SOL    HW119184   1.535   1.189   7.563  0.0330  0.1528 -0.1755
 2574SOL    HW219185   1.668   1.126   7.597 -0.6040 -1.1064 -0.5690
 2575SOL     OW19186   3.112   2.951  14.459  0.0638  0.4047 -0.3506
 2575SOL    HW119187   3.113   2.939  14.554 -0.7352  1.5520 -0.1934
 2575SOL    HW219188   3.161   3.034  14.455  2.2965 -0.7028  3.5754
 2576SOL     OW19189   2.944   3.703  16.077 -0.1063 -0.6494 -0.0735
 2576SOL    HW119190   2.947   3.649  15.997  0.9135 -0.1960 -0.3397
 2576SOL    HW219191   3.036   3.711  16.099 -0.2381  0.5511  0.0161
 2577SOL     OW19192   3.652   2.790   5.009  0.4268  0.4864 -0.3661
 2577SOL    HW119193   3.597   2.831   5.075 -2.9734 -4.0800 -0.4062
 2577SOL    HW219194   3.641   2.699   5.036  4.1924  0.0607 -0.2156
 2578SOL     OW19195   1.502   1.025  13.055 -0.2401 -0.1271  0.1871
 2578SOL    HW119196   1.512   1.093  13.122 -1.8934  0.3529 -0.0467
 2578SOL    HW219197   1.543   0.955  13.105  0.5091 -0.0754 -0.3584
 2579SOL     OW19198   3.846   1.782   7.103  0.3024 -0.5455 -0.3880
 2579SOL    HW119199   3.777   1.750   7.045 -0.7872  0.0101  0.6286
 2579SOL    HW219200   3.923   1.728   7.084  0.3013 -0.4947 -0.5417
 2580SOL     OW19201   4.026   3.004   6.434  0.7172  0.3490  0.0569
 2580SOL    HW119202   3.990   3.093   6.428 -0.1593 -0.0851 -1.1733
 2580SOL    HW219203   4.014   2.976   6.525  0.3310  0.6745  0.1104
 2581SOL     OW19204   1.081   1.778   4.729 -0.0533  0.2800  0.3120
 2581SOL    HW119205   0.986   1.783   4.741  0.0497  0.6898  0.9594
 2581SOL    HW219206   1.110   1.868   4.740 -1.4069  0.7320  0.2565
 2582SOL     OW19207   0.772   1.371   3.062 -0.6750 -0.0385 -0.2711
 2582SOL    HW119208   0.725   1.431   3.120 -0.6203  1.7404 -2.0864
 2582SOL    HW219209   0.835   1.326   3.119 -1.0168 -2.6703 -1.9697
 2583SOL     OW19210   0.503   3.637  12.438 -0.0087  0.9363 -0.3619
 2583SOL    HW119211   0.566   3.565  12.445 -1.2581  0.3481  4.6628
 2583SOL    HW219212   0.516   3.673  12.526  0.7684  0.7916 -0.4199
 2584SOL     OW19213   1.544   3.457   6.038  0.5838 -0.1443 -0.4883
 2584SOL    HW119214   1.512   3.374   6.003 -1.0122  0.9585 -1.6350
 2584SOL    HW219215   1.495   3.458   6.120  0.1560 -1.9122 -0.7238
 2585SOL     OW19216   1.912   0.153   9.163 -0.5471 -1.1890 -0.6227
 2585SOL    HW119217   1.818   0.141   9.150 -0.4644  1.1477 -3.2563
 2585SOL    HW219218   1.917   0.186   9.253 -0.4874  0.6304 -1.2960
 2586SOL     OW19219   3.169   4.184  12.165  0.2968  0.2964  0.2017
 2586SOL    HW119220   3.074   4.188  12.174  0.1430  1.5942 -1.9608
 2586SOL    HW219221   3.197   4.135  12.243 -1.7432  1.5660  1.7274
 2587SOL     OW19222   0.948   0.311   6.146  0.0414 -0.1388 -0.0333
 2587SOL    HW119223   1.011   0.314   6.075  1.8283 -1.1109  1.5009
 2587SOL    HW219224   0.868   0.302   6.094 -0.4530  4.0603  0.0324
 2588SOL     OW19225   4.596   2.914   9.296  0.5770 -0.0683 -0.3670
 2588SOL    HW119226   4.601   3.009   9.286  2.0484 -0.2420 -1.3785
 2588SOL    HW219227   4.659   2.908   9.368 -0.5286  0.0082  0.6030
 2589SOL     OW19228   4.528   1.063   2.480 -0.0781  0.1982  0.1287
 2589SOL    HW119229   4.489   1.126   2.540  1.0178 -0.1171  1.1772
 2589SOL    HW219230   4.510   0.976   2.516  2.5214  0.0143  0.9775
 2590SOL     OW19231   4.519   3.358   2.259  0.2008  0.3017  1.2823
 2590SOL    HW119232   4.578   3.291   2.224  0.5924  0.0536  2.4338
 2590SOL    HW219233   4.439   3.352   2.207  1.5263  1.0088 -0.8726
 2591SOL     OW19234   3.570   0.397   3.417 -0.5046 -0.3612 -0.2230
 2591SOL    HW119235   3.490   0.362   3.380 -0.1536 -0.9796 -0.3893
 2591SOL    HW219236   3.644   0.369   3.362  0.9139  0.7531  1.1029
 2592SOL     OW19237   2.628   1.734   6.359  0.4994 -0.1028 -0.1258
 2592SOL    HW119238   2.650   1.721   6.451  0.6770 -0.2978 -0.1955
 2592SOL    HW219239   2.662   1.651   6.326  0.1270 -0.5083  0.4921
 2593SOL     OW19240   1.770   4.436  13.193  0.1559  0.0257  0.0299
 2593SOL    HW119241   1.726   4.480  13.120 -1.0852  1.6970  1.7928
 2593SOL    HW219242   1.725   4.352  13.187  1.2290 -0.6544  1.7303
 2594SOL     OW19243   4.613   4.679   3.357 -0.0123 -0.0765 -0.1670
 2594SOL    HW119244   4.655   4.719   3.433 -0.3323  1.6305 -0.8952
 2594SOL    HW219245   4.633   0.020   3.290 -1.8123  0.6488  0.0197
 2595SOL     OW19246   3.623   1.145   4.542 -0.3123  0.2975  0.2949
 2595SOL    HW119247   3.559   1.214   4.526 -0.3314  0.4539  1.0312
 2595SOL    HW219248   3.690   1.194   4.590 -0.3386  1.0272 -0.4275
 2596SOL     OW19249   2.238   3.807  14.939  0.2890  0.0764  0.1576
 2596SOL    HW119250   2.170   3.873  14.929  1.1145  0.5323 -2.4885
 2596SOL    HW219251   2.201   3.744  15.001 -1.1412 -0.1962 -0.9988
 2597SOL     OW19252   1.420   1.036  13.737 -0.4105 -0.2050 -0.3389
 2597SOL    HW119253   1.493   1.047  13.797 -2.0074 -2.0674  1.9697
 2597SOL    HW219254   1.457   1.007  13.654 -0.4618 -2.2103  0.3353
 2598SOL     OW19255   1.725   0.342  12.777  0.0561 -0.3215 -0.2810
 2598SOL    HW119256   1.757   0.381  12.696  1.3739 -0.9128 -0.0377
 2598SOL    HW219257   1.812   0.315  12.806  0.4752  0.0694 -1.1801
 2599SOL     OW19258   0.851   4.006   1.900  0.0040 -0.1947  0.3384
 2599SOL    HW119259   0.860   4.053   1.817 -0.7041  0.5222  0.6642
 2599SOL    HW219260   0.916   4.048   1.955  0.8904 -0.8052 -0.2500
 2600SOL     OW19261   1.678   1.681   0.481 -0.4089 -0.4182  0.1226
 2600SOL    HW119262   1.731   1.617   0.433  0.7331 -0.3760  1.3372
 2600SOL    HW219263   1.716   1.666   0.568  1.6689  2.1110 -0.3692
 2601SOL     OW19264   2.634   4.091   6.858  0.2908 -0.0519 -0.3593
 2601SOL    HW119265   2.658   4.099   6.950 -0.8247  0.2095 -0.0881
 2601SOL    HW219266   2.582   4.010   6.854  0.0451  0.0625  0.5071
 2602SOL     OW19267   1.605   4.509   8.893  0.9245 -0.0332  0.7338
 2602SOL    HW119268   1.688   4.543   8.927  0.9824 -1.7728  2.3477
 2602SOL    HW219269   1.588   4.421   8.927 -0.4608  0.2280  0.7307
 2603SOL     OW19270   0.480   3.930   6.413  0.5924 -0.0893  0.1599
 2603SOL    HW119271   0.484   4.025   6.426  0.0332 -0.0988  0.3934
 2603SOL    HW219272   0.538   3.927   6.337 -0.8754  0.1163 -0.9538
 2604SOL     OW19273   4.502   2.514   1.742 -0.5703  0.3986 -0.1246
 2604SOL    HW119274   4.567   2.444   1.750  0.6530  1.4400 -1.0109
 2604SOL    HW219275   4.500   2.542   1.651  2.4307  2.1393  0.3384
 2605SOL     OW19276   1.836   0.959   8.104  0.7692  0.2958 -0.0356
 2605SOL    HW119277   1.782   0.886   8.073 -0.1636  1.3040 -0.8188
 2605SOL    HW219278   1.781   1.008   8.166  0.9779 -1.2699  1.3744
 2606SOL     OW19279   2.181   1.443   1.028  0.0413 -0.3957 -0.9591
 2606SOL    HW119280   2.172   1.489   1.112  0.3906 -1.8139 -0.1490
 2606SOL    HW219281   2.274   1.422   1.029  0.0648 -0.2660  0.4037
 2607SOL     OW19282   4.625   1.838  16.649  0.3465 -0.0010  0.3576
 2607SOL    HW119283   4.622   1.890  16.729  0.7247 -0.5630  0.7362
 2607SOL    HW219284   4.635   1.908  16.584  3.6229  0.5367  1.4385
 2608SOL     OW19285   3.016   4.588   8.344 -0.4778 -0.4669 -0.0836
 2608SOL    HW119286   3.034   4.495   8.357 -2.4104 -0.9502 -0.7892
 2608SOL    HW219287   3.048   4.596   8.254 -2.5739  2.2082 -0.5830
 2609SOL     OW19288   0.297   2.782   6.458  0.5476  0.1751 -0.4186
 2609SOL    HW119289   0.205   2.799   6.438  0.9631  2.4429 -0.3507
 2609SOL    HW219290   0.339   2.866   6.439 -0.3352  0.6240 -0.3826
 2610SOL     OW19291   0.895   2.786   2.642  0.2826  0.5280  0.5945
 2610SOL    HW119292   0.938   2.861   2.682  1.0008  0.6843 -0.4963
 2610SOL    HW219293   0.926   2.802   2.553  3.7340 -0.7077  1.5882
 2611SOL     OW19294   0.884   1.375   5.357  0.3217  0.3407 -0.6692
 2611SOL    HW119295   0.823   1.449   5.355 -0.2886 -0.1269  2.3102
 2611SOL    HW219296   0.865   1.345   5.445  2.0054  1.3644  0.0585
 2612SOL     OW19297   3.535   4.516  14.776 -0.3469  0.7961  0.2997
 2612SOL    HW119298   3.510   4.497  14.867 -0.8615  0.9393  0.1907
 2612SOL    HW219299   3.471   4.582  14.750 -1.1958 -0.0515  0.2575
 2613SOL     OW19300   0.685   3.124   6.460  0.2292 -0.1581  0.0750
 2613SOL    HW119301   0.724   3.053   6.513 -2.1092  0.1657  2.2335
 2613SOL    HW219302   0.696   3.197   6.521  0.8103  2.3424 -3.0343
 2614SOL     OW19303   2.491   0.438  15.850  0.3646 -0.1676 -0.0411
 2614SOL    HW119304   2.490   0.484  15.934 -1.5621  0.8770 -0.6510
 2614SOL    HW219305   2.580   0.449  15.816  1.2515 -0.8958  2.0290
 2615SOL     OW19306   3.100   0.957   2.038 -0.0154 -0.9537 -0.1473
 2615SOL    HW119307   3.109   0.924   1.949  1.3099 -0.7469 -0.0973
 2615SOL    HW219308   3.006   0.943   2.052 -0.3451  0.6595 -0.7953
 2616SOL     OW19309   2.275   1.910  12.444  0.3158  0.5867  0.4262
 2616SOL    HW119310   2.239   1.974  12.383 -0.1055 -0.7389 -0.6880
 2616SOL    HW219311   2.367   1.935  12.435  0.5102 -0.5007 -0.5125
 2617SOL     OW19312   3.777   1.353   6.477  0.6013  0.2149  0.1540
 2617SOL    HW119313   3.748   1.347   6.385  0.8296  0.4665  0.0640
 2617SOL    HW219314   3.742   1.269   6.506 -0.4265  0.4124 -0.4936
 2618SOL     OW19315   0.032   0.161   0.385  0.3839  0.7399  0.1556
 2618SOL    HW119316   0.056   0.254   0.383 -0.9472  1.0191 -3.5533
 2618SOL    HW219317   4.707   0.168   0.467 -2.1932  1.4675 -1.4106
 2619SOL     OW19318   3.410   3.246   7.156  0.4100  0.5286 -0.1455
 2619SOL    HW119319   3.494   3.200   7.165  0.1408  0.5738  2.6718
 2619SOL    HW219320   3.367   3.227   7.239  3.3973 -1.9214  0.8507
 2620SOL     OW19321   4.121   4.073  14.394 -0.2114  0.1435 -0.5058
 2620SOL    HW119322   4.047   4.095  14.338  0.4291  0.4269 -1.2375
 2620SOL    HW219323   4.175   4.045  14.320  0.6301  0.1526  0.1030
 2621SOL     OW19324   1.905   4.214   5.057 -0.3669 -0.1787 -0.2847
 2621SOL    HW119325   1.813   4.202   5.079 -0.5612  1.2941 -0.3288
 2621SOL    HW219326   1.936   4.126   5.033  1.1747  0.3811 -0.3965
 2622SOL     OW19327   0.217   0.705  14.984 -0.4170 -0.2240 -0.0069
 2622SOL    HW119328   0.176   0.758  14.916 -0.8305 -1.8299 -0.9972
 2622SOL    HW219329   0.183   0.618  14.962 -0.3713 -0.1829 -0.2411
 2623SOL     OW19330   2.101   3.332   3.846  1.0953 -0.4938 -0.3551
 2623SOL    HW119331   2.160   3.257   3.844  0.4647 -0.9738 -0.4731
 2623SOL    HW219332   2.019   3.293   3.875  0.6517  0.0887 -0.8475
 2624SOL     OW19333   0.343   0.891  14.063 -0.4132  0.1900 -0.7526
 2624SOL    HW119334   0.260   0.888  14.015 -0.1398 -0.0125 -1.2206
 2624SOL    HW219335   0.376   0.972  14.024  0.7646  0.0343 -0.0714
 2625SOL     OW19336   0.171   2.579   9.402 -0.6456 -0.1092  0.5961
 2625SOL    HW119337   0.225   2.507   9.370 -3.4996 -1.4260 -1.3588
 2625SOL    HW219338   0.087   2.536   9.418 -0.7552 -0.1522 -0.0693
 2626SOL     OW19339   4.457   0.510  16.774  0.5449  0.0577  0.8671
 2626SOL    HW119340   4.505   0.443  16.823  0.5828 -0.3585  0.2589
 2626SOL    HW219341   4.464   0.481  16.683 -1.7920  0.5342  0.5604
 2627SOL     OW19342   1.828   2.667   4.942 -0.4749  0.1430  0.2755
 2627SOL    HW119343   1.812   2.603   4.873  0.5232 -0.3385  0.4922
 2627SOL    HW219344   1.895   2.721   4.900 -0.2078  0.4024  1.0434
 2628SOL     OW19345   3.278   4.001   3.980  0.1214 -0.5652 -0.2383
 2628SOL    HW119346   3.362   4.028   3.942  0.8016 -0.9910  0.9557
 2628SOL    HW219347   3.297   3.980   4.071  0.8462 -1.3509 -0.5714
 2629SOL     OW19348   2.189   3.855  17.517 -0.0270 -0.4624  0.0016
 2629SOL    HW119349   2.209   3.942  17.484 -1.6508 -0.1478 -0.1688
 2629SOL    HW219350   2.093   3.854  17.516 -0.0573  0.3241  3.1736
 2630SOL     OW19351   1.035   3.383   4.188  0.4743  0.1740  0.4967
 2630SOL    HW119352   1.042   3.478   4.179 -1.2759 -0.0688 -3.5100
 2630SOL    HW219353   0.941   3.370   4.201  0.6194 -0.2174  1.1473
 2631SOL     OW19354   1.968   1.258   4.712 -0.0655  0.5790  0.1646
 2631SOL    HW119355   1.877   1.288   4.718  0.4795  1.8576  2.4182
 2631SOL    HW219356   2.017   1.338   4.732 -1.3061  0.9881  1.6535
 2632SOL     OW19357   0.818   4.232   4.535  0.0337 -0.5749  0.5942
 2632SOL    HW119358   0.899   4.261   4.576 -0.2202 -1.0299  1.4188
 2632SOL    HW219359   0.806   4.297   4.466  1.0364 -0.2890  0.6966
 2633SOL     OW19360   4.636   3.995   7.375 -0.5530  0.7132 -0.0437
 2633SOL    HW119361   4.655   3.917   7.323  0.5050  1.3602 -0.6264
 2633SOL    HW219362   4.600   4.058   7.313  0.1470  1.0546 -0.1012
 2634SOL     OW19363   3.792   4.610  16.072  0.3923  0.3143  0.1733
 2634SOL    HW119364   3.869   4.619  16.016  1.1977  0.3163  1.2753
 2634SOL    HW219365   3.798   4.688  16.127 -1.0435 -0.2405  1.1084
 2635SOL     OW19366   4.632   1.064   7.131  0.3198 -0.1141 -0.3575
 2635SOL    HW119367   4.567   1.130   7.105  0.1415 -0.5207 -0.9324
 2635SOL    HW219368   4.687   1.063   7.053 -0.1335  2.0628 -0.7263
 2636SOL     OW19369   2.085   0.032   9.562 -0.1161  0.3458 -0.3028
 2636SOL    HW119370   2.033   0.021   9.642  1.7327 -0.0909  0.8307
 2636SOL    HW219371   2.056   0.121   9.542 -2.2944 -0.4193 -0.5823
 2637SOL     OW19372   3.912   3.850   1.964  0.5238 -0.2594 -0.2944
 2637SOL    HW119373   3.961   3.926   1.995  0.9814 -0.0732 -1.4797
 2637SOL    HW219374   3.915   3.845   1.869 -0.0054  0.4549 -0.3534
 2638SOL     OW19375   0.233   3.244   1.717  0.3518 -0.2294  0.5457
 2638SOL    HW119376   0.325   3.266   1.699  0.4170 -2.2011 -1.4250
 2638SOL    HW219377   0.196   3.274   1.634  1.6280  0.5040  0.2241
 2639SOL     OW19378   3.814   4.714   3.953 -0.6259  0.4508  0.1661
 2639SOL    HW119379   3.836   4.674   4.037  2.7673  1.0811 -0.4092
 2639SOL    HW219380   3.902   4.709   3.916 -1.0971  1.7256 -1.1229
 2640SOL     OW19381   1.875   4.382   9.300  0.3761 -0.2751  0.1825
 2640SOL    HW119382   1.949   4.440   9.280  0.2261 -0.0530  0.2762
 2640SOL    HW219383   1.838   4.423   9.378 -0.9326 -0.5762 -0.2794
 2641SOL     OW19384   0.038   2.605   2.843 -0.5639 -0.1912  0.4544
 2641SOL    HW119385   0.027   2.514   2.817  1.6184  0.0569 -1.3396
 2641SOL    HW219386   0.130   2.615   2.819 -0.0503  1.8522  3.3389
 2642SOL     OW19387   3.004   4.635   3.273 -0.0518  0.3249 -0.3244
 2642SOL    HW119388   2.946   4.678   3.209  1.2856  2.0069 -0.4123
 2642SOL    HW219389   3.058   4.579   3.218 -0.6618 -1.9643  1.4345
 2643SOL     OW19390   2.687   4.527  15.632  0.4113  0.4728 -0.6221
 2643SOL    HW119391   2.696   4.623  15.638  1.4407  0.2812  0.8204
 2643SOL    HW219392   2.632   4.513  15.709 -0.8219  0.3284 -1.5269
 2644SOL     OW19393   1.381   0.274   4.774  0.1571  0.7431  0.2335
 2644SOL    HW119394   1.345   0.236   4.693  1.8976  1.7089 -0.9866
 2644SOL    HW219395   1.307   0.326   4.806  0.1485  1.3051 -0.6704
 2645SOL     OW19396   3.102   3.271   3.884  0.1182 -0.0809  0.1350
 2645SOL    HW119397   3.087   3.270   3.978 -2.8925 -1.2283 -0.3621
 2645SOL    HW219398   3.071   3.353   3.847 -0.0934  0.0506  0.6074
 2646SOL     OW19399   2.226   1.670  16.932 -0.1324 -0.0557 -0.3171
 2646SOL    HW119400   2.253   1.698  17.020 -0.2329 -0.4964 -0.1485
 2646SOL    HW219401   2.209   1.757  16.895 -2.8370 -0.0245  0.9569
 2647SOL     OW19402   2.086   2.020  17.626  0.1605 -0.6601 -0.4753
 2647SOL    HW119403   2.167   2.048  17.582  0.3918 -2.6110 -1.2824
 2647SOL    HW219404   2.109   2.049   0.018  0.9945 -1.3034 -0.4796
 2648SOL     OW19405   2.105   4.512   0.301  0.6406 -0.9061  0.0608
 2648SOL    HW119406   2.148   4.439   0.346  1.7984  1.2886  2.4524
 2648SOL    HW219407   2.097   4.478   0.211  2.1217  0.5420 -0.6086
 2649SOL     OW19408   4.528   2.360   9.403 -0.3243  0.4716 -0.0699
 2649SOL    HW119409   4.608   2.314   9.378  0.0770  0.9790  0.2516
 2649SOL    HW219410   4.466   2.345   9.332 -0.7413  0.5418  0.2818
 2650SOL     OW19411   0.063   3.435   8.276 -0.0242  0.4047  0.2659
 2650SOL    HW119412   0.070   3.486   8.356  1.9135  0.6974 -0.0826
 2650SOL    HW219413   4.694   3.413   8.277  0.1843 -0.6375 -2.9257
 2651SOL     OW19414   4.470   0.714   4.186  0.8930  0.3795 -0.3358
 2651SOL    HW119415   4.452   0.751   4.099  0.9356  0.3571 -0.3544
 2651SOL    HW219416   4.544   0.657   4.165 -0.0321 -1.4148  1.3086
 2652SOL     OW19417   2.401   0.668  16.376  0.1304  0.3492 -0.1813
 2652SOL    HW119418   2.361   0.746  16.413 -1.2783  0.1412 -1.2515
 2652SOL    HW219419   2.434   0.632  16.458 -1.3408 -2.8718 -1.0059
 2653SOL     OW19420   4.709   0.860   4.376 -0.0136 -0.4736  0.8338
 2653SOL    HW119421   0.010   0.944   4.338 -0.7708 -1.0510 -0.9488
 2653SOL    HW219422   4.622   0.841   4.339 -0.5132  2.0483  0.7173
 2654SOL     OW19423   0.612   2.126   2.587 -0.0752  0.0465  0.4935
 2654SOL    HW119424   0.576   2.060   2.646  0.4488 -0.8966 -0.2349
 2654SOL    HW219425   0.676   2.076   2.536 -0.1913 -0.3058  0.6874
 2655SOL     OW19426   0.997   4.425   4.393 -0.2241 -0.2395  0.0956
 2655SOL    HW119427   1.019   4.350   4.337 -2.3004  0.1585 -1.2246
 2655SOL    HW219428   1.080   4.460   4.426 -0.7039  0.7017  0.2878
 2656SOL     OW19429   0.825   3.120   2.461  0.0486 -0.5843  1.2302
 2656SOL    HW119430   0.753   3.154   2.408  0.3022  0.5374  1.6198
 2656SOL    HW219431   0.886   3.112   2.387  0.3902 -0.1251  1.4625
 2657SOL     OW19432   0.635   0.283   5.732  0.8109  0.1495 -0.2310
 2657SOL    HW119433   0.605   0.193   5.716  1.6200 -0.0143 -0.8562
 2657SOL    HW219434   0.664   0.306   5.644  5.0215  0.2666  1.1443
 2658SOL     OW19435   3.595   3.621  15.728 -0.3489  0.2463  0.4499
 2658SOL    HW119436   3.599   3.716  15.717 -2.1450  0.4010  1.0290
 2658SOL    HW219437   3.641   3.605  15.810 -1.2192 -0.8441  0.7347
 2659SOL     OW19438   0.001   3.517  13.154 -0.1825 -0.6374  0.0171
 2659SOL    HW119439   4.636   3.480  13.154 -1.6676  2.9098  2.9023
 2659SOL    HW219440   0.026   3.506  13.246  1.7960 -2.9080 -0.8167
 2660SOL     OW19441   2.305   3.365  10.896 -0.2521 -0.4510 -0.3565
 2660SOL    HW119442   2.214   3.355  10.870 -0.0957 -0.3204 -0.9464
 2660SOL    HW219443   2.299   3.423  10.972 -1.1041 -0.5644 -0.3324
 2661SOL     OW19444   2.829   2.791   7.222  0.3387  0.3381 -0.0018
 2661SOL    HW119445   2.918   2.756   7.215  1.6982  3.7586  0.0297
 2661SOL    HW219446   2.802   2.749   7.304  0.9180  1.0054  0.5435
 2662SOL     OW19447   0.133   1.304   6.858 -0.0037 -0.0941  0.2855
 2662SOL    HW119448   0.200   1.357   6.817  0.5654 -0.8984  0.1670
 2662SOL    HW219449   0.097   1.364   6.923 -1.2133  0.6633 -1.0956
 2663SOL     OW19450   2.842   3.141   7.684 -0.3080 -0.6362  0.5253
 2663SOL    HW119451   2.782   3.092   7.741 -0.4905  0.8647  1.6268
 2663SOL    HW219452   2.782   3.205   7.644  0.9920  1.1749  1.4692
 2664SOL     OW19453   0.860   3.983  13.269 -0.1887 -0.0790  0.6099
 2664SOL    HW119454   0.841   3.949  13.356 -1.5020  1.8572  1.0827
 2664SOL    HW219455   0.955   3.983  13.274 -0.2569  0.7534  1.7478
 2665SOL     OW19456   1.139   2.175   1.868  0.0126  0.2876  0.0905
 2665SOL    HW119457   1.144   2.220   1.784 -1.4517 -2.9973 -1.7530
 2665SOL    HW219458   1.166   2.087   1.841  1.0832  0.1667  1.5783
 2666SOL     OW19459   3.394   4.260   1.508  0.6794  0.1059 -0.5729
 2666SOL    HW119460   3.485   4.288   1.518  0.6239 -0.0027  0.2554
 2666SOL    HW219461   3.353   4.347   1.510 -0.3743 -0.4267  1.4649
 2667SOL     OW19462   2.479   3.815  12.305  0.1072 -0.1135  0.0465
 2667SOL    HW119463   2.404   3.871  12.324  0.0570 -0.3451  0.5369
 2667SOL    HW219464   2.451   3.744  12.363  0.7424 -1.7790 -1.6655
 2668SOL     OW19465   3.684   2.987   6.979  0.5349 -0.9920 -0.4474
 2668SOL    HW119466   3.769   2.947   6.997  0.1830 -1.3355  0.4605
 2668SOL    HW219467   3.700   3.000   6.885  3.4125 -2.2954 -0.1274
 2669SOL     OW19468   0.679   1.173   1.487  0.0429  0.0145  0.6527
 2669SOL    HW119469   0.657   1.260   1.520 -0.1460  1.2707 -2.8446
 2669SOL    HW219470   0.611   1.122   1.531 -0.4842 -1.3866 -1.7817
 2670SOL     OW19471   1.618   3.373  16.236 -0.2169  0.1855 -0.1147
 2670SOL    HW119472   1.663   3.450  16.203  1.6234  0.2956  2.6790
 2670SOL    HW219473   1.550   3.412  16.292 -0.1421  0.4153 -0.1838
 2671SOL     OW19474   2.834   2.166  16.366  0.5905  0.1566 -0.5682
 2671SOL    HW119475   2.927   2.149  16.382  0.4524 -0.0854  0.0100
 2671SOL    HW219476   2.793   2.086  16.401  3.1672  0.7663  3.9191
 2672SOL     OW19477   3.086   4.017   2.924  0.2399  0.0053 -0.7856
 2672SOL    HW119478   3.132   3.947   2.969  0.2574  1.6166  1.6779
 2672SOL    HW219479   2.997   3.982   2.921 -0.0391  0.6560  0.1717
 2673SOL     OW19480   1.867   4.646   0.259 -0.0487  0.1941 -0.2619
 2673SOL    HW119481   1.822   4.635   0.342 -1.6932 -0.9394 -1.3140
 2673SOL    HW219482   1.951   4.603   0.278 -0.5305 -0.3043  0.7468
 2674SOL     OW19483   4.248   1.358   6.039  0.0389  0.4447 -0.4164
 2674SOL    HW119484   4.178   1.405   6.084  0.7870  0.8539  0.3078
 2674SOL    HW219485   4.272   1.421   5.971 -0.5312  0.6810 -0.4017
 2675SOL     OW19486   4.043   1.635   7.521  0.4931  0.2931  0.7697
 2675SOL    HW119487   3.977   1.703   7.530 -2.5808 -2.2810 -2.1204
 2675SOL    HW219488   3.984   1.561   7.535  0.4632  0.2950  0.6562
 2676SOL     OW19489   0.107   3.378   6.759 -0.2313  0.6965 -0.0244
 2676SOL    HW119490   0.102   3.371   6.664  1.0706 -0.8775  0.0257
 2676SOL    HW219491   0.089   3.471   6.766  4.7326  1.6003  0.8058
 2677SOL     OW19492   0.926   1.889   7.718 -0.4434  0.0838 -0.6913
 2677SOL    HW119493   0.874   1.812   7.738 -0.7111  0.4718  0.0795
 2677SOL    HW219494   0.862   1.957   7.738 -2.9702 -2.0311 -1.5210
 2678SOL     OW19495   2.207   4.518   3.461  0.3589  0.2111 -0.5784
 2678SOL    HW119496   2.122   4.559   3.479  0.8693  1.6835 -1.4592
 2678SOL    HW219497   2.194   4.507   3.366 -1.3782 -1.6502 -0.1205
 2679SOL     OW19498   2.521   3.439   3.222 -0.1815 -0.3595  0.4131
 2679SOL    HW119499   2.440   3.486   3.201  0.3250  0.8889  1.2345
 2679SOL    HW219500   2.580   3.471   3.154 -1.9045 -0.7700 -1.2639
 2680SOL     OW19501   1.260   4.064   2.898 -0.3548 -0.3923  0.3231
 2680SOL    HW119502   1.319   4.005   2.851 -1.8216 -1.8023  0.2272
 2680SOL    HW219503   1.305   4.145   2.877  0.7641 -1.6059 -1.8683
 2681SOL     OW19504   1.248   1.027   5.529 -0.6603 -0.2785 -0.0355
 2681SOL    HW119505   1.238   1.058   5.619 -0.3839 -1.2253  0.3262
 2681SOL    HW219506   1.196   1.080   5.469  2.0898  1.4065 -0.9196
 2682SOL     OW19507   1.461   0.417  16.514  0.1487 -0.0851 -0.5186
 2682SOL    HW119508   1.488   0.410  16.606 -1.2810 -3.4522 -0.3766
 2682SOL    HW219509   1.545   0.418  16.468  1.2764  2.9488  1.5730
 2683SOL     OW19510   1.553   0.709  16.697 -0.0680  0.3230 -0.0156
 2683SOL    HW119511   1.550   0.800  16.668  3.2812 -0.0487 -1.5202
 2683SOL    HW219512   1.460   0.710  16.719 -0.0509 -1.6540  0.1350
 2684SOL     OW19513   3.805   3.332   1.498 -0.3666 -0.0681 -0.0884
 2684SOL    HW119514   3.824   3.358   1.588 -3.0133 -1.1848  0.7802
 2684SOL    HW219515   3.888   3.360   1.460 -0.0376  0.1453  0.7700
 2685SOL     OW19516   4.319   1.747   5.173  0.2402  0.1419  1.0152
 2685SOL    HW119517   4.234   1.706   5.157  0.8661 -1.3722  1.5839
 2685SOL    HW219518   4.308   1.789   5.259 -1.5928 -1.8717  1.7766
 2686SOL     OW19519   0.044   0.736  15.331 -0.0951  0.0992  0.1615
 2686SOL    HW119520   0.026   0.655  15.282 -0.4589  0.1421  0.2203
 2686SOL    HW219521   4.722   0.799  15.275  1.3296 -0.2298 -1.3744
 2687SOL     OW19522   1.158   1.683   5.362 -0.1822  0.3578  0.1380
 2687SOL    HW119523   1.146   1.612   5.424 -0.5961  0.2464 -0.0722
 2687SOL    HW219524   1.248   1.663   5.338 -0.0096  1.3052 -0.0238
 2688SOL     OW19525   0.694   1.925   1.167  0.4517 -1.0447  0.0572
 2688SOL    HW119526   0.718   1.940   1.258 -1.4349  0.3391  0.3340
 2688SOL    HW219527   0.776   1.898   1.126  0.8996  0.5803 -0.1154
 2689SOL     OW19528   3.290   0.494   4.254  0.3362  0.1364 -0.3789
 2689SOL    HW119529   3.298   0.442   4.174  0.3128 -0.2123 -0.1537
 2689SOL    HW219530   3.356   0.453   4.310  0.7290  1.1050 -0.1369
 2690SOL     OW19531   1.583   3.463  12.837  0.2483  0.6605 -0.0422
 2690SOL    HW119532   1.674   3.435  12.835  0.1644  0.2841  1.7718
 2690SOL    HW219533   1.576   3.510  12.754 -0.0576  1.1740  0.2772
 2691SOL     OW19534   1.173   1.137   8.160  0.1232  0.2086  0.4734
 2691SOL    HW119535   1.206   1.056   8.199  1.6869  0.2252 -0.8237
 2691SOL    HW219536   1.195   1.116   8.069  3.8587  1.7613  0.9946
 2692SOL     OW19537   4.480   2.988   3.453 -0.7549 -0.7144 -0.2447
 2692SOL    HW119538   4.411   2.940   3.499 -0.2525 -3.3559 -2.1855
 2692SOL    HW219539   4.487   2.945   3.367  0.8923 -2.0836  0.5915
 2693SOL     OW19540   0.602   4.124   3.364 -0.2303 -0.7751 -0.0272
 2693SOL    HW119541   0.589   4.128   3.269 -1.1829  0.1292  0.1331
 2693SOL    HW219542   0.663   4.196   3.380 -1.2548 -0.1685  1.1853
 2694SOL     OW19543   3.646   1.367  10.750 -0.1094 -0.0908 -0.1640
 2694SOL    HW119544   3.669   1.415  10.670 -1.1544  0.7105  0.0233
 2694SOL    HW219545   3.731   1.355  10.793 -0.7655  0.5462  1.2919
 2695SOL     OW19546   2.633   0.817  16.287  0.1297  0.4710 -0.2107
 2695SOL    HW119547   2.543   0.785  16.298 -0.5030  1.8900 -1.2049
 2695SOL    HW219548   2.660   0.751  16.223 -3.0055  0.5874 -1.6734
 2696SOL     OW19549   0.470   0.513   5.882 -0.2356 -0.2579 -0.5011
 2696SOL    HW119550   0.388   0.541   5.922 -0.2595 -2.6201  1.1049
 2696SOL    HW219551   0.444   0.428   5.847 -2.2471  0.4784 -0.8049
 2697SOL     OW19552   1.452   3.874   6.214 -0.2257 -0.0689 -0.3075
 2697SOL    HW119553   1.444   3.839   6.303  0.2870 -1.8525 -0.9731
 2697SOL    HW219554   1.388   3.821   6.167 -1.0355 -0.9925  1.8181
 2698SOL     OW19555   4.434   0.488   1.361 -0.7349 -0.0765 -0.1341
 2698SOL    HW119556   4.466   0.491   1.270 -1.7121  2.6733 -0.3661
 2698SOL    HW219557   4.346   0.517   1.338 -1.0645 -1.5700 -0.7507
 2699SOL     OW19558   0.407   4.095  11.737  0.4171  0.1815  0.1492
 2699SOL    HW119559   0.489   4.104  11.784 -0.0375 -1.0534  1.1741
 2699SOL    HW219560   0.436   4.054  11.656 -1.3387  0.5188 -0.6746
 2700SOL     OW19561   2.685   2.525  17.397  0.7439 -0.0101  0.4824
 2700SOL    HW119562   2.658   2.434  17.399 -2.1909  0.8894  1.6328
 2700SOL    HW219563   2.772   2.523  17.438  0.4541  1.2315  1.1597
 2701SOL     OW19564   4.212   3.930   4.295 -0.0512 -0.3845  0.2150
 2701SOL    HW119565   4.176   3.889   4.216  0.3314 -1.3367  0.5247
 2701SOL    HW219566   4.306   3.912   4.285 -0.4594 -1.9146 -0.8236
 2702SOL     OW19567   1.686   1.048   4.636  0.3568  0.7810  0.2305
 2702SOL    HW119568   1.734   1.086   4.562 -1.2755  1.4071 -0.5149
 2702SOL    HW219569   1.635   1.125   4.660  2.1672  2.2738 -0.7606
 2703SOL     OW19570   1.741   2.238   0.409  0.2769  0.5524  0.3328
 2703SOL    HW119571   1.801   2.312   0.402 -2.4805  2.6060 -1.8001
 2703SOL    HW219572   1.671   2.274   0.463  0.5200  1.5157  0.0099
 2704SOL     OW19573   1.571   0.787   9.859  0.3109  0.3928  0.0063
 2704SOL    HW119574   1.666   0.786   9.853  0.2867  1.0547 -0.4430
 2704SOL    HW219575   1.551   0.758   9.948 -0.7571 -0.5658 -0.5409
 2705SOL     OW19576   1.301   1.275   6.694 -0.0396  1.1360  0.1141
 2705SOL    HW119577   1.253   1.267   6.611  1.7586 -1.8396 -0.6408
 2705SOL    HW219578   1.299   1.189   6.737  1.2034  0.9778 -0.1250
 2706SOL     OW19579   1.638   1.952  16.495 -0.2062 -0.0895  0.4374
 2706SOL    HW119580   1.544   1.966  16.480 -0.1415 -0.6200 -0.4800
 2706SOL    HW219581   1.661   2.015  16.563 -1.4838  1.9093 -0.9876
 2707SOL     OW19582   3.976   2.320   6.279  0.4253 -0.1072  0.3395
 2707SOL    HW119583   4.016   2.272   6.207  0.5304  0.9658 -0.3174
 2707SOL    HW219584   4.051   2.368   6.312 -0.8535  1.6205  0.7369
 2708SOL     OW19585   4.308   4.524   1.969  0.2053 -0.9017 -0.2326
 2708SOL    HW119586   4.265   4.579   1.903 -0.0156  0.7974  1.3169
 2708SOL    HW219587   4.365   4.592   2.004  1.0574 -0.6507 -2.1064
 2709SOL     OW19588   2.549   1.938  12.455 -0.1421  0.3655 -0.1479
 2709SOL    HW119589   2.574   1.909  12.543  1.1224 -2.2266 -1.3454
 2709SOL    HW219590   2.589   2.024  12.445  3.0575 -1.1594 -0.6524
 2710SOL     OW19591   3.040   3.747   0.348 -0.1262 -0.0673 -0.2060
 2710SOL    HW119592   3.044   3.842   0.359 -1.5795 -0.0381  0.1540
 2710SOL    HW219593   2.949   3.737   0.376 -0.4178 -0.7870 -1.4055
 2711SOL     OW19594   1.978   1.008  10.434  0.2170  0.0925  0.4344
 2711SOL    HW119595   1.928   0.963  10.502 -0.7388 -0.8163 -0.8673
 2711SOL    HW219596   1.996   0.933  10.379 -1.7693  1.6441 -2.3522
 2712SOL     OW19597   2.723   4.544   8.226 -0.1354  0.3391  0.2717
 2712SOL    HW119598   2.637   4.527   8.266 -0.1407  2.3013  1.0675
 2712SOL    HW219599   2.748   4.623   8.273 -1.6388  0.5838  0.6721
 2713SOL     OW19600   4.123   1.790  15.821 -0.3724 -0.0720  0.5063
 2713SOL    HW119601   4.071   1.710  15.836 -0.8093  0.1338  0.0680
 2713SOL    HW219602   4.186   1.750  15.761  1.7882  0.8444  2.1868
 2714SOL     OW19603   3.930   3.561   9.530  0.7885  0.4893 -0.8321
 2714SOL    HW119604   3.953   3.479   9.573 -0.8544  0.8905  0.7820
 2714SOL    HW219605   3.843   3.583   9.563  0.7244 -0.4332 -0.3876
 2715SOL     OW19606   4.111   3.643   1.847  0.7625 -0.9587  0.3443
 2715SOL    HW119607   4.138   3.722   1.893 -1.0356 -0.6996  0.9357
 2715SOL    HW219608   4.075   3.694   1.775  2.4743 -0.3551 -0.0861
 2716SOL     OW19609   3.771   0.799   8.101  0.2441 -0.4696  0.4382
 2716SOL    HW119610   3.841   0.764   8.046 -0.2882  1.3259 -1.4374
 2716SOL    HW219611   3.704   0.820   8.035 -0.6479 -2.9703  0.5565
 2717SOL     OW19612   1.667   1.285  14.081 -0.1178  0.0640  0.3659
 2717SOL    HW119613   1.664   1.364  14.028  0.1344 -0.6512 -0.7050
 2717SOL    HW219614   1.595   1.307  14.141  2.2303 -0.5562  3.3957
 2718SOL     OW19615   2.355   4.450  16.293 -0.3413 -0.1992 -0.4345
 2718SOL    HW119616   2.437   4.453  16.245  1.0251 -0.5879  1.8480
 2718SOL    HW219617   2.289   4.466  16.226  1.9471 -0.6015 -2.7557
 2719SOL     OW19618   4.648   1.780   8.354  0.0975  0.1624 -0.9575
 2719SOL    HW119619   4.700   1.854   8.384 -0.0555 -0.5691  1.0828
 2719SOL    HW219620   4.582   1.783   8.423 -0.1349  0.2083 -1.1789
 2720SOL     OW19621   2.823   0.529   8.761  0.2018 -0.0341  0.2164
 2720SOL    HW119622   2.787   0.613   8.733  1.5368  0.1452 -0.9624
 2720SOL    HW219623   2.749   0.504   8.817 -0.4871 -0.3448 -0.8379
 2721SOL     OW19624   0.531   0.120   4.941  0.4913 -0.3029 -0.5073
 2721SOL    HW119625   0.465   0.053   4.923  0.2165 -0.8305  2.5525
 2721SOL    HW219626   0.516   0.139   5.033  1.4529  0.5678 -0.5312
 2722SOL     OW19627   3.470   1.796   9.555  0.0682  0.2335  0.1165
 2722SOL    HW119628   3.453   1.865   9.619  1.5240  0.4119  0.3220
 2722SOL    HW219629   3.466   1.730   9.624  1.6374 -0.8894 -0.8436
 2723SOL     OW19630   0.458   0.347  13.613  0.3222  0.3019  0.5520
 2723SOL    HW119631   0.416   0.430  13.589 -3.8138 -1.7192  0.7760
 2723SOL    HW219632   0.525   0.380  13.673  1.5646  0.0233 -0.6895
 2724SOL     OW19633   0.336   0.896  15.188 -0.6213 -0.0671  0.6144
 2724SOL    HW119634   0.291   0.918  15.270  0.0468 -2.3409  1.5987
 2724SOL    HW219635   0.331   0.968  15.125 -3.2094 -1.3989 -0.7319
 2725SOL     OW19636   4.036   2.717  16.895  0.3025 -0.5179  0.6299
 2725SOL    HW119637   4.057   2.740  16.805  1.1470 -1.3974  0.5968
 2725SOL    HW219638   4.034   2.803  16.936  1.5084 -0.8042  1.2938
 2726SOL     OW19639   1.917   0.184  10.028  0.6065 -0.0735  0.2559
 2726SOL    HW119640   1.880   0.154  10.111 -0.2304 -1.5116 -0.6445
 2726SOL    HW219641   1.921   0.279  10.041  1.9010 -0.1374  0.3943
 2727SOL     OW19642   2.884   0.422   6.751 -0.1316 -0.3678  0.0754
 2727SOL    HW119643   2.837   0.430   6.834  1.7438  0.2280  1.0790
 2727SOL    HW219644   2.824   0.418   6.676  0.9076  1.3366 -0.8569
 2728SOL     OW19645   2.814   4.051   9.124 -0.3698 -0.2568  0.2506
 2728SOL    HW119646   2.729   4.094   9.130  0.3595  0.8776  2.5369
 2728SOL    HW219647   2.873   4.121   9.096 -0.6198  0.9413  2.7998
 2729SOL     OW19648   2.302   1.759  11.509 -0.4934  0.1529 -0.2289
 2729SOL    HW119649   2.282   1.666  11.502 -1.1721  0.3443 -0.8058
 2729SOL    HW219650   2.308   1.769  11.414  3.3043  1.8960  0.1956
 2730SOL     OW19651   3.036   1.671   9.542  0.0346  0.2988 -0.3580
 2730SOL    HW119652   2.990   1.617   9.606  1.3943 -0.4854 -0.0409
 2730SOL    HW219653   2.964   1.716   9.499  0.8726  1.5148 -0.4942
 2731SOL     OW19654   3.806   2.094   0.866 -0.5645  0.1423  0.1717
 2731SOL    HW119655   3.809   2.039   0.787 -0.0944 -0.1237  0.3724
 2731SOL    HW219656   3.791   2.174   0.816 -0.0987 -1.0205 -1.8724
 2732SOL     OW19657   1.549   1.299  10.640 -0.0408  0.2634 -0.8497
 2732SOL    HW119658   1.488   1.372  10.626 -1.4483 -0.5763  0.9556
 2732SOL    HW219659   1.626   1.336  10.683  1.3737 -0.0440 -3.1102
 2733SOL     OW19660   3.566   0.305   2.257 -0.1317  0.3581  0.3985
 2733SOL    HW119661   3.549   0.246   2.331 -1.8255  0.1282 -0.1797
 2733SOL    HW219662   3.525   0.268   2.179 -0.9640 -0.3256  1.1605
 2734SOL     OW19663   2.051   0.479   6.944 -0.0126 -0.2235  0.3371
 2734SOL    HW119664   2.051   0.407   6.881  1.2100  0.0789 -0.0103
 2734SOL    HW219665   1.957   0.492   6.952 -0.2803 -2.1791  0.3191
 2735SOL     OW19666   2.036   3.926   2.712  0.2819  0.0347  0.8199
 2735SOL    HW119667   1.999   3.838   2.708 -0.1181  0.2417  0.0178
 2735SOL    HW219668   2.113   3.906   2.766  0.6716  1.1887  0.6969
 2736SOL     OW19669   2.934   1.291  16.087  0.1442 -0.6916 -0.6065
 2736SOL    HW119670   3.008   1.347  16.109 -0.2377  1.0706 -3.7780
 2736SOL    HW219671   2.902   1.346  16.015 -1.1365 -0.0492  0.4311
 2737SOL     OW19672   4.573   3.231   8.485  0.3250 -0.6290 -0.3628
 2737SOL    HW119673   4.544   3.158   8.539 -1.1297 -0.2518 -0.6402
 2737SOL    HW219674   4.639   3.274   8.540  2.3409 -1.1442 -2.3840
 2738SOL     OW19675   3.196   2.249   4.000 -0.2060 -0.4702 -0.6924
 2738SOL    HW119676   3.174   2.311   3.930  0.6029  0.2518 -0.3124
 2738SOL    HW219677   3.238   2.179   3.949  3.2334  0.4813  0.8127
 2739SOL     OW19678   0.308   3.380  17.373 -0.2715  0.6361 -0.1125
 2739SOL    HW119679   0.350   3.294  17.378  0.0769  0.7194 -1.5059
 2739SOL    HW219680   0.222   3.354  17.338 -0.6148  1.3331  0.1994
 2740SOL     OW19681   1.951   1.012   1.580 -0.2611 -0.1309  0.0259
 2740SOL    HW119682   1.942   0.951   1.653  2.3312  0.5868  0.9409
 2740SOL    HW219683   2.023   1.067   1.612  0.1436 -0.9415  0.5008
 2741SOL     OW19684   3.615   3.101   7.751  0.2511 -0.0437  0.3549
 2741SOL    HW119685   3.686   3.118   7.688 -1.1920 -0.6537 -1.4595
 2741SOL    HW219686   3.641   3.025   7.803  0.3808  1.3592  2.3442
 2742SOL     OW19687   0.537   4.185  10.554  0.1146 -0.2257 -0.2685
 2742SOL    HW119688   0.478   4.184  10.630  1.1609  0.3898  0.5722
 2742SOL    HW219689   0.528   4.279  10.534 -0.7233  0.0758  1.4673
 2743SOL     OW19690   3.588   2.068   9.890 -0.2012  0.2663 -0.0797
 2743SOL    HW119691   3.679   2.044   9.874 -0.1851 -0.2047  0.7263
 2743SOL    HW219692   3.542   2.008   9.832  0.7138 -0.2356 -0.2759
 2744SOL     OW19693   4.097   1.038   8.510 -0.0987  0.1366 -0.2249
 2744SOL    HW119694   4.097   0.956   8.559  2.0238 -0.2554 -0.8578
 2744SOL    HW219695   4.145   0.995   8.440  1.2413 -0.3697  0.9976
 2745SOL     OW19696   2.615   3.058   4.261 -0.2981  0.3004 -0.0496
 2745SOL    HW119697   2.631   3.084   4.352  0.3897 -1.4113  0.3114
 2745SOL    HW219698   2.698   3.020   4.233 -0.7330 -1.8001  1.5374
 2746SOL     OW19699   0.794   0.531  16.660  0.1155  0.6783  0.2444
 2746SOL    HW119700   0.765   0.440  16.671  0.8170  0.3700 -0.4672
 2746SOL    HW219701   0.782   0.563  16.749  1.2555 -1.2648  1.1153
 2747SOL     OW19702   4.438   2.125   7.315  0.3603 -0.7166  0.1121
 2747SOL    HW119703   4.493   2.133   7.237  0.0645 -0.4586 -0.0717
 2747SOL    HW219704   4.360   2.171   7.283 -0.5092 -2.3972 -0.1808
 2748SOL     OW19705   2.648   4.377   4.926 -0.2157  0.0716 -0.1482
 2748SOL    HW119706   2.635   4.310   4.993  2.8715  1.6152  1.9980
 2748SOL    HW219707   2.576   4.438   4.944  0.6120  0.9908  0.0761
 2749SOL     OW19708   3.549   4.047   1.118  0.1367 -0.0515  0.0715
 2749SOL    HW119709   3.470   4.051   1.063  0.6259  0.6961 -0.5836
 2749SOL    HW219710   3.574   3.955   1.110  2.5194  0.7111 -1.1454
 2750SOL     OW19711   2.331   2.465   0.557  0.1187 -0.4003  0.3859
 2750SOL    HW119712   2.278   2.403   0.507 -3.0778  0.0652  3.2079
 2750SOL    HW219713   2.401   2.488   0.496 -0.0950  0.3678  0.4228
 2751SOL     OW19714   1.771   3.111   4.718 -0.2153  0.1146  0.6454
 2751SOL    HW119715   1.681   3.099   4.687 -0.2201  0.7344  0.4032
 2751SOL    HW219716   1.759   3.177   4.786 -1.7078 -1.3339  1.7586
 2752SOL     OW19717   4.618   2.177  14.183  0.3772  0.2330  0.1215
 2752SOL    HW119718   4.553   2.157  14.250 -0.2186 -0.0590 -0.5423
 2752SOL    HW219719   4.640   2.266  14.211 -0.3888  0.0696  1.2213
 2753SOL     OW19720   0.695   0.916   7.340 -0.3762  0.4055 -0.1057
 2753SOL    HW119721   0.699   0.996   7.392 -0.9323  0.8252 -0.7134
 2753SOL    HW219722   0.652   0.958   7.265  1.2367  2.4173  0.0784
 2754SOL     OW19723   2.602   0.905   6.201  0.0288  0.3835  0.0555
 2754SOL    HW119724   2.635   0.937   6.285 -0.8430 -2.4456  1.4701
 2754SOL    HW219725   2.637   0.974   6.146  1.9167 -0.9897 -0.4423
 2755SOL     OW19726   2.925   3.850   5.272  0.8822 -0.1987  0.7589
 2755SOL    HW119727   2.881   3.868   5.355 -0.2681  1.5869 -0.2349
 2755SOL    HW219728   2.850   3.858   5.214  1.6516  3.1945  0.1945
 2756SOL     OW19729   4.684   2.055   7.399 -0.3301  0.3621 -0.0370
 2756SOL    HW119730   4.648   1.966   7.401 -2.3624  1.2624  2.3583
 2756SOL    HW219731   4.596   2.092   7.391  1.0402  2.5700 -4.9668
 2757SOL     OW19732   0.141   1.487   2.345 -0.3441 -0.2492 -0.0005
 2757SOL    HW119733   0.219   1.447   2.307 -0.4220  0.1132 -0.5422
 2757SOL    HW219734   0.105   1.421   2.405  0.0356  0.7610  1.3368
 2758SOL     OW19735   1.377   1.714   4.817  0.0729  0.3232  0.0509
 2758SOL    HW119736   1.370   1.733   4.724 -2.4448  0.4748  0.2649
 2758SOL    HW219737   1.373   1.618   4.821  0.9466  0.3713  2.0670
 2759SOL     OW19738   1.605   3.276   0.236  0.0126 -0.2308  0.9174
 2759SOL    HW119739   1.668   3.207   0.215  0.8223  0.1903  1.9985
 2759SOL    HW219740   1.657   3.356   0.246  0.0980 -0.2527  0.6554
 2760SOL     OW19741   3.595   0.833   6.410 -0.2579  0.0569  0.3666
 2760SOL    HW119742   3.551   0.753   6.379 -1.0915  0.1002  1.4588
 2760SOL    HW219743   3.665   0.824   6.345 -1.4141 -3.9617 -0.3642
 2761SOL     OW19744   2.950   4.419   8.128 -0.3198 -0.0391 -0.1059
 2761SOL    HW119745   2.898   4.387   8.054 -0.4465  2.3176 -1.0333
 2761SOL    HW219746   2.885   4.480   8.162 -1.1742  0.2934 -2.3299
 2762SOL     OW19747   3.577   2.726   8.719  0.5034 -0.1449 -0.2983
 2762SOL    HW119748   3.614   2.810   8.692  0.9254  0.2345  1.4787
 2762SOL    HW219749   3.596   2.672   8.642 -2.0947  0.0861 -1.1317
 2763SOL     OW19750   3.748   3.187  11.626 -0.1316 -0.0057 -0.4076
 2763SOL    HW119751   3.814   3.121  11.649 -0.1769 -0.1416 -0.6630
 2763SOL    HW219752   3.804   3.251  11.582  1.4633 -0.3472  1.0986
 2764SOL     OW19753   0.767   1.981   1.435 -0.5124  0.0605 -0.4132
 2764SOL    HW119754   0.784   1.919   1.506 -2.1877 -0.8922 -0.8490
 2764SOL    HW219755   0.855   2.002   1.403 -0.7461  0.3711 -0.8509
 2765SOL     OW19756   2.303   3.757  12.997 -0.2540  0.2426  0.8840
 2765SOL    HW119757   2.261   3.810  13.065  3.0049  2.0596  1.4832
 2765SOL    HW219758   2.229   3.754  12.936 -1.3997  0.1008  2.2846
 2766SOL     OW19759   2.568   0.027   6.273  0.5066  0.0017 -0.2844
 2766SOL    HW119760   2.534   4.687   6.336 -0.6899  0.5721 -0.3563
 2766SOL    HW219761   2.660   0.006   6.287  0.9663  1.7757 -0.7226
 2767SOL     OW19762   4.158   2.036   5.212 -0.1510  0.1687  0.1405
 2767SOL    HW119763   4.193   1.977   5.279  0.5853  0.8125  0.3216
 2767SOL    HW219764   4.134   2.117   5.256 -2.6651 -0.6284  0.2091
 2768SOL     OW19765   3.905   1.554   1.861 -0.4116  0.0447 -0.1767
 2768SOL    HW119766   3.871   1.611   1.792  0.1563  0.5289 -0.0574
 2768SOL    HW219767   3.941   1.484   1.806  3.1140  0.6995  1.2750
 2769SOL     OW19768   3.125   0.139   5.866 -0.1893 -0.0554  0.1468
 2769SOL    HW119769   3.049   0.194   5.847  1.1161  1.3672 -0.9987
 2769SOL    HW219770   3.180   0.216   5.877  0.2282 -0.5243  1.3631
 2770SOL     OW19771   4.137   1.517  12.737 -0.5895 -0.0558 -0.0260
 2770SOL    HW119772   4.124   1.527  12.831  2.7191  0.9246  0.3263
 2770SOL    HW219773   4.171   1.428  12.734  0.7347  0.3971  2.0007
 2771SOL     OW19774   1.875   2.803  13.750 -0.1118 -0.0766 -0.1427
 2771SOL    HW119775   1.889   2.867  13.820  2.5520 -0.6717 -0.1107
 2771SOL    HW219776   1.799   2.758  13.787 -0.3718  1.3420  1.0016
 2772SOL     OW19777   1.356   1.521   8.072  0.2682  0.3939 -0.1208
 2772SOL    HW119778   1.415   1.554   8.004  1.0214 -1.8794 -0.5558
 2772SOL    HW219779   1.285   1.497   8.013  0.4936 -0.4152 -0.0541
 2773SOL     OW19780   0.879   1.000   4.681 -0.2071  0.2559  0.0037
 2773SOL    HW119781   0.868   0.952   4.763  0.0654  1.3506  0.6753
 2773SOL    HW219782   0.952   1.057   4.704  0.6814 -0.7938 -0.2160
 2774SOL     OW19783   4.664   3.059   4.205 -0.5026  0.2204  0.1282
 2774SOL    HW119784   4.660   3.103   4.120 -0.2837 -0.0915 -0.0467
 2774SOL    HW219785   0.020   3.098   4.241  0.0015  0.2811 -1.0695
 2775SOL     OW19786   4.364   1.839   9.758 -0.1001  0.8115  0.0742
 2775SOL    HW119787   4.450   1.834   9.799  0.4393  2.4814 -0.8328
 2775SOL    HW219788   4.331   1.749   9.758 -0.0178  0.7815  0.4485
 2776SOL     OW19789   2.068   3.931   8.178 -0.4719 -0.0755 -0.3552
 2776SOL    HW119790   2.126   3.894   8.244 -3.9688 -1.7877  1.7421
 2776SOL    HW219791   1.988   3.943   8.229 -1.2109  0.8928 -1.7148
 2777SOL     OW19792   3.504   3.583   6.980  0.4074 -0.4252  0.0015
 2777SOL    HW119793   3.561   3.611   6.908  1.6297  1.6303  1.7838
 2777SOL    HW219794   3.558   3.545   7.049  1.5026 -2.1718 -1.8162
 2778SOL     OW19795   0.930   0.553   5.820 -0.6185 -0.3752 -0.4462
 2778SOL    HW119796   0.883   0.474   5.847 -0.6516 -0.0286  0.5230
 2778SOL    HW219797   1.002   0.510   5.774  0.4853  2.3538 -1.2765
 2779SOL     OW19798   0.986   1.225  13.270 -0.1813  0.1691  0.3739
 2779SOL    HW119799   1.059   1.169  13.242 -1.8171 -1.5248 -0.5096
 2779SOL    HW219800   0.938   1.215  13.188 -0.7603  0.3896  0.6856
 2780SOL     OW19801   4.309   2.562   4.326  0.0560 -0.2182  0.1440
 2780SOL    HW119802   4.321   2.567   4.231 -1.7023 -1.3678 -0.1443
 2780SOL    HW219803   4.372   2.498   4.360 -0.4370 -0.4661  0.5901
 2781SOL     OW19804   1.737   2.412   5.773  0.1850  0.0195 -0.2576
 2781SOL    HW119805   1.694   2.442   5.854  1.7637  1.4603  0.0453
 2781SOL    HW219806   1.666   2.397   5.711 -0.4728 -0.8937  0.7220
 2782SOL     OW19807   3.097   4.302   4.177  0.2564  0.1948 -0.5038
 2782SOL    HW119808   3.116   4.396   4.173  3.4899 -0.5107 -1.3603
 2782SOL    HW219809   3.085   4.274   4.086  1.7748 -2.3315  0.1086
 2783SOL     OW19810   1.318   2.593   3.948 -0.9397 -0.1299 -0.0226
 2783SOL    HW119811   1.335   2.606   3.855  1.0792  0.2097  0.4004
 2783SOL    HW219812   1.297   2.499   3.946 -1.8367  0.0557  0.7206
 2784SOL     OW19813   4.557   0.773  14.656  0.0216 -0.1761  0.0807
 2784SOL    HW119814   4.632   0.804  14.605 -0.6063  0.1577 -0.6348
 2784SOL    HW219815   4.524   0.852  14.700  0.4387  0.9163 -1.5362
 2785SOL     OW19816   3.725   4.513   7.230  0.5514 -0.1286  0.0154
 2785SOL    HW119817   3.663   4.561   7.285 -0.2620 -0.2704 -0.7841
 2785SOL    HW219818   3.662   4.451   7.194 -3.6680  3.0122  2.0968
 2786SOL     OW19819   2.845   2.662  11.525 -0.5467  0.6463  0.8015
 2786SOL    HW119820   2.784   2.660  11.451  0.7703 -0.8482 -0.2512
 2786SOL    HW219821   2.855   2.754  11.550 -0.1779  0.8417 -0.0478
 2787SOL     OW19822   4.279   0.734   3.555 -0.0317 -0.4524  0.0749
 2787SOL    HW119823   4.301   0.694   3.471  1.3161  3.1957 -1.3097
 2787SOL    HW219824   4.191   0.767   3.539  0.0159 -0.3764 -0.0319
 2788SOL     OW19825   2.697   0.057   6.007  0.0014  0.0273 -0.1607
 2788SOL    HW119826   2.664   0.026   6.092  0.5677  0.9175  0.3916
 2788SOL    HW219827   2.693   0.150   6.030  0.9774  0.3637 -1.3905
 2789SOL     OW19828   3.516   2.572   2.064 -0.5201 -0.3354  0.4118
 2789SOL    HW119829   3.484   2.531   1.984  2.0549  2.2358 -1.9245
 2789SOL    HW219830   3.433   2.603   2.100 -0.6547  1.2546 -1.2580
 2790SOL     OW19831   2.521   3.074   7.426 -0.8434 -0.6088 -0.0648
 2790SOL    HW119832   2.528   2.997   7.482  3.4016 -0.3161 -0.2191
 2790SOL    HW219833   2.428   3.061   7.407 -1.2112  1.9062  0.0075
 2791SOL     OW19834   0.213   4.125   2.123 -0.2642 -0.2142  0.3475
 2791SOL    HW119835   0.283   4.190   2.122 -1.5143  1.2148  3.4142
 2791SOL    HW219836   0.132   4.176   2.120 -1.2551 -1.8271 -0.0956
 2792SOL     OW19837   0.144   1.848   3.316  0.4979 -0.1096 -0.0654
 2792SOL    HW119838   0.190   1.910   3.259 -0.4357  1.4316  0.8582
 2792SOL    HW219839   0.132   1.770   3.262 -0.0167  0.0403 -0.1668
 2793SOL     OW19840   2.075   3.683   3.135  0.2223  0.4407 -0.6192
 2793SOL    HW119841   2.059   3.661   3.227 -0.0355 -1.4947 -1.1376
 2793SOL    HW219842   2.107   3.772   3.151  0.6172  0.2551 -0.3938
 2794SOL     OW19843   3.253   1.365   3.505 -0.0707  0.3492  0.2482
 2794SOL    HW119844   3.322   1.421   3.540  0.5653 -0.3970  0.1860
 2794SOL    HW219845   3.194   1.360   3.581  0.1279 -0.3143  0.3648
 2795SOL     OW19846   2.354   1.726   6.321 -0.3968 -0.1366  0.2690
 2795SOL    HW119847   2.385   1.641   6.292 -1.0311 -0.7503  1.3819
 2795SOL    HW219848   2.436   1.771   6.339  0.7320 -1.7237 -0.9551
 2796SOL     OW19849   0.585   4.512   3.015  0.0095  0.0779 -0.0868
 2796SOL    HW119850   0.586   4.498   3.110 -2.5198 -0.2645 -0.1155
 2796SOL    HW219851   0.496   4.530   2.984 -0.0235 -1.4657 -0.8817
 2797SOL     OW19852   1.646   3.025  14.840  0.1444 -0.5403  0.6999
 2797SOL    HW119853   1.586   2.983  14.902 -1.0630  1.7616  1.0916
 2797SOL    HW219854   1.723   2.968  14.854 -0.8841 -1.0878  4.3291
 2798SOL     OW19855   4.479   1.040  16.651  0.0309 -0.4862  0.1066
 2798SOL    HW119856   4.484   1.012  16.743 -1.4169  2.7128  1.1798
 2798SOL    HW219857   4.389   1.020  16.625  0.2027 -0.3501 -0.5873
 2799SOL     OW19858   0.587   1.313  11.984  0.3777  0.4312 -0.1210
 2799SOL    HW119859   0.651   1.282  12.048  2.6748 -0.3331 -2.7798
 2799SOL    HW219860   0.506   1.275  12.019  0.0977  2.4148  1.3753
 2800SOL     OW19861   3.889   2.807   2.307  0.7420 -0.2654  0.3289
 2800SOL    HW119862   3.819   2.860   2.269  1.8919  0.2633 -1.0301
 2800SOL    HW219863   3.959   2.850   2.258 -0.0457 -0.6126 -1.1044
 2801SOL     OW19864   0.374   1.738   8.245 -0.2550 -0.1536 -0.0035
 2801SOL    HW119865   0.380   1.751   8.339 -0.1705  1.8296 -0.2842
 2801SOL    HW219866   0.320   1.659   8.245 -2.8325  1.6024  0.3895
 2802SOL     OW19867   0.099   4.459   1.321  0.0869 -0.6311  0.1232
 2802SOL    HW119868   0.187   4.423   1.310  0.8291  1.4078 -0.5154
 2802SOL    HW219869   0.043   4.386   1.295 -0.9333  0.3722 -0.4907
 2803SOL     OW19870   2.637   1.038   6.434 -0.3061 -0.4191  0.4435
 2803SOL    HW119871   2.576   1.095   6.480 -2.1152 -1.0486 -1.2014
 2803SOL    HW219872   2.655   0.986   6.512 -1.1552 -0.9462  0.2783
 2804SOL     OW19873   1.412   2.972   4.990  0.6355 -0.3019  0.1911
 2804SOL    HW119874   1.388   2.927   5.071 -1.0239 -0.6322 -0.4880
 2804SOL    HW219875   1.332   2.974   4.937  0.5852  0.1470  0.2873
 2805SOL     OW19876   0.994   0.225   8.639  0.0342  0.4130 -0.6105
 2805SOL    HW119877   1.051   0.170   8.693 -1.4726 -1.7449 -1.2370
 2805SOL    HW219878   0.935   0.157   8.606  0.4962 -0.7722  1.0368
 2806SOL     OW19879   2.381   0.592   5.585 -0.0426 -0.2619  0.1936
 2806SOL    HW119880   2.469   0.556   5.599  0.2434  0.4841  0.3354
 2806SOL    HW219881   2.386   0.640   5.502 -1.5112 -1.1138 -0.3872
 2807SOL     OW19882   0.604   4.300  13.624  0.2846  0.0618  0.1757
 2807SOL    HW119883   0.547   4.356  13.572 -1.7275 -1.8219  0.3400
 2807SOL    HW219884   0.538   4.245  13.667  0.2713 -1.0487 -1.2927
 2808SOL     OW19885   3.208   0.972   4.641  0.4848 -0.5537  0.1844
 2808SOL    HW119886   3.126   0.923   4.631  0.4027  0.0339 -1.9820
 2808SOL    HW219887   3.168   1.053   4.672  1.7809 -0.2906  1.1775
 2809SOL     OW19888   3.261   4.458   3.408 -0.9652  0.7187  0.1146
 2809SOL    HW119889   3.252   4.482   3.500  0.1129 -1.9144  0.9137
 2809SOL    HW219890   3.218   4.372   3.405  3.3157 -1.3666 -1.3498
 2810SOL     OW19891   0.591   1.705   0.835 -0.0873  0.6393 -0.2184
 2810SOL    HW119892   0.644   1.665   0.904 -1.5284  0.0764  0.5706
 2810SOL    HW219893   0.619   1.796   0.847  0.0845  0.5888 -0.2351
 2811SOL     OW19894   0.494   1.503   5.085 -0.2295  0.3563  0.2700
 2811SOL    HW119895   0.496   1.589   5.128  0.5433  0.0025  0.9301
 2811SOL    HW219896   0.570   1.462   5.125  1.0390  4.2229  1.8084
 2812SOL     OW19897   2.184   2.310  12.873 -0.2838  0.1155 -0.2530
 2812SOL    HW119898   2.211   2.219  12.861  1.0117  0.2726  1.4778
 2812SOL    HW219899   2.088   2.300  12.871 -0.4126  1.1800  1.0188
 2813SOL     OW19900   3.412   0.737   5.070 -0.2323  0.3867  0.2130
 2813SOL    HW119901   3.401   0.702   5.159  0.3782  0.5637  0.3584
 2813SOL    HW219902   3.468   0.812   5.089 -1.6079  1.2405  0.8595
 2814SOL     OW19903   0.918   1.934   6.807  0.5134 -0.7521 -0.4704
 2814SOL    HW119904   0.862   1.885   6.868 -0.6049  0.8923 -0.1651
 2814SOL    HW219905   1.001   1.941   6.855  0.1988  0.3297 -0.0776
 2815SOL     OW19906   4.083   1.870   3.712 -0.1674  0.2738 -0.2254
 2815SOL    HW119907   4.077   1.886   3.807 -0.6311  0.8072 -0.3413
 2815SOL    HW219908   4.067   1.776   3.712 -1.5101  0.4967  1.1754
 2816SOL     OW19909   3.315   3.703   0.367  0.6853  0.2579  0.2037
 2816SOL    HW119910   3.307   3.609   0.383  2.3972  0.0027 -0.4183
 2816SOL    HW219911   3.220   3.715   0.362  0.5940 -1.0182 -1.3741
 2817SOL     OW19912   3.955   4.631  11.123  0.0273  0.0637  0.4404
 2817SOL    HW119913   3.926   4.716  11.092 -1.5357 -0.6065  0.0952
 2817SOL    HW219914   3.883   4.590  11.171 -0.4801  1.8683  1.2007
 2818SOL     OW19915   1.962   1.762  12.315  0.3321  0.1353 -0.0609
 2818SOL    HW119916   2.005   1.829  12.263  1.7812  0.2689  1.3025
 2818SOL    HW219917   2.019   1.684  12.310  1.4104  0.8634  0.8381
 2819SOL     OW19918   1.077   1.621  16.013  0.2747 -0.1832  0.1353
 2819SOL    HW119919   1.113   1.697  15.967 -1.8082  1.0675  0.5942
 2819SOL    HW219920   1.115   1.547  15.966  1.4786  1.0910 -0.9121
 2820SOL     OW19921   3.816   3.103  13.661  0.1802  0.0365 -0.2926
 2820SOL    HW119922   3.799   3.026  13.607 -0.6854 -0.5151  0.7829
 2820SOL    HW219923   3.808   3.168  13.591 -2.2222  0.5387  0.4598
 2821SOL     OW19924   2.013   0.207  10.715 -0.0445 -0.4803 -0.1458
 2821SOL    HW119925   1.938   0.256  10.678  0.3370 -0.3173 -0.7032
 2821SOL    HW219926   2.032   0.137  10.653  3.7106 -0.3117  0.8374
 2822SOL     OW19927   1.345   0.255  10.921 -0.2126  0.3804  0.4460
 2822SOL    HW119928   1.340   0.219  11.010 -2.1566 -1.2933 -0.3234
 2822SOL    HW219929   1.311   0.340  10.949  2.2461  1.2684  0.7510
 2823SOL     OW19930   3.827   3.591  13.461 -0.0969  0.6564  0.2732
 2823SOL    HW119931   3.886   3.559  13.393 -0.4243  0.7610 -0.0560
 2823SOL    HW219932   3.899   3.647  13.491 -0.3970  0.6223  1.0592
 2824SOL     OW19933   1.164   2.011  15.142  0.3481 -0.3922  0.1190
 2824SOL    HW119934   1.216   2.017  15.062  0.2151 -1.2688 -0.0368
 2824SOL    HW219935   1.075   2.028  15.110  0.1337  1.5233  1.7354
 2825SOL     OW19936   0.307   0.491   8.435  0.2747 -0.2500  0.0235
 2825SOL    HW119937   0.231   0.548   8.434 -0.4847 -1.2227  2.0299
 2825SOL    HW219938   0.383   0.545   8.412 -0.6755  0.4451 -1.4162
 2826SOL     OW19939   3.123   4.680   1.945  0.0268 -0.1677  0.1819
 2826SOL    HW119940   3.141   0.028   1.884  0.8536 -0.4181  0.1326
 2826SOL    HW219941   3.125   0.005   2.027  0.3899 -1.3541  0.8853
 2827SOL     OW19942   2.432   1.252  15.774  0.2274  0.1820  0.0403
 2827SOL    HW119943   2.377   1.264  15.696  1.1779  0.2318 -0.6276
 2827SOL    HW219944   2.423   1.158  15.785 -0.2363  0.2953  0.6159
 2828SOL     OW19945   4.470   2.889   6.733 -0.3986  0.3649  0.2401
 2828SOL    HW119946   4.383   2.884   6.772 -0.5275  1.3484  0.0625
 2828SOL    HW219947   4.527   2.890   6.810  1.4062 -1.6383 -1.0421
 2829SOL     OW19948   3.241   4.470   1.593  0.8154 -0.2934 -0.3734
 2829SOL    HW119949   3.274   4.476   1.682  0.2236 -1.4345 -0.0688
 2829SOL    HW219950   3.152   4.498   1.614  0.7094 -1.6416  0.9641
 2830SOL     OW19951   2.382   3.458   8.480  0.0783  0.1049 -0.0805
 2830SOL    HW119952   2.313   3.446   8.546 -1.4727  0.4085 -1.6458
 2830SOL    HW219953   2.435   3.380   8.500  2.1010  1.9651  1.7597
 2831SOL     OW19954   2.174   4.156   8.375  0.3442 -0.2308 -0.1088
 2831SOL    HW119955   2.098   4.149   8.432  0.1893  1.9028 -0.0712
 2831SOL    HW219956   2.131   4.163   8.290 -0.9526 -0.9557  0.4839
 2832SOL     OW19957   3.280   3.000   1.936 -0.3101 -0.2282 -0.1167
 2832SOL    HW119958   3.190   3.032   1.945 -0.3761 -0.5147  0.2305
 2832SOL    HW219959   3.274   2.914   1.894  0.4887 -0.5304  0.3875
 2833SOL     OW19960   1.861   4.326   0.941  0.6818 -0.6506 -0.5259
 2833SOL    HW119961   1.791   4.261   0.943  0.5824 -0.5257  0.0838
 2833SOL    HW219962   1.919   4.298   1.012  1.8283  0.3999 -1.0434
 2834SOL     OW19963   2.266   4.236  15.500  0.1683 -0.1282  0.0780
 2834SOL    HW119964   2.299   4.146  15.509  2.0589  0.6266  0.6935
 2834SOL    HW219965   2.183   4.221  15.455  1.7762 -0.9078 -2.6366
 2835SOL     OW19966   0.906   3.801  12.774  0.3442 -0.1364 -0.1176
 2835SOL    HW119967   0.824   3.784  12.729 -0.9494  0.2491  2.1048
 2835SOL    HW219968   0.963   3.743  12.723  0.1916 -0.6204  0.2601
 2836SOL     OW19969   0.526   0.867   6.324  0.1323 -0.3098 -0.8338
 2836SOL    HW119970   0.432   0.887   6.324  0.0342 -0.7538  0.0568
 2836SOL    HW219971   0.572   0.951   6.320 -2.3170  1.1395  1.7874
 2837SOL     OW19972   3.952   1.844   8.517 -0.0251 -0.0823  0.3051
 2837SOL    HW119973   3.873   1.791   8.507  0.6847 -1.2079  0.6431
 2837SOL    HW219974   3.933   1.903   8.590  0.0054 -0.6008  0.7411
 2838SOL     OW19975   1.277   3.417   1.901 -0.1800  0.3512 -0.2901
 2838SOL    HW119976   1.271   3.363   1.980  1.0387  0.8419  0.1549
 2838SOL    HW219977   1.228   3.497   1.919 -0.5324  0.5235 -2.0400
 2839SOL     OW19978   3.017   2.600  16.268  0.4386  0.0009 -0.1504
 2839SOL    HW119979   3.096   2.605  16.214 -0.4420 -0.5375 -1.4697
 2839SOL    HW219980   2.949   2.574  16.206  1.3300  0.4373 -1.2994
 2840SOL     OW19981   2.314   0.557   4.643  0.2669 -0.4098  0.2063
 2840SOL    HW119982   2.330   0.489   4.578  0.2106  2.3144 -2.6191
 2840SOL    HW219983   2.373   0.628   4.618 -0.0109 -0.2941 -0.1116
 2841SOL     OW19984   0.272   3.116   2.016 -0.6365 -0.4126  0.6991
 2841SOL    HW119985   0.351   3.077   2.054 -0.2381 -0.4736 -0.2051
 2841SOL    HW219986   0.276   3.075   1.930 -3.4393  1.9120 -0.5097
 2842SOL     OW19987   1.337   4.157   9.808 -0.0882 -0.5010 -0.2443
 2842SOL    HW119988   1.317   4.082   9.865 -0.8560 -0.9962 -1.1729
 2842SOL    HW219989   1.419   4.185   9.850 -0.1214  1.3414 -1.4345
 2843SOL     OW19990   0.673   4.619  12.072 -0.0140  0.7098  0.4799
 2843SOL    HW119991   0.580   4.642  12.076 -0.3974 -0.4429 -1.5941
 2843SOL    HW219992   0.696   4.654  11.986 -0.5774 -1.8563 -0.7310
 2844SOL     OW19993   1.892   4.656  11.195 -0.1640  0.4165 -0.2878
 2844SOL    HW119994   1.934   4.722  11.140  0.6558 -0.4314 -0.6752
 2844SOL    HW219995   1.889   4.578  11.139 -1.6687  1.6770 -1.9650
 2845SOL     OW19996   1.666   1.386   7.868 -0.3687 -0.2342 -0.8366
 2845SOL    HW119997   1.596   1.323   7.852 -1.8278  1.2387 -0.2550
 2845SOL    HW219998   1.612   1.465   7.862 -0.6797 -0.4182 -0.4991
 2846SOL     OW19999   1.925   4.156   3.794  0.2999 -0.3522 -0.3140
 2846SOL    HW120000   1.869   4.233   3.806  0.7370 -0.2042  0.7187
 2846SOL    HW220001   1.888   4.105   3.866 -1.6533  0.9693 -0.3899
 2847SOL     OW20002   3.916   1.302  10.881 -0.0987 -0.1305  0.3539
 2847SOL    HW120003   3.911   1.208  10.863 -1.3868 -0.2431  1.2722
 2847SOL    HW220004   3.954   1.341  10.803 -0.8026 -1.3820 -0.6096
 2848SOL     OW20005   0.519   0.090   2.702 -0.2498  0.1985  0.1925
 2848SOL    HW120006   0.610   0.094   2.673 -0.1332 -1.0736  0.3749
 2848SOL    HW220007   0.507   0.176   2.742  1.8520  0.0403  1.1853
 2849SOL     OW20008   4.246   1.120   6.853  0.5299 -0.1319 -0.2798
 2849SOL    HW120009   4.265   1.166   6.771  0.7173 -1.5581 -1.0325
 2849SOL    HW220010   4.295   1.179   6.911  1.8000  0.2064 -1.6849
 2850SOL     OW20011   1.068   1.500   3.698 -0.1512  0.0205  0.2131
 2850SOL    HW120012   1.094   1.524   3.609 -3.2293 -1.8586 -1.2135
 2850SOL    HW220013   1.038   1.410   3.689 -0.2718  0.1275 -0.4768
 2851SOL     OW20014   1.798   4.292   7.221  0.2957  0.4389  0.2939
 2851SOL    HW120015   1.850   4.300   7.301  0.3745  1.5283  0.1330
 2851SOL    HW220016   1.771   4.200   7.228 -0.5314  0.4540 -2.4502
 2852SOL     OW20017   1.144   0.604   9.503  0.5229 -0.0569  0.6084
 2852SOL    HW120018   1.125   0.603   9.597 -1.7944  0.0059  0.1573
 2852SOL    HW220019   1.239   0.601   9.505  0.5916 -0.2910 -2.0304
 2853SOL     OW20020   2.731   3.109  10.087  0.3326  0.1017  0.2565
 2853SOL    HW120021   2.668   3.178  10.106  0.9373  0.3663  1.3428
 2853SOL    HW220022   2.709   3.043  10.154 -2.8023 -1.4853 -2.3459
 2854SOL     OW20023   3.939   1.836  12.957 -0.4220  0.3375  0.2019
 2854SOL    HW120024   3.920   1.818  12.865  3.6740 -1.3460 -0.3066
 2854SOL    HW220025   3.866   1.797  13.005 -0.0770 -0.9850 -0.3563
 2855SOL     OW20026   2.242   1.120   4.124 -0.1949 -0.0369 -0.3813
 2855SOL    HW120027   2.322   1.171   4.138  0.1573 -0.6802 -0.0408
 2855SOL    HW220028   2.182   1.187   4.091  0.5012  0.8863  0.2390
 2856SOL     OW20029   3.243   4.554   4.171  0.0321  0.1818 -0.1462
 2856SOL    HW120030   3.163   4.601   4.192 -0.0082 -1.2997  3.0445
 2856SOL    HW220031   3.302   4.618   4.130  0.9474 -0.6580 -0.1520
 2857SOL     OW20032   0.979   4.688   7.732 -0.5251 -0.0654  0.2354
 2857SOL    HW120033   0.960   4.689   7.826 -1.0591  0.6974  0.1167
 2857SOL    HW220034   0.948   0.050   7.706 -0.4460 -0.1335 -0.0806
 2858SOL     OW20035   2.668   4.341   7.379  0.1575  0.4517  0.4213
 2858SOL    HW120036   2.651   4.398   7.303 -3.3862  0.2817  1.0657
 2858SOL    HW220037   2.645   4.392   7.456 -0.6722 -1.5659  1.5146
 2859SOL     OW20038   3.503   4.324  11.950  0.1082 -0.2675 -0.1944
 2859SOL    HW120039   3.571   4.391  11.962 -1.1437  0.7328  1.3404
 2859SOL    HW220040   3.554   4.243  11.954 -0.4033 -0.5570  0.4605
 2860SOL     OW20041   4.477   2.265   2.656  0.2827  0.7842 -0.5856
 2860SOL    HW120042   4.389   2.299   2.672  0.6069  1.6035 -0.5707
 2860SOL    HW220043   4.522   2.307   2.730 -1.3956  1.0084  0.3164
 2861SOL     OW20044   3.229   3.121   3.456 -0.2871 -0.7374  0.2447
 2861SOL    HW120045   3.268   3.090   3.538 -1.7296  1.0657  1.6206
 2861SOL    HW220046   3.166   3.056   3.426 -0.9717 -0.0928  0.2975
 2862SOL     OW20047   3.651   1.260   5.192 -0.2958 -0.8644  0.2388
 2862SOL    HW120048   3.603   1.200   5.249  2.1840 -1.8632  1.3043
 2862SOL    HW220049   3.583   1.323   5.170  1.3991  0.5705 -0.8564
 2863SOL     OW20050   4.218   0.048   2.627 -0.1199 -0.5953  0.1163
 2863SOL    HW120051   4.184   0.026   2.714 -0.2684  0.7698  0.4024
 2863SOL    HW220052   4.265   0.129   2.645 -0.2871 -0.1205 -1.5656
 2864SOL     OW20053   3.102   4.561  14.660 -0.2651  0.1971 -0.6775
 2864SOL    HW120054   3.031   4.577  14.597 -0.0347 -0.5192 -1.1159
 2864SOL    HW220055   3.059   4.504  14.724 -0.8996  1.2598 -0.1520
 2865SOL     OW20056   1.045   3.483  15.985  0.1592  0.7213 -0.0002
 2865SOL    HW120057   1.129   3.499  15.940 -0.0758 -2.7053 -1.6544
 2865SOL    HW220058   0.988   3.452  15.915 -1.2534  1.6080  0.7794
 2866SOL     OW20059   1.703   3.897   6.161  0.3905  0.0676 -0.4502
 2866SOL    HW120060   1.706   3.808   6.195 -0.1237 -0.2835 -1.3531
 2866SOL    HW220061   1.618   3.918   6.200 -0.0787  0.3487 -1.6371
 2867SOL     OW20062   3.270   1.515   9.193 -0.0935 -0.2379  0.0767
 2867SOL    HW120063   3.235   1.445   9.248  0.1333 -1.7146 -1.6393
 2867SOL    HW220064   3.277   1.588   9.254  0.8474 -0.9922  0.8573
 2868SOL     OW20065   0.866   1.281   7.667 -0.3853  0.9026  0.2344
 2868SOL    HW120066   0.773   1.304   7.660 -0.1610  1.5841 -0.3639
 2868SOL    HW220067   0.902   1.356   7.622  1.9246 -1.4132 -1.7346
 2869SOL     OW20068   0.774   3.989   5.734  0.3632  0.0853 -0.0264
 2869SOL    HW120069   0.855   3.948   5.704 -0.5506 -0.7198 -1.3942
 2869SOL    HW220070   0.709   3.971   5.666 -0.9339 -0.8069  1.4648
 2870SOL     OW20071   3.367   0.059   6.680  0.3329 -0.3760 -0.4627
 2870SOL    HW120072   3.277   0.089   6.675  1.3596  2.7048 -0.3187
 2870SOL    HW220073   3.405   0.128   6.734  0.2601  1.0932 -2.2903
 2871SOL     OW20074   0.455   1.473  17.478 -0.4704 -0.7544  0.3865
 2871SOL    HW120075   0.387   1.429  17.529 -0.6424 -0.3049  0.5462
 2871SOL    HW220076   0.520   1.498  17.544 -0.0197 -1.9622  0.3953
 2872SOL     OW20077   3.859   0.450   1.773 -0.1067  0.0085  0.0060
 2872SOL    HW120078   3.775   0.423   1.810 -0.2713 -1.2842 -1.3391
 2872SOL    HW220079   3.917   0.434   1.848 -1.0969 -0.7745  0.6037
 2873SOL     OW20080   2.497   3.518   3.939 -0.2792  0.0693  0.1731
 2873SOL    HW120081   2.564   3.459   3.905 -0.1169  1.0517 -1.2068
 2873SOL    HW220082   2.543   3.577   3.998  1.4527 -1.4187  0.3056
 2874SOL     OW20083   1.116   3.760  16.769 -0.3940 -0.1150  0.7622
 2874SOL    HW120084   1.081   3.671  16.767  1.0446 -0.6370 -1.7653
 2874SOL    HW220085   1.133   3.791  16.680 -0.1990  0.7085  1.0851
 2875SOL     OW20086   1.879   3.523  15.439 -0.6944 -0.1040 -0.0080
 2875SOL    HW120087   1.947   3.486  15.382  0.3618 -1.7189  2.2767
 2875SOL    HW220088   1.886   3.618  15.432 -0.6129 -0.3422 -3.0278
 2876SOL     OW20089   2.580   1.665  14.646  0.2727 -0.0106 -0.1430
 2876SOL    HW120090   2.621   1.683  14.561 -2.9108  1.4388 -1.3604
 2876SOL    HW220091   2.587   1.748  14.692  0.3028  0.7048 -1.4363
 2877SOL     OW20092   1.548   2.251  13.104  0.2610  1.0110 -0.1754
 2877SOL    HW120093   1.573   2.161  13.086 -0.5602  0.6963  0.2456
 2877SOL    HW220094   1.576   2.281  13.017  2.7901  1.4311  0.7770
 2878SOL     OW20095   0.674   0.176   1.993  0.0286  0.1198  0.4385
 2878SOL    HW120096   0.659   0.173   1.898  1.1031 -0.0326  0.2678
 2878SOL    HW220097   0.585   0.193   2.023  0.2178 -0.8353  1.5578
 2879SOL     OW20098   0.808   0.588   3.951  0.6057 -0.2991  0.3408
 2879SOL    HW120099   0.750   0.603   4.026 -0.2679  2.1951 -0.8610
 2879SOL    HW220100   0.788   0.653   3.884 -0.8012 -0.0496  0.9890
 2880SOL     OW20101   4.287   0.692   4.622 -0.1656  0.5777  0.0520
 2880SOL    HW120102   4.200   0.686   4.583 -0.9915 -1.2381  2.1320
 2880SOL    HW220103   4.346   0.721   4.552 -1.1647 -0.0854 -1.0607
 2881SOL     OW20104   2.007   0.273   5.495  0.7683 -0.4332  0.7595
 2881SOL    HW120105   2.093   0.256   5.533  0.9569 -0.4165  0.3330
 2881SOL    HW220106   1.989   0.362   5.526  2.5262  0.1688  0.0020
 2882SOL     OW20107   2.954   3.679   2.782 -0.3137 -0.1385  0.0792
 2882SOL    HW120108   2.927   3.769   2.765 -0.3599 -0.0190  0.8019
 2882SOL    HW220109   2.926   3.637   2.700 -1.0852 -0.1655  0.3529
 2883SOL     OW20110   0.958   4.455   7.985 -0.0715 -0.0155 -0.2431
 2883SOL    HW120111   0.922   4.542   7.973 -1.0510 -0.5853 -1.4455
 2883SOL    HW220112   0.876   4.406   7.977  0.4463 -0.6748 -1.4529
 2884SOL     OW20113   2.131   4.675  17.013  0.0573  0.0963  0.0453
 2884SOL    HW120114   2.088   4.668  16.928 -0.1991 -1.8141  0.3287
 2884SOL    HW220115   2.067   0.005  17.060  1.1714  0.4772  1.1400
 2885SOL     OW20116   3.429   2.511   3.990  0.8953  0.4689 -0.0264
 2885SOL    HW120117   3.397   2.453   4.059 -0.4783 -0.1903 -1.2079
 2885SOL    HW220118   3.510   2.546   4.027  0.5930 -0.4197  1.5034
 2886SOL     OW20119   2.815   4.528  15.912 -0.1102  0.0427  0.3052
 2886SOL    HW120120   2.720   4.519  15.916  0.1105 -0.4430  3.9914
 2886SOL    HW220121   2.833   4.444  15.869  0.8075 -0.4268  1.6286
 2887SOL     OW20122   4.169   0.100  16.156  0.0739 -0.6412 -0.6270
 2887SOL    HW120123   4.225   0.027  16.127  2.3327  1.5273 -1.6813
 2887SOL    HW220124   4.176   0.161  16.083 -0.6314 -1.4578 -1.3738
 2888SOL     OW20125   3.460   1.529   6.392  0.2140 -0.5535  0.6243
 2888SOL    HW120126   3.446   1.552   6.300 -3.4433 -1.7242  0.8928
 2888SOL    HW220127   3.432   1.613   6.427 -2.3384 -1.8370  1.6827
 2889SOL     OW20128   2.311   1.860   4.323  0.1368  0.0745  0.6225
 2889SOL    HW120129   2.293   1.842   4.231 -0.2369 -1.9637  1.1006
 2889SOL    HW220130   2.230   1.907   4.341  0.0254  0.8949 -2.1494
 2890SOL     OW20131   3.936   3.717  11.179  0.2952 -0.0377 -0.3738
 2890SOL    HW120132   3.883   3.737  11.257  1.7385  0.7799  0.3999
 2890SOL    HW220133   3.947   3.622  11.178 -0.8068 -0.1963  2.5779
 2891SOL     OW20134   1.933   1.222   5.806 -0.4179 -0.4867 -0.0296
 2891SOL    HW120135   1.882   1.192   5.882 -2.0480 -0.6793 -1.1938
 2891SOL    HW220136   2.020   1.214   5.844 -1.3317  2.4412  2.7416
 2892SOL     OW20137   1.101   2.146   6.370 -0.2848 -0.3609  0.4635
 2892SOL    HW120138   1.185   2.108   6.393 -0.9572 -1.6041  0.8806
 2892SOL    HW220139   1.052   2.122   6.449  0.2995 -0.4519  0.7932
 2893SOL     OW20140   1.210   0.681  11.293  0.2211 -0.0496  0.0433
 2893SOL    HW120141   1.240   0.593  11.315 -0.5009  0.5768  3.5189
 2893SOL    HW220142   1.287   0.710  11.245  0.7425 -1.7248 -0.1246
 2894SOL     OW20143   2.065   1.131   8.325 -0.0727  0.3097 -0.2413
 2894SOL    HW120144   2.034   1.212   8.284  0.4403  1.3064  1.3506
 2894SOL    HW220145   2.041   1.149   8.416 -0.8825  0.4623 -0.4803
 2895SOL     OW20146   2.774   2.136  12.371  0.6457 -0.1778  0.1499
 2895SOL    HW120147   2.854   2.167  12.414 -0.0936 -1.2733  2.3195
 2895SOL    HW220148   2.730   2.221  12.372 -0.7924 -0.9468  2.9318
 2896SOL     OW20149   3.365   3.871   1.231 -0.1976  0.0204 -0.9780
 2896SOL    HW120150   3.282   3.860   1.185 -1.3705 -0.2486  1.1787
 2896SOL    HW220151   3.362   3.966   1.243  0.7628  0.1007 -1.3694
 2897SOL     OW20152   1.097   4.120   2.644 -0.0845  0.1391  0.3931
 2897SOL    HW120153   1.061   4.047   2.694  0.6126 -1.2304 -1.1013
 2897SOL    HW220154   1.020   4.147   2.595 -0.4445  0.0716  0.9240
 2898SOL     OW20155   3.777   1.147   0.498  0.0511  0.5247  0.0601
 2898SOL    HW120156   3.826   1.206   0.555 -0.4825  1.1397 -0.1116
 2898SOL    HW220157   3.760   1.212   0.430  0.7835 -1.0782 -1.6561
 2899SOL     OW20158   2.851   1.214  15.410 -0.1103 -0.7130  0.0582
 2899SOL    HW120159   2.784   1.201  15.342 -1.3947  2.5317  0.7045
 2899SOL    HW220160   2.885   1.296  15.373  0.8747 -1.0928  0.1412
 2900SOL     OW20161   2.548   2.545  11.580  0.0732 -0.3801  0.2396
 2900SOL    HW120162   2.612   2.495  11.529 -2.3963 -2.3903 -0.8691
 2900SOL    HW220163   2.590   2.575  11.660  1.1988 -1.1233 -0.0667
 2901SOL     OW20164   0.556   2.414  15.936  0.6000 -0.6879  0.0082
 2901SOL    HW120165   0.535   2.501  15.971 -0.5593 -1.6874  1.8570
 2901SOL    HW220166   0.531   2.420  15.844 -1.7791 -2.1306  0.5682
 2902SOL     OW20167   1.916   0.684   7.187  0.8665  0.3605  0.1072
 2902SOL    HW120168   1.852   0.740   7.229 -0.3780 -2.8544  2.5081
 2902SOL    HW220169   1.984   0.751   7.190 -0.1448  1.4270 -0.7696
 2903SOL     OW20170   3.878   2.549   7.670 -0.7540  0.2476  0.3407
 2903SOL    HW120171   3.787   2.567   7.694 -1.0873 -0.4337 -0.3999
 2903SOL    HW220172   3.922   2.612   7.727 -4.3624  1.6533  1.5665
 2904SOL     OW20173   3.464   4.066   4.656  0.4673 -0.1466  0.3884
 2904SOL    HW120174   3.473   4.140   4.715  1.5660 -0.5822  0.7715
 2904SOL    HW220175   3.428   4.099   4.574  2.4940 -0.9098 -0.8009
 2905SOL     OW20176   0.428   3.468  13.483  0.1873 -0.4668 -0.3151
 2905SOL    HW120177   0.357   3.532  13.474  0.9194  0.5021  0.7565
 2905SOL    HW220178   0.378   3.406  13.535  1.8265 -0.9796  0.6567
 2906SOL     OW20179   3.373   3.891   5.067 -0.3832  0.8380  0.0877
 2906SOL    HW120180   3.307   3.853   5.008  0.4228  1.6525 -1.3202
 2906SOL    HW220181   3.329   3.920   5.147  0.0151 -0.2981  0.7152
 2907SOL     OW20182   0.414   4.521   3.737  0.1938  0.4947 -0.0101
 2907SOL    HW120183   0.382   4.552   3.822  0.0600  0.8683 -0.1971
 2907SOL    HW220184   0.378   4.590   3.682  0.4939  1.5856  1.1666
 2908SOL     OW20185   0.071   2.883  12.155 -0.7385 -0.0324  0.3592
 2908SOL    HW120186   0.068   2.805  12.211  2.0844  1.0534  2.0140
 2908SOL    HW220187   0.025   2.945  12.212  2.0280  1.3138  1.1373
 2909SOL     OW20188   2.507   0.817  16.908 -0.1622 -0.9728 -0.3903
 2909SOL    HW120189   2.560   0.827  16.987  0.3004 -2.7249 -0.4703
 2909SOL    HW220190   2.419   0.791  16.934  0.0586 -0.0367  1.2510
 2910SOL     OW20191   3.763   0.574   7.881 -0.6864  0.4588 -0.5126
 2910SOL    HW120192   3.674   0.560   7.849 -0.7954 -0.5878  0.2779
 2910SOL    HW220193   3.761   0.670   7.874 -0.0347  0.4272 -1.1220
 2911SOL     OW20194   1.611   0.713   6.810  0.2614 -0.2120 -0.3146
 2911SOL    HW120195   1.535   0.664   6.781  0.5561 -1.2583  0.6662
 2911SOL    HW220196   1.672   0.712   6.736  0.4538  0.0663 -0.1614
 2912SOL     OW20197   0.018   1.344   7.219  0.1613 -0.1107 -0.0650
 2912SOL    HW120198   0.016   1.421   7.162  0.3272  0.0735  0.1804
 2912SOL    HW220199   0.063   1.279   7.164  0.3424  1.1801 -1.4416
 2913SOL     OW20200   0.009   1.206  15.705  0.2904 -0.0744  0.0285
 2913SOL    HW120201   0.087   1.250  15.672 -0.5743  0.1075 -1.7384
 2913SOL    HW220202   4.702   1.280  15.758  1.0269  0.8668 -0.8604
 2914SOL     OW20203   1.864   1.542   1.109 -0.0589 -0.9583 -0.2564
 2914SOL    HW120204   1.931   1.480   1.080 -0.7177 -1.2090 -1.2340
 2914SOL    HW220205   1.873   1.532   1.203  2.8465 -1.6435 -0.5949
 2915SOL     OW20206   4.561   1.467   9.921 -0.5046 -0.8524 -0.6052
 2915SOL    HW120207   4.614   1.468   9.841 -2.0476  2.2057 -1.5964
 2915SOL    HW220208   4.482   1.513   9.892  0.6539  0.3665 -1.8735
 2916SOL     OW20209   4.426   2.105   9.348  0.6851 -0.8227 -0.2107
 2916SOL    HW120210   4.431   2.015   9.316  2.3944 -0.8333  0.0845
 2916SOL    HW220211   4.344   2.091   9.394  0.3779 -0.0287 -0.5020
 2917SOL     OW20212   1.359   0.526  12.982 -0.1860  0.0854 -0.0570
 2917SOL    HW120213   1.352   0.438  12.944  2.6505  0.1407 -0.7174
 2917SOL    HW220214   1.347   0.508  13.075  1.4640 -2.1118 -0.2541
 2918SOL     OW20215   1.561   0.473  10.254 -0.9782 -0.4524  0.4179
 2918SOL    HW120216   1.648   0.503  10.281  0.1117 -1.0494 -2.4838
 2918SOL    HW220217   1.581   0.380  10.240 -1.0791 -0.7296  2.1317
 2919SOL     OW20218   2.205   0.147  15.891 -0.2056 -0.0611 -0.1908
 2919SOL    HW120219   2.154   0.104  15.960  1.4842  0.9975  1.7148
 2919SOL    HW220220   2.266   0.074  15.880  0.5084  0.5058  0.0178
 2920SOL     OW20221   1.396   4.388   3.062  0.1665 -0.6059  0.1003
 2920SOL    HW120222   1.351   4.304   3.049  1.5958 -1.1249 -1.4640
 2920SOL    HW220223   1.460   4.391   2.991  0.7962 -2.2631  0.5931
 2921SOL     OW20224   0.790   3.481   4.669  0.3026 -0.3881  0.2677
 2921SOL    HW120225   0.811   3.404   4.721  1.0332 -0.3625  0.0144
 2921SOL    HW220226   0.848   3.543   4.713  0.6276  0.1949 -0.9691
 2922SOL     OW20227   4.577   4.601   8.351  0.1140 -0.3356  0.0647
 2922SOL    HW120228   4.575   4.657   8.428  1.3814 -0.7216  0.3815
 2922SOL    HW220229   4.610   4.520   8.388 -3.5876 -1.6523  0.4871
 2923SOL     OW20230   0.110   2.978   0.841  0.1962 -0.6983  0.2052
 2923SOL    HW120231   0.071   3.063   0.860  0.2039 -0.6132 -0.1648
 2923SOL    HW220232   0.085   2.962   0.750 -0.8186  0.6577  0.2445
 2924SOL     OW20233   3.422   3.866  13.939 -0.5220  0.2726 -0.0107
 2924SOL    HW120234   3.479   3.812  13.993 -1.7268 -0.4023  0.6025
 2924SOL    HW220235   3.385   3.930  14.000  0.0381 -0.2090  0.8379
 2925SOL     OW20236   1.962   2.783   4.100  0.0801  0.1045 -0.6090
 2925SOL    HW120237   2.036   2.766   4.042  0.5162  1.1631 -0.3653
 2925SOL    HW220238   1.972   2.874   4.126  0.3485 -0.6107  1.8381
 2926SOL     OW20239   4.263   2.017  15.690  0.4850  0.2180 -0.2969
 2926SOL    HW120240   4.271   2.051  15.779  1.2715 -0.2369 -0.1934
 2926SOL    HW220241   4.186   1.960  15.697  2.0772 -2.1284 -1.8890
 2927SOL     OW20242   2.693   2.741  16.848 -0.0900  0.1953  0.0357
 2927SOL    HW120243   2.788   2.753  16.849  0.1707 -1.8354  0.3267
 2927SOL    HW220244   2.676   2.800  16.775 -0.8688 -0.4363 -0.2873
 2928SOL     OW20245   0.301   4.050   9.122  0.6899  0.3427  0.0582
 2928SOL    HW120246   0.336   3.963   9.104  2.0550  0.3305  2.8192
 2928SOL    HW220247   0.206   4.035   9.118  0.1564  3.4780  0.4362
 2929SOL     OW20248   0.641   2.999   0.043 -0.3166  0.0134  0.3278
 2929SOL    HW120249   0.646   3.051  17.659 -0.0453 -2.0130 -0.9762
 2929SOL    HW220250   0.558   3.029   0.081 -0.7330 -1.0478  0.2431
 2930SOL     OW20251   1.739   1.441   6.208 -0.0928  1.0767  0.9752
 2930SOL    HW120252   1.767   1.404   6.124 -0.6978  0.4924  1.0337
 2930SOL    HW220253   1.770   1.370   6.263 -2.6321 -1.2041 -0.5134
 2931SOL     OW20254   2.340   1.444   5.359  0.2399 -0.1239 -0.2824
 2931SOL    HW120255   2.391   1.391   5.420 -1.7657 -1.0386  0.5994
 2931SOL    HW220256   2.396   1.522   5.360 -0.9287  0.6728  2.3004
 2932SOL     OW20257   3.176   0.390   7.549 -0.1901  0.0903  0.1100
 2932SOL    HW120258   3.212   0.462   7.602 -0.3300 -0.5639  1.0977
 2932SOL    HW220259   3.255   0.344   7.521 -0.2465 -1.5598  2.6126
 2933SOL     OW20260   4.656   1.118  13.175  0.7181  0.5701 -0.3152
 2933SOL    HW120261   0.014   1.167  13.167  0.8391  0.6159  1.2960
 2933SOL    HW220262   4.698   1.033  13.160 -0.3307  0.1945 -1.1686
 2934SOL     OW20263   4.130   3.346  15.801  0.0481  0.1060  0.1897
 2934SOL    HW120264   4.177   3.320  15.721 -0.1558 -0.2903  0.1981
 2934SOL    HW220265   4.069   3.272  15.798  0.6655 -0.4116  0.3821
 2935SOL     OW20266   1.864   0.322  17.575  0.1056 -0.1177  0.5781
 2935SOL    HW120267   1.863   0.390  17.507 -0.7277 -0.9264 -0.2366
 2935SOL    HW220268   1.871   0.369  17.658  1.2726 -1.5838  1.3094
 2936SOL     OW20269   3.908   3.644   8.247  0.0998  0.5562 -0.5893
 2936SOL    HW120270   3.937   3.696   8.322 -0.6914 -0.8229  0.6701
 2936SOL    HW220271   3.974   3.576   8.233 -1.5815 -1.5308  1.6736
 2937SOL     OW20272   0.415   2.904   4.523  0.3135 -0.5226  0.1283
 2937SOL    HW120273   0.396   2.992   4.556  1.7671  0.6583 -2.1760
 2937SOL    HW220274   0.430   2.919   4.429  1.8586 -0.4567  0.3963
 2938SOL     OW20275   1.892   2.629   3.303  1.0651  1.0414  0.5506
 2938SOL    HW120276   1.819   2.665   3.354 -0.6625 -0.1892 -1.0582
 2938SOL    HW220277   1.885   2.680   3.223  1.2582  0.0359 -0.0961
 2939SOL     OW20278   2.100   3.121  14.701 -0.5903  0.0297  0.2687
 2939SOL    HW120279   2.021   3.153  14.744  0.2690 -1.1360  2.6989
 2939SOL    HW220280   2.072   3.043  14.652  0.3362  0.1595 -0.4688
 2940SOL     OW20281   1.312   0.816  10.269 -0.0996 -0.2689 -0.4609
 2940SOL    HW120282   1.333   0.909  10.273  3.2857 -1.0339  0.2967
 2940SOL    HW220283   1.322   0.802  10.363 -1.5994 -3.9076 -0.8732
 2941SOL     OW20284   1.310   2.877   9.934 -0.5266  0.7075 -0.2564
 2941SOL    HW120285   1.378   2.901   9.997  1.5820 -1.4842 -1.7227
 2941SOL    HW220286   1.243   2.854   9.998 -2.6312  0.1085 -2.6813
 2942SOL     OW20287   2.710   2.856   5.805 -0.3196  0.5126  0.8705
 2942SOL    HW120288   2.621   2.833   5.780 -0.2546  0.5488  0.6046
 2942SOL    HW220289   2.699   2.870   5.899 -1.1488  0.3620  0.7948
 2943SOL     OW20290   1.746   4.194   5.620 -0.1081 -0.4851 -0.2930
 2943SOL    HW120291   1.804   4.223   5.550 -1.7993  0.3714 -1.3460
 2943SOL    HW220292   1.785   4.108   5.639  0.2386  0.3607  2.7903
 2944SOL     OW20293   2.507   3.172  10.828  0.2439  0.3507 -0.1419
 2944SOL    HW120294   2.442   3.239  10.849 -0.4198 -0.8155  1.4734
 2944SOL    HW220295   2.588   3.223  10.838 -0.0673  0.7177  0.5066
 2945SOL     OW20296   2.417   2.074   6.042 -0.6512  0.2190 -0.7025
 2945SOL    HW120297   2.489   2.075   6.105 -0.8350 -0.7345 -0.4694
 2945SOL    HW220298   2.359   2.002   6.066  0.4890 -1.0215 -1.6602
 2946SOL     OW20299   3.582   4.115   6.908 -0.0125 -0.2240  0.1878
 2946SOL    HW120300   3.617   4.151   6.989 -0.6165 -1.0645  0.8230
 2946SOL    HW220301   3.656   4.104   6.847  0.4636  1.1221  0.5228
 2947SOL     OW20302   4.347   0.918   6.072 -0.4224  0.2954  0.0218
 2947SOL    HW120303   4.264   0.943   6.032 -0.7619  0.2009  0.6794
 2947SOL    HW220304   4.390   1.002   6.056  1.3996 -0.6130  0.0662
 2948SOL     OW20305   2.815   2.258   5.315  0.2183 -0.2547 -0.5302
 2948SOL    HW120306   2.745   2.308   5.274 -0.1838 -1.9487 -1.9075
 2948SOL    HW220307   2.830   2.325   5.381  2.1121 -2.1587  0.9717
 2949SOL     OW20308   4.598   0.043   8.016 -0.4496  0.6578 -0.3182
 2949SOL    HW120309   4.644   0.005   7.942 -0.0423 -1.3985  0.9823
 2949SOL    HW220310   4.581   0.134   7.991 -2.0936  0.4860  0.1958
 2950SOL     OW20311   1.922   1.988  13.004  0.4452 -0.1629 -0.3961
 2950SOL    HW120312   2.005   1.974  13.050  0.0483  1.5652  0.8574
 2950SOL    HW220313   1.909   1.915  12.945 -1.0737 -0.5754  0.4523
 2951SOL     OW20314   1.149   1.065  13.845  1.0751  0.2937 -0.4163
 2951SOL    HW120315   1.241   1.069  13.819  0.4251  0.1365 -2.7150
 2951SOL    HW220316   1.154   1.007  13.921  1.9399  1.8806  0.7359
 2952SOL     OW20317   3.772   3.999   8.664  0.2940  0.3862 -0.0517
 2952SOL    HW120318   3.715   3.944   8.718  0.9876 -0.4253 -0.1352
 2952SOL    HW220319   3.774   4.073   8.724  0.0796  1.7896 -1.7943
 2953SOL     OW20320   1.708   4.510   6.067 -0.0443  0.1120  0.6024
 2953SOL    HW120321   1.723   4.439   6.004  0.7790 -0.4710  1.4575
 2953SOL    HW220322   1.617   4.494   6.088  0.3399  0.4786  2.5938
 2954SOL     OW20323   1.982   2.315   6.537 -0.4110 -0.2512  0.2136
 2954SOL    HW120324   1.985   2.410   6.531 -3.1421 -0.0540  1.9519
 2954SOL    HW220325   1.939   2.295   6.454  0.7643 -0.9494 -0.2321
 2955SOL     OW20326   2.834   3.661   9.459 -0.2144 -0.2346 -0.1020
 2955SOL    HW120327   2.865   3.723   9.525  0.0654  0.4759 -0.9110
 2955SOL    HW220328   2.913   3.608   9.456 -0.5220 -0.6458 -0.9665
 2956SOL     OW20329   0.508   0.597   6.679 -0.7044 -0.0826  0.3902
 2956SOL    HW120330   0.449   0.667   6.708  1.8881  1.5501  1.6086
 2956SOL    HW220331   0.475   0.518   6.722  0.2054  0.5162  2.1514
 2957SOL     OW20332   4.320   1.769   7.597  0.5453 -0.0066 -0.3023
 2957SOL    HW120333   4.330   1.862   7.619  0.0178 -0.0579  0.1538
 2957SOL    HW220334   4.226   1.756   7.606  0.4506  1.1800  0.5167
 2958SOL     OW20335   4.068   1.919  16.773  0.6046 -0.0024 -0.5575
 2958SOL    HW120336   4.064   1.998  16.827  1.5454  1.1327 -2.1664
 2958SOL    HW220337   4.102   1.956  16.692 -0.1745  0.8785 -0.4845
 2959SOL     OW20338   1.001   4.621   7.329 -0.4719  0.5288  0.8713
 2959SOL    HW120339   0.946   4.550   7.364 -0.6430  0.5404  0.6269
 2959SOL    HW220340   0.950   4.640   7.250 -1.4151  0.5060  1.4778
 2960SOL     OW20341   0.248   0.613   8.139 -0.2448 -0.5299 -0.0040
 2960SOL    HW120342   0.330   0.661   8.133 -0.4547 -0.0270  1.0757
 2960SOL    HW220343   0.279   0.522   8.137 -0.3102 -0.6007  1.8605
 2961SOL     OW20344   2.403   0.286   6.587  0.0344 -0.4341  0.2781
 2961SOL    HW120345   2.322   0.336   6.597 -0.1119 -0.7435  0.6417
 2961SOL    HW220346   2.397   0.260   6.495 -1.7212  0.1409  0.2306
 2962SOL     OW20347   2.586   4.212  11.180 -0.1235 -0.0255 -0.8154
 2962SOL    HW120348   2.675   4.206  11.147  0.7801  0.5778  1.4664
 2962SOL    HW220349   2.571   4.299  11.219 -0.8922 -0.8662  0.7867
 2963SOL     OW20350   0.138   0.572  13.815 -0.1149  0.2696 -0.1444
 2963SOL    HW120351   0.176   0.614  13.737 -0.8973  2.1244  0.4623
 2963SOL    HW220352   0.089   0.651  13.840 -0.9656 -0.5752  0.8546
 2964SOL     OW20353   2.782   4.513  13.580 -0.5179  0.1594 -0.1099
 2964SOL    HW120354   2.774   4.606  13.602  1.0352  0.1514  0.4378
 2964SOL    HW220355   2.706   4.497  13.524 -0.3805 -0.1488 -0.2106
 2965SOL     OW20356   2.176   1.197   2.373  0.4799  0.1820  0.2887
 2965SOL    HW120357   2.257   1.224   2.417 -0.3093 -0.1594  1.9427
 2965SOL    HW220358   2.204   1.118   2.327  0.0224  0.5321 -0.6029
 2966SOL     OW20359   4.234   2.989   5.403 -0.0334  0.0370 -0.3565
 2966SOL    HW120360   4.235   2.958   5.493 -2.2213  1.1232  0.0253
 2966SOL    HW220361   4.150   3.032   5.387 -0.5239 -1.3659 -1.5786
 2967SOL     OW20362   4.194   0.718   1.459 -0.0209  0.1813  0.4432
 2967SOL    HW120363   4.122   0.695   1.519 -0.1837  2.5578  1.1708
 2967SOL    HW220364   4.163   0.672   1.381  1.4135  0.6876 -0.4130
 2968SOL     OW20365   1.563   4.455   4.275  0.3651 -0.1967 -0.0831
 2968SOL    HW120366   1.533   4.546   4.268  1.0292 -0.1912 -3.1132
 2968SOL    HW220367   1.485   4.414   4.238  0.3073 -1.0116  0.9630
 2969SOL     OW20368   2.823   0.860   5.647 -0.2085 -0.2443  0.2459
 2969SOL    HW120369   2.802   0.854   5.554 -0.6277 -3.6589  0.5778
 2969SOL    HW220370   2.760   0.925   5.679 -2.9061 -2.1615 -1.1754
 2970SOL     OW20371   0.774   0.003   5.910  0.5603 -0.1171 -0.1307
 2970SOL    HW120372   0.855   0.004   5.960  1.0854 -1.5890 -0.9509
 2970SOL    HW220373   0.796   4.722   5.817 -0.3427 -2.3230 -0.2255
 2971SOL     OW20374   4.606   4.231   2.704 -0.1898  0.3269  0.1716
 2971SOL    HW120375   4.593   4.139   2.678  0.7079  0.3584 -0.3732
 2971SOL    HW220376   4.516   4.263   2.701 -0.3045  0.0032  0.0881
 2972SOL     OW20377   1.074   3.594   8.176  0.1947 -0.4503  0.0188
 2972SOL    HW120378   0.986   3.599   8.140 -0.1172 -1.5532  0.6106
 2972SOL    HW220379   1.054   3.572   8.267 -0.6314 -2.3191 -0.6152
 2973SOL     OW20380   3.831   4.574   3.621  0.2266 -0.3431  0.1238
 2973SOL    HW120381   3.805   4.515   3.691 -0.1512  1.0566  1.1647
 2973SOL    HW220382   3.926   4.567   3.628  0.2159  1.0235  1.5770
 2974SOL     OW20383   1.297   4.286   5.475 -0.0859  0.2552 -0.3281
 2974SOL    HW120384   1.384   4.281   5.434 -0.4362  0.6835 -1.1056
 2974SOL    HW220385   1.265   4.368   5.437  0.8582  0.4770 -0.6440
 2975SOL     OW20386   0.675   0.995   1.850 -0.0428 -0.7603  0.2889
 2975SOL    HW120387   0.737   0.949   1.794 -1.6360  0.6977 -2.6222
 2975SOL    HW220388   0.726   1.020   1.928  0.0406 -0.3637  0.1065
 2976SOL     OW20389   1.558   4.507   5.428 -0.0361  0.1766 -0.0425
 2976SOL    HW120390   1.572   4.527   5.336  0.7922 -0.0156  0.0402
 2976SOL    HW220391   1.561   4.411   5.426  0.6110  0.1132  2.7626
 2977SOL     OW20392   1.987   0.678   5.786 -0.7268 -0.4667 -0.5858
 2977SOL    HW120393   2.048   0.613   5.819 -0.5600 -1.0887 -2.0797
 2977SOL    HW220394   1.959   0.635   5.705 -0.9991 -0.7180 -0.3597
 2978SOL     OW20395   0.612   2.661   2.579  0.3517 -0.1463 -0.4988
 2978SOL    HW120396   0.686   2.719   2.561 -0.0533 -0.0737 -1.8870
 2978SOL    HW220397   0.665   2.581   2.585 -1.1624 -1.0147  1.2096
 2979SOL     OW20398   1.567   0.446   8.022  0.0996  0.5168 -0.9054
 2979SOL    HW120399   1.500   0.504   7.985 -1.2010  0.2409  0.9570
 2979SOL    HW220400   1.581   0.381   7.954  0.5662  0.4954 -0.7898
 2980SOL     OW20401   3.031   3.951   8.321  0.0983 -0.1879 -0.1122
 2980SOL    HW120402   3.025   3.880   8.386 -1.4326 -0.7748 -0.8967
 2980SOL    HW220403   3.097   3.998   8.372  1.2700  0.7907 -2.5232
 2981SOL     OW20404   2.358   3.842   2.740  0.1056 -0.2610 -0.0107
 2981SOL    HW120405   2.313   3.867   2.659 -1.2033 -1.2519  0.4136
 2981SOL    HW220406   2.445   3.810   2.716  0.6842  0.2938  1.3528
 2982SOL     OW20407   3.697   3.569   2.321 -0.2608 -0.0526 -0.2222
 2982SOL    HW120408   3.710   3.631   2.393  0.8330  0.1496 -0.5960
 2982SOL    HW220409   3.615   3.533   2.353  0.2715 -1.2065 -0.1473
 2983SOL     OW20410   4.704   2.923   7.405  0.4678 -0.0268  0.5142
 2983SOL    HW120411   4.661   2.842   7.432 -1.1753  0.8047  0.4000
 2983SOL    HW220412   4.624   2.976   7.398 -0.0841 -1.0799 -0.9912
 2984SOL     OW20413   4.101   3.227  13.624 -0.1342 -0.3814 -0.7489
 2984SOL    HW120414   4.007   3.214  13.608 -0.2480 -2.7108  1.8246
 2984SOL    HW220415   4.123   3.308  13.578 -0.1003  0.0267 -0.0243
 2985SOL     OW20416   3.201   4.395   7.972 -0.2277 -0.7284  0.2822
 2985SOL    HW120417   3.144   4.446   8.029  2.3532  0.6183  1.6467
 2985SOL    HW220418   3.138   4.376   7.902 -0.0859  0.1518 -0.0910
 2986SOL     OW20419   0.798   3.969   5.993 -0.5532  0.0418 -0.1572
 2986SOL    HW120420   0.782   3.982   5.900  0.1382  1.0132 -0.1364
 2986SOL    HW220421   0.855   3.894   5.977  0.3446  0.8129 -0.5397
 2987SOL     OW20422   3.738   1.327   3.609  0.6690  0.4201  0.7491
 2987SOL    HW120423   3.772   1.346   3.521 -0.8307 -1.4194 -0.2181
 2987SOL    HW220424   3.797   1.256   3.633 -0.5224 -0.3556  1.3598
 2988SOL     OW20425   2.885   2.934  11.602 -0.3918  0.6374 -0.5011
 2988SOL    HW120426   2.927   2.888  11.675  2.3141  0.3430 -2.2451
 2988SOL    HW220427   2.832   2.998  11.648  0.4801  0.2729  1.0210
 2989SOL     OW20428   1.098   1.647   2.766 -0.1236  0.2348  0.2074
 2989SOL    HW120429   1.126   1.738   2.754  1.2223 -0.3284 -0.8280
 2989SOL    HW220430   1.181   1.599   2.758  0.5458  1.2717  0.8405
 2990SOL     OW20431   3.188   4.675   1.346  0.2482  0.2684  0.3779
 2990SOL    HW120432   3.210   4.636   1.261 -2.7251  1.2260 -0.8224
 2990SOL    HW220433   3.275   4.671   1.386  0.1575 -2.2133  0.3156
 2991SOL     OW20434   4.042   3.556   6.933 -0.2310  0.5295 -0.2487
 2991SOL    HW120435   4.005   3.603   7.008  1.6532 -0.5122  1.3394
 2991SOL    HW220436   4.006   3.468   6.935  1.0638  0.0559  1.6086
 2992SOL     OW20437   0.896   2.564   4.211 -0.3578  0.2106 -0.6268
 2992SOL    HW120438   0.978   2.558   4.261 -0.3569  2.0083 -0.4093
 2992SOL    HW220439   0.908   2.646   4.163 -0.7190  0.8617  0.4046
 2993SOL     OW20440   1.075   3.610   4.474  0.5722 -0.2709 -0.1450
 2993SOL    HW120441   1.091   3.686   4.531 -0.4160 -0.2897  0.1515
 2993SOL    HW220442   0.991   3.625   4.431  0.3330 -0.1553  0.3601
 2994SOL     OW20443   4.510   2.923   7.886 -0.3962 -0.5329  0.0223
 2994SOL    HW120444   4.466   2.894   7.966 -0.4454 -0.1144  0.1469
 2994SOL    HW220445   4.600   2.925   7.916 -0.2178 -1.9426 -0.4250
 2995SOL     OW20446   2.967   3.814  16.421  0.0149  0.5901  0.6186
 2995SOL    HW120447   2.920   3.849  16.345 -1.6348 -0.8290  0.9878
 2995SOL    HW220448   2.927   3.854  16.498  0.4192  1.1561  0.5386
 2996SOL     OW20449   4.268   0.319   4.430  0.0599  0.3458 -0.3652
 2996SOL    HW120450   4.254   0.273   4.347 -1.9256  3.2082 -1.6239
 2996SOL    HW220451   4.270   0.402   4.383 -0.6136  1.1129  0.9665
 2997SOL     OW20452   1.438   1.035  15.459 -0.0068 -0.2476 -0.2618
 2997SOL    HW120453   1.526   1.054  15.491 -0.3873  0.3902  0.4200
 2997SOL    HW220454   1.425   0.962  15.520 -0.5451 -0.5171 -0.6938
 2998SOL     OW20455   0.518   2.011   0.162 -0.6655 -0.0046 -0.0771
 2998SOL    HW120456   0.436   2.028   0.209  0.0186 -1.4072  1.6038
 2998SOL    HW220457   0.524   1.916   0.167  0.3166  0.1758  1.7137
 2999SOL     OW20458   1.997   3.677   6.660  0.0736 -0.0939  0.6660
 2999SOL    HW120459   1.945   3.601   6.637  0.9245 -0.4740  0.0007
 2999SOL    HW220460   2.014   3.710   6.572  0.9516 -0.2156  0.7826
 3000SOL     OW20461   2.458   0.388   3.203 -0.8305 -0.1842  0.3796
 3000SOL    HW120462   2.446   0.463   3.261 -2.8198  2.8608 -3.8924
 3000SOL    HW220463   2.546   0.364   3.232 -0.4232 -2.1072 -2.4646
 3001SOL     OW20464   1.661   0.333   8.249  0.2271  0.0808 -0.2036
 3001SOL    HW120465   1.634   0.366   8.164 -2.0688  0.2724  0.5940
 3001SOL    HW220466   1.576   0.294   8.267 -0.0698  0.1370 -1.5440
 3002SOL     OW20467   4.637   3.033  16.170 -0.1846 -0.0575 -0.0310
 3002SOL    HW120468   4.631   3.123  16.140  0.7620  0.0494  0.1053
 3002SOL    HW220469   4.626   2.973  16.096 -1.8315  1.5560 -1.0739
 3003SOL     OW20470   0.883   2.369   1.533  0.0011  0.0134 -0.3670
 3003SOL    HW120471   0.795   2.334   1.528  0.4794 -1.0445 -1.2693
 3003SOL    HW220472   0.933   2.317   1.470 -2.0707 -1.4689 -0.7643
 3004SOL     OW20473   1.156   1.058   7.495  0.5818 -0.4448  0.8604
 3004SOL    HW120474   1.068   1.062   7.457 -0.2855 -0.9637  2.7867
 3004SOL    HW220475   1.136   1.059   7.589  0.2749 -1.8277  0.8100
 3005SOL     OW20476   1.698   2.427   6.802 -0.2628 -0.1247 -0.0360
 3005SOL    HW120477   1.619   2.428   6.856 -0.3338  0.9652 -0.1398
 3005SOL    HW220478   1.672   2.351   6.749 -2.5298  1.6341 -1.4886
 3006SOL     OW20479   3.948   0.199   8.516  0.1806 -0.3310  0.0410
 3006SOL    HW120480   3.929   0.263   8.448  1.2955 -0.0012  0.0342
 3006SOL    HW220481   3.863   0.179   8.555  0.3749 -0.6575  0.2989
 3007SOL     OW20482   3.706   0.734   4.025 -0.4079 -0.3253  0.0035
 3007SOL    HW120483   3.681   0.700   3.939  3.1544 -0.9450 -0.7832
 3007SOL    HW220484   3.660   0.667   4.075  1.5744 -2.3984 -0.9405
 3008SOL     OW20485   2.091   2.609   7.005  0.2675  0.0606  0.3446
 3008SOL    HW120486   2.123   2.519   7.006  0.8007  0.2716  1.4789
 3008SOL    HW220487   2.083   2.618   6.910 -0.8868  1.3108  0.5591
 3009SOL     OW20488   3.291   0.107  15.659  0.8162  0.0687 -0.6427
 3009SOL    HW120489   3.251   0.030  15.700  0.2012  0.6145 -0.2002
 3009SOL    HW220490   3.353   0.065  15.600  0.5651 -0.3219 -0.6283
 3010SOL     OW20491   1.765   2.427   2.089  0.0794 -0.3620 -0.2013
 3010SOL    HW120492   1.857   2.401   2.087  0.2781  0.3199  0.2827
 3010SOL    HW220493   1.769   2.474   2.172 -0.6534 -0.6534 -0.0021
 3011SOL     OW20494   0.394   2.992   6.198 -0.0987  0.1450 -0.2804
 3011SOL    HW120495   0.387   2.900   6.171  0.8812  0.9210 -3.0705
 3011SOL    HW220496   0.309   3.030   6.176 -0.3166 -0.4177 -0.4123
 3012SOL     OW20497   0.049   0.885  13.199 -0.3499 -0.3088 -0.3002
 3012SOL    HW120498   0.140   0.882  13.170 -0.0190  1.8111  0.4813
 3012SOL    HW220499   0.010   0.811  13.153 -0.2566  0.5217 -1.7216
 3013SOL     OW20500   2.775   2.500  10.541  0.3459  0.2148 -0.5127
 3013SOL    HW120501   2.683   2.502  10.566  0.1265 -1.0159 -1.2044
 3013SOL    HW220502   2.819   2.487  10.625 -0.8269 -1.5976 -0.1735
 3014SOL     OW20503   3.991   1.674  13.492  0.1442 -0.2468  0.3196
 3014SOL    HW120504   4.046   1.742  13.532  1.1116 -0.4418 -0.6643
 3014SOL    HW220505   4.053   1.659  13.421 -2.4792 -2.1686 -1.5465
 3015SOL     OW20506   1.018   0.017   5.488 -0.0283  0.7928  0.8251
 3015SOL    HW120507   0.943   4.689   5.459  1.9924 -0.1744 -2.7264
 3015SOL    HW220508   1.057   4.683   5.554 -1.9783 -1.3294  0.1319
 3016SOL     OW20509   3.946   3.453   9.944 -0.2960 -0.8587 -0.0896
 3016SOL    HW120510   4.003   3.377   9.936  2.7351  1.2006  1.7621
 3016SOL    HW220511   3.874   3.436   9.884 -0.4207 -0.1037 -0.1606
 3017SOL     OW20512   0.548   1.834   2.155  0.3779 -0.2336 -0.0433
 3017SOL    HW120513   0.623   1.788   2.193 -0.5146 -1.1477  0.6114
 3017SOL    HW220514   0.568   1.921   2.189  1.4214  0.0513 -1.3572
 3018SOL     OW20515   2.105   0.724  13.274  0.0178  0.2236  0.1169
 3018SOL    HW120516   2.144   0.804  13.239  1.3154  0.0576  1.2128
 3018SOL    HW220517   2.105   0.735  13.369 -1.9720  0.3071  0.1089
 3019SOL     OW20518   4.400   3.141   4.253 -0.5469 -0.3932 -0.7439
 3019SOL    HW120519   4.424   3.165   4.342  1.8542 -0.0216 -1.4796
 3019SOL    HW220520   4.491   3.124   4.228 -0.9838 -1.1274 -1.8849
 3020SOL     OW20521   3.073   0.038   8.976 -0.0830 -0.5427 -0.0599
 3020SOL    HW120522   3.147   0.016   9.033 -1.1200 -2.5849  0.5314
 3020SOL    HW220523   3.106   0.124   8.951 -0.7035  0.3163  2.0948
 3021SOL     OW20524   2.387   0.079   6.927  0.8481 -0.0437 -0.0045
 3021SOL    HW120525   2.294   0.087   6.949  0.8795 -2.1990  0.9257
 3021SOL    HW220526   2.443   0.122   6.992  0.5264  0.1505  0.1411
 3022SOL     OW20527   2.734   1.083   3.623 -0.0590  0.0846  0.3133
 3022SOL    HW120528   2.782   1.015   3.670 -1.5487 -2.5031 -1.9557
 3022SOL    HW220529   2.737   1.158   3.683  0.8298  0.9251 -0.8007
 3023SOL     OW20530   0.072   4.007  10.905 -0.5003  0.3405  0.3562
 3023SOL    HW120531   0.074   3.912  10.918  1.6055  0.5371  1.3408
 3023SOL    HW220532   0.082   4.009  10.810  0.8194 -0.4886  0.4837
 3024SOL     OW20533   2.845   3.668   7.489 -0.4442  0.3061  0.3603
 3024SOL    HW120534   2.780   3.661   7.559 -1.2705  1.3821 -0.3021
 3024SOL    HW220535   2.929   3.658   7.535 -1.6565 -2.0287  2.1012
 3025SOL     OW20536   4.337   3.699   5.023 -0.4452  0.3291 -1.0851
 3025SOL    HW120537   4.429   3.678   5.008 -0.5827 -0.1480 -1.2497
 3025SOL    HW220538   4.338   3.795   5.017  1.7860  0.4108  0.6423
 3026SOL     OW20539   0.868   2.741   5.739  0.1290  0.4489  0.1077
 3026SOL    HW120540   0.810   2.808   5.704 -0.5261  0.0019  0.3393
 3026SOL    HW220541   0.806   2.670   5.722  0.0840  0.7437 -0.9439
 3027SOL     OW20542   2.590   2.144   4.785 -0.0457 -0.0776 -0.4707
 3027SOL    HW120543   2.537   2.146   4.865  1.6639  1.9211  0.6289
 3027SOL    HW220544   2.586   2.236   4.759  0.7636 -0.7323 -2.9209
 3028SOL     OW20545   2.120   3.058  10.685  0.1025  0.5158  0.1343
 3028SOL    HW120546   2.201   3.036  10.640  0.9342 -0.4632  2.1387
 3028SOL    HW220547   2.153   3.041  10.773 -0.0988  0.2319  0.1554
 3029SOL     OW20548   0.391   0.087  11.158 -0.4440 -0.1603 -0.1603
 3029SOL    HW120549   0.387   0.053  11.248 -0.3693 -0.4541 -0.2682
 3029SOL    HW220550   0.335   0.164  11.153  0.6286  0.7509  1.8638
 3030SOL     OW20551   1.976   3.292   8.582 -0.4333 -0.2936  0.2318
 3030SOL    HW120552   1.908   3.265   8.643  0.3287  2.2630  2.1802
 3030SOL    HW220553   2.025   3.210   8.575  0.8379  0.3434  1.6590
 3031SOL     OW20554   2.672   0.423   0.163 -0.1694 -0.5854  0.1789
 3031SOL    HW120555   2.656   0.503   0.213  1.1543  0.7208 -1.5144
 3031SOL    HW220556   2.598   0.425   0.102  0.2922  2.7766 -0.2568
 3032SOL     OW20557   0.385   3.778  12.231  0.2244 -0.4921 -0.1346
 3032SOL    HW120558   0.364   3.866  12.263  0.3590  0.2717 -2.1408
 3032SOL    HW220559   0.424   3.738  12.309  1.5911 -0.6487 -0.9144
 3033SOL     OW20560   2.150   4.162   8.083  0.4324 -0.3692  0.4134
 3033SOL    HW120561   2.241   4.152   8.113  0.5168  0.0846  0.3065
 3033SOL    HW220562   2.134   4.068   8.092  0.1947  0.0676  4.1606
 3034SOL     OW20563   3.178   3.398   4.938 -0.1767 -0.2545  0.2117
 3034SOL    HW120564   3.207   3.376   5.027  1.6278 -2.7934 -0.9900
 3034SOL    HW220565   3.182   3.494   4.936  1.8373 -0.3750 -2.2251
 3035SOL     OW20566   0.765   2.277   3.819  0.2110 -0.1435  0.5966
 3035SOL    HW120567   0.814   2.226   3.755 -2.0212 -2.6969  0.8999
 3035SOL    HW220568   0.822   2.268   3.896  0.2432 -1.1659  0.4512
 3036SOL     OW20569   1.034   3.890   2.208 -0.3343 -0.1781  0.2300
 3036SOL    HW120570   1.002   3.977   2.230 -0.3553  0.0346 -0.6493
 3036SOL    HW220571   0.957   3.835   2.191 -2.2159  2.2923  0.9086
 3037SOL     OW20572   0.277   3.403   5.733  0.1274 -0.7087  0.3647
 3037SOL    HW120573   0.301   3.481   5.684  0.8332 -1.7414 -0.9213
 3037SOL    HW220574   0.255   3.343   5.663 -0.7743 -0.5046  0.4787
 3038SOL     OW20575   3.015   4.303  16.172 -0.3999 -0.0785  0.2737
 3038SOL    HW120576   3.107   4.305  16.148  0.0363  0.4024  2.0020
 3038SOL    HW220577   3.017   4.266  16.260  1.1944 -1.2381 -0.2354
 3039SOL     OW20578   0.470   4.482   7.927 -0.3049 -0.0314 -0.9757
 3039SOL    HW120579   0.556   4.470   7.969 -0.1908 -1.7394 -1.7274
 3039SOL    HW220580   0.417   4.422   7.979  1.0675  2.1628  2.9395
 3040SOL     OW20581   2.023   2.638   4.369  0.0686  0.3169 -0.6518
 3040SOL    HW120582   2.029   2.734   4.375 -0.6654  0.3508 -0.4869
 3040SOL    HW220583   1.952   2.623   4.431 -0.6220  2.9930 -0.7791
 3041SOL     OW20584   3.631   2.956   2.728 -0.1542 -0.0564 -0.0439
 3041SOL    HW120585   3.607   2.949   2.820  1.7953  1.5398  0.6045
 3041SOL    HW220586   3.604   2.868   2.702 -1.7151 -0.3793  2.6985
 3042SOL     OW20587   1.013   1.659   5.121  0.6412  0.0994 -0.1961
 3042SOL    HW120588   1.036   1.616   5.204 -0.4625  1.3622  0.7691
 3042SOL    HW220589   1.094   1.708   5.113  1.1810 -0.6838  0.4438
 3043SOL     OW20590   0.745   0.343   7.446  0.4434 -0.1447  0.0983
 3043SOL    HW120591   0.695   0.405   7.500  1.9125  0.0218  1.2729
 3043SOL    HW220592   0.826   0.387   7.422 -0.2885  3.0243  3.4062
 3044SOL     OW20593   2.783   4.031   5.456  0.2471 -0.2036  0.7028
 3044SOL    HW120594   2.774   4.084   5.535 -2.6690  1.5253 -0.7589
 3044SOL    HW220595   2.849   4.077   5.404 -0.1378  2.6010  2.6980
 3045SOL     OW20596   3.482   2.336   9.918  0.2351 -0.4608  0.5493
 3045SOL    HW120597   3.567   2.338   9.962  0.9892 -1.0802 -0.8898
 3045SOL    HW220598   3.476   2.243   9.894  0.7545 -0.4613  0.4359
 3046SOL     OW20599   0.602   3.394   5.666 -0.5703 -0.2360 -0.1650
 3046SOL    HW120600   0.581   3.445   5.588 -0.3837 -1.0361 -0.7336
 3046SOL    HW220601   0.546   3.432   5.733 -0.0193  0.3056 -0.0000
 3047SOL     OW20602   1.874   0.981  16.927 -0.1353  0.7583  0.0580
 3047SOL    HW120603   1.791   0.933  16.933 -0.2463  0.6483 -2.6647
 3047SOL    HW220604   1.893   0.974  16.834  1.1829 -0.7797  0.4415
 3048SOL     OW20605   2.797   3.686   8.602  0.5235 -0.5419 -0.3469
 3048SOL    HW120606   2.797   3.781   8.607  2.6488 -0.5803  0.7658
 3048SOL    HW220607   2.710   3.670   8.639 -0.2048  2.9481 -0.6209
 3049SOL     OW20608   3.180   3.978   5.253  0.0907 -0.1006 -0.1955
 3049SOL    HW120609   3.179   4.042   5.324 -0.5268 -1.2095  0.7779
 3049SOL    HW220610   3.096   3.933   5.263  0.8010 -1.0284  1.4419
 3050SOL     OW20611   2.119   0.621   2.665 -0.0899 -0.1172 -0.0743
 3050SOL    HW120612   2.167   0.700   2.686  2.6198 -1.2487 -2.0219
 3050SOL    HW220613   2.103   0.584   2.752 -1.7261  2.3994  0.6686
 3051SOL     OW20614   3.671   3.258   1.821 -0.6604  0.5970  0.0331
 3051SOL    HW120615   3.733   3.331   1.816  0.8801 -0.7597 -0.7847
 3051SOL    HW220616   3.628   3.273   1.737 -2.1816 -2.3802  0.2729
 3052SOL     OW20617   0.412   0.864   5.049 -0.3098  0.4984 -0.0198
 3052SOL    HW120618   0.405   0.771   5.069 -0.0278  0.1809 -1.4302
 3052SOL    HW220619   0.357   0.907   5.115 -1.3537  0.8117 -1.1030
 3053SOL     OW20620   0.870   1.444   4.965 -0.2892 -0.4660  0.0212
 3053SOL    HW120621   0.835   1.393   5.038  0.3362 -3.1824 -1.5646
 3053SOL    HW220622   0.933   1.507   5.000 -0.3440 -0.3719 -0.0530
 3054SOL     OW20623   3.413   2.241   0.657 -0.6977 -0.4902 -0.6325
 3054SOL    HW120624   3.331   2.209   0.620 -1.3750 -0.4690  0.8539
 3054SOL    HW220625   3.471   2.169   0.632  0.9218  0.6705 -0.2274
 3055SOL     OW20626   3.710   2.754  17.639 -0.1210 -0.4579  1.0393
 3055SOL    HW120627   3.707   2.789   0.031  1.4069  0.1769  0.8468
 3055SOL    HW220628   3.618   2.731  17.624 -0.2697 -0.1637  1.5158
 3056SOL     OW20629   0.023   0.352   6.751 -0.4204  0.4664  0.4068
 3056SOL    HW120630   0.055   0.298   6.678 -0.3828  1.2832 -0.1873
 3056SOL    HW220631   4.667   0.386   6.711  0.0952  0.0241 -0.9972
 3057SOL     OW20632   3.257   3.989  12.337 -0.6439  0.1883 -0.1840
 3057SOL    HW120633   3.187   3.929  12.362  0.4136 -0.4339  1.3123
 3057SOL    HW220634   3.333   3.931  12.339 -0.4106  0.5530  1.6364
 3058SOL     OW20635   1.128   0.771   6.235 -0.0008 -0.4533  0.2590
 3058SOL    HW120636   1.203   0.785   6.177 -1.2973  1.2366 -1.0183
 3058SOL    HW220637   1.057   0.746   6.175 -0.1479  0.6802 -0.0272
 3059SOL     OW20638   1.156   3.706   9.236 -0.0394  0.1771 -0.8979
 3059SOL    HW120639   1.204   3.727   9.156  1.1620  3.1334  0.5958
 3059SOL    HW220640   1.091   3.653   9.188 -2.4740  1.3000  1.1792
 3060SOL     OW20641   0.083   1.841  12.573 -0.2488  0.5127  0.1388
 3060SOL    HW120642   0.040   1.924  12.556  2.0481  2.1230  2.0960
 3060SOL    HW220643   0.143   1.838  12.498 -0.4079  1.6838 -0.0382
 3061SOL     OW20644   0.774   2.569   6.994 -0.4122 -0.0331  0.4802
 3061SOL    HW120645   0.706   2.633   6.971 -1.9165 -1.5139  0.8117
 3061SOL    HW220646   0.817   2.616   7.065 -0.4610 -0.1557  0.5894
 3062SOL     OW20647   3.455   0.260   3.863 -0.1937 -0.5323  0.0364
 3062SOL    HW120648   3.457   0.262   3.767  2.6645  3.3018  0.1835
 3062SOL    HW220649   3.489   0.173   3.884 -1.0780 -1.0914 -0.8316
 3063SOL     OW20650   3.913   4.098  16.634 -0.7454  0.0946 -0.2617
 3063SOL    HW120651   3.817   4.105  16.631 -0.8966 -2.3382 -1.2084
 3063SOL    HW220652   3.929   4.037  16.562 -0.7221  2.2526 -2.0827
 3064SOL     OW20653   0.042   3.644  11.950  0.0453  0.8569 -0.0623
 3064SOL    HW120654   0.132   3.656  11.921  0.4053  0.0754  0.7067
 3064SOL    HW220655   0.047   3.637  12.046  0.9008  1.9444 -0.0342
 3065SOL     OW20656   0.166   0.686   4.155 -0.1381 -0.1652  0.7231
 3065SOL    HW120657   0.082   0.642   4.161  0.9452 -2.3085  0.0583
 3065SOL    HW220658   0.154   0.755   4.220  0.2115 -0.3557  0.9876
 3066SOL     OW20659   2.674   1.577  14.934 -0.5390  0.4344 -0.3819
 3066SOL    HW120660   2.671   1.539  14.847  0.0240 -0.2852 -0.0860
 3066SOL    HW220661   2.753   1.631  14.928  0.5112 -1.0869 -0.1336
 3067SOL     OW20662   4.394   4.595   8.138  0.2767 -0.3609 -0.4299
 3067SOL    HW120663   4.444   4.593   8.220  2.0381 -2.3105 -1.5526
 3067SOL    HW220664   4.451   4.657   8.092 -1.5215  3.5845  2.6024
 3068SOL     OW20665   1.806   0.100   8.273  0.4152 -0.1823 -0.1830
 3068SOL    HW120666   1.722   0.056   8.288 -0.4816  0.9152 -1.8850
 3068SOL    HW220667   1.763   0.175   8.232 -1.8130 -1.0224  0.6016
 3069SOL     OW20668   3.781   1.301  16.453 -0.2035  0.0840  0.3878
 3069SOL    HW120669   3.716   1.337  16.514  1.3013  2.6068  0.4951
 3069SOL    HW220670   3.851   1.266  16.508  1.2006  0.3918 -1.2338
 3070SOL     OW20671   3.860   4.163   2.669  0.0485 -0.5407 -0.0230
 3070SOL    HW120672   3.876   4.190   2.579 -1.5449  0.0003 -0.1524
 3070SOL    HW220673   3.856   4.067   2.664 -0.0917 -0.4837 -0.9090
 3071SOL     OW20674   1.630   3.329  13.183 -0.0221  0.3142 -0.0003
 3071SOL    HW120675   1.565   3.367  13.241 -0.0691  3.4655 -2.0948
 3071SOL    HW220676   1.575   3.302  13.110 -0.6615  1.3676  0.0998
 3072SOL     OW20677   1.449   2.924   8.330 -0.1184  0.0145  0.4546
 3072SOL    HW120678   1.542   2.908   8.343 -0.0935  0.5600  0.9621
 3072SOL    HW220679   1.407   2.839   8.336 -0.5442  0.0998 -1.2780
 3073SOL     OW20680   1.904   2.138   8.302 -0.1978 -0.5635  0.4694
 3073SOL    HW120681   1.868   2.160   8.216  1.6529  2.5352  0.4788
 3073SOL    HW220682   1.882   2.215   8.355 -0.2704 -1.3485  1.5697
 3074SOL     OW20683   4.649   2.809   9.587  0.1495 -0.5186 -0.5440
 3074SOL    HW120684   4.719   2.768   9.637 -0.5901 -1.1910 -0.0617
 3074SOL    HW220685   4.579   2.744   9.596 -1.1101  0.6844 -1.5913
 3075SOL     OW20686   0.211   4.310  11.726 -0.0390 -0.6866  0.2316
 3075SOL    HW120687   0.272   4.235  11.719  1.5493  0.7763 -1.6784
 3075SOL    HW220688   0.256   4.365  11.789 -0.7281  0.9701 -0.7397
 3076SOL     OW20689   2.116   1.928   8.695 -0.4271  0.4195 -0.1625
 3076SOL    HW120690   2.103   1.837   8.722 -0.7151  0.3148 -0.6562
 3076SOL    HW220691   2.028   1.961   8.712 -0.7199  0.0275 -0.8826
 3077SOL     OW20692   1.127   2.463  11.927 -0.1484 -0.0227 -0.6202
 3077SOL    HW120693   1.133   2.557  11.912  0.8602 -0.0086 -0.1386
 3077SOL    HW220694   1.172   2.441  11.845  0.4601 -0.3851 -0.1874
 3078SOL     OW20695   0.567   4.088   2.512  0.8218  0.2096  0.2304
 3078SOL    HW120696   0.564   4.167   2.566 -0.1144  0.7696 -0.6335
 3078SOL    HW220697   0.489   4.107   2.460  0.0028 -1.8498  0.7061
 3079SOL     OW20698   0.175   3.734   6.184 -0.3547  0.3417  0.3871
 3079SOL    HW120699   0.227   3.759   6.108  1.6038  0.0983  1.6224
 3079SOL    HW220700   0.244   3.713   6.247 -1.0979 -2.9335  0.0702
 3080SOL     OW20701   0.371   0.605  13.507  0.0693  0.6184  0.5085
 3080SOL    HW120702   0.369   0.637  13.416 -0.5227 -2.2567 -0.4892
 3080SOL    HW220703   0.281   0.597  13.538 -0.3657 -3.6811 -1.8676
 3081SOL     OW20704   0.804   0.492   1.827  0.4234 -0.2947 -0.5954
 3081SOL    HW120705   0.734   0.497   1.892  0.6698 -1.7473 -0.2123
 3081SOL    HW220706   0.783   0.569   1.775 -1.5872  0.2786  1.0705
 3082SOL     OW20707   0.360   1.221   2.731  0.1523 -0.1674 -0.5855
 3082SOL    HW120708   0.345   1.276   2.654 -1.1676  1.4861  0.8521
 3082SOL    HW220709   0.455   1.226   2.737  0.1459  0.5976 -1.2062
 3083SOL     OW20710   3.407   3.136   3.057  0.0447 -0.5824  0.6751
 3083SOL    HW120711   3.426   3.043   3.046 -0.7487 -0.7093  0.3871
 3083SOL    HW220712   3.330   3.158   3.005  0.3610  1.8153  1.2401
 3084SOL     OW20713   4.662   3.281   5.340  0.4718 -0.6987  0.2512
 3084SOL    HW120714   4.667   3.376   5.352  1.9296 -0.5924 -1.2974
 3084SOL    HW220715   4.591   3.288   5.276  0.0692 -0.4369  0.7170
 3085SOL     OW20716   3.972   1.654  17.247  0.1588 -0.3252 -0.0396
 3085SOL    HW120717   3.959   1.656  17.342  0.3778 -0.6868 -0.0010
 3085SOL    HW220718   3.908   1.586  17.225 -1.5794  1.2872  0.0016
 3086SOL     OW20719   2.575   2.571   8.050  0.1174  0.3307  0.2698
 3086SOL    HW120720   2.528   2.530   8.123  0.2745 -3.1547 -1.5838
 3086SOL    HW220721   2.668   2.578   8.075  0.7612  2.3895 -2.8084
 3087SOL     OW20722   3.580   4.586  17.487 -0.2734  0.4980 -0.0325
 3087SOL    HW120723   3.505   4.531  17.463  1.8125 -1.7352 -1.4308
 3087SOL    HW220724   3.619   4.600  17.401  1.6479  0.2590  0.8228
 3088SOL     OW20725   3.705   3.903   6.506  0.3359 -0.4923  0.1710
 3088SOL    HW120726   3.621   3.899   6.551  0.1870  1.9596  0.0965
 3088SOL    HW220727   3.672   3.966   6.442  0.1490 -0.4372  0.3224
 3089SOL     OW20728   3.389   4.364   4.316  0.8925  0.4044 -0.8932
 3089SOL    HW120729   3.343   4.431   4.264  0.1446 -0.2517 -1.0791
 3089SOL    HW220730   3.419   4.421   4.387  0.5965  0.0937 -0.5138
 3090SOL     OW20731   2.372   3.970   9.506 -0.1000  0.0019 -0.4960
 3090SOL    HW120732   2.436   3.936   9.569 -1.3032  0.9092  1.2052
 3090SOL    HW220733   2.365   3.901   9.440 -1.9660  1.8072 -2.1934
 3091SOL     OW20734   0.036   3.652   6.702 -0.6694  0.1492  0.5414
 3091SOL    HW120735   0.047   3.742   6.670 -0.9432 -0.2304 -0.6253
 3091SOL    HW220736   0.056   3.599   6.626  0.3799 -0.2206  1.0817
 3092SOL     OW20737   4.402   0.702   2.321  0.0592  0.0977  0.4485
 3092SOL    HW120738   4.467   0.689   2.252  0.8146  0.2243  1.1226
 3092SOL    HW220739   4.317   0.712   2.280  0.2185  0.1279  0.1231
 3093SOL     OW20740   0.450   4.407   6.048  0.5339 -0.0174  0.1134
 3093SOL    HW120741   0.473   4.367   5.964  0.7192  1.5216 -0.5556
 3093SOL    HW220742   0.539   4.403   6.081 -0.0908 -1.8318  1.5974
 3094SOL     OW20743   1.436   2.045   6.276 -0.5640  0.1503 -0.5459
 3094SOL    HW120744   1.475   1.958   6.275 -0.0483  0.3583  0.6750
 3094SOL    HW220745   1.474   2.075   6.359  0.1228 -2.4793  0.0747
 3095SOL     OW20746   2.916   2.252   4.154 -0.2534 -0.3786  0.2573
 3095SOL    HW120747   2.968   2.196   4.096  1.4448  0.0271  1.4010
 3095SOL    HW220748   2.828   2.252   4.117 -0.8910 -3.6611  1.7617
 3096SOL     OW20749   1.366   0.434   5.915 -0.4548 -0.7132  0.0314
 3096SOL    HW120750   1.360   0.503   5.981 -0.7298  0.6297 -1.3878
 3096SOL    HW220751   1.455   0.444   5.883 -0.3735  0.5640  0.6547
 3097SOL     OW20752   3.593   3.129   5.128  0.6064 -0.8539  0.3944
 3097SOL    HW120753   3.685   3.143   5.154  0.4441 -0.2603  0.6478
 3097SOL    HW220754   3.553   3.215   5.127  0.4130 -0.9729 -1.7209
 3098SOL     OW20755   1.339   0.938   2.185  0.2942 -0.4288  0.2824
 3098SOL    HW120756   1.357   0.902   2.098 -0.8595  0.7647 -0.4561
 3098SOL    HW220757   1.247   0.915   2.198  0.5266 -1.3458  0.2968
 3099SOL     OW20758   2.329   1.984   8.966 -0.1606  0.3728  0.2135
 3099SOL    HW120759   2.338   2.018   9.055  0.1808  0.5406  0.1157
 3099SOL    HW220760   2.240   2.017   8.956  0.5700  1.4724 -2.7930
 3100SOL     OW20761   4.276   3.446   7.046  0.0252 -0.4170 -0.4452
 3100SOL    HW120762   4.350   3.506   7.052 -0.9364  0.4844  2.4001
 3100SOL    HW220763   4.212   3.506   7.008  0.1773 -2.3643 -3.7503
 3101SOL     OW20764   2.296   2.123   3.328  0.4343 -0.2195 -0.1130
 3101SOL    HW120765   2.319   2.205   3.283 -0.9789 -0.1746 -0.7594
 3101SOL    HW220766   2.264   2.070   3.255 -1.3607 -1.3029  1.4599
 3102SOL     OW20767   0.289   3.040   8.020  0.0214  0.1480  0.4971
 3102SOL    HW120768   0.316   2.971   8.080 -0.5797 -0.7296 -0.2306
 3102SOL    HW220769   0.256   3.103   8.084 -1.3590 -0.2088  0.1447
 3103SOL     OW20770   4.223   3.138   4.977 -0.4094 -0.1129  0.1146
 3103SOL    HW120771   4.290   3.202   4.997  0.7502 -1.3036  0.0464
 3103SOL    HW220772   4.167   3.194   4.923  0.4036  1.3766  0.8198
 3104SOL     OW20773   0.374   1.373   7.328 -0.2224  0.1463 -0.4525
 3104SOL    HW120774   0.411   1.340   7.246 -1.9153 -0.8778 -0.8024
 3104SOL    HW220775   0.370   1.468   7.324  2.2744  0.3103  1.3304
 3105SOL     OW20776   0.667   3.668  15.331 -0.2650 -0.1105 -0.0393
 3105SOL    HW120777   0.671   3.618  15.250 -0.2452  0.0261 -0.1214
 3105SOL    HW220778   0.718   3.616  15.394  0.5921  1.6217  0.6907
 3106SOL     OW20779   2.130   1.544   5.587 -0.0923 -0.0266 -0.5254
 3106SOL    HW120780   2.086   1.611   5.640 -1.2448  0.0668 -1.5993
 3106SOL    HW220781   2.208   1.586   5.551  0.4423  0.1560  0.8286
 3107SOL     OW20782   2.455   0.265   5.795 -0.2434  0.7904 -0.0532
 3107SOL    HW120783   2.549   0.260   5.777 -0.2067  1.0244  0.0752
 3107SOL    HW220784   2.447   0.329   5.865  0.2229 -0.7231  1.3869
 3108SOL     OW20785   0.965   1.623   1.775  0.0764 -0.4191 -0.1154
 3108SOL    HW120786   1.061   1.623   1.784 -0.0479  1.9465  1.2579
 3108SOL    HW220787   0.946   1.551   1.715  0.5661  0.2856 -1.1116
 3109SOL     OW20788   2.858   0.557   4.366 -0.7652 -0.4771  0.2279
 3109SOL    HW120789   2.922   0.515   4.423 -3.0483 -0.6128  2.6996
 3109SOL    HW220790   2.916   0.600   4.303 -1.2772  1.6164  1.1850
 3110SOL     OW20791   0.502   4.182   7.653 -0.1707 -0.1555  0.1032
 3110SOL    HW120792   0.469   4.220   7.571 -0.8946  2.1309  1.4324
 3110SOL    HW220793   0.585   4.144   7.624  0.1057  0.6560 -0.1833
 3111SOL     OW20794   0.582   2.127  12.114  0.0961 -0.1702  0.0012
 3111SOL    HW120795   0.656   2.180  12.143  0.5680 -1.6803  1.5808
 3111SOL    HW220796   0.506   2.157  12.164 -0.3931 -1.5047  0.0702
 3112SOL     OW20797   1.566   2.257   6.553  0.2847  0.4845 -0.0768
 3112SOL    HW120798   1.643   2.239   6.500  0.0976  1.6385 -0.7300
 3112SOL    HW220799   1.511   2.271   6.476  0.4333 -0.4270 -0.3484
 3113SOL     OW20800   4.312   2.615   2.622 -0.2292  0.0397 -0.0785
 3113SOL    HW120801   4.292   2.552   2.553 -1.4159 -0.6875  0.9282
 3113SOL    HW220802   4.369   2.568   2.682 -0.6852  1.0579  1.1408
 3114SOL     OW20803   1.362   2.413  11.447 -0.0195  0.2562 -0.2554
 3114SOL    HW120804   1.312   2.372  11.375 -0.0988 -1.5109  0.7938
 3114SOL    HW220805   1.349   2.506  11.431  1.7856  0.6608  0.6629
 3115SOL     OW20806   4.132   3.637   6.158 -0.5887 -0.3814 -0.3260
 3115SOL    HW120807   4.055   3.692   6.175 -1.2408 -2.1466  2.5014
 3115SOL    HW220808   4.140   3.588   6.240  0.7932  2.5181  1.2582
 3116SOL     OW20809   1.199   1.113   5.784 -0.1378 -0.3370  0.7478
 3116SOL    HW120810   1.168   1.202   5.798 -1.8890 -0.4919 -1.9831
 3116SOL    HW220811   1.113   1.073   5.769  0.2961 -1.2256  0.6280
 3117SOL     OW20812   2.646   0.272  12.775  0.1199 -0.6004  0.0612
 3117SOL    HW120813   2.588   0.212  12.728 -0.3985  1.2001 -1.5725
 3117SOL    HW220814   2.576   0.334  12.797 -0.3543 -1.2173  0.3023
 3118SOL     OW20815   3.125   4.163  11.298  0.7952 -0.5261 -0.6424
 3118SOL    HW120816   3.185   4.101  11.257  0.5999  0.2973 -2.1594
 3118SOL    HW220817   3.040   4.156  11.255 -0.7942 -1.4379  2.6444
 3119SOL     OW20818   4.149   0.280   1.702  1.1267 -0.8872 -0.1327
 3119SOL    HW120819   4.168   0.331   1.781 -1.3466 -2.2759  1.3841
 3119SOL    HW220820   4.061   0.317   1.687  1.4396  0.8318  2.1861
 3120SOL     OW20821   0.735   2.889   7.548  0.0441  0.6263 -0.5834
 3120SOL    HW120822   0.756   2.932   7.631  0.1704  1.1084 -0.8688
 3120SOL    HW220823   0.822   2.886   7.508  1.0911  0.2647  1.6922
 3121SOL     OW20824   4.517   1.395  16.673  0.4296 -0.3503 -0.0975
 3121SOL    HW120825   4.559   1.382  16.758 -2.0312  0.7620  1.3019
 3121SOL    HW220826   4.484   1.306  16.662  1.5389 -0.9697  1.4953
 3122SOL     OW20827   4.544   0.640   8.057  0.0828  0.7162 -0.0241
 3122SOL    HW120828   4.610   0.620   7.991  0.8151  0.6373  0.7308
 3122SOL    HW220829   4.513   0.721   8.016 -3.4560 -1.2707 -1.2719
 3123SOL     OW20830   3.887   1.963   6.689  0.4809  0.1290 -0.1180
 3123SOL    HW120831   3.842   1.924   6.615  1.8207  0.0285 -0.8886
 3123SOL    HW220832   3.811   1.984   6.744 -0.6580 -1.7792 -0.9829
 3124SOL     OW20833   4.058   0.392  13.892  0.1442 -0.1959  0.6106
 3124SOL    HW120834   4.055   0.390  13.988  1.9912 -1.2080  0.6691
 3124SOL    HW220835   4.017   0.313  13.857 -0.7303  0.6275 -0.2051
 3125SOL     OW20836   2.570   2.341   4.487 -0.6495  0.3510  0.4682
 3125SOL    HW120837   2.520   2.259   4.492 -1.6786  0.8966 -0.7516
 3125SOL    HW220838   2.571   2.370   4.578 -0.4563  1.2327  0.1833
 3126SOL     OW20839   4.344   4.087   2.245 -0.7471 -0.4952  0.1741
 3126SOL    HW120840   4.295   4.146   2.188  0.6348  0.6149  0.1348
 3126SOL    HW220841   4.341   4.008   2.192 -2.7915 -2.4317  3.1558
 3127SOL     OW20842   0.874   1.878   1.696  0.0121 -0.4696 -0.4656
 3127SOL    HW120843   0.950   1.935   1.708 -1.2233  1.0479  0.2078
 3127SOL    HW220844   0.890   1.800   1.748  0.5627  1.0875  1.6803
 3128SOL     OW20845   1.535   4.131   7.635  0.5494  0.6816  0.2623
 3128SOL    HW120846   1.498   4.128   7.723 -1.9633  2.7561 -0.7094
 3128SOL    HW220847   1.626   4.105   7.654 -0.4149 -2.8115  0.0181
 3129SOL     OW20848   3.116   4.653  13.097 -0.1708  0.1963  0.1460
 3129SOL    HW120849   3.112   4.668  13.191 -1.3356  0.2523  0.0954
 3129SOL    HW220850   3.095   4.561  13.113 -1.1787  0.5238  0.7118
 3130SOL     OW20851   0.517   2.127   8.493 -0.2133  0.3854 -0.0890
 3130SOL    HW120852   0.478   2.210   8.522 -1.8948 -0.9083  1.3143
 3130SOL    HW220853   0.447   2.081   8.446  1.4299 -1.2383 -0.9558
 3131SOL     OW20854   1.940   4.313  16.956  0.3704  0.1447 -0.9548
 3131SOL    HW120855   2.002   4.359  16.900  2.5790 -0.6505  0.8167
 3131SOL    HW220856   2.001   4.294  17.028 -1.5573  0.0816  0.6897
 3132SOL     OW20857   0.698   0.666  16.242 -0.2310  0.0844  0.1810
 3132SOL    HW120858   0.730   0.690  16.329  1.1946  3.8974 -1.4159
 3132SOL    HW220859   0.616   0.715  16.241 -1.2516 -1.5976  0.6556
 3133SOL     OW20860   1.525   1.210   4.789  0.4090 -0.1518  0.0878
 3133SOL    HW120861   1.521   1.190   4.883 -0.2219 -0.4341 -0.0003
 3133SOL    HW220862   1.439   1.243   4.767  0.3177 -0.3836  0.0939
 3134SOL     OW20863   1.875   2.784   8.151 -0.0022  0.1831 -0.2330
 3134SOL    HW120864   1.966   2.756   8.144 -0.5117 -0.8126 -2.7610
 3134SOL    HW220865   1.847   2.700   8.186  0.8931 -0.1320 -0.2812
 3135SOL     OW20866   0.257   4.441   9.089 -0.0107  0.5707  0.2797
 3135SOL    HW120867   0.184   4.473   9.142  0.6466  2.2190  0.1898
 3135SOL    HW220868   0.218   4.371   9.037 -0.4802 -1.0925  2.8677
 3136SOL     OW20869   3.835   2.598  10.584  0.2228  0.0851  0.4157
 3136SOL    HW120870   3.919   2.551  10.585 -0.2394 -0.7343  0.7278
 3136SOL    HW220871   3.784   2.532  10.537 -0.0812  0.3342  0.3978
 3137SOL     OW20872   2.909   0.509   2.194  0.8741  0.0329 -0.7925
 3137SOL    HW120873   2.942   0.598   2.182 -0.9629  0.8982  0.6484
 3137SOL    HW220874   2.821   0.519   2.158 -0.0841  0.2206  1.5786
 3138SOL     OW20875   4.391   1.174   1.313 -0.0709 -0.5700 -0.1389
 3138SOL    HW120876   4.372   1.089   1.352  0.0118 -1.2354 -1.5401
 3138SOL    HW220877   4.421   1.232   1.383  0.8666  0.7122 -1.5944
 3139SOL     OW20878   3.932   4.023  17.358  0.0969 -0.3721  0.0277
 3139SOL    HW120879   3.878   4.090  17.399 -0.0966  0.6947 -1.9899
 3139SOL    HW220880   4.020   4.031  17.395 -0.6082  0.5222  1.4545
 3140SOL     OW20881   0.362   4.591  10.575  0.2906 -0.1852 -0.3585
 3140SOL    HW120882   0.381   4.683  10.556 -1.7771  0.2573 -0.2414
 3140SOL    HW220883   0.294   4.597  10.643  0.1732 -1.1708 -0.3905
 3141SOL     OW20884   2.584   0.111   8.766 -0.1559  0.3089  0.0895
 3141SOL    HW120885   2.577   0.196   8.809 -0.2535  0.2895  0.1117
 3141SOL    HW220886   2.652   0.069   8.819 -0.3397  0.4268  0.4169
 3142SOL     OW20887   2.193   1.751   6.551  0.6950  0.2365 -0.0123
 3142SOL    HW120888   2.244   1.740   6.471 -0.6989 -1.0519 -0.7090
 3142SOL    HW220889   2.112   1.733   6.505  1.2538  0.4625 -1.0826
 3143SOL     OW20890   0.469   1.750  17.677  0.4116  0.3786  0.4336
 3143SOL    HW120891   0.494   1.661  17.652  1.7018  1.3218 -1.6575
 3143SOL    HW220892   0.548   1.790  17.642  1.1098 -0.9876  0.4633
 3144SOL     OW20893   0.728   4.025   8.315 -0.7289  0.1948  0.5459
 3144SOL    HW120894   0.681   4.052   8.393 -0.4513 -0.7964  1.0577
 3144SOL    HW220895   0.662   4.029   8.246 -0.5113  0.5159  0.3530
 3145SOL     OW20896   2.203   3.376  10.153 -0.1415  0.0664 -0.0791
 3145SOL    HW120897   2.236   3.323  10.225  1.2214  1.8297  0.6068
 3145SOL    HW220898   2.277   3.435  10.138 -0.5658  0.7794  0.6718
 3146SOL     OW20899   1.329   3.758   7.828 -0.5930 -0.0186 -0.0945
 3146SOL    HW120900   1.306   3.845   7.797 -1.9075 -0.3898 -0.1748
 3146SOL    HW220901   1.322   3.759   7.924 -1.4443  0.6500 -0.1654
 3147SOL     OW20902   4.358   3.260   9.343  0.2798  0.2123  0.5385
 3147SOL    HW120903   4.305   3.283   9.267  0.8733 -1.5907 -0.4280
 3147SOL    HW220904   4.328   3.327   9.404 -1.1165 -0.7358  0.8872
 3148SOL     OW20905   3.045   3.058   0.755  0.2756 -0.0482  0.0369
 3148SOL    HW120906   3.088   3.115   0.820 -1.5023  2.0070 -0.5996
 3148SOL    HW220907   2.960   3.043   0.795  0.4137 -1.6875 -0.2930
 3149SOL     OW20908   4.044   1.846  11.197  0.2310 -0.1585  0.2170
 3149SOL    HW120909   4.131   1.887  11.195 -0.1910  0.7915  1.4069
 3149SOL    HW220910   4.050   1.774  11.135 -0.8646  1.0366 -1.2805
 3150SOL     OW20911   1.268   1.520   2.519 -0.4554 -0.0657 -0.6330
 3150SOL    HW120912   1.186   1.473   2.529 -0.5162 -0.0471 -1.0437
 3150SOL    HW220913   1.250   1.554   2.431 -1.5450  0.9061 -0.0294
 3151SOL     OW20914   0.436   4.546   7.675  0.5706  0.7365  0.1540
 3151SOL    HW120915   0.438   4.515   7.766 -1.9936  0.8390  0.2576
 3151SOL    HW220916   0.527   4.574   7.670  0.7403  0.5703  2.1023
 3152SOL     OW20917   4.076   1.832   9.742  0.2676  0.1452 -0.5189
 3152SOL    HW120918   4.118   1.919   9.741  0.2057  0.1874  0.1238
 3152SOL    HW220919   4.129   1.784   9.679  0.2362  1.4813 -1.5701
 3153SOL     OW20920   2.590   2.861   2.807 -0.1292  0.4231 -0.0183
 3153SOL    HW120921   2.620   2.902   2.725 -0.6663 -0.6804 -0.7749
 3153SOL    HW220922   2.641   2.910   2.871 -1.8037  1.7713  0.2971
 3154SOL     OW20923   0.854   1.874  16.539 -0.5086 -0.0596 -0.0875
 3154SOL    HW120924   0.825   1.960  16.571 -0.5667 -0.0552 -0.1522
 3154SOL    HW220925   0.819   1.823  16.612  0.7288  0.5924  0.9625
 3155SOL     OW20926   2.474   2.403   1.179 -0.0249  0.0159  0.2486
 3155SOL    HW120927   2.569   2.410   1.189  0.1729 -0.7491 -1.2129
 3155SOL    HW220928   2.476   2.376   1.087 -3.5159 -0.8368  0.3998
 3156SOL     OW20929   1.398   4.342   5.008  0.1807 -0.6511  0.0210
 3156SOL    HW120930   1.431   4.305   5.090  1.8820  0.8990  0.0649
 3156SOL    HW220931   1.429   4.283   4.939 -1.7558 -0.2204 -1.2109
 3157SOL     OW20932   0.656   3.327   9.286  0.1272  0.4119 -0.2785
 3157SOL    HW120933   0.708   3.290   9.357 -1.6563 -1.6812 -0.0958
 3157SOL    HW220934   0.588   3.263   9.267 -1.1313  1.7291 -0.2370
 3158SOL     OW20935   4.422   1.814   1.840 -0.0062 -0.9599 -0.4597
 3158SOL    HW120936   4.359   1.746   1.818 -1.6907  0.3976  0.1964
 3158SOL    HW220937   4.394   1.836   1.928  1.4689 -0.5050 -0.0983
 3159SOL     OW20938   0.870   1.788   2.314 -0.6761  0.2435 -0.0469
 3159SOL    HW120939   0.833   1.710   2.273 -2.0210  0.9177 -0.1108
 3159SOL    HW220940   0.901   1.819   2.229  0.6288 -0.3782  0.1853
 3160SOL     OW20941   0.271   3.564  13.745 -0.3023 -0.1138  1.0735
 3160SOL    HW120942   0.186   3.555  13.702  0.5542  0.2332 -0.6924
 3160SOL    HW220943   0.297   3.472  13.742  1.5237  0.4839 -1.4152
 3161SOL     OW20944   1.961   1.808   4.714  0.3975  0.4824 -0.4516
 3161SOL    HW120945   2.008   1.864   4.651  0.5071  0.8843 -0.0093
 3161SOL    HW220946   1.881   1.787   4.666  0.1116 -0.2766  0.3644
 3162SOL     OW20947   2.130   3.913  13.139  0.1376 -0.7460  0.1083
 3162SOL    HW120948   2.048   3.957  13.114  0.0333 -1.2064 -0.3594
 3162SOL    HW220949   2.104   3.891  13.228  2.6231 -0.7398  0.8364
 3163SOL     OW20950   2.018   0.648   3.108 -0.9736 -0.2311 -0.2452
 3163SOL    HW120951   1.955   0.576   3.109  0.0619 -1.1304  0.7613
 3163SOL    HW220952   1.968   0.700   3.045 -0.2258  2.0498  1.0240
 3164SOL     OW20953   3.438   2.744   0.710  0.4310  0.1938 -0.2222
 3164SOL    HW120954   3.353   2.734   0.668  0.1149  0.4712  0.3658
 3164SOL    HW220955   3.447   2.839   0.721  1.3438  0.0733  0.1094
 3165SOL     OW20956   2.102   2.142   0.663  0.0752  0.1217 -0.2546
 3165SOL    HW120957   2.063   2.166   0.747 -1.8574  1.7889 -1.6387
 3165SOL    HW220958   2.020   2.122   0.618 -0.5543 -0.3221  1.0835
 3166SOL     OW20959   2.608   1.949   8.106 -0.6869 -0.1254  0.1193
 3166SOL    HW120960   2.673   1.947   8.036 -0.3792 -0.5461  0.4171
 3166SOL    HW220961   2.568   2.036   8.109 -0.4455 -0.0137  0.1311
 3167SOL     OW20962   2.826   0.035   6.848 -0.2082 -0.0067 -0.1264
 3167SOL    HW120963   2.834   0.070   6.759  1.6284  0.2812  0.1622
 3167SOL    HW220964   2.748   0.081   6.880  0.0381  1.9591 -2.3129
 3168SOL     OW20965   1.758   4.072   2.786  0.7384  0.5498 -0.0084
 3168SOL    HW120966   1.825   4.136   2.761  0.0674  0.3671 -2.2947
 3168SOL    HW220967   1.812   4.008   2.834 -0.9979 -0.5727  0.4619
 3169SOL     OW20968   4.230   3.779   8.683  0.1269  0.6872 -0.7465
 3169SOL    HW120969   4.163   3.848   8.686 -0.5469  0.0023  0.0051
 3169SOL    HW220970   4.169   3.706   8.694 -2.3649  2.3968 -3.1473
 3170SOL     OW20971   0.910   3.839   4.541  0.1509 -0.2722 -0.3351
 3170SOL    HW120972   0.844   3.895   4.582 -1.5346 -0.1552 -3.2218
 3170SOL    HW220973   0.859   3.778   4.488  1.7840 -1.9344 -0.0159
 3171SOL     OW20974   1.807   1.578   3.106 -0.9626  0.3402 -0.5726
 3171SOL    HW120975   1.745   1.575   3.033 -1.0646  2.9822 -0.6107
 3171SOL    HW220976   1.781   1.656   3.156  1.3313  0.3944  0.5276
 3172SOL     OW20977   3.567   2.490   2.923 -0.1255 -0.3956  0.0938
 3172SOL    HW120978   3.536   2.538   2.846  0.3211 -0.7422 -0.3068
 3172SOL    HW220979   3.647   2.444   2.896  1.8019  2.2032  1.3227
 3173SOL     OW20980   3.543   3.805  11.363  0.0839  0.0871  0.3714
 3173SOL    HW120981   3.523   3.885  11.412  2.0761  1.1886 -0.6545
 3173SOL    HW220982   3.453   3.782  11.338  0.4775  0.7326 -1.6096
 3174SOL     OW20983   2.931   4.279   5.424  0.0940 -0.2087  0.0138
 3174SOL    HW120984   2.925   4.339   5.350 -1.2067 -0.1929  0.1394
 3174SOL    HW220985   2.985   4.329   5.486  1.1296 -0.1661 -0.9181
 3175SOL     OW20986   3.070   4.304   8.662 -0.0186  0.1045 -0.0451
 3175SOL    HW120987   3.057   4.397   8.648  0.1753  0.4323  1.9799
 3175SOL    HW220988   3.012   4.264   8.597  0.1940 -1.7978  0.9090
 3176SOL     OW20989   4.366   1.099   5.156  0.6103  0.4055 -0.0339
 3176SOL    HW120990   4.352   1.152   5.234  1.0897 -0.7687  0.8471
 3176SOL    HW220991   4.313   1.144   5.091  3.3370  3.3115 -0.2412
 3177SOL     OW20992   0.149   1.479   2.897 -0.2038  0.2071 -0.3864
 3177SOL    HW120993   0.124   1.387   2.888  0.3825 -0.2440  2.5290
 3177SOL    HW220994   0.128   1.513   2.810  0.9233 -1.2064 -1.2146
 3178SOL     OW20995   4.043   1.291   2.239  0.2180 -0.4152 -0.1198
 3178SOL    HW120996   3.981   1.345   2.190 -0.5106 -1.3038 -0.1981
 3178SOL    HW220997   4.068   1.348   2.311  0.4623 -1.0583  0.3065
 3179SOL     OW20998   4.513   3.976   9.010 -0.1588  0.0465  0.1678
 3179SOL    HW120999   4.476   3.988   8.923  0.6247  2.8400  0.2192
 3179SOL    HW221000   4.450   3.917   9.050 -1.6461  1.6185  0.1267
 3180SOL     OW21001   1.176   0.855   5.262  0.2991 -0.0334 -0.3083
 3180SOL    HW121002   1.259   0.832   5.303 -0.4550  0.0994  1.3065
 3180SOL    HW221003   1.195   0.941   5.225 -1.8366  0.7359  0.3560
 3181SOL     OW21004   4.709   2.346   0.743  0.0304 -0.0282 -0.3706
 3181SOL    HW121005   4.660   2.316   0.819  2.6495 -1.9712  0.5330
 3181SOL    HW221006   0.056   2.284   0.757 -1.1683 -1.2389  0.3095
 3182SOL     OW21007   2.006   2.807   1.116 -0.3103  0.3400  0.5067
 3182SOL    HW121008   2.001   2.823   1.021 -0.2060  0.3618  0.5041
 3182SOL    HW221009   2.098   2.781   1.127 -0.6977 -1.0823  0.2756
 3183SOL     OW21010   3.032   2.268   3.303 -0.2161 -0.3548  0.2955
 3183SOL    HW121011   2.944   2.255   3.267 -0.1019 -3.5704  1.2028
 3183SOL    HW221012   3.075   2.183   3.305 -0.0430 -0.3543 -2.4871
 3184SOL     OW21013   3.280   4.077   4.268  0.0412  0.0403  0.4707
 3184SOL    HW121014   3.205   4.136   4.262  0.8129  1.1731  2.0378
 3184SOL    HW221015   3.353   4.139   4.264  0.3402 -0.1236  3.4228
 3185SOL     OW21016   1.269   3.943   2.565  0.3837 -0.2054  0.4823
 3185SOL    HW121017   1.211   4.016   2.584  0.1421 -0.5761  1.1656
 3185SOL    HW221018   1.332   3.953   2.637  0.7260 -1.9227  0.4289
 3186SOL     OW21019   1.287   0.271   5.413  0.2751  0.3404 -0.4643
 3186SOL    HW121020   1.316   0.180   5.409  0.1214  0.3497 -2.0218
 3186SOL    HW221021   1.217   0.263   5.478 -2.3303 -0.1169 -3.2925
 3187SOL     OW21022   2.250   1.152   1.007 -0.1757  0.5933  0.3679
 3187SOL    HW121023   2.338   1.159   0.970 -0.4483  1.2191 -0.1616
 3187SOL    HW221024   2.270   1.162   1.100  1.1574 -0.2918  0.1863
 3188SOL     OW21025   4.453   1.479   5.270 -0.0757  0.4206  0.2301
 3188SOL    HW121026   4.414   1.509   5.188  1.5712 -0.0042 -0.7006
 3188SOL    HW221027   4.546   1.489   5.250  0.5693 -2.9055  1.6644
 3189SOL     OW21028   0.314   2.378   5.167  0.7718 -0.3776 -0.2516
 3189SOL    HW121029   0.264   2.297   5.178  1.9165 -1.1057 -0.4333
 3189SOL    HW221030   0.371   2.365   5.243 -0.4905 -0.9394  0.6131
 3190SOL     OW21031   3.952   2.390   6.980 -0.0690  0.3429 -0.2893
 3190SOL    HW121032   3.901   2.398   7.061  1.2208 -1.0673  0.6622
 3190SOL    HW221033   3.983   2.300   6.991  1.3401  1.0049  1.2266
 3191SOL     OW21034   3.356   3.988   2.213  0.2937 -0.2482  0.3706
 3191SOL    HW121035   3.450   3.993   2.232  0.6123 -1.4144 -0.8502
 3191SOL    HW221036   3.338   4.069   2.164 -0.3932 -0.0404  0.9794
 3192SOL     OW21037   0.661   0.545  16.933  0.3213 -0.3180 -0.4979
 3192SOL    HW121038   0.700   0.569  17.017 -1.1593 -1.6290  0.5763
 3192SOL    HW221039   0.640   0.453  16.949 -0.0934  0.0172  0.9291
 3193SOL     OW21040   0.083   2.309  11.919  0.7551  0.5684  0.7079
 3193SOL    HW121041   0.054   2.220  11.898 -0.9329  1.0726  0.9135
 3193SOL    HW221042   0.052   2.326  12.008  1.3047 -1.0953  1.2076
 3194SOL     OW21043   0.372   2.371  10.655 -0.6878 -0.2973 -0.1261
 3194SOL    HW121044   0.376   2.418  10.738 -1.6274  0.4566 -0.5154
 3194SOL    HW221045   0.279   2.350  10.647 -0.3049 -1.6717 -1.0650
 3195SOL     OW21046   3.111   4.597   5.827 -0.6361 -0.2430 -0.2859
 3195SOL    HW121047   3.099   4.691   5.818  0.6569  0.0891  1.6281
 3195SOL    HW221048   3.166   4.607   5.904 -0.4786 -0.8644 -0.3144
 3196SOL     OW21049   1.282   4.003  10.054  0.4321 -0.1011  0.0771
 3196SOL    HW121050   1.193   4.001  10.089 -0.3163  0.1929 -1.8505
 3196SOL    HW221051   1.313   3.917  10.083 -1.5715 -1.3880 -1.6131
 3197SOL     OW21052   1.417   3.250   0.057  0.2495  0.3597  0.0503
 3197SOL    HW121053   1.484   3.248   0.125 -0.5366 -0.6687  0.7927
 3197SOL    HW221054   1.426   3.162   0.020  1.7365  0.0422  1.1751
 3198SOL     OW21055   0.199   1.823   0.136  0.1321 -0.4645 -0.4033
 3198SOL    HW121056   0.281   1.834   0.185 -0.4032 -2.2693  0.8982
 3198SOL    HW221057   0.201   1.911   0.100 -0.1433 -0.4466 -0.3706
 3199SOL     OW21058   2.618   1.108   4.017  0.3703 -0.3965 -0.4645
 3199SOL    HW121059   2.555   1.077   3.952 -2.1874  1.7478  0.9620
 3199SOL    HW221060   2.700   1.095   3.971  1.1392  1.0504  0.4967
 3200SOL     OW21061   2.700   1.460   4.171  0.3707 -0.9434 -0.3771
 3200SOL    HW121062   2.688   1.552   4.146 -2.1577 -0.2871  3.3614
 3200SOL    HW221063   2.743   1.418   4.096  1.7342  0.7241 -0.5508
 3201SOL     OW21064   0.306   0.429   5.363  0.2016 -0.5422 -0.0283
 3201SOL    HW121065   0.216   0.396   5.368  0.0403  0.1432  1.4506
 3201SOL    HW221066   0.335   0.419   5.453 -0.7815  1.1735  0.4679
 3202SOL     OW21067   0.369   2.614   7.995  0.2873  0.1008  0.1758
 3202SOL    HW121068   0.370   2.689   8.054 -0.4939  0.2200  0.0364
 3202SOL    HW221069   0.408   2.549   8.054 -0.5696  0.6749  1.3646
 3203SOL     OW21070   1.607   3.695   2.746  0.4573 -0.6270 -0.3381
 3203SOL    HW121071   1.572   3.606   2.757  2.6320 -1.2003  1.7120
 3203SOL    HW221072   1.547   3.722   2.676 -2.2491  1.4640  2.7911
 3204SOL     OW21073   1.220   3.861   5.200 -0.2844  0.5698  0.0904
 3204SOL    HW121074   1.169   3.786   5.169  2.0656 -1.6021  1.4957
 3204SOL    HW221075   1.281   3.869   5.126 -1.2139 -2.7084 -1.0461
 3205SOL     OW21076   0.020   2.584   4.814  0.3105 -0.2945 -0.5862
 3205SOL    HW121077   0.082   2.546   4.876  0.8440 -0.5928 -1.3163
 3205SOL    HW221078   0.055   2.670   4.789 -1.4355  0.0402 -1.8796
 3206SOL     OW21079   4.067   3.918   2.941  0.3528  0.2998  0.0597
 3206SOL    HW121080   4.114   3.972   2.877 -1.7156  2.0207  0.0037
 3206SOL    HW221081   4.060   3.848   2.877  1.7609 -0.1495  0.3965
 3207SOL     OW21082   3.899   0.621   2.934  0.0470 -0.0478 -0.1791
 3207SOL    HW121083   3.878   0.658   2.848 -2.3085  0.8343  0.7729
 3207SOL    HW221084   3.823   0.647   2.985 -0.1810  1.2029 -1.1639
 3208SOL     OW21085   0.351   3.805  10.845  0.3732  0.4430 -0.2797
 3208SOL    HW121086   0.344   3.871  10.775  0.3370 -0.5605 -1.2233
 3208SOL    HW221087   0.379   3.868  10.912 -0.2402 -1.3225  1.6335
 3209SOL     OW21088   1.618   1.512   7.146 -0.3782  0.2567  0.6144
 3209SOL    HW121089   1.527   1.512   7.119  0.3120  4.6200 -1.5961
 3209SOL    HW221090   1.630   1.512   7.241 -0.5686  1.3149  0.6388
 3210SOL     OW21091   0.609   0.253  15.141 -0.0815  0.1733 -0.2941
 3210SOL    HW121092   0.538   0.304  15.102  1.4079  1.4593 -1.3067
 3210SOL    HW221093   0.669   0.324  15.163  0.3901 -0.1867 -0.4099
 3211SOL     OW21094   4.473   2.756   5.107  0.1434 -1.0035 -0.1705
 3211SOL    HW121095   4.471   2.845   5.143  0.9925 -0.1127 -2.3258
 3211SOL    HW221096   4.433   2.777   5.022 -0.5567 -0.9827  0.1627
 3212SOL     OW21097   0.402   2.596   3.331 -0.0670 -0.2635  0.1979
 3212SOL    HW121098   0.383   2.503   3.345  5.3043 -0.6446  4.9920
 3212SOL    HW221099   0.497   2.605   3.337 -0.0031 -1.7461  1.3910
 3213SOL     OW21100   3.995   1.549  11.782  0.1358 -0.4089 -0.0498
 3213SOL    HW121101   4.081   1.509  11.769  1.7129  2.9540  0.0852
 3213SOL    HW221102   3.989   1.626  11.726  0.6968  0.1882  0.7106
 3214SOL     OW21103   0.360   1.128   1.678  0.2219  0.0430  0.4647
 3214SOL    HW121104   0.373   1.055   1.738  2.7594  0.2933  0.2328
 3214SOL    HW221105   0.373   1.203   1.736 -1.1242  0.2230  0.5339
 3215SOL     OW21106   2.305   3.350   7.058 -0.0784 -0.1738  0.8576
 3215SOL    HW121107   2.298   3.262   7.021  1.9791 -0.3317  0.8429
 3215SOL    HW221108   2.373   3.331   7.123  0.1238  0.4707  0.8350
 3216SOL     OW21109   4.003   3.114  11.460  0.0834  0.4060  0.5086
 3216SOL    HW121110   4.078   3.109  11.519 -1.6324  1.2057  2.7580
 3216SOL    HW221111   3.972   3.202  11.479 -1.1201  0.2371 -0.6269
 3217SOL     OW21112   2.142   3.061   5.819  0.4700  0.3721 -0.2051
 3217SOL    HW121113   2.131   2.986   5.878  1.8853 -0.4989 -1.0421
 3217SOL    HW221114   2.236   3.069   5.833  0.1260  1.9781  1.2295
 3218SOL     OW21115   3.949   0.519  10.621 -0.1439 -0.1746  0.6633
 3218SOL    HW121116   4.028   0.477  10.656  1.5086 -0.8700 -3.8322
 3218SOL    HW221117   3.906   0.552  10.700 -2.2817 -1.5353  0.0419
 3219SOL     OW21118   0.181   0.969  16.583 -0.7829 -0.1768  0.1635
 3219SOL    HW121119   0.274   0.946  16.589 -0.7991 -0.8969 -2.2637
 3219SOL    HW221120   0.174   0.999  16.492  1.8378  0.9814  0.3464
 3220SOL     OW21121   2.766   0.553   2.644  0.0835  0.0611 -0.4311
 3220SOL    HW121122   2.839   0.493   2.628 -0.7683 -0.4904 -2.2447
 3220SOL    HW221123   2.812   0.622   2.691 -0.8665  0.2128  0.2910
 3221SOL     OW21124   1.902   4.062   9.428 -0.2201  0.2130 -0.2365
 3221SOL    HW121125   1.855   4.025   9.354 -0.6270 -1.3642  0.7944
 3221SOL    HW221126   1.940   4.143   9.394  1.3502 -0.6225 -0.4500
 3222SOL     OW21127   2.535   1.802  12.217  0.2966 -0.4232  0.4425
 3222SOL    HW121128   2.527   1.826  12.309 -1.4128 -1.7263  0.6314
 3222SOL    HW221129   2.544   1.882  12.166  1.6881  0.6263  2.3279
 3223SOL     OW21130   4.290   1.459  13.671 -0.0116 -0.2172 -0.1805
 3223SOL    HW121131   4.317   1.389  13.612 -0.0088 -0.2107 -0.1870
 3223SOL    HW221132   4.247   1.415  13.744 -1.5365  1.5394 -0.0087
 3224SOL     OW21133   2.320   3.077   2.577 -0.3936 -0.4014  0.2279
 3224SOL    HW121134   2.326   3.133   2.654  1.0124  1.1141 -0.9934
 3224SOL    HW221135   2.250   3.014   2.595 -3.0170  2.7768  1.0656
 3225SOL     OW21136   3.592   0.833   2.747 -0.1876 -0.3210  0.2465
 3225SOL    HW121137   3.687   0.833   2.732 -0.2928  1.0952 -0.4574
 3225SOL    HW221138   3.597   0.813   2.840  0.0595 -0.5036  0.1951
 3226SOL     OW21139   0.419   4.711  12.038  0.1604 -0.5128  0.6532
 3226SOL    HW121140   0.367   0.005  12.117 -3.4691  3.0139 -2.5067
 3226SOL    HW221141   0.398   0.058  11.977  1.8692  1.5633  2.4175
 3227SOL     OW21142   4.282   4.485  15.452 -0.0609  0.2259 -0.2428
 3227SOL    HW121143   4.275   4.497  15.357 -1.3747  0.5637 -0.1033
 3227SOL    HW221144   4.203   4.535  15.472 -0.4887  0.1598 -1.8134
 3228SOL     OW21145   3.078   3.228   0.967 -0.0657 -0.3024 -1.0349
 3228SOL    HW121146   3.106   3.155   1.022  2.1813  0.1303 -1.5989
 3228SOL    HW221147   3.029   3.275   1.034  2.4088  0.3619  0.3259
 3229SOL     OW21148   2.577   4.242   5.174 -0.7088  0.8851 -0.0557
 3229SOL    HW121149   2.565   4.147   5.174  0.2150  0.7753 -1.0675
 3229SOL    HW221150   2.581   4.255   5.269  1.3144 -1.9946  0.2736
 3230SOL     OW21151   0.900   3.414  16.929  0.0613 -0.1255  0.0698
 3230SOL    HW121152   0.964   3.410  16.858 -0.2160  1.4187 -0.2670
 3230SOL    HW221153   0.822   3.368  16.898  0.8128 -1.5196  0.2769
 3231SOL     OW21154   4.533   2.476   6.443  0.3976  0.1227  0.3864
 3231SOL    HW121155   4.496   2.564   6.456 -0.3504  0.0922 -1.5997
 3231SOL    HW221156   4.622   2.486   6.409  0.1267  1.0665 -0.0504
 3232SOL     OW21157   0.585   1.529   4.123  0.1883 -0.4409 -0.1598
 3232SOL    HW121158   0.674   1.533   4.086  0.2614  0.4372  0.1074
 3232SOL    HW221159   0.556   1.620   4.123 -0.1178 -0.5386  0.1766
 3233SOL     OW21160   3.247   4.622   2.405 -0.4499  0.2213  0.1775
 3233SOL    HW121161   3.262   4.591   2.316 -2.0921  1.6735 -0.6059
 3233SOL    HW221162   3.333   4.637   2.444 -0.2521  1.3411 -0.7022
 3234SOL     OW21163   3.190   3.363   8.047 -0.0480  0.3611 -0.2100
 3234SOL    HW121164   3.140   3.429   8.094  0.6370  0.0741  0.9370
 3234SOL    HW221165   3.223   3.407   7.969 -0.2501 -2.1389 -1.7153
 3235SOL     OW21166   2.999   0.233  10.788  0.3102 -0.1945 -0.7677
 3235SOL    HW121167   2.963   0.205  10.704  1.0482  0.1067 -1.1886
 3235SOL    HW221168   3.072   0.171  10.797  0.3419 -0.0868 -0.3065
 3236SOL     OW21169   4.071   4.626  16.583  0.1280 -0.3812 -0.2138
 3236SOL    HW121170   4.100   4.539  16.555  2.1969  0.6236 -1.1438
 3236SOL    HW221171   4.019   4.640  16.504 -1.4753 -0.9330  0.7320
 3237SOL     OW21172   0.676   3.479  14.741  0.2152  0.0601  0.0339
 3237SOL    HW121173   0.685   3.407  14.803  1.8000 -0.7206 -1.0973
 3237SOL    HW221174   0.767   3.505  14.724 -0.5225  1.7177 -1.3669
 3238SOL     OW21175   1.449   0.117   3.192 -0.1425 -0.9141 -0.0126
 3238SOL    HW121176   1.476   0.209   3.189  1.0238 -1.2917 -1.1354
 3238SOL    HW221177   1.415   0.104   3.103  0.1939  1.6238 -0.5039
 3239SOL     OW21178   0.912   3.316  15.779 -0.0318  0.5461 -0.5716
 3239SOL    HW121179   1.000   3.296  15.748 -1.0659 -2.9043 -1.3273
 3239SOL    HW221180   0.892   3.238  15.832  1.5787 -0.9674 -2.1954
 3240SOL     OW21181   2.597   1.457   6.870 -0.2650  0.2443  0.3750
 3240SOL    HW121182   2.658   1.384   6.875 -2.2867 -1.5009 -0.6908
 3240SOL    HW221183   2.543   1.433   6.795 -2.8157  1.6644  1.7469
 3241SOL     OW21184   1.145   1.769   8.415 -0.3236 -0.0025  0.0553
 3241SOL    HW121185   1.069   1.718   8.446 -0.8129  0.3607 -0.5649
 3241SOL    HW221186   1.124   1.778   8.322  0.1311 -0.0223 -0.0469
 3242SOL     OW21187   4.247   3.199  14.646 -0.4491  0.2606  0.6087
 3242SOL    HW121188   4.220   3.196  14.554  0.3883  0.2600  0.3652
 3242SOL    HW221189   4.226   3.108  14.668  1.1737 -0.2931 -0.1398
 3243SOL     OW21190   0.376   1.169   4.622 -0.0705  1.0335 -0.4289
 3243SOL    HW121191   0.369   1.090   4.570  1.3077  0.4329  0.2815
 3243SOL    HW221192   0.463   1.147   4.655 -1.3336 -2.3108  0.6110
 3244SOL     OW21193   0.201   2.895   4.110 -0.1003 -0.2082 -0.2362
 3244SOL    HW121194   0.146   2.846   4.171 -1.1517  1.9826  0.5720
 3244SOL    HW221195   0.150   2.904   4.030 -1.1822  0.3135  0.5163
 3245SOL     OW21196   4.508   4.388   7.402  0.3862 -0.3290  0.5238
 3245SOL    HW121197   4.420   4.394   7.439  0.5012 -1.8920  1.0674
 3245SOL    HW221198   4.488   4.400   7.310 -0.2652 -1.0372  0.5750
 3246SOL     OW21199   2.301   1.688   6.811 -0.0874  0.0015  0.0111
 3246SOL    HW121200   2.252   1.682   6.729  0.2268  2.7622 -0.3657
 3246SOL    HW221201   2.233   1.704   6.877  0.8332 -0.4239  1.0648
 3247SOL     OW21202   0.320   4.222  12.890  0.1210 -0.2297  0.1021
 3247SOL    HW121203   0.361   4.166  12.956  2.1723  0.2506 -0.7865
 3247SOL    HW221204   0.233   4.236  12.929  0.9067 -0.1744  1.8443
 3248SOL     OW21205   2.472   2.624   2.760 -0.0182  0.1694 -0.7415
 3248SOL    HW121206   2.382   2.655   2.755 -0.6281 -1.5920 -0.7784
 3248SOL    HW221207   2.516   2.697   2.804  2.1328 -2.3363  1.2923
 3249SOL     OW21208   2.196   0.691   8.681 -0.3889  0.2553  0.3216
 3249SOL    HW121209   2.208   0.751   8.608  2.9649 -1.1872 -0.3432
 3249SOL    HW221210   2.268   0.629   8.671  0.0450  0.5074  1.7202
 3250SOL     OW21211   3.437   0.608   6.838  0.3490 -0.5103  0.4934
 3250SOL    HW121212   3.512   0.667   6.848  0.1676 -0.2676  0.4123
 3250SOL    HW221213   3.446   0.574   6.749 -0.0093 -0.2287  0.3475
 3251SOL     OW21214   3.456   1.477   3.623  0.5569 -0.1281 -0.6001
 3251SOL    HW121215   3.450   1.501   3.715 -2.9820  0.1117 -0.9042
 3251SOL    HW221216   3.542   1.437   3.635  0.9030  1.3105  1.5883
 3252SOL     OW21217   3.809   3.769   8.037  0.3157  0.0477  0.1379
 3252SOL    HW121218   3.844   3.705   8.098  2.3575  2.7405  1.7895
 3252SOL    HW221219   3.809   3.851   8.086 -0.2236 -0.3057  0.7244
 3253SOL     OW21220   1.032   2.475   3.169  0.1202 -0.2005  0.0632
 3253SOL    HW121221   1.017   2.546   3.231  3.3255  0.5755 -0.0633
 3253SOL    HW221222   1.059   2.398   3.219 -1.8157  0.1068  1.5698
 3254SOL     OW21223   4.140   2.182   6.718 -0.5781  0.1158 -0.5037
 3254SOL    HW121224   4.215   2.156   6.771  2.5214  3.4555 -3.2502
 3254SOL    HW221225   4.069   2.121   6.738 -0.7216  0.6262  0.5913
 3255SOL     OW21226   1.949   1.806  17.108  0.3474 -0.0908  0.3955
 3255SOL    HW121227   1.948   1.734  17.045 -1.9311 -0.8306  1.2816
 3255SOL    HW221228   1.948   1.759  17.192 -0.3906 -2.2066 -0.8054
 3256SOL     OW21229   0.567   0.326  17.330  0.0417 -0.5726  0.2868
 3256SOL    HW121230   0.472   0.321  17.327 -0.0249  0.6628  0.4765
 3256SOL    HW221231   0.591   0.263  17.399  0.8274  0.3307  0.8323
 3257SOL     OW21232   4.104   0.402   8.812  0.9756  0.3200  0.0965
 3257SOL    HW121233   4.096   0.463   8.885  0.1582  1.0872 -0.6379
 3257SOL    HW221234   4.026   0.418   8.759  2.4039  1.7159 -1.6095
 3258SOL     OW21235   1.747   3.510   8.505 -0.1816 -0.0515 -0.4077
 3258SOL    HW121236   1.814   3.441   8.505 -0.6138 -0.4811 -3.0720
 3258SOL    HW221237   1.706   3.514   8.591 -2.1864 -1.2371 -1.3047
 3259SOL     OW21238   4.002   2.978  14.866  0.0860 -0.1545  0.2561
 3259SOL    HW121239   4.057   2.962  14.942 -1.1372 -0.8680  0.9929
 3259SOL    HW221240   3.964   2.891  14.853 -0.8243  0.1672  0.7697
 3260SOL     OW21241   2.925   3.394   2.698 -0.3007 -0.7465  0.4298
 3260SOL    HW121242   2.869   3.389   2.620 -0.1591  0.1429  0.2734
 3260SOL    HW221243   2.871   3.342   2.757 -1.0389 -0.3869  0.0726
 3261SOL     OW21244   0.747   2.396  15.184 -0.0160  0.6794 -0.2951
 3261SOL    HW121245   0.652   2.389  15.177 -0.0151  0.1321  0.2179
 3261SOL    HW221246   0.785   2.392  15.096 -0.7902 -0.5103 -0.5731
 3262SOL     OW21247   2.864   3.126   3.517  0.1186 -0.6842  0.1731
 3262SOL    HW121248   2.947   3.170   3.498 -0.1855 -1.0524 -1.9704
 3262SOL    HW221249   2.801   3.195   3.539 -0.5224 -1.1514 -0.1800
 3263SOL     OW21250   0.958   4.302   1.926  0.4644 -0.0380  0.3146
 3263SOL    HW121251   0.887   4.273   1.984  0.2153 -0.4080 -0.1717
 3263SOL    HW221252   0.925   4.267   1.843  0.6759  0.4808  0.0167
 3264SOL     OW21253   3.356   1.439   0.085 -0.1427 -0.1248  0.3490
 3264SOL    HW121254   3.350   1.344   0.076  2.9790  0.1178 -3.9292
 3264SOL    HW221255   3.447   1.456   0.059 -0.0528  1.6379  1.7765
 3265SOL     OW21256   4.134   0.408   1.954  0.2059 -0.6390 -1.0490
 3265SOL    HW121257   4.172   0.495   1.942 -0.7025 -0.4804 -2.7312
 3265SOL    HW221258   4.143   0.395   2.049 -1.2250  4.0079 -0.2826
 3266SOL     OW21259   2.005   1.908   2.686  0.3007 -0.4208 -0.3483
 3266SOL    HW121260   2.049   1.824   2.669 -1.2769 -1.2456 -0.2970
 3266SOL    HW221261   1.961   1.930   2.604 -1.9588 -1.3822  0.6006
 3267SOL     OW21262   3.537   1.413   4.535 -0.3862  0.0116  0.3119
 3267SOL    HW121263   3.604   1.394   4.601  1.3692  2.1058 -0.8944
 3267SOL    HW221264   3.546   1.508   4.525 -1.7091  0.3445  2.3050
 3268SOL     OW21265   2.306   2.461   6.469  0.3199  0.2577 -0.2897
 3268SOL    HW121266   2.345   2.375   6.453  3.9945  2.1754 -1.6507
 3268SOL    HW221267   2.347   2.486   6.552  0.4449  0.3419 -0.3772
 3269SOL     OW21268   3.019   1.182  15.151  0.9602 -0.0298  0.0660
 3269SOL    HW121269   3.005   1.100  15.198  0.0072  0.3143  0.3756
 3269SOL    HW221270   2.931   1.210  15.127  1.0245  0.2011  0.0953
 3270SOL     OW21271   0.981   1.417   2.838  0.2574 -0.3963 -0.2305
 3270SOL    HW121272   1.011   1.508   2.834 -0.3269 -0.1266  1.7980
 3270SOL    HW221273   0.900   1.429   2.788  0.1213 -1.8614 -0.3496
 3271SOL     OW21274   2.268   0.216   7.290 -0.5088 -0.2424  0.4178
 3271SOL    HW121275   2.296   0.232   7.380  2.8130 -0.8836 -0.5254
 3271SOL    HW221276   2.240   0.306   7.275  2.1629  0.7217  1.3522
 3272SOL     OW21277   2.672   0.134  15.826  0.5015 -0.7960 -0.1862
 3272SOL    HW121278   2.602   0.106  15.766 -1.2948  0.6680  1.2291
 3272SOL    HW221279   2.685   0.223  15.793  2.0574 -1.6073 -1.7549
 3273SOL     OW21280   4.290   4.362   6.305 -0.3273 -0.2877 -0.3312
 3273SOL    HW121281   4.347   4.370   6.381  0.7944  0.3922 -1.2389
 3273SOL    HW221282   4.222   4.428   6.319 -0.6093 -0.6452 -0.0227
 3274SOL     OW21283   1.860   3.224   7.406 -0.2561 -0.0129  0.0973
 3274SOL    HW121284   1.852   3.308   7.451 -2.6030 -0.0645 -0.2210
 3274SOL    HW221285   1.810   3.239   7.326 -0.9615 -1.5371  0.2349
 3275SOL     OW21286   3.717   1.696   8.085 -0.0291  0.4800 -0.5467
 3275SOL    HW121287   3.802   1.727   8.054  1.2317 -1.8517  0.5567
 3275SOL    HW221288   3.662   1.727   8.013  0.2022  0.3503 -0.7822
 3276SOL     OW21289   2.037   4.340   1.598  0.3299 -0.2976 -0.0696
 3276SOL    HW121290   1.967   4.338   1.533 -0.6365  2.2870  0.9201
 3276SOL    HW221291   2.050   4.247   1.619 -0.0231 -0.3108  0.0895
 3277SOL     OW21292   2.265   0.620   7.626 -0.3027 -0.6571 -0.4072
 3277SOL    HW121293   2.196   0.646   7.687  0.0252 -0.1811 -0.2388
 3277SOL    HW221294   2.347   0.646   7.668  0.4915  0.7033 -2.8424
 3278SOL     OW21295   2.249   4.165  13.897 -0.1380 -0.0816  0.0491
 3278SOL    HW121296   2.245   4.078  13.937 -1.5412  0.6072  1.3803
 3278SOL    HW221297   2.260   4.224  13.971 -2.3664 -1.4485  1.4488
 3279SOL     OW21298   4.717   0.068   0.134 -0.4632 -0.2958  0.6477
 3279SOL    HW121299   4.693   4.703   0.161 -0.9626 -0.7774 -1.3094
 3279SOL    HW221300   0.009   0.112   0.217 -3.2751  0.3681  0.8245
 3280SOL     OW21301   3.593   3.663   2.876  0.3113 -0.0712  0.3251
 3280SOL    HW121302   3.672   3.618   2.845 -0.6282 -0.4430 -1.5225
 3280SOL    HW221303   3.539   3.587   2.858  0.9973 -0.4794 -0.0285
 3281SOL     OW21304   1.030   3.224  17.400  0.6604 -0.4079 -0.5044
 3281SOL    HW121305   1.005   3.244  17.490 -0.1681 -2.4080 -0.2742
 3281SOL    HW221306   0.966   3.260  17.339  3.0327 -0.8632 -3.2153
 3282SOL     OW21307   2.230   2.594   1.194  0.3001  0.1815 -0.1138
 3282SOL    HW121308   2.288   2.669   1.180  0.7652  0.2653  2.1225
 3282SOL    HW221309   2.296   2.527   1.212 -0.6917 -0.4140  1.2559
 3283SOL     OW21310   3.752   3.380   9.708  0.2056 -0.8688 -0.0194
 3283SOL    HW121311   3.708   3.370   9.793 -2.3490  2.1298 -0.9918
 3283SOL    HW221312   3.729   3.469   9.684  0.1583 -1.4696 -2.1814
 3284SOL     OW21313   4.696   1.652   5.886  0.3847 -0.0293  0.3810
 3284SOL    HW121314   4.676   1.642   5.793 -2.5158  1.1861  0.8589
 3284SOL    HW221315   4.621   1.703   5.916  0.4116 -0.1604  0.6626
 3285SOL     OW21316   1.613   3.168  12.876  0.3005  0.5968 -0.3496
 3285SOL    HW121317   1.545   3.220  12.919 -2.1925 -1.2404 -2.1074
 3285SOL    HW221318   1.679   3.235  12.861  1.3169 -0.3743 -0.1860
 3286SOL     OW21319   3.400   2.269   7.430  0.0009 -0.6833  0.1841
 3286SOL    HW121320   3.446   2.185   7.429 -0.8646 -1.1724  0.9122
 3286SOL    HW221321   3.403   2.287   7.524 -3.2738 -1.8789  0.5383
 3287SOL     OW21322   1.522   0.750   4.880 -0.2354  0.3034  0.4411
 3287SOL    HW121323   1.496   0.830   4.926  2.5270  0.4610  1.7554
 3287SOL    HW221324   1.551   0.706   4.960  1.5524  0.0034 -0.3728
 3288SOL     OW21325   4.064   2.575  13.094 -0.3655  0.4646  0.1688
 3288SOL    HW121326   3.993   2.523  13.131 -0.6983  1.2921  0.7060
 3288SOL    HW221327   4.060   2.644  13.160  0.6321  0.0809  0.6214
 3289SOL     OW21328   2.327   3.518   9.316 -0.0581  0.4804  0.1999
 3289SOL    HW121329   2.318   3.433   9.273  1.1255  0.8886 -0.8603
 3289SOL    HW221330   2.237   3.528   9.347  0.2402  2.8590  0.2886
 3290SOL     OW21331   2.265   3.857   5.075 -0.1594  0.2589 -0.4422
 3290SOL    HW121332   2.295   3.831   4.988  0.5275 -0.0439 -0.1128
 3290SOL    HW221333   2.174   3.879   5.052 -0.1983 -1.7944 -2.1681
 3291SOL     OW21334   4.502   4.363   7.962 -0.2943 -0.2872 -0.4119
 3291SOL    HW121335   4.423   4.313   7.982  0.3847 -0.4287  1.9733
 3291SOL    HW221336   4.487   4.449   8.001 -1.4050 -0.4346 -0.5183
 3292SOL     OW21337   0.066   0.057  11.033  0.5577 -0.4034  0.0656
 3292SOL    HW121338   0.038   4.697  11.069  1.3725 -1.0279 -0.7536
 3292SOL    HW221339   0.092   0.101  11.114 -2.1070 -0.2070  0.7983
 3293SOL     OW21340   4.117   3.241   9.948  0.2676 -0.0123 -0.0909
 3293SOL    HW121341   4.182   3.173   9.930 -0.0060 -0.0388 -0.9639
 3293SOL    HW221342   4.137   3.239  10.042  1.0917 -1.2827 -0.2951
 3294SOL     OW21343   0.321   1.241  17.607 -0.3599  0.1051  0.1507
 3294SOL    HW121344   0.398   1.184  17.616 -0.3249  0.1823  0.3314
 3294SOL    HW221345   0.265   1.172  17.572  0.5417 -0.7879  0.4542
 3295SOL     OW21346   3.365   4.273  12.955  0.1321 -0.2359 -0.6086
 3295SOL    HW121347   3.415   4.354  12.966 -2.6503  1.1317  1.8855
 3295SOL    HW221348   3.378   4.252  12.862 -0.2807 -1.1181 -0.4599
 3296SOL     OW21349   0.376   2.414   1.887  0.6160  0.1640  0.7514
 3296SOL    HW121350   0.453   2.465   1.865  1.9356 -1.5397  1.4394
 3296SOL    HW221351   0.410   2.330   1.856 -0.7910 -0.1243 -0.0178
 3297SOL     OW21352   3.667   2.726   5.471  0.4409  0.3491 -0.8084
 3297SOL    HW121353   3.655   2.634   5.494 -0.1770  0.5376 -0.3557
 3297SOL    HW221354   3.753   2.713   5.433  1.2003 -0.3257  1.1270
 3298SOL     OW21355   2.895   2.459   2.555  0.5304 -0.6730 -0.5082
 3298SOL    HW121356   2.869   2.463   2.463  0.5251  3.0310 -0.3206
 3298SOL    HW221357   2.878   2.547   2.588 -3.9988 -1.2890 -1.2517
 3299SOL     OW21358   0.741   2.545  14.771  0.4347  0.0057  0.4621
 3299SOL    HW121359   0.786   2.486  14.831 -0.6748 -0.3142  0.9755
 3299SOL    HW221360   0.650   2.538  14.797  1.1417 -0.1802  2.9042
 3300SOL     OW21361   2.200   0.233   4.971  0.1440  0.0837 -0.2525
 3300SOL    HW121362   2.152   0.288   5.033 -3.1047 -0.8942 -1.9395
 3300SOL    HW221363   2.258   0.300   4.936  0.6596  0.0176  0.4826
 3301SOL     OW21364   0.354   1.936   0.781 -0.4731 -0.3494 -0.2170
 3301SOL    HW121365   0.444   1.934   0.749 -0.2733  0.6089  0.2816
 3301SOL    HW221366   0.369   1.927   0.875 -2.3716 -0.6277  0.0528
 3302SOL     OW21367   4.092   3.565  16.039 -0.2849 -0.0084 -0.6837
 3302SOL    HW121368   4.127   3.653  16.025 -0.9076  0.0101 -2.1115
 3302SOL    HW221369   4.054   3.581  16.125  1.8077 -0.5607  0.3302
 3303SOL     OW21370   2.420   2.975   1.102  0.1337  0.4397  0.1724
 3303SOL    HW121371   2.480   3.014   1.166  1.8689 -0.1573 -1.1083
 3303SOL    HW221372   2.442   2.882   1.108  0.6934  0.7118  2.4555
 3304SOL     OW21373   2.623   4.294   3.178  1.1867 -0.9728  0.9005
 3304SOL    HW121374   2.572   4.353   3.124  1.7975  0.5141  1.9472
 3304SOL    HW221375   2.714   4.304   3.149  0.7618  2.6962  0.8318
 3305SOL     OW21376   2.571   3.422   1.487 -0.2583  0.0814  0.4347
 3305SOL    HW121377   2.543   3.405   1.577  2.7942 -0.6716  1.2378
 3305SOL    HW221378   2.569   3.329   1.466  0.5486 -0.0071  0.7496
 3306SOL     OW21379   0.620   0.715  13.217 -0.4085  0.0546 -0.6138
 3306SOL    HW121380   0.691   0.661  13.251  1.4266  1.2351 -2.5829
 3306SOL    HW221381   0.662   0.801  13.207  0.4175 -0.4300 -1.3071
 3307SOL     OW21382   0.297   4.397  16.573  0.3290 -0.2142  0.5665
 3307SOL    HW121383   0.336   4.328  16.628 -3.4514 -2.0297  0.9652
 3307SOL    HW221384   0.248   4.439  16.643  0.4301  0.3532  0.2913
 3308SOL     OW21385   2.661   1.877   2.484  0.5694  0.2257  0.0470
 3308SOL    HW121386   2.569   1.859   2.502  0.8168 -0.4974  0.6147
 3308SOL    HW221387   2.657   1.831   2.400  1.3396 -1.4484  0.9135
 3309SOL     OW21388   2.490   2.054   4.287 -0.2039  0.3644  0.1773
 3309SOL    HW121389   2.542   2.027   4.363  1.1974  0.1867 -0.8569
 3309SOL    HW221390   2.428   1.981   4.286  1.5365 -1.1182 -0.5180
 3310SOL     OW21391   3.245   2.474   2.671  0.6802 -0.4530  0.5485
 3310SOL    HW121392   3.155   2.462   2.641  0.1937 -1.6138  2.4324
 3310SOL    HW221393   3.266   2.388   2.706 -0.5796 -0.4056  1.4575
 3311SOL     OW21394   4.537   1.684   2.330 -1.1838  0.3270 -0.6505
 3311SOL    HW121395   4.623   1.725   2.339 -0.7917 -0.9808  1.4819
 3311SOL    HW221396   4.482   1.751   2.371 -0.9858  0.7607 -1.1045
 3312SOL     OW21397   3.160   2.220  14.095  0.3022 -0.1464  0.1716
 3312SOL    HW121398   3.145   2.270  14.015 -0.4222  0.7614  0.8826
 3312SOL    HW221399   3.196   2.284  14.157  1.3709 -0.1048 -0.4935
 3313SOL     OW21400   3.042   1.305   9.103  0.3475 -0.5593  0.2957
 3313SOL    HW121401   3.004   1.391   9.085 -0.2657 -0.8979 -0.0096
 3313SOL    HW221402   3.045   1.296   9.198 -0.4745  0.6626  0.4333
 3314SOL     OW21403   3.925   1.485   7.933 -0.0998 -0.0477  0.0152
 3314SOL    HW121404   3.969   1.536   8.001 -0.5573 -0.0338  0.2936
 3314SOL    HW221405   3.972   1.402   7.945 -0.1092 -0.3604 -2.0706
 3315SOL     OW21406   4.340   4.578   4.046  0.3487  0.3381  0.8165
 3315SOL    HW121407   4.378   4.590   4.133 -2.4479  1.5288  1.8873
 3315SOL    HW221408   4.410   4.574   3.982 -0.4097 -0.0819  0.0201
 3316SOL     OW21409   1.728   0.896   6.956 -0.1142 -0.5584 -0.4490
 3316SOL    HW121410   1.667   0.830   6.921  0.1820 -1.1452  0.1451
 3316SOL    HW221411   1.677   0.976   6.966 -0.7743 -1.0473  0.0967
 3317SOL     OW21412   3.239   0.053  16.490  0.1223  0.1325 -0.2463
 3317SOL    HW121413   3.143   0.052  16.494  0.1448  0.1241  0.2899
 3317SOL    HW221414   3.261   0.097  16.572  1.7214 -0.5108 -0.3333
 3318SOL     OW21415   1.090   3.178  16.888 -0.0882 -0.4212 -0.3164
 3318SOL    HW121416   1.084   3.125  16.967  1.4797 -1.2544 -0.7810
 3318SOL    HW221417   1.015   3.139  16.844  0.2969 -1.1076 -0.3506
 3319SOL     OW21418   4.104   3.509   6.412 -0.5748  0.2566  0.4748
 3319SOL    HW121419   4.179   3.505   6.471 -1.2535 -1.6082  1.2261
 3319SOL    HW221420   4.064   3.595   6.422 -1.4840 -0.0318 -0.6164
 3320SOL     OW21421   0.649   0.071   1.688  0.3327  0.0931  0.2331
 3320SOL    HW121422   0.621   0.061   1.598 -1.3431  1.1558  0.6382
 3320SOL    HW221423   0.731   0.122   1.683  0.1230  0.3494 -0.5983
 3321SOL     OW21424   0.269   3.058  16.525 -0.2730  0.1383 -0.0383
 3321SOL    HW121425   0.210   3.134  16.533  2.6261  2.3760  0.1325
 3321SOL    HW221426   0.220   3.011  16.457  0.2915  0.1473 -0.4501
 3322SOL     OW21427   0.231   3.535   0.155  0.2116  0.6764 -0.4134
 3322SOL    HW121428   0.183   3.585   0.221 -0.5099  0.8321 -1.0574
 3322SOL    HW221429   0.313   3.584   0.157 -0.8591  2.3400  2.7639
 3323SOL     OW21430   4.444   2.599   2.345 -0.2427 -0.0187 -0.3957
 3323SOL    HW121431   4.430   2.513   2.383 -3.0372  0.3033 -0.6673
 3323SOL    HW221432   4.517   2.584   2.284  0.3216  1.8680 -0.1953
 3324SOL     OW21433   4.365   0.946   1.467  0.8382  0.3265 -0.5587
 3324SOL    HW121434   4.327   0.858   1.469  0.4388  0.5326  0.7587
 3324SOL    HW221435   4.447   0.922   1.425  0.8819 -1.3347  0.4894
 3325SOL     OW21436   1.347   3.889  12.523  0.3258  0.2943  0.5088
 3325SOL    HW121437   1.311   3.807  12.491  0.4374 -0.4833  2.3678
 3325SOL    HW221438   1.395   3.865  12.603  1.3345 -0.8274 -0.4471
 3326SOL     OW21439   1.399   2.322  14.668 -0.1364 -0.3615 -0.2454
 3326SOL    HW121440   1.318   2.369  14.691 -0.9408 -0.7620 -2.2625
 3326SOL    HW221441   1.421   2.291  14.756 -1.5103 -2.8205 -0.7457
 3327SOL     OW21442   0.391   2.994   4.264  0.0873 -0.3820 -0.1373
 3327SOL    HW121443   0.482   2.967   4.251  1.3662  2.7263  2.1499
 3327SOL    HW221444   0.347   2.946   4.194  0.6114 -0.0407 -0.6954
 3328SOL     OW21445   2.694   4.149  14.914  0.2134 -0.3988  0.6424
 3328SOL    HW121446   2.743   4.205  14.854 -2.4429 -0.8619 -1.9865
 3328SOL    HW221447   2.624   4.122  14.855  0.4630  0.2286  0.0614
 3329SOL     OW21448   0.698   3.599   2.128 -0.5291 -0.1485 -0.0483
 3329SOL    HW121449   0.768   3.539   2.102 -0.7661  0.3650 -1.9015
 3329SOL    HW221450   0.626   3.564   2.075  0.8568  0.2927 -2.2253
 3330SOL     OW21451   4.306   0.899   7.326  0.1537  0.2443  0.3839
 3330SOL    HW121452   4.340   0.871   7.241  0.7880  0.8628  0.4429
 3330SOL    HW221453   4.377   0.945   7.369  1.5422 -0.5609 -1.0463
 3331SOL     OW21454   1.885   3.442   6.607 -0.3484  0.4728  0.3968
 3331SOL    HW121455   1.829   3.451   6.530 -1.6508 -0.4976  1.2260
 3331SOL    HW221456   1.822   3.430   6.677  3.2505  3.6051  4.1750
 3332SOL     OW21457   1.767   4.033   7.961 -0.3793 -0.2104 -0.6038
 3332SOL    HW121458   1.698   3.981   8.002 -2.0506  1.5626 -1.1836
 3332SOL    HW221459   1.832   4.026   8.031 -1.0177  0.0661  0.0245
 3333SOL     OW21460   3.555   3.099  13.806  0.6474 -0.1105  0.1722
 3333SOL    HW121461   3.633   3.139  13.767  0.9317 -0.3519  0.4869
 3333SOL    HW221462   3.585   3.009  13.819 -0.4928 -0.8314 -2.1984
 3334SOL     OW21463   1.318   2.157  13.337  0.1109  0.0342 -0.0528
 3334SOL    HW121464   1.335   2.241  13.295  1.5671 -0.5898 -0.7190
 3334SOL    HW221465   1.296   2.099  13.263  2.9772  0.8413 -1.5270
 3335SOL     OW21466   0.761   2.837  14.004  0.1926 -0.2369  0.2584
 3335SOL    HW121467   0.745   2.756  14.053 -0.3853 -0.6030 -0.5341
 3335SOL    HW221468   0.834   2.876  14.052 -1.7966  2.6471  0.9244
 3336SOL     OW21469   3.528   2.124   2.620  0.6679 -0.1302 -0.0624
 3336SOL    HW121470   3.587   2.127   2.695  1.2273  0.2875 -0.5191
 3336SOL    HW221471   3.558   2.195   2.563  1.2687 -0.5886 -0.3256
 3337SOL     OW21472   4.511   3.711   3.892  0.1248 -0.3143  0.0132
 3337SOL    HW121473   4.590   3.764   3.896 -0.7965  1.0696 -0.0912
 3337SOL    HW221474   4.504   3.691   3.799 -1.2315  1.3698 -0.2296
 3338SOL     OW21475   4.077   3.486   0.685 -0.3823 -0.5383  0.1523
 3338SOL    HW121476   3.991   3.512   0.717 -0.8343 -1.1128 -0.5961
 3338SOL    HW221477   4.135   3.529   0.749  0.4045 -0.4175 -0.6406
 3339SOL     OW21478   1.090   2.462  15.908 -0.6173  0.4406  0.2026
 3339SOL    HW121479   1.129   2.434  15.825  0.4804  1.2633  0.4413
 3339SOL    HW221480   1.152   2.529  15.935  0.2377  0.4462 -1.8198
 3340SOL     OW21481   1.143   3.728   1.959 -0.8730  0.0545 -0.6517
 3340SOL    HW121482   1.163   3.820   1.946  0.1998  0.0041  0.7052
 3340SOL    HW221483   1.048   3.738   1.952 -0.7906  1.1131 -0.2326
 3341SOL     OW21484   4.422   4.001   3.307 -0.1592 -0.6055  0.0475
 3341SOL    HW121485   4.392   3.978   3.219  0.9540  0.2305 -0.5628
 3341SOL    HW221486   4.507   4.042   3.289 -1.1201  1.7417  0.8590
 3342SOL     OW21487   2.817   3.428  11.855 -0.0483 -0.0042  0.3422
 3342SOL    HW121488   2.781   3.517  11.847 -1.5300 -0.5742  0.5706
 3342SOL    HW221489   2.898   3.446  11.903 -1.4915 -0.3011  2.8885
 3343SOL     OW21490   2.250   1.487   4.525  0.5338 -0.0985  0.3135
 3343SOL    HW121491   2.311   1.557   4.502  0.4777  0.5759  2.2208
 3343SOL    HW221492   2.253   1.434   4.445  2.0762 -1.0252  0.9799
 3344SOL     OW21493   3.571   4.701   4.395 -0.1712 -0.3972  0.2117
 3344SOL    HW121494   3.603   0.054   4.444 -0.5734  0.1039 -0.3120
 3344SOL    HW221495   3.522   0.024   4.327  1.4048 -1.5729 -1.7421
 3345SOL     OW21496   1.309   1.746   3.428 -0.5315  0.1404  0.0497
 3345SOL    HW121497   1.286   1.757   3.521 -1.8703 -1.8685 -0.0445
 3345SOL    HW221498   1.340   1.656   3.438  0.6483  0.5265 -0.1484
 3346SOL     OW21499   4.261   0.083  15.790  0.6274 -0.4742 -0.0674
 3346SOL    HW121500   4.243   0.167  15.749  0.2795 -0.6831 -0.3392
 3346SOL    HW221501   4.353   0.089  15.818  0.2289  0.4077  1.0484
 3347SOL     OW21502   1.507   2.489   7.867  0.2728  0.1300 -0.0163
 3347SOL    HW121503   1.596   2.465   7.895 -1.1935 -1.1911  3.4462
 3347SOL    HW221504   1.490   2.417   7.807  0.7515 -1.2846  1.5496
 3348SOL     OW21505   0.061   4.428  12.725  0.2229 -0.3264 -0.5021
 3348SOL    HW121506   4.722   4.427  12.797  0.1238 -1.9014 -0.6194
 3348SOL    HW221507   0.096   4.339  12.730 -2.0564 -1.2066 -0.1067
 3349SOL     OW21508   4.457   1.291   1.559 -0.5560  0.5537  0.1683
 3349SOL    HW121509   4.547   1.318   1.580  0.2024  0.7973 -3.4693
 3349SOL    HW221510   4.414   1.355   1.616 -0.4115  0.6071  0.2195
 3350SOL     OW21511   4.681   3.804   3.472 -0.2649 -0.4405  0.0220
 3350SOL    HW121512   0.041   3.846   3.450 -0.0885 -1.0548 -0.4986
 3350SOL    HW221513   4.661   3.760   3.390  0.0834 -1.0038  0.2355
 3351SOL     OW21514   3.930   4.269   6.871 -0.3718 -0.0762  0.2148
 3351SOL    HW121515   3.902   4.187   6.831 -2.3247 -0.2325  1.9064
 3351SOL    HW221516   3.853   4.325   6.871  0.0347  0.4840 -2.9670
 3352SOL     OW21517   2.782   2.745   6.938  0.0404  0.2599 -0.1061
 3352SOL    HW121518   2.793   2.767   7.030 -0.5836 -2.3759  0.6116
 3352SOL    HW221519   2.798   2.651   6.951 -1.0859  0.3243  1.7090
 3353SOL     OW21520   4.289   0.464   5.849 -0.4006  0.5217  0.0931
 3353SOL    HW121521   4.210   0.513   5.872 -0.2835  0.7759 -0.0535
 3353SOL    HW221522   4.352   0.529   5.878  1.7955 -1.1227 -0.9221
 3354SOL     OW21523   0.392   2.638   5.129  0.0628  0.3583  0.1844
 3354SOL    HW121524   0.394   2.545   5.152 -1.5004  0.2873  0.0814
 3354SOL    HW221525   0.299   2.656   5.115  0.5451  0.9799 -2.1388
 3355SOL     OW21526   0.908   0.902   1.705  0.3121 -0.0457  0.8568
 3355SOL    HW121527   0.934   0.882   1.615  3.9550  1.0857  1.6806
 3355SOL    HW221528   0.864   0.820   1.725  2.1061 -0.5754  2.5054
 3356SOL     OW21529   2.592   4.523   1.021 -0.2476 -0.5016 -0.1250
 3356SOL    HW121530   2.617   4.461   0.952  0.4115  0.5720 -0.8658
 3356SOL    HW221531   2.522   4.563   0.971 -2.3618 -0.2831  3.0309
 3357SOL     OW21532   1.653   1.839   8.945  0.6654 -0.1556  0.2752
 3357SOL    HW121533   1.566   1.806   8.922  0.9294 -0.1784 -0.6742
 3357SOL    HW221534   1.638   1.884   9.029  0.2231  0.5535 -0.1874
 3358SOL     OW21535   3.305   1.490   3.235  0.1520  0.0024 -0.3807
 3358SOL    HW121536   3.267   1.517   3.318 -1.7794 -0.2925 -1.1610
 3358SOL    HW221537   3.247   1.418   3.209 -1.9483  1.2807  0.7646
 3359SOL     OW21538   1.153   1.518   8.983 -0.2255  0.2931  0.1840
 3359SOL    HW121539   1.230   1.497   8.930 -0.5385 -0.7744  0.1440
 3359SOL    HW221540   1.129   1.430   9.013 -1.4900  1.3411  2.1950
 3360SOL     OW21541   1.995   1.533  12.742 -0.2063  0.0874 -0.1827
 3360SOL    HW121542   2.063   1.520  12.808  1.5951  0.8606 -1.8937
 3360SOL    HW221543   2.042   1.505  12.664 -0.2497 -0.0266 -0.1667
 3361SOL     OW21544   1.697   1.205  17.002  0.6697  0.0968  0.9281
 3361SOL    HW121545   1.632   1.241  16.942 -0.4934 -0.7041  1.7070
 3361SOL    HW221546   1.754   1.163  16.938  0.7794 -0.8073  1.6176
 3362SOL     OW21547   3.235   1.144   2.649  0.0758  0.3338 -0.0303
 3362SOL    HW121548   3.210   1.159   2.558  1.4114  1.3467 -0.2413
 3362SOL    HW221549   3.287   1.065   2.634  0.3018  0.7185 -1.2501
 3363SOL     OW21550   3.470   4.313  13.860 -0.1483  0.1080  0.2443
 3363SOL    HW121551   3.465   4.262  13.779  0.9405 -0.8715  0.7925
 3363SOL    HW221552   3.465   4.399  13.819  2.5112 -0.3822 -1.1708
 3364SOL     OW21553   2.338   4.243   6.280  0.3254  0.0356  0.0191
 3364SOL    HW121554   2.341   4.338   6.289  0.3990  0.2033 -1.7512
 3364SOL    HW221555   2.420   4.231   6.327  0.7876 -0.5356 -0.9269
 3365SOL     OW21556   1.590   3.865   3.589  0.7293 -0.0995  0.3717
 3365SOL    HW121557   1.554   3.786   3.550 -0.1381  0.9393 -0.9528
 3365SOL    HW221558   1.615   3.827   3.673 -0.4466 -1.1224  0.2651
 3366SOL     OW21559   4.159   1.660  12.120 -0.0125  0.9225  0.7811
 3366SOL    HW121560   4.176   1.740  12.070 -0.9319  0.7240  0.1527
 3366SOL    HW221561   4.081   1.621  12.081  0.0137  4.4878 -2.8313
 3367SOL     OW21562   1.444   0.827  10.596 -0.9079 -0.1035 -0.5822
 3367SOL    HW121563   1.518   0.818  10.657  0.3057  1.3034 -1.8687
 3367SOL    HW221564   1.420   0.918  10.611  0.0977  0.6105 -3.2839
 3368SOL     OW21565   2.953   2.744   5.980  0.2014 -0.3690 -0.0070
 3368SOL    HW121566   2.907   2.815   6.024 -2.9267 -2.0627 -0.5075
 3368SOL    HW221567   2.965   2.788   5.896  0.3659 -0.0770  0.1697
 3369SOL     OW21568   0.657   1.836  16.060  0.3639 -0.2808  0.0143
 3369SOL    HW121569   0.703   1.901  16.008 -1.9469  0.4570 -1.1064
 3369SOL    HW221570   0.713   1.838  16.138  1.4953  0.0299 -0.8128
 3370SOL     OW21571   2.779   0.745  12.703  0.1648 -0.2818  0.1894
 3370SOL    HW121572   2.799   0.655  12.730 -2.0028 -0.4882  1.1789
 3370SOL    HW221573   2.790   0.783  12.790 -1.4631 -0.0014  0.2745
 3371SOL     OW21574   1.266   1.426   4.398  0.6914 -0.1397  0.3137
 3371SOL    HW121575   1.205   1.362   4.362 -1.5455  2.2781 -0.2260
 3371SOL    HW221576   1.207   1.495   4.429  0.1681  0.5690 -2.2576
 3372SOL     OW21577   4.545   0.235   4.406 -0.8294 -0.2917  0.0503
 3372SOL    HW121578   4.575   0.219   4.495  0.3656 -0.9572 -0.4699
 3372SOL    HW221579   4.461   0.278   4.423 -0.4006  0.9838 -1.0843
 3373SOL     OW21580   3.449   2.135  17.509 -0.0420  0.4021  0.1827
 3373SOL    HW121581   3.450   2.067  17.442  1.2832 -1.1919  1.8042
 3373SOL    HW221582   3.355   2.151  17.512 -0.0668  0.2028  0.4879
 3374SOL     OW21583   3.174   2.072   9.798  0.2481 -0.7588  0.2501
 3374SOL    HW121584   3.193   2.148   9.852 -0.7517 -0.9722  0.8946
 3374SOL    HW221585   3.092   2.044   9.838 -0.7837  1.9143  0.0365
 3375SOL     OW21586   1.216   2.809  13.988 -0.5026  0.3460 -0.0996
 3375SOL    HW121587   1.281   2.806  13.917  0.6339 -0.9616  0.9934
 3375SOL    HW221588   1.237   2.743  14.054 -1.3327 -0.7195 -0.9264
 3376SOL     OW21589   1.120   0.921   6.700 -0.1034 -0.5677 -0.5081
 3376SOL    HW121590   1.107   0.987   6.768  0.6451 -1.2541  0.3075
 3376SOL    HW221591   1.044   0.926   6.642 -0.7098 -0.7504  0.2664
 3377SOL     OW21592   1.031   4.368   3.667 -0.4187  0.5128 -0.3320
 3377SOL    HW121593   1.014   4.276   3.645  3.1058 -0.3405  0.5261
 3377SOL    HW221594   0.956   4.394   3.720 -0.7713  0.7000 -0.9257
 3378SOL     OW21595   2.022   0.606   8.366  0.0547  0.1897 -0.6872
 3378SOL    HW121596   1.959   0.562   8.423  0.3735  1.0152  0.3036
 3378SOL    HW221597   1.997   0.697   8.382  1.1097  0.4441 -0.5105
 3379SOL     OW21598   1.349   2.980   7.885 -0.0656 -0.0907  0.7333
 3379SOL    HW121599   1.440   2.964   7.907 -0.0233 -0.0148  0.6096
 3379SOL    HW221600   1.318   2.890   7.883  2.0419 -0.7154 -3.1102
 3380SOL     OW21601   0.795   3.307   1.747 -0.2980 -0.2275  0.0261
 3380SOL    HW121602   0.759   3.220   1.730  0.7127 -0.4074 -1.1810
 3380SOL    HW221603   0.758   3.364   1.680 -1.0008 -0.3832  0.2798
 3381SOL     OW21604   3.665   4.403   1.511 -0.4458  0.1371  0.4241
 3381SOL    HW121605   3.712   4.376   1.432 -3.3915  3.1349 -2.3884
 3381SOL    HW221606   3.723   4.468   1.552  0.7274  0.4205 -1.6893
 3382SOL     OW21607   3.483   3.012   8.293  0.1435  0.4409 -0.1264
 3382SOL    HW121608   3.483   2.944   8.360 -0.1885  0.3437 -0.2268
 3382SOL    HW221609   3.457   3.085   8.349  0.2495  1.2056 -1.0601
 3383SOL     OW21610   1.732   1.688   4.591  0.3973 -0.4967 -0.2144
 3383SOL    HW121611   1.644   1.650   4.587  1.4587 -2.6878 -2.4025
 3383SOL    HW221612   1.719   1.757   4.526  2.2389 -0.4742 -0.5479
 3384SOL     OW21613   2.734   3.020   8.149 -0.2356  0.6961 -0.2863
 3384SOL    HW121614   2.676   3.033   8.224 -1.5215  0.0838 -1.1645
 3384SOL    HW221615   2.797   3.088   8.174  1.9742 -0.8841 -1.5353
 3385SOL     OW21616   1.073   2.709  12.370 -0.0292  0.3827 -0.3332
 3385SOL    HW121617   1.022   2.778  12.328  0.0017  1.4347  1.3565
 3385SOL    HW221618   1.099   2.661  12.292 -2.5308 -0.5185 -0.6010
 3386SOL     OW21619   1.376   0.018   4.094 -0.5855  0.3605  0.2341
 3386SOL    HW121620   1.297   4.697   4.064  0.2122 -2.3942  2.2600
 3386SOL    HW221621   1.333   0.092   4.137 -0.9354 -0.0103  0.5288
 3387SOL     OW21622   0.996   2.097  11.540 -0.1528 -0.5402  0.4798
 3387SOL    HW121623   0.943   2.171  11.569 -0.3759 -0.3572 -0.4038
 3387SOL    HW221624   1.000   2.042  11.618  2.1233 -1.0363  0.0325
 3388SOL     OW21625   4.691   2.265   7.755  0.0037 -0.2974 -0.5716
 3388SOL    HW121626   0.009   2.274   7.841 -1.1329  1.3437 -0.1999
 3388SOL    HW221627   4.648   2.350   7.748 -0.9488 -0.6205  1.5742
 3389SOL     OW21628   3.184   0.978  12.953  1.0305 -0.7753 -0.4648
 3389SOL    HW121629   3.129   1.044  12.995 -1.0740 -0.7993 -3.1751
 3389SOL    HW221630   3.246   1.036  12.910 -1.0985  0.7911 -1.4146
 3390SOL     OW21631   1.966   0.720   2.182  0.0780 -0.2862 -0.1129
 3390SOL    HW121632   1.992   0.735   2.273  0.5841  0.1000 -0.3220
 3390SOL    HW221633   1.871   0.727   2.194 -0.2162 -0.4568 -2.3280
 3391SOL     OW21634   0.947   1.128   1.558  0.7009 -0.2694  0.8652
 3391SOL    HW121635   0.860   1.138   1.520  0.0677 -2.9852  1.6079
 3391SOL    HW221636   0.937   1.042   1.600  1.5246 -0.4566  0.6792
 3392SOL     OW21637   3.422   3.563  14.960 -0.0820  0.5404 -0.0697
 3392SOL    HW121638   3.329   3.546  14.944  0.0809  0.8996 -1.3258
 3392SOL    HW221639   3.427   3.655  14.937  1.9200  0.6312  0.6984
 3393SOL     OW21640   4.624   2.114   8.151  0.0061 -0.4511 -0.0839
 3393SOL    HW121641   4.644   2.031   8.107  0.3246 -0.5962  0.3384
 3393SOL    HW221642   4.537   2.087   8.182 -0.3948 -0.7153 -1.4143
 3394SOL     OW21643   4.462   2.626   5.391  0.2547 -0.0216  0.2301
 3394SOL    HW121644   4.528   2.609   5.323 -1.1186 -0.7500 -0.9055
 3394SOL    HW221645   4.497   2.703   5.436 -1.7414  1.9445 -1.6015
 3395SOL     OW21646   4.587   4.566   0.749  0.1184 -0.0601 -0.3386
 3395SOL    HW121647   4.602   4.630   0.820  0.0323 -2.4774  1.8639
 3395SOL    HW221648   4.677   4.536   0.738  0.4389  0.8067 -0.1365
 3396SOL     OW21649   3.776   0.471   4.380  0.0971  0.3841 -0.1788
 3396SOL    HW121650   3.837   0.486   4.452 -1.0564 -2.5046  1.4166
 3396SOL    HW221651   3.838   0.479   4.308  0.4702  0.9770  0.2077
 3397SOL     OW21652   1.316   3.712  10.852 -0.2722  0.6163  0.0712
 3397SOL    HW121653   1.242   3.651  10.858 -1.7114  2.4391  1.0832
 3397SOL    HW221654   1.267   3.794  10.847 -1.4622  0.0560  2.4509
 3398SOL     OW21655   0.850   3.811   3.538  0.3482  0.1377 -0.1642
 3398SOL    HW121656   0.771   3.808   3.484  1.5720  0.7999 -1.9952
 3398SOL    HW221657   0.911   3.826   3.466 -0.2076  1.0152 -0.4463
 3399SOL     OW21658   2.775   0.655  15.587 -0.6411 -0.1074  0.4411
 3399SOL    HW121659   2.834   0.680  15.659  0.2815  1.9191 -1.0217
 3399SOL    HW221660   2.767   0.742  15.548 -0.4868 -0.8364 -1.2168
 3400SOL     OW21661   2.693   0.696   3.956  0.0019  0.2788 -0.0354
 3400SOL    HW121662   2.692   0.764   4.024  3.5637  0.6915 -0.3843
 3400SOL    HW221663   2.749   0.736   3.889  0.1511 -0.5383 -0.4026
 3401SOL     OW21664   4.042   3.043   3.409  0.0968 -0.8262  0.0636
 3401SOL    HW121665   3.966   2.996   3.443 -0.5886  2.3544  2.9915
 3401SOL    HW221666   4.002   3.062   3.324  0.1510  1.8089  0.6133
 3402SOL     OW21667   3.404   3.603   8.558 -0.4870 -0.0959  0.0191
 3402SOL    HW121668   3.465   3.589   8.631  0.8778 -1.9555 -1.4776
 3402SOL    HW221669   3.331   3.649   8.598 -1.4091 -1.2631 -0.3323
 3403SOL     OW21670   0.092   4.013   4.601 -0.2857  0.2100 -0.0590
 3403SOL    HW121671   0.162   3.995   4.538 -0.4035  1.4960 -0.5645
 3403SOL    HW221672   0.131   4.044   4.682  2.0258 -0.9330 -0.7328
 3404SOL     OW21673   0.054   4.395   2.616 -0.6399  0.3770  0.5035
 3404SOL    HW121674   0.007   4.314   2.632 -0.5077  0.3011  0.5068
 3404SOL    HW221675   0.135   4.385   2.666 -0.4105 -0.7177 -0.0781
 3405SOL     OW21676   1.012   0.539   2.919 -0.3371  0.1862 -0.2900
 3405SOL    HW121677   0.926   0.580   2.929 -1.0158 -0.7071 -2.5272
 3405SOL    HW221678   0.979   0.451   2.900 -0.4894 -0.2781  2.0275
 3406SOL     OW21679   4.075   3.335   4.890 -1.0570 -0.2314  0.9446
 3406SOL    HW121680   4.107   3.356   4.977 -0.8912  1.9963  0.3463
 3406SOL    HW221681   4.103   3.406   4.832  1.0720 -2.1863 -0.4308
 3407SOL     OW21682   3.412   2.134   3.466 -0.3485  0.9221 -0.5570
 3407SOL    HW121683   3.446   2.168   3.549  0.6353  1.3484 -1.1306
 3407SOL    HW221684   3.384   2.215   3.423  0.8271  1.4164 -0.4053
 3408SOL     OW21685   2.745   0.710   3.434  0.3706  0.0770  0.4603
 3408SOL    HW121686   2.820   0.715   3.374  0.2056 -0.2073  0.2313
 3408SOL    HW221687   2.677   0.724   3.368  0.5643  1.2573  0.5133
 3409SOL     OW21688   0.950   1.503  10.995  0.3703 -0.0811  0.1706
 3409SOL    HW121689   1.035   1.474  10.963  0.2065  1.1811 -1.4061
 3409SOL    HW221690   0.895   1.502  10.917 -1.8596 -0.6876  1.7371
 3410SOL     OW21691   4.101   1.847   6.793 -0.0206  0.0984 -0.6962
 3410SOL    HW121692   4.012   1.870   6.767 -0.5833  2.4319  3.4454
 3410SOL    HW221693   4.094   1.896   6.874  0.5397  0.0408 -0.6134
 3411SOL     OW21694   0.867   2.638   7.472 -0.0491  0.7694  0.2859
 3411SOL    HW121695   0.845   2.597   7.555 -2.3232  3.0349  0.8166
 3411SOL    HW221696   0.942   2.688   7.506  0.1029  0.8684 -0.1945
 3412SOL     OW21697   2.468   0.960   3.808 -0.4648  0.0539  0.1455
 3412SOL    HW121698   2.482   0.912   3.726  1.1146 -0.0650  0.4888
 3412SOL    HW221699   2.383   0.999   3.787 -0.7614 -1.3511 -1.2673
 3413SOL     OW21700   3.509   0.063   2.425  0.3902  0.1806  0.1819
 3413SOL    HW121701   3.543   4.701   2.449  0.6782  0.1043 -0.4895
 3413SOL    HW221702   3.495   0.055   2.330 -0.4859  2.3975  0.1145
 3414SOL     OW21703   0.871   1.802  16.898  0.5897 -0.3968  0.0620
 3414SOL    HW121704   0.805   1.825  16.963  1.8578 -0.7895  1.4768
 3414SOL    HW221705   0.811   1.779  16.827 -0.1965 -0.9124  0.9107
 3415SOL     OW21706   1.709   3.213   0.893 -0.3250 -0.0652  0.0347
 3415SOL    HW121707   1.698   3.282   0.958  0.2291  0.6806 -0.6642
 3415SOL    HW221708   1.785   3.167   0.930 -0.1931  0.9639  1.0343
 3416SOL     OW21709   0.931   2.813  14.497 -0.6943  0.3433  0.1447
 3416SOL    HW121710   0.961   2.899  14.468  2.1304 -0.8375 -0.4322
 3416SOL    HW221711   0.843   2.837  14.525 -0.0388  2.3760  0.4457
 3417SOL     OW21712   3.563   3.971   1.940 -0.1521 -0.2455  0.0177
 3417SOL    HW121713   3.595   3.912   1.872 -0.8312 -0.0048 -0.5106
 3417SOL    HW221714   3.536   4.052   1.896 -0.8961 -0.5490 -0.0788
 3418SOL     OW21715   0.048   4.412   3.345 -0.0491 -0.2451 -0.1244
 3418SOL    HW121716   4.705   4.348   3.322  0.8080 -0.4810 -1.9539
 3418SOL    HW221717   4.719   4.492   3.346  1.1059  0.4791  1.1774
 3419SOL     OW21718   4.117   1.872   7.253  0.7647  0.0025  0.2579
 3419SOL    HW121719   4.179   1.838   7.187 -0.4447  1.9794 -1.9152
 3419SOL    HW221720   4.127   1.805   7.321 -0.5021 -0.1553  0.2807
 3420SOL     OW21721   1.439   1.692   8.867 -0.2627  0.6708  0.4501
 3420SOL    HW121722   1.390   1.717   8.788 -0.6111 -0.7461  0.2188
 3420SOL    HW221723   1.412   1.602   8.884  2.3172 -0.4986 -1.5990
 3421SOL     OW21724   3.403   1.301  11.219 -0.2007 -0.2583  1.0781
 3421SOL    HW121725   3.457   1.278  11.295  1.6598  0.7434  0.0661
 3421SOL    HW221726   3.421   1.395  11.223  1.4422 -0.5234 -0.2677
 3422SOL     OW21727   2.405   4.624  12.121 -0.7606  0.4575  0.2482
 3422SOL    HW121728   2.392   4.613  12.216 -1.3372  0.4505  0.1631
 3422SOL    HW221729   2.479   4.685  12.120 -1.1798  0.9087 -1.9163
 3423SOL     OW21730   2.882   4.685   5.106 -0.4969  0.6380  0.3142
 3423SOL    HW121731   2.812   4.630   5.141 -1.6584  1.9568  0.0616
 3423SOL    HW221732   2.829   0.033   5.073  0.6812  1.8970  1.1612
 3424SOL     OW21733   3.996   4.032   3.171 -0.5257  0.6793  0.2603
 3424SOL    HW121734   3.901   4.025   3.181 -0.5274 -1.1486 -1.1265
 3424SOL    HW221735   4.012   3.997   3.084 -0.9562  1.2057 -0.0348
 3425SOL     OW21736   1.103   4.629  14.168  0.2366  0.0415 -0.5455
 3425SOL    HW121737   1.103   4.664  14.257 -0.9838 -0.2999 -0.4035
 3425SOL    HW221738   1.170   4.686  14.131  0.7142 -0.9699 -1.2504
 3426SOL     OW21739   2.304   3.713   2.457 -0.6032  0.2827 -0.4172
 3426SOL    HW121740   2.300   3.620   2.479 -2.2430  0.8001  1.5484
 3426SOL    HW221741   2.224   3.717   2.405 -0.5131  0.3723 -0.5474
 3427SOL     OW21742   2.535   3.331   1.753 -0.0429  0.1062 -0.0486
 3427SOL    HW121743   2.442   3.352   1.763  0.1109  0.9514 -0.3745
 3427SOL    HW221744   2.583   3.398   1.802 -1.8821 -0.2707  2.2571
 3428SOL     OW21745   0.025   1.338   4.950 -0.6784 -0.3597 -0.6874
 3428SOL    HW121746   4.688   1.287   4.898 -1.9249 -1.2233  1.6122
 3428SOL    HW221747   0.103   1.338   4.894 -0.7317  0.5196 -0.7613
 3429SOL     OW21748   2.398   4.620  15.525 -0.6228  0.4814 -0.0992
 3429SOL    HW121749   2.477   4.633  15.472 -1.0510 -1.2137 -1.1502
 3429SOL    HW221750   2.371   4.530  15.508 -0.8635  0.7050 -0.9089
 3430SOL     OW21751   2.711   0.269   5.739  0.2261  0.3438 -0.5650
 3430SOL    HW121752   2.796   0.231   5.764  1.1526  2.0947 -1.0271
 3430SOL    HW221753   2.710   0.252   5.645  0.2868 -1.3201 -0.2664
 3431SOL     OW21754   3.850   0.690   5.020  0.3282 -0.1930 -0.6901
 3431SOL    HW121755   3.900   0.673   5.099  0.7950  1.4995 -0.6076
 3431SOL    HW221756   3.886   0.628   4.958  3.3535 -2.0628  2.9535
 3432SOL     OW21757   1.612   4.713  14.772  0.6743  0.7749 -0.1054
 3432SOL    HW121758   1.628   0.074  14.815  0.4129  0.2375  1.0415
 3432SOL    HW221759   1.698   4.675  14.790  0.4261  0.7089  0.8953
 3433SOL     OW21760   1.957   4.633   3.314 -0.1230 -0.5938  0.3609
 3433SOL    HW121761   1.865   4.654   3.299 -0.0790 -2.5958 -2.7194
 3433SOL    HW221762   1.947   4.620   3.408  0.7458 -2.2684  0.2317
 3434SOL     OW21763   3.477   1.563   1.413  0.2489  0.0820  0.0422
 3434SOL    HW121764   3.484   1.643   1.466 -4.4300  0.5337  0.0073
 3434SOL    HW221765   3.433   1.607   1.341 -0.7382 -0.1977  0.4768
 3435SOL     OW21766   0.186   1.119   0.503  0.0626 -0.1047  0.2906
 3435SOL    HW121767   0.279   1.108   0.483  0.8630  2.0590  2.7360
 3435SOL    HW221768   0.149   1.110   0.416  1.1725  3.0469 -0.5042
 3436SOL     OW21769   2.020   4.386   1.163 -0.5769 -0.0537  0.1860
 3436SOL    HW121770   2.096   4.437   1.192 -0.0996 -1.0391  0.6483
 3436SOL    HW221771   1.953   4.454   1.164 -1.5301 -0.9800 -1.0938
 3437SOL     OW21772   1.170   1.394   5.049  0.2770  0.1825 -0.5261
 3437SOL    HW121773   1.207   1.413   5.135  0.6102 -1.8559 -0.2358
 3437SOL    HW221774   1.187   1.478   5.006  0.2660 -0.6793 -2.2239
 3438SOL     OW21775   2.052   2.505   9.900 -0.5084 -0.1167  0.3945
 3438SOL    HW121776   2.007   2.581   9.937  0.1727  0.3782  0.2084
 3438SOL    HW221777   2.069   2.453   9.979  1.7085  0.2888  0.1652
 3439SOL     OW21778   0.415   3.391   8.041 -0.1966  0.1835 -0.4712
 3439SOL    HW121779   0.456   3.316   8.084  0.6030  1.5980  1.2367
 3439SOL    HW221780   0.431   3.353   7.955  0.8299 -2.3412  0.8388
 3440SOL     OW21781   1.586   1.379  17.205 -0.2479  0.1422  0.1947
 3440SOL    HW121782   1.650   1.450  17.197  0.5316 -0.7615 -1.7750
 3440SOL    HW221783   1.629   1.317  17.145 -0.3245  1.4340 -1.2145
 3441SOL     OW21784   2.767   1.721   0.147 -0.2361 -0.1122  0.1367
 3441SOL    HW121785   2.837   1.711   0.083 -0.1911 -0.1768  0.1958
 3441SOL    HW221786   2.810   1.680   0.222  2.0910 -0.3473 -1.3257
 3442SOL     OW21787   4.421   2.470   6.718 -0.0426  0.2842  0.0924
 3442SOL    HW121788   4.471   2.506   6.644  3.1964 -0.5615  1.8918
 3442SOL    HW221789   4.430   2.376   6.704 -0.8940  0.2558 -0.2673
 3443SOL     OW21790   3.069   2.999  14.991  0.3951  0.5610  0.3081
 3443SOL    HW121791   3.054   2.968  15.081 -0.8352 -0.1445 -0.1572
 3443SOL    HW221792   3.093   3.091  15.006  1.0553  0.1175  2.0129
 3444SOL     OW21793   2.001   1.437  10.486  0.3524  0.6045  0.2528
 3444SOL    HW121794   1.936   1.375  10.455  1.2474  0.5352 -1.4930
 3444SOL    HW221795   2.059   1.426  10.411 -0.1458 -3.0706  0.3979
 3445SOL     OW21796   0.881   2.314   6.980  0.5137  0.7037  0.1824
 3445SOL    HW121797   0.811   2.261   7.019  1.0965 -1.8769 -2.2679
 3445SOL    HW221798   0.843   2.402   6.973  3.7555  2.1771  1.1987
 3446SOL     OW21799   1.257   3.626  12.926 -0.3613  0.9215 -0.3407
 3446SOL    HW121800   1.166   3.656  12.921 -0.4891  0.4701 -0.7857
 3446SOL    HW221801   1.303   3.710  12.926 -2.2358  1.9659  0.5460
 3447SOL     OW21802   1.226   0.804  14.787 -0.0432  0.2310 -0.2353
 3447SOL    HW121803   1.211   0.823  14.879  0.5077 -1.0219  0.1230
 3447SOL    HW221804   1.189   0.716  14.784 -1.3509  0.7924 -0.3827
 3448SOL     OW21805   2.872   0.758   2.773  0.2387  0.4438 -0.1887
 3448SOL    HW121806   2.956   0.722   2.804 -0.3526 -1.0976 -0.3596
 3448SOL    HW221807   2.827   0.793   2.850 -0.8845 -0.9021 -0.2393
 3449SOL     OW21808   1.223   2.125   3.687  0.2617 -0.3539  0.1758
 3449SOL    HW121809   1.202   2.218   3.678  3.6857  0.1571 -2.4386
 3449SOL    HW221810   1.296   2.125   3.626  0.1530 -1.6547  0.0518
 3450SOL     OW21811   1.442   0.172  10.485  0.0255 -0.4000 -0.5525
 3450SOL    HW121812   1.478   0.216  10.562  0.3559 -0.1949 -0.8280
 3450SOL    HW221813   1.353   0.205  10.499 -0.0249 -0.4303 -0.8039
 3451SOL     OW21814   1.953   1.275   2.994  0.6081 -0.1512 -0.5607
 3451SOL    HW121815   2.023   1.248   2.935  0.0425 -0.2099 -1.2133
 3451SOL    HW221816   1.994   1.341   3.048 -0.0700  0.1228 -0.3856
 3452SOL     OW21817   0.688   2.629  14.438 -0.0260 -0.3841  0.1071
 3452SOL    HW121818   0.700   2.638  14.532 -0.0930 -2.1798  0.2978
 3452SOL    HW221819   0.611   2.572  14.439 -0.7843  0.6995  1.3683
 3453SOL     OW21820   0.894   2.317   4.462  0.7629  0.0851 -0.0098
 3453SOL    HW121821   0.954   2.242   4.469 -0.7430 -1.1996 -0.9083
 3453SOL    HW221822   0.966   2.372   4.432  1.5197 -0.2058  1.2490
 3454SOL     OW21823   4.464   0.693   0.809  0.0149  0.5135  0.5450
 3454SOL    HW121824   4.529   0.690   0.879  0.3476 -2.4084  0.1087
 3454SOL    HW221825   4.382   0.700   0.858 -0.6749  1.7951 -0.7774
 3455SOL     OW21826   2.649   4.130   7.597  0.2160  0.0241 -0.1083
 3455SOL    HW121827   2.626   4.183   7.520  0.6555 -0.0350 -0.2826
 3455SOL    HW221828   2.682   4.195   7.659 -0.4057 -0.7714  1.0379
 3456SOL     OW21829   3.284   0.080   7.470  0.1356 -0.0746  0.0155
 3456SOL    HW121830   3.304   0.080   7.377  0.5708  1.4847  0.1046
 3456SOL    HW221831   3.319   0.163   7.502  1.2674 -0.0009 -1.4593
 3457SOL     OW21832   4.391   4.451   0.170 -0.6206 -0.6211  0.5311
 3457SOL    HW121833   4.355   4.534   0.200  1.2848  0.5682 -0.4470
 3457SOL    HW221834   4.317   4.398   0.141 -1.9168  1.1134  0.6454
 3458SOL     OW21835   3.412   4.062  16.187  0.4806 -0.5080  0.2429
 3458SOL    HW121836   3.329   4.029  16.152 -0.1593  1.1560  0.1833
 3458SOL    HW221837   3.442   4.118  16.115  0.2210  1.3587  1.5761
 3459SOL     OW21838   3.719   0.038   6.856  0.0149 -0.1236  0.1157
 3459SOL    HW121839   3.722   0.053   6.762  3.3494  0.7370  0.3604
 3459SOL    HW221840   3.793   4.706   6.879  1.1094  0.5001 -2.0128
 3460SOL     OW21841   1.907   4.068   3.334  0.2184 -0.2474  0.2823
 3460SOL    HW121842   1.997   4.042   3.352 -0.0597 -0.6076  1.1356
 3460SOL    HW221843   1.916   4.110   3.248 -1.7440  1.7113  1.0385
 3461SOL     OW21844   2.506   2.358   9.817 -0.1943  0.1707 -0.0184
 3461SOL    HW121845   2.574   2.378   9.881  1.1934 -0.4387 -1.3306
 3461SOL    HW221846   2.437   2.414   9.854 -2.1325 -1.5554 -1.0289
 3462SOL     OW21847   0.094   0.047  16.682 -0.5639 -0.0211 -0.0985
 3462SOL    HW121848   0.054   0.093  16.608 -1.3907  1.2361  1.1363
 3462SOL    HW221849   0.140   0.118  16.728  0.0486 -0.7496  0.4181
 3463SOL     OW21850   4.474   3.831   4.279  0.4896 -0.7736  0.3787
 3463SOL    HW121851   4.468   3.736   4.273 -2.0918 -0.5816 -0.3740
 3463SOL    HW221852   4.495   3.845   4.372 -1.0925  1.1667  0.4550
 3464SOL     OW21853   2.480   3.255   6.762  0.2991  0.1215  0.0173
 3464SOL    HW121854   2.478   3.321   6.692 -1.7431 -1.6973 -1.6059
 3464SOL    HW221855   2.567   3.277   6.797 -0.8153 -0.3523  3.0839
 3465SOL     OW21856   1.481   2.925  11.695  0.1676  0.1477  0.1462
 3465SOL    HW121857   1.547   2.867  11.659  0.5159 -0.6457  2.0659
 3465SOL    HW221858   1.401   2.872  11.692  0.4533 -0.4292  2.6637
 3466SOL     OW21859   3.855   1.623   2.797  0.1326 -0.2344  0.4108
 3466SOL    HW121860   3.846   1.532   2.769 -1.7260  0.3803 -0.9675
 3466SOL    HW221861   3.940   1.642   2.758 -1.0011  2.0560 -0.8954
 3467SOL     OW21862   1.356   3.875   3.894 -0.2114 -0.0632  0.2702
 3467SOL    HW121863   1.316   3.822   3.963 -1.2520 -0.7532 -0.8591
 3467SOL    HW221864   1.437   3.828   3.875  0.6003  1.8520 -0.9665
 3468SOL     OW21865   1.622   1.194   6.897  0.7607  0.2156 -0.1529
 3468SOL    HW121866   1.545   1.176   6.950  0.5970 -3.0835 -1.5111
 3468SOL    HW221867   1.591   1.175   6.808  2.2789  2.6089 -1.2048
 3469SOL     OW21868   1.269   0.085   2.954 -0.6215  0.3929  0.5161
 3469SOL    HW121869   1.187   0.102   3.001 -0.3518 -1.8878  1.7944
 3469SOL    HW221870   1.258   0.142   2.878  2.4084 -0.2100 -0.3708
 3470SOL     OW21871   0.793   0.751  16.487  0.1187 -0.4562 -0.6839
 3470SOL    HW121872   0.788   0.827  16.544 -1.1600 -1.0585 -0.0047
 3470SOL    HW221873   0.793   0.679  16.550  1.3774  1.3210  1.3230
 3471SOL     OW21874   1.109   1.073   4.094  0.6384 -0.3409 -0.1331
 3471SOL    HW121875   1.114   0.978   4.103  0.2826 -0.7206 -3.9021
 3471SOL    HW221876   1.132   1.081   4.001  1.2414  0.8989  0.1205
 3472SOL     OW21877   0.604   0.258   1.133  0.3074 -0.6626  0.0351
 3472SOL    HW121878   0.522   0.283   1.093  1.5401 -0.2281 -2.1969
 3472SOL    HW221879   0.661   0.335   1.122 -2.4293  1.3708  0.1809
 3473SOL     OW21880   2.075   4.107   6.026  0.0088  0.1020  0.2970
 3473SOL    HW121881   2.120   4.191   6.037 -0.4907  0.3562  0.3825
 3473SOL    HW221882   2.002   4.122   6.086  0.7950  0.8492  1.0735
 3474SOL     OW21883   2.444   4.452  13.557 -0.2924 -0.0498 -0.0882
 3474SOL    HW121884   2.382   4.399  13.607 -1.0892 -0.4010 -1.4683
 3474SOL    HW221885   2.509   4.385  13.536 -0.5836 -0.8038  1.4241
 3475SOL     OW21886   3.942   2.983   4.786 -0.2824  0.3078  0.4545
 3475SOL    HW121887   3.969   2.921   4.853 -0.5482  0.1282  0.3979
 3475SOL    HW221888   3.855   2.950   4.762  0.7634 -2.2552  0.0940
 3476SOL     OW21889   4.030   2.606   0.355 -1.0451 -0.3639 -0.1160
 3476SOL    HW121890   4.071   2.667   0.416  1.9916 -1.2286 -1.3003
 3476SOL    HW221891   4.041   2.659   0.276  0.8392 -0.7213 -0.0956
 3477SOL     OW21892   1.151   1.892   2.426  0.4674  0.0749 -0.2740
 3477SOL    HW121893   1.131   1.868   2.516  1.7533  0.4067  0.0979
 3477SOL    HW221894   1.069   1.883   2.377  0.1663 -0.0866  0.2641
 3478SOL     OW21895   3.521   0.936   4.086 -0.2294  0.1092  0.2945
 3478SOL    HW121896   3.432   0.923   4.053  0.9362 -2.4175 -1.8808
 3478SOL    HW221897   3.576   0.861   4.060 -0.0502 -0.3679  2.0027
 3479SOL     OW21898   4.598   1.230   3.800  0.3013  0.2601 -0.3424
 3479SOL    HW121899   4.618   1.309   3.750  0.4328 -0.7168 -1.8064
 3479SOL    HW221900   4.512   1.210   3.763 -0.0185 -0.5853  0.8245
 3480SOL     OW21901   0.773   0.451   6.825 -0.5199 -0.1955  0.6035
 3480SOL    HW121902   0.731   0.409   6.749  0.2302  0.1500 -0.0005
 3480SOL    HW221903   0.761   0.386   6.894 -3.7897  1.0680  1.2262
 3481SOL     OW21904   3.896   3.382  11.494 -0.6926  0.1565  0.4003
 3481SOL    HW121905   3.979   3.426  11.475  0.2634 -1.8395 -0.0510
 3481SOL    HW221906   3.827   3.448  11.489  0.4447  1.2651 -0.5478
 3482SOL     OW21907   4.660   1.544   4.114 -0.0594 -0.6809  0.5268
 3482SOL    HW121908   4.689   1.454   4.131 -2.0878 -1.5073 -0.3450
 3482SOL    HW221909   4.644   1.540   4.019  1.7863 -0.2196  0.2008
 3483SOL     OW21910   3.321   4.136   7.496 -0.2656 -0.0506 -0.9147
 3483SOL    HW121911   3.274   4.219   7.494  1.0675  0.7648  1.1736
 3483SOL    HW221912   3.254   4.080   7.534  0.3793 -0.0526  0.2055
 3484SOL     OW21913   1.040   0.338   0.976  0.1655  0.0741 -0.2186
 3484SOL    HW121914   0.969   0.354   1.039 -0.3879  2.1813 -1.3877
 3484SOL    HW221915   1.092   0.275   1.026  0.3715 -0.1503 -0.7220
 3485SOL     OW21916   0.375   2.359   2.727  0.4633  0.5847  0.2869
 3485SOL    HW121917   0.425   2.286   2.691  1.9493  1.3318  0.7849
 3485SOL    HW221918   0.292   2.319   2.753  1.8805 -1.3009  1.9086
 3486SOL     OW21919   0.123   0.637   0.636  0.1786 -0.8410 -0.4099
 3486SOL    HW121920   0.116   0.610   0.544  1.3724 -0.9703 -0.4665
 3486SOL    HW221921   0.133   0.732   0.631 -2.6045 -0.5421 -0.2479
 3487SOL     OW21922   4.533   2.905   0.555  0.5591 -0.3025  0.5094
 3487SOL    HW121923   4.541   2.864   0.641  0.2793 -0.0217  0.6682
 3487SOL    HW221924   4.486   2.835   0.510 -0.8543 -0.2456  1.8953
 3488SOL     OW21925   3.788   0.951   7.456 -0.3424 -0.1136  0.0547
 3488SOL    HW121926   3.873   0.908   7.464 -0.8842 -1.0463  0.9391
 3488SOL    HW221927   3.784   0.942   7.361  2.1182 -1.6807  0.0923
 3489SOL     OW21928   1.245   2.131  12.813  0.4348 -0.7777  0.2330
 3489SOL    HW121929   1.215   2.119  12.903  0.2677 -0.2445  0.2454
 3489SOL    HW221930   1.252   2.226  12.804  2.4244 -0.8287  1.3926
 3490SOL     OW21931   1.533   0.804  15.928  0.1733 -0.1245 -0.1640
 3490SOL    HW121932   1.530   0.724  15.876 -0.2688 -0.4147  0.3073
 3490SOL    HW221933   1.524   0.763  16.014 -1.3572  0.8887  0.1678
 3491SOL     OW21934   0.527   3.296   0.346  0.2550  0.6539 -0.0336
 3491SOL    HW121935   0.601   3.351   0.320 -1.1710  1.3592 -2.5856
 3491SOL    HW221936   0.556   3.218   0.299  0.0534  0.3561  0.3426
 3492SOL     OW21937   2.643   3.521   9.616 -0.5570 -0.5822 -0.4077
 3492SOL    HW121938   2.570   3.579   9.595  1.7174  1.5726 -2.2885
 3492SOL    HW221939   2.717   3.572   9.585 -1.2699  0.2384 -0.7563
 3493SOL     OW21940   1.321   3.346  11.777  0.1370 -0.4823  0.3078
 3493SOL    HW121941   1.298   3.418  11.719  1.3742 -0.6501 -0.4033
 3493SOL    HW221942   1.371   3.288  11.719  2.5459 -0.3871  2.2762
 3494SOL     OW21943   0.076   0.692  11.604  0.4675 -0.4103  0.0762
 3494SOL    HW121944   4.714   0.733  11.592  1.8224  2.0330 -1.3932
 3494SOL    HW221945   0.064   0.597  11.602  1.6428 -0.6016  1.6544
 3495SOL     OW21946   3.845   2.008   7.519 -0.0214 -0.6713 -0.1770
 3495SOL    HW121947   3.827   1.923   7.479  2.0218  0.4289 -3.5104
 3495SOL    HW221948   3.812   2.074   7.458 -0.8031  0.8813  1.9568
 3496SOL     OW21949   0.101   1.592   1.336 -0.0962 -0.0674 -0.0856
 3496SOL    HW121950   0.009   1.571   1.353 -0.6568  1.5737 -1.1595
 3496SOL    HW221951   0.117   1.544   1.254 -0.0648 -3.5640  1.9605
 3497SOL     OW21952   1.298   4.471  12.423  0.2776 -0.3406  0.3479
 3497SOL    HW121953   1.281   4.558  12.388 -0.0257 -0.4024  0.3400
 3497SOL    HW221954   1.357   4.431  12.360 -0.8286 -1.1327 -0.1809
 3498SOL     OW21955   0.951   0.996   5.786  0.5549  0.3709 -0.0351
 3498SOL    HW121956   0.956   0.922   5.725  1.9379 -0.7833  1.4842
 3498SOL    HW221957   0.856   1.004   5.779  0.4608 -0.8432 -0.2135
 3499SOL     OW21958   0.246   1.294   6.540  0.3930 -0.4835  0.0006
 3499SOL    HW121959   0.326   1.242   6.553  0.9705  0.2065 -0.7573
 3499SOL    HW221960   0.175   1.233   6.555  0.0747 -0.2350 -0.4924
 3500SOL     OW21961   4.502   4.297   4.251  0.5429  0.1619  0.1224
 3500SOL    HW121962   4.491   4.271   4.160 -2.1498 -0.9471  0.7565
 3500SOL    HW221963   4.429   4.250   4.291 -0.4102  1.4088 -0.1616
 3501SOL     OW21964   4.296   0.855   7.023  0.2012 -0.3479 -0.0470
 3501SOL    HW121965   4.328   0.808   6.946  1.6120 -0.0808  0.3775
 3501SOL    HW221966   4.319   0.942   6.991 -3.0615  0.1578 -1.0531
 3502SOL     OW21967   3.288   0.832   9.686  0.3796 -0.1653 -0.4342
 3502SOL    HW121968   3.287   0.898   9.616 -0.1630  0.7712  0.4698
 3502SOL    HW221969   3.324   0.880   9.761 -0.7740  0.7649 -0.4808
 3503SOL     OW21970   3.930   3.205   2.528 -0.1847  0.4120 -0.3099
 3503SOL    HW121971   3.998   3.272   2.519 -1.0609  1.3755  0.2279
 3503SOL    HW221972   3.859   3.252   2.484 -1.2376  0.6152  1.5863
 3504SOL     OW21973   0.277   0.211  13.465 -0.4047 -0.0473 -0.4128
 3504SOL    HW121974   0.235   0.283  13.418  0.2171 -0.6281 -1.8552
 3504SOL    HW221975   0.344   0.257  13.517 -0.6209  0.7925 -0.8773
 3505SOL     OW21976   1.722   4.163   9.020 -0.4387  0.2705  0.2556
 3505SOL    HW121977   1.647   4.210   9.057 -2.7129 -1.7919 -1.6753
 3505SOL    HW221978   1.799   4.216   9.038 -0.9032  0.1218  2.6195
 3506SOL     OW21979   3.277   4.303   4.636 -0.3201  0.2768 -0.4442
 3506SOL    HW121980   3.326   4.299   4.718 -0.3039  0.4994 -0.4433
 3506SOL    HW221981   3.333   4.367   4.593 -0.5348 -0.3206 -1.6165
 3507SOL     OW21982   0.308   1.415   7.718 -0.0138  0.3343 -0.1719
 3507SOL    HW121983   0.298   1.332   7.765  2.5543 -0.9752 -1.9128
 3507SOL    HW221984   0.231   1.406   7.663  1.2137 -1.4068 -1.6188
 3508SOL     OW21985   4.109   1.003  14.996 -0.1499  0.7392 -0.2258
 3508SOL    HW121986   4.080   1.020  14.907 -1.8410  3.0602  0.7462
 3508SOL    HW221987   4.030   1.032  15.042  0.0771  2.7193 -1.0643
 3509SOL     OW21988   3.352   1.150  10.191 -0.2236 -0.4535  0.4410
 3509SOL    HW121989   3.434   1.158  10.241  0.2805  0.3984 -0.5301
 3509SOL    HW221990   3.382   1.153  10.100 -1.9790 -0.1456 -0.1253
 3510SOL     OW21991   1.634   0.363   3.227 -0.4200  0.8703  0.0150
 3510SOL    HW121992   1.700   0.368   3.158  0.0917 -0.4360  0.4229
 3510SOL    HW221993   1.685   0.343   3.306 -0.2959  2.7027  0.4196
 3511SOL     OW21994   3.841   2.239   5.117 -0.6251 -0.2192  0.1934
 3511SOL    HW121995   3.880   2.287   5.190 -0.6662 -0.4826  0.3902
 3511SOL    HW221996   3.832   2.155   5.161  0.2959 -0.3390  0.1436
 3512SOL     OW21997   0.845   1.976   4.602  0.4964 -0.2170 -0.0637
 3512SOL    HW121998   0.924   2.009   4.561  0.6301  0.7278  0.9515
 3512SOL    HW221999   0.778   2.011   4.544 -0.9046 -0.4433  1.3892
 3513SOL     OW22000   1.414   4.107   3.512 -0.4363 -0.3442  0.6664
 3513SOL    HW122001   1.482   4.040   3.522  0.2307  0.1821 -0.2775
 3513SOL    HW222002   1.411   4.106   3.416  0.2649 -1.2676  0.6519
 3514SOL     OW22003   3.030   1.758   2.977 -0.1286 -0.4055  0.5893
 3514SOL    HW122004   3.010   1.685   2.918 -1.5129 -0.5444  1.2247
 3514SOL    HW222005   2.966   1.821   2.943  1.2263 -1.6774 -4.3071
 3515SOL     OW22006   0.246   0.229   2.651  0.4121 -0.1122  0.2337
 3515SOL    HW122007   0.304   0.191   2.585  3.2070  0.3361  2.4475
 3515SOL    HW222008   0.161   0.196   2.623 -0.6984  2.6785  0.3217
 3516SOL     OW22009   2.189   2.919   5.074 -0.0160 -0.3895  0.2321
 3516SOL    HW122010   2.100   2.950   5.060  0.2542 -0.7490 -2.1902
 3516SOL    HW222011   2.181   2.824   5.082 -0.8762 -0.2622  0.9411
 3517SOL     OW22012   1.926   2.450  11.680 -0.3342  0.0241 -0.1959
 3517SOL    HW122013   1.938   2.371  11.628 -0.9328 -0.7544  0.8539
 3517SOL    HW222014   1.906   2.518  11.615  0.4686 -0.1138 -0.5832
 3518SOL     OW22015   2.270   4.283   3.637  0.0067  0.1071  0.0360
 3518SOL    HW122016   2.178   4.306   3.627 -0.1574 -0.6144 -0.1219
 3518SOL    HW222017   2.310   4.332   3.565 -1.7230 -0.5270 -1.3712
 3519SOL     OW22018   1.297   2.397  14.372 -0.4149  0.2382  0.0494
 3519SOL    HW122019   1.326   2.375  14.461  3.2660  0.7940 -1.0216
 3519SOL    HW222020   1.340   2.341  14.307 -1.2326 -2.3026  1.6692
 3520SOL     OW22021   1.707   4.386   4.528 -0.2531 -0.1381  0.0405
 3520SOL    HW122022   1.636   4.428   4.575  0.2142  1.0198 -0.2884
 3520SOL    HW222023   1.747   4.461   4.483 -0.2753 -0.1186  0.0537
 3521SOL     OW22024   3.475   1.909   2.441  0.0795  0.2783  0.1318
 3521SOL    HW122025   3.459   1.978   2.506  2.1199  0.8670  0.0108
 3521SOL    HW222026   3.388   1.913   2.402  0.7499  2.2689 -1.1671
 3522SOL     OW22027   4.064   0.856  15.349 -0.4713 -0.6879 -0.4484
 3522SOL    HW122028   4.156   0.857  15.325 -0.1082 -0.0218  0.9690
 3522SOL    HW222029   4.061   0.939  15.398  1.0886 -1.4295  0.8691
 3523SOL     OW22030   3.657   2.694  14.024  0.9389 -0.0386  0.1152
 3523SOL    HW122031   3.566   2.716  14.041  1.1907 -0.6045  2.2467
 3523SOL    HW222032   3.660   2.599  14.040 -0.6009  0.0764  1.0393
 3524SOL     OW22033   0.357   0.995   0.171 -0.3105 -0.6276  0.2236
 3524SOL    HW122034   0.417   1.027   0.104 -0.0365  0.6584  1.0787
 3524SOL    HW222035   0.363   1.061   0.241  3.5569  0.3130 -1.0079
 3525SOL     OW22036   1.974   3.794   7.846 -0.2430 -0.1011 -0.4547
 3525SOL    HW122037   1.929   3.761   7.923 -0.9073 -0.9790 -1.2171
 3525SOL    HW222038   2.033   3.720   7.831 -0.2784  0.0336 -1.2460
 3526SOL     OW22039   0.043   2.285   5.847  0.2042  0.1083 -0.6936
 3526SOL    HW122040   4.703   2.244   5.789  1.2364 -1.5186 -0.6739
 3526SOL    HW222041   0.073   2.213   5.903 -0.9311  0.2321  0.0834
 3527SOL     OW22042   1.932   3.603  10.060  0.4696  0.2948 -0.0106
 3527SOL    HW122043   1.925   3.698  10.060  0.8307  0.3213  0.4753
 3527SOL    HW222044   1.841   3.582  10.036  0.8286  0.9918 -2.0044
 3528SOL     OW22045   0.389   4.097  13.402  0.2152  0.6302  0.0693
 3528SOL    HW122046   0.296   4.100  13.425  0.2633  0.4390  0.2917
 3528SOL    HW222047   0.397   4.191  13.420 -1.4030  0.4784  1.6997
 3529SOL     OW22048   0.804   1.951   2.062 -0.0933 -0.0562 -0.3131
 3529SOL    HW122049   0.877   1.892   2.043  0.1928  0.5470 -1.1148
 3529SOL    HW222050   0.805   2.018   1.993  0.0792  2.3780  2.0414
 3530SOL     OW22051   0.088   0.086  13.189  0.0002 -0.1666 -0.4213
 3530SOL    HW122052   0.016   0.039  13.232  1.1454 -2.4004 -0.9475
 3530SOL    HW222053   0.029   0.140  13.136 -0.2196 -0.4121 -0.4261
 3531SOL     OW22054   1.119   0.540   4.590  0.6009  0.3263 -0.0772
 3531SOL    HW122055   1.100   0.466   4.648 -0.6769  1.5818  1.1024
 3531SOL    HW222056   1.144   0.611   4.649 -1.5688  0.9396  0.1127
 3532SOL     OW22057   3.817   1.872  14.553  0.1268 -0.4121 -1.0363
 3532SOL    HW122058   3.862   1.948  14.515  1.3454  0.1414  1.5415
 3532SOL    HW222059   3.767   1.844  14.476 -0.3318  1.3830 -1.4150
 3533SOL     OW22060   1.114   2.600   6.751 -0.2301 -0.2479  0.1992
 3533SOL    HW122061   1.022   2.606   6.725  0.2966 -3.7819 -2.4432
 3533SOL    HW222062   1.151   2.674   6.702  0.3889 -0.4246  0.4085
 3534SOL     OW22063   0.953   0.738  16.145 -0.0974 -0.5062 -0.3847
 3534SOL    HW122064   0.875   0.699  16.186  1.3548 -0.6983  2.2066
 3534SOL    HW222065   0.907   0.812  16.108  0.7919  0.2136 -0.0541
 3535SOL     OW22066   1.173   0.671   6.636  0.1308  0.1428 -0.4730
 3535SOL    HW122067   1.105   0.616   6.597  0.2604 -0.2217 -0.1890
 3535SOL    HW222068   1.136   0.756   6.615 -1.0897  0.6629  3.7624
 3536SOL     OW22069   1.457   3.566   0.571  0.0405 -0.2643  0.1002
 3536SOL    HW122070   1.473   3.652   0.531  2.3857  0.1827  2.0028
 3536SOL    HW222071   1.533   3.570   0.629 -1.1283  0.5637  1.5879
 3537SOL     OW22072   1.282   0.481   2.833  0.0027  0.7117 -0.3401
 3537SOL    HW122073   1.192   0.512   2.840 -0.2292 -0.0993  0.3897
 3537SOL    HW222074   1.267   0.387   2.827  2.5856  0.2430  0.6965
 3538SOL     OW22075   2.896   3.716   3.412  0.8445  0.1201  0.5109
 3538SOL    HW122076   2.822   3.700   3.470  0.8757  0.4501  0.6365
 3538SOL    HW222077   2.951   3.643   3.442  1.9162 -0.4270 -2.7162
 3539SOL     OW22078   0.322   2.351   5.939 -0.1726 -0.4153 -0.8117
 3539SOL    HW122079   0.408   2.360   5.899  0.0895 -1.9777 -0.5679
 3539SOL    HW222080   0.278   2.321   5.859  0.2491 -1.4737 -0.6443
 3540SOL     OW22081   3.366   1.088   7.410  0.6194 -0.4961 -0.2498
 3540SOL    HW122082   3.440   1.128   7.363 -0.0025  0.8124 -0.1149
 3540SOL    HW222083   3.313   1.067   7.333  0.4528 -2.3251  0.3779
 3541SOL     OW22084   3.237   0.815   6.463 -0.0083 -0.1266 -0.0307
 3541SOL    HW122085   3.275   0.872   6.530 -0.8125 -1.1046  1.2555
 3541SOL    HW222086   3.145   0.818   6.491 -0.0677 -1.1222 -0.1176
 3542SOL     OW22087   1.133   2.670   2.864 -0.6722  0.5118 -0.0781
 3542SOL    HW122088   1.203   2.637   2.808 -0.1046  2.0160 -0.2397
 3542SOL    HW222089   1.113   2.750   2.815 -0.0353  0.6833 -0.0544
 3543SOL     OW22090   0.260   2.745   0.884 -0.0288  0.1993 -0.3170
 3543SOL    HW122091   0.198   2.818   0.887 -1.0175 -0.6096 -0.8666
 3543SOL    HW222092   0.235   2.702   0.802  0.3045 -2.2232  0.8315
 3544SOL     OW22093   4.592   3.590  16.872 -0.7101 -0.2980  0.0821
 3544SOL    HW122094   4.680   3.552  16.873 -0.3300  0.5490 -1.1108
 3544SOL    HW222095   4.614   3.683  16.880  0.2694 -0.3730 -1.7496
 3545SOL     OW22096   3.571   2.582   7.375 -0.2984 -0.4268 -0.1798
 3545SOL    HW122097   3.483   2.578   7.338 -0.4306  0.8070 -0.0098
 3545SOL    HW222098   3.555   2.629   7.457 -1.1807  1.3354 -1.3418
 3546SOL     OW22099   1.727   1.619   5.847 -0.3259  0.6634 -0.2939
 3546SOL    HW122100   1.788   1.691   5.831  2.8661 -1.5481  1.9164
 3546SOL    HW222101   1.749   1.555   5.780  1.8744  0.2586  0.8268
 3547SOL     OW22102   2.705   1.272   7.876  0.4617  0.3886 -0.2980
 3547SOL    HW122103   2.754   1.195   7.849  0.8882  1.0772 -1.4581
 3547SOL    HW222104   2.727   1.270   7.970 -3.1444 -1.9778  0.5183
 3548SOL     OW22105   3.371   3.283  11.031 -0.0980 -0.4037  0.7391
 3548SOL    HW122106   3.404   3.366  11.064  0.3359 -0.7232  1.1005
 3548SOL    HW222107   3.452   3.232  11.028  0.4397  0.7143 -3.4745
 3549SOL     OW22108   3.008   0.342  15.705 -0.4248  0.5479 -0.0986
 3549SOL    HW122109   3.061   0.303  15.635 -2.4079 -3.5586  0.6942
 3549SOL    HW222110   3.023   0.287  15.782  2.0142 -0.5765 -1.3447
 3550SOL     OW22111   1.936   0.311   8.748  0.6106  0.0720  0.1139
 3550SOL    HW122112   1.922   0.390   8.800  0.5320  0.9901 -1.3313
 3550SOL    HW222113   1.893   0.342   8.669  1.1727  1.4709  0.3586
 3551SOL     OW22114   3.377   1.222   9.880  0.3583  0.5465 -0.5633
 3551SOL    HW122115   3.414   1.135   9.869 -0.4765  0.1311 -0.0129
 3551SOL    HW222116   3.329   1.235   9.798 -1.3927 -0.0707  0.3836
 3552SOL     OW22117   3.446   4.004   6.348 -0.0650  0.3611  0.2207
 3552SOL    HW122118   3.530   3.997   6.304 -0.1692  2.4752 -0.3169
 3552SOL    HW222119   3.387   3.977   6.278 -0.4124  1.7626 -0.0271
 3553SOL     OW22120   3.136   1.566  11.921  0.2465 -0.0534  0.0933
 3553SOL    HW122121   3.072   1.631  11.891  0.7666 -0.6258 -2.3116
 3553SOL    HW222122   3.182   1.614  11.989  1.9109  0.8649 -1.6790
 3554SOL     OW22123   2.470   3.995  14.808 -0.4506  0.5522  0.0867
 3554SOL    HW122124   2.442   4.087  14.811 -2.3383  0.0492 -2.1066
 3554SOL    HW222125   2.428   3.966  14.727  0.3018 -1.1047  0.3084
 3555SOL     OW22126   2.820   4.329   4.187  0.2100  0.1029 -0.3788
 3555SOL    HW122127   2.907   4.288   4.181  0.4289  0.6127 -0.6989
 3555SOL    HW222128   2.822   4.391   4.114 -2.1544 -0.5913 -1.0081
 3556SOL     OW22129   2.231   1.263   7.755  0.3593  0.6495  0.4661
 3556SOL    HW122130   2.147   1.297   7.724  1.6668  2.0820 -1.5078
 3556SOL    HW222131   2.224   1.280   7.849 -2.3219 -1.7818  0.7037
 3557SOL     OW22132   3.511   3.943   6.677 -0.5676  0.2752  0.0997
 3557SOL    HW122133   3.478   3.863   6.717 -0.6998  0.4924  0.4272
 3557SOL    HW222134   3.449   4.004   6.717  0.3286  2.1849 -1.4209
 3558SOL     OW22135   1.759   3.937   8.279 -0.1836 -0.7685  0.2494
 3558SOL    HW122136   1.753   3.858   8.225  1.8018 -1.4077  0.9432
 3558SOL    HW222137   1.692   3.910   8.341  0.6200 -0.4114  1.2659
 3559SOL     OW22138   2.919   4.243   3.004  0.1256  0.1299 -0.0610
 3559SOL    HW122139   2.932   4.330   2.965 -0.8818  0.2938 -0.0383
 3559SOL    HW222140   2.970   4.195   2.940 -0.4769 -0.4447 -0.1039
 3560SOL     OW22141   1.520   1.016   1.385  0.2485 -0.0615  0.3195
 3560SOL    HW122142   1.564   1.005   1.301  0.4583 -0.3035  0.4592
 3560SOL    HW222143   1.453   1.081   1.363  0.4136 -0.7591 -2.2005
 3561SOL     OW22144   4.698   4.407   4.937 -0.0928  0.3531 -0.4985
 3561SOL    HW122145   4.621   4.358   4.966  0.3928 -0.1406 -0.0490
 3561SOL    HW222146   4.709   4.369   4.850  0.1354 -1.4207  0.3169
 3562SOL     OW22147   1.107   2.979   3.188  0.0503  0.2677  0.5031
 3562SOL    HW122148   1.080   3.070   3.194  3.4176  1.3170 -0.3859
 3562SOL    HW222149   1.173   2.963   3.255  1.9350 -0.5006 -1.5312
 3563SOL     OW22150   0.350   0.548   4.007  0.2081  0.5867 -0.5726
 3563SOL    HW122151   0.399   0.625   3.978 -1.4628  1.2419 -1.6351
 3563SOL    HW222152   0.290   0.583   4.073  1.8543  0.4330  1.0053
 3564SOL     OW22153   3.245   3.437  14.618 -0.0035 -0.8689  0.0859
 3564SOL    HW122154   3.251   3.352  14.575  1.6525 -0.6883 -0.0082
 3564SOL    HW222155   3.335   3.464  14.633 -0.8177  1.6788  0.3325
 3565SOL     OW22156   2.841   4.645   0.247  0.6381 -0.2563 -0.2387
 3565SOL    HW122157   2.865   4.705   0.177  1.8476  1.3884  1.5818
 3565SOL    HW222158   2.830   4.569   0.191 -1.1676  1.1140 -1.7493
 3566SOL     OW22159   1.982   1.609   6.427  0.5034 -0.3222 -0.0669
 3566SOL    HW122160   1.970   1.530   6.479  0.9192 -0.2932  0.0731
 3566SOL    HW222161   1.985   1.568   6.341 -0.6044  1.7733 -1.1071
 3567SOL     OW22162   1.207   2.421   6.280 -1.1930 -0.1812  0.1053
 3567SOL    HW122163   1.138   2.368   6.319  0.6694 -0.7608  2.6185
 3567SOL    HW222164   1.190   2.508   6.318 -0.1352 -0.2490  0.7166
 3568SOL     OW22165   1.177   4.471   6.077 -0.0146 -0.4371  0.1509
 3568SOL    HW122166   1.260   4.483   6.123 -0.3398 -0.7915  0.8204
 3568SOL    HW222167   1.205   4.433   5.994 -1.6131 -2.4814  0.5500
 3569SOL     OW22168   1.175   3.898   4.601 -0.2026 -0.0984  0.1025
 3569SOL    HW122169   1.197   3.944   4.520 -0.7437  2.3378  1.3267
 3569SOL    HW222170   1.080   3.901   4.592 -0.3557  1.6899  2.2730
 3570SOL     OW22171   2.474   3.091  14.957  0.0636  0.2855  0.4113
 3570SOL    HW122172   2.451   2.999  14.974  1.8199 -0.1211  0.6453
 3570SOL    HW222173   2.387   3.121  14.932  1.0056  1.7735 -1.1018
 3571SOL     OW22174   0.846   3.061   5.928  1.0671  0.4880  0.1193
 3571SOL    HW122175   0.883   3.143   5.961  0.9302  0.0520  1.3362
 3571SOL    HW222176   0.828   3.078   5.835 -2.9256 -1.4612  0.5414
 3572SOL     OW22177   3.156   2.213   4.660  0.0854  0.7417 -0.1952
 3572SOL    HW122178   3.107   2.181   4.735 -0.1890  1.5348 -0.0349
 3572SOL    HW222179   3.168   2.135   4.606  1.7609  0.6647  0.2956
 3573SOL     OW22180   0.878   3.063   2.883 -0.0327 -0.4431 -0.1308
 3573SOL    HW122181   0.904   3.135   2.942 -0.9209 -0.9641  0.8992
 3573SOL    HW222182   0.965   3.023   2.874 -0.8338 -2.8442  2.8018
 3574SOL     OW22183   3.956   1.096  12.196  0.4126  0.1658  0.3024
 3574SOL    HW122184   4.044   1.091  12.160 -0.0467 -3.2906 -0.3324
 3574SOL    HW222185   3.919   1.023  12.146 -3.1351  3.2865 -1.5790
 3575SOL     OW22186   0.601   2.279   0.056 -0.7358 -0.2068 -0.4216
 3575SOL    HW122187   0.641   2.331   0.126 -0.0093  1.1308 -1.8134
 3575SOL    HW222188   0.564   2.199   0.092 -0.7527  0.6739  1.5196
 3576SOL     OW22189   1.312   0.030   6.936  0.1357 -0.4772  0.6723
 3576SOL    HW122190   1.232   0.068   6.972  0.8539  1.6807 -0.0460
 3576SOL    HW222191   1.295   0.033   6.842 -0.8871 -2.7517  0.7907
 3577SOL     OW22192   3.448   3.459   2.393 -0.0921  0.3612 -0.5671
 3577SOL    HW122193   3.433   3.537   2.446 -0.2637  0.3051 -0.5330
 3577SOL    HW222194   3.387   3.398   2.435  1.4664  0.2101  1.5244
 3578SOL     OW22195   4.440   0.500  11.728  0.4693  0.2622  0.1261
 3578SOL    HW122196   4.498   0.514  11.803 -0.7435 -0.4801  1.1879
 3578SOL    HW222197   4.509   0.487  11.662  0.9747 -1.6622  1.0066
 3579SOL     OW22198   2.574   2.217  10.704 -0.2547 -0.2556 -0.0822
 3579SOL    HW122199   2.635   2.238  10.774 -2.5087  2.8502  0.9724
 3579SOL    HW222200   2.561   2.306  10.668  0.4387  0.4192  1.3492
 3580SOL     OW22201   2.994   1.991   0.824 -0.0582 -0.0688  0.1067
 3580SOL    HW122202   3.021   2.020   0.912  1.8119 -1.4221 -0.0119
 3580SOL    HW222203   2.935   2.060   0.794 -0.3690 -1.2042 -1.8801
 3581SOL     OW22204   1.555   3.193   3.026 -0.5972  0.1655 -0.0290
 3581SOL    HW122205   1.602   3.236   2.954 -1.2608 -0.4334 -0.8214
 3581SOL    HW222206   1.615   3.198   3.100 -0.3618  1.9929 -0.3451
 3582SOL     OW22207   0.732   0.428  10.298 -0.3358 -0.0756 -0.0301
 3582SOL    HW122208   0.747   0.392  10.385  0.5287 -0.5672 -0.3804
 3582SOL    HW222209   0.704   0.518  10.313 -1.7434 -0.3742 -0.8696
 3583SOL     OW22210   2.913   2.666   8.753  0.3278  0.2758 -0.5725
 3583SOL    HW122211   2.958   2.591   8.793  1.4054 -0.2354 -2.7383
 3583SOL    HW222212   2.932   2.638   8.663 -0.6773 -0.1742 -0.6438
 3584SOL     OW22213   0.734   3.498   0.277 -0.0097  0.2514  0.1404
 3584SOL    HW122214   0.823   3.534   0.272  0.5728 -0.9716  1.9849
 3584SOL    HW222215   0.692   3.547   0.348  0.2422 -0.5422  0.8283
 3585SOL     OW22216   2.670   0.312  10.685 -0.1271  0.2353 -0.0613
 3585SOL    HW122217   2.635   0.258  10.756  2.1423 -3.2563 -1.5734
 3585SOL    HW222218   2.636   0.396  10.715 -1.9417 -0.7143  0.5226
 3586SOL     OW22219   0.806   2.032   2.435  0.0015 -0.2169  0.2940
 3586SOL    HW122220   0.826   1.957   2.379  1.1386 -0.6309  1.2473
 3586SOL    HW222221   0.875   2.094   2.413 -0.5941 -0.3029 -1.7734
 3587SOL     OW22222   1.853   2.317   8.536 -0.7745 -0.4386 -0.8295
 3587SOL    HW122223   1.763   2.348   8.545 -0.2646 -0.2539  3.3128
 3587SOL    HW222224   1.861   2.279   8.623  0.3500  0.7041 -0.4400
 3588SOL     OW22225   1.500   0.060   9.942  0.3198 -0.2369  0.4645
 3588SOL    HW122226   1.564   0.001   9.903  2.3102  2.0649  0.2736
 3588SOL    HW222227   1.459   0.000  10.005 -0.5360  0.0772  0.2047
 3589SOL     OW22228   4.209   4.000  16.300  0.0951 -0.4419  0.2416
 3589SOL    HW122229   4.249   4.055  16.233  1.1065  1.7047  2.6035
 3589SOL    HW222230   4.291   3.969  16.338  0.0249  1.2580  1.7476
 3590SOL     OW22231   0.864   0.206   7.695  0.1432  0.3017 -0.7046
 3590SOL    HW122232   0.884   0.294   7.665  0.3727  0.6791  0.5529
 3590SOL    HW222233   0.847   0.241   7.783  1.9356 -1.7215  0.4707
 3591SOL     OW22234   2.611   4.401   3.695  0.0826 -0.2428  0.2256
 3591SOL    HW122235   2.569   4.450   3.624  0.3350  1.0595  0.9781
 3591SOL    HW222236   2.603   4.308   3.673 -1.0919 -0.1928  0.4094
 3592SOL     OW22237   1.994   1.592   8.156  0.3515 -0.0430  0.7125
 3592SOL    HW122238   1.924   1.657   8.149 -0.2147 -1.0996 -3.5051
 3592SOL    HW222239   2.028   1.592   8.067 -1.3665 -0.0183  0.0458
 3593SOL     OW22240   2.263   4.162   9.344  0.7287 -0.1555  0.0659
 3593SOL    HW122241   2.281   4.103   9.417  0.7699 -0.4953 -0.2142
 3593SOL    HW222242   2.291   4.105   9.272 -0.8479  1.7697 -2.0610
 3594SOL     OW22243   1.126   1.538  16.282  0.3782 -0.2764  0.3891
 3594SOL    HW122244   1.125   1.577  16.195  0.5415  4.5951  2.5860
 3594SOL    HW222245   1.105   1.623  16.320  0.1772 -0.2423  0.2054
 3595SOL     OW22246   0.744   2.523  16.942  0.0031  0.6482 -0.2122
 3595SOL    HW122247   0.823   2.474  16.921  0.7147  0.4896  2.7811
 3595SOL    HW222248   0.684   2.482  16.880  1.5939 -1.7562 -0.1627
 3596SOL     OW22249   3.051   1.002   5.585  0.1517 -0.0601 -0.2159
 3596SOL    HW122250   3.032   1.041   5.500 -1.4804 -1.7865 -0.6521
 3596SOL    HW222251   2.996   0.923   5.580 -1.2981  0.9214  0.4531
 3597SOL     OW22252   1.405   0.994   8.373  0.5750 -0.0007 -0.1395
 3597SOL    HW122253   1.449   1.016   8.455 -0.8436 -2.2620  1.2205
 3597SOL    HW222254   1.375   0.907   8.399  0.4647 -0.4354 -1.7560
 3598SOL     OW22255   2.660   0.786   6.628  0.3943 -0.3569  0.2896
 3598SOL    HW122256   2.647   0.857   6.691 -0.4112  0.3676 -0.6923
 3598SOL    HW222257   2.576   0.741   6.624  0.7692 -0.9825 -0.6380
 3599SOL     OW22258   2.004   3.495  12.064 -0.3918  0.2382 -0.1336
 3599SOL    HW122259   2.042   3.503  11.977  1.7115 -1.1222  0.6469
 3599SOL    HW222260   1.944   3.424  12.046  0.8468 -0.7527 -0.3670
 3600SOL     OW22261   1.976   1.815   1.152 -0.2864 -0.2572  0.3000
 3600SOL    HW122262   1.934   1.731   1.135 -0.4135 -0.0269 -0.5225
 3600SOL    HW222263   2.026   1.828   1.071  1.0821  2.0508  1.5094
 3601SOL     OW22264   0.967   3.761   5.926 -0.7542  0.0358 -0.6491
 3601SOL    HW122265   1.012   3.770   5.842 -2.7165 -0.2089 -1.7138
 3601SOL    HW222266   1.046   3.757   5.980 -0.7156  3.7199 -0.4512
 3602SOL     OW22267   4.218   0.266   7.684 -0.0586  0.2030  0.0285
 3602SOL    HW122268   4.130   0.277   7.721  0.2873  0.9447  0.6225
 3602SOL    HW222269   4.211   0.342   7.626  0.6751 -0.7098 -1.2594
 3603SOL     OW22270   4.026   3.155  15.430  0.1242  0.3565  0.1209
 3603SOL    HW122271   4.091   3.224  15.445 -0.0997  1.0854 -2.2967
 3603SOL    HW222272   4.076   3.079  15.458 -0.2728 -0.2892 -0.9437
 3604SOL     OW22273   1.139   1.089   2.334 -0.8639  0.6198 -0.0256
 3604SOL    HW122274   1.220   1.133   2.358 -0.9595  1.4797 -1.2565
 3604SOL    HW222275   1.110   1.150   2.265 -0.6546 -1.7131 -2.1840
 3605SOL     OW22276   3.863   2.732   7.068 -0.3817 -0.5157 -0.4361
 3605SOL    HW122277   3.878   2.659   7.128 -0.3852 -0.2914 -0.1596
 3605SOL    HW222278   3.927   2.791   7.110 -1.4353  0.8198 -0.7047
 3606SOL     OW22279   0.405   0.108   8.882 -0.2783  0.2009  0.3705
 3606SOL    HW122280   0.486   0.147   8.848 -0.2129 -0.0720  0.2121
 3606SOL    HW222281   0.432   0.022   8.915 -1.0763  1.1947  3.6049
 3607SOL     OW22282   2.916   4.315   9.048  0.5646  0.6635 -0.3979
 3607SOL    HW122283   2.927   4.368   9.128 -1.0263  1.6611 -0.8520
 3607SOL    HW222284   2.830   4.348   9.025 -0.0533 -1.4985 -1.1485
 3608SOL     OW22285   3.022   4.076   7.391 -0.6525 -0.2304  0.3154
 3608SOL    HW122286   3.065   4.154   7.427 -0.0222 -1.0624  1.3434
 3608SOL    HW222287   3.023   4.011   7.461 -1.4521 -0.6379 -0.0535
 3609SOL     OW22288   2.025   4.565   2.410  0.2998  0.1743  0.2848
 3609SOL    HW122289   2.081   4.502   2.456  0.0370  0.8338  1.5114
 3609SOL    HW222290   2.066   4.647   2.437 -0.0860  0.6712 -0.6251
 3610SOL     OW22291   0.638   3.400   3.847 -0.3072 -0.1414 -0.0787
 3610SOL    HW122292   0.631   3.449   3.765  1.1189 -1.4104 -0.9631
 3610SOL    HW222293   0.546   3.397   3.875 -0.3976  0.7102 -0.2857
 3611SOL     OW22294   1.852   0.383   2.767 -0.3530 -0.0668  0.0262
 3611SOL    HW122295   1.836   0.300   2.722  2.6098 -0.5859 -0.0243
 3611SOL    HW222296   1.808   0.443   2.706  1.2960  1.1911  0.0870
 3612SOL     OW22297   0.719   4.520  10.520 -1.0649  0.2743  0.6233
 3612SOL    HW122298   0.696   4.580  10.591 -4.4501  0.2851 -0.4679
 3612SOL    HW222299   0.630   4.511  10.485 -0.2645 -0.1649 -1.3074
 3613SOL     OW22300   1.539   1.253   5.979 -0.1433 -0.0307 -0.3865
 3613SOL    HW122301   1.477   1.279   6.047 -0.3431  1.0976 -0.9938
 3613SOL    HW222302   1.530   1.321   5.912  0.2253  0.5451  0.1514
 3614SOL     OW22303   1.388   2.083   4.532 -0.0723 -0.3125  0.4284
 3614SOL    HW122304   1.471   2.126   4.513 -1.0183  1.5282  0.4430
 3614SOL    HW222305   1.389   2.074   4.628  1.0254 -2.9450  0.1766
 3615SOL     OW22306   1.287   3.828   2.311 -0.8481 -0.2853  0.5382
 3615SOL    HW122307   1.205   3.864   2.276 -0.3614  2.7329  2.5004
 3615SOL    HW222308   1.276   3.870   2.397  1.4350  0.4292  0.4713
 3616SOL     OW22309   4.272   0.650   2.810 -0.3556 -0.6525  0.0789
 3616SOL    HW122310   4.300   0.741   2.816  0.3206 -0.8295 -0.4559
 3616SOL    HW222311   4.233   0.647   2.722 -2.3429 -0.1246  0.9418
 3617SOL     OW22312   1.921   4.039   2.507  0.0750 -0.0344  0.0276
 3617SOL    HW122313   1.986   4.002   2.567  1.1117 -0.0637 -1.1020
 3617SOL    HW222314   1.876   4.092   2.572 -1.9211 -1.5968 -0.1111
 3618SOL     OW22315   4.343   3.513   2.384 -0.1856 -0.2458  0.0871
 3618SOL    HW122316   4.362   3.607   2.387 -0.8994 -0.0601 -1.3088
 3618SOL    HW222317   4.426   3.467   2.377 -0.5131 -0.9322  0.6462
 3619SOL     OW22318   0.296   0.755   0.987 -0.3789 -0.2056  0.4234
 3619SOL    HW122319   0.273   0.668   0.956  2.3269 -0.7800  0.0154
 3619SOL    HW222320   0.337   0.730   1.070  0.3832 -0.7464 -0.1096
 3620SOL     OW22321   2.549   3.352   8.144 -0.5665  0.2108 -0.0066
 3620SOL    HW122322   2.472   3.296   8.154  0.8512 -1.7222  0.0403
 3620SOL    HW222323   2.505   3.437   8.151 -2.1198 -0.4697 -1.5952
 3621SOL     OW22324   0.555   0.051  12.540  0.2949  0.0159  0.0684
 3621SOL    HW122325   0.517   4.700  12.493  0.1478 -0.4577  0.9482
 3621SOL    HW222326   0.616   0.008  12.599  0.9022 -0.5865 -0.9982
 3622SOL     OW22327   2.540   3.144   3.462  0.2977  0.7592 -0.1488
 3622SOL    HW122328   2.461   3.195   3.479  0.4358  0.8872  0.1198
 3622SOL    HW222329   2.607   3.209   3.483 -0.1733  1.2060 -0.0067
 3623SOL     OW22330   3.341   4.153   0.857 -0.0075  0.1268  0.0042
 3623SOL    HW122331   3.357   4.210   0.781  0.9798  0.2052  0.2639
 3623SOL    HW222332   3.257   4.185   0.890  0.4239  1.1502  0.1212
 3624SOL     OW22333   3.426   2.437   7.987  0.0659 -0.2323 -0.6121
 3624SOL    HW122334   3.433   2.344   8.010  1.3565 -0.2589 -1.1011
 3624SOL    HW222335   3.473   2.475   8.061 -0.2736  1.1166 -1.0868
 3625SOL     OW22336   0.150   1.984   2.465 -0.1325 -0.1760 -0.0540
 3625SOL    HW122337   0.108   1.987   2.551  0.0223 -1.2455  0.0524
 3625SOL    HW222338   0.121   1.900   2.431  0.7557 -0.5040 -0.0027
 3626SOL     OW22339   0.955   3.417   5.009  0.2287  0.2152  0.4231
 3626SOL    HW122340   1.007   3.395   5.086 -2.6355 -0.1972  2.2435
 3626SOL    HW222341   0.925   3.331   4.981  1.7401 -0.3648  0.5745
 3627SOL     OW22342   0.011   3.008   8.248 -0.2144  0.5302 -0.7505
 3627SOL    HW122343   4.660   2.975   8.299 -0.1228 -0.2111 -1.0848
 3627SOL    HW222344   0.014   2.943   8.177 -2.2342  0.7189 -0.9936
 3628SOL     OW22345   1.360   0.180  16.418  0.1669  0.7008  0.2706
 3628SOL    HW122346   1.314   0.260  16.446  1.7800  1.7884 -0.2222
 3628SOL    HW222347   1.441   0.200  16.464  1.1137 -2.4300 -0.0666
 3629SOL     OW22348   0.228   4.501   5.221  0.2606 -0.1026  0.2528
 3629SOL    HW122349   0.145   4.532   5.185  0.3738  0.2179  0.2760
 3629SOL    HW222350   0.271   4.482   5.138  1.1217  2.0296  0.2207
 3630SOL     OW22351   3.808   4.334  14.844 -0.2328  0.0495 -0.0012
 3630SOL    HW122352   3.740   4.317  14.779  0.1701 -1.8709  0.0735
 3630SOL    HW222353   3.869   4.264  14.818  0.7299  0.7989  0.2593
 3631SOL     OW22354   0.595   1.417   0.434 -0.1932 -0.1618  0.5495
 3631SOL    HW122355   0.572   1.493   0.487 -0.0126 -0.1305  0.5829
 3631SOL    HW222356   0.684   1.431   0.402 -0.0280 -1.7254  0.3223
 3632SOL     OW22357   1.445   3.764  16.415 -0.1336 -0.1646 -0.4676
 3632SOL    HW122358   1.478   3.815  16.341  1.3799 -0.5963 -0.0873
 3632SOL    HW222359   1.521   3.713  16.444 -0.6059 -0.5857  0.0407
 3633SOL     OW22360   2.334   4.648  15.782 -0.2105  0.1057 -0.2039
 3633SOL    HW122361   2.415   4.611  15.816 -0.1428  0.3581 -0.0912
 3633SOL    HW222362   2.365   4.659  15.692  0.8143 -1.4564 -0.0371
 3634SOL     OW22363   1.844   0.617   4.568  0.1786 -0.2905 -0.2958
 3634SOL    HW122364   1.758   0.657   4.581  0.4464 -0.1688  1.1766
 3634SOL    HW222365   1.901   0.690   4.590 -0.1540 -0.4301  1.0538
 3635SOL     OW22366   2.180   1.740   2.375  0.3014  0.1559  0.5747
 3635SOL    HW122367   2.097   1.786   2.386  0.3608  0.5627 -0.6449
 3635SOL    HW222368   2.139   1.654   2.383 -0.4595  0.3460 -1.2212
 3636SOL     OW22369   4.556   1.585   6.824  0.2555  0.2590  1.1142
 3636SOL    HW122370   4.569   1.570   6.730 -0.2003 -0.9914  1.2402
 3636SOL    HW222371   4.464   1.611   6.819  0.3359 -0.1444 -2.8528
 3637SOL     OW22372   4.548   3.011  15.499 -0.2281 -0.4531  0.6582
 3637SOL    HW122373   4.496   3.038  15.424 -0.5161 -2.0532  0.2831
 3637SOL    HW222374   4.571   3.092  15.546  0.1674  0.0465 -0.4115
 3638SOL     OW22375   2.377   3.986  10.600  0.4779  0.2131  0.0074
 3638SOL    HW122376   2.368   4.015  10.691  3.2498  0.7411  0.1130
 3638SOL    HW222377   2.381   3.890  10.603 -0.0993  0.1954  0.1214
 3639SOL     OW22378   0.319   2.014   9.407  0.0270  0.6114  0.5349
 3639SOL    HW122379   0.354   1.927   9.425 -0.1001  0.9802  2.5673
 3639SOL    HW222380   0.365   2.064   9.475 -1.7179  1.1000  1.3472
 3640SOL     OW22381   0.602   2.417   8.448  0.0640 -0.2512 -0.1454
 3640SOL    HW122382   0.521   2.400   8.496  1.7396  2.1951  3.5224
 3640SOL    HW222383   0.668   2.423   8.517 -0.8974  0.8514  0.6765
 3641SOL     OW22384   1.038   4.081   5.232  0.0490 -0.7739  0.0106
 3641SOL    HW122385   1.111   4.019   5.236  0.5196 -0.0288  2.5477
 3641SOL    HW222386   0.989   4.043   5.158 -0.6046  0.3354 -0.1245
 3642SOL     OW22387   2.622   0.336   5.288  0.5085  0.2867 -0.0314
 3642SOL    HW122388   2.557   0.360   5.222  0.4858  1.0478  0.2707
 3642SOL    HW222389   2.672   0.417   5.301 -0.9089  0.6875  2.7537
 3643SOL     OW22390   4.433   0.487  12.852 -0.0004  0.1150 -0.5243
 3643SOL    HW122391   4.409   0.455  12.939  2.0342  1.0229  0.3637
 3643SOL    HW222392   4.491   0.555  12.886  0.6325 -2.4510  3.5160
 3644SOL     OW22393   0.635   0.984   4.002  1.1117 -0.2765 -0.2994
 3644SOL    HW122394   0.709   0.970   3.943 -0.3148 -1.6650 -1.7528
 3644SOL    HW222395   0.680   1.001   4.085 -0.5776  0.1618  0.5151
 3645SOL     OW22396   0.321   4.031   5.275  0.4032 -0.0086  0.0811
 3645SOL    HW122397   0.394   4.092   5.265 -1.6288  2.5261  0.5920
 3645SOL    HW222398   0.249   4.070   5.226  0.3862 -0.2844 -0.1122
 3646SOL     OW22399   2.283   3.948   5.829 -0.7747  0.0812  0.2462
 3646SOL    HW122400   2.207   4.006   5.823 -0.4932  0.5813  1.5105
 3646SOL    HW222401   2.245   3.877   5.880 -1.0273  0.0504  0.0156
 3647SOL     OW22402   1.866   4.269  11.121 -0.4185 -0.1891  0.3423
 3647SOL    HW122403   1.903   4.260  11.209 -1.8920 -0.3569  0.9299
 3647SOL    HW222404   1.942   4.236  11.071 -0.4326  0.6295 -0.2242
 3648SOL     OW22405   3.391   0.291   7.923 -0.1702 -0.3282 -0.2662
 3648SOL    HW122406   3.377   0.214   7.979 -0.1173 -0.5449 -0.5508
 3648SOL    HW222407   3.382   0.243   7.841 -1.2784 -1.6751  0.6428
 3649SOL     OW22408   2.518   3.078   3.163  0.6105 -0.4084  0.2137
 3649SOL    HW122409   2.470   3.016   3.218 -0.1698  0.6425  0.7228
 3649SOL    HW222410   2.502   3.147   3.227 -0.8792  1.9488 -2.7137
 3650SOL     OW22411   3.738   3.715   4.490  0.7245  0.1044  0.4974
 3650SOL    HW122412   3.813   3.768   4.518  0.6686  0.0678  0.7142
 3650SOL    HW222413   3.664   3.744   4.544  0.5861  1.9006 -0.6319
 3651SOL     OW22414   3.621   1.401   9.894 -0.5047  0.4764  0.4897
 3651SOL    HW122415   3.583   1.326   9.939  0.2085 -0.7796 -0.9663
 3651SOL    HW222416   3.706   1.361   9.872 -1.2320 -0.2598 -1.0503
 3652SOL     OW22417   1.008   0.052  11.704 -0.3863  0.2841  0.5334
 3652SOL    HW122418   0.960   0.133  11.724 -1.6167 -0.2086 -0.4313
 3652SOL    HW222419   0.997   0.010  11.789  2.0536 -0.9041  0.2725
 3653SOL     OW22420   3.306   0.969   8.774  0.2223  0.4340  0.5293
 3653SOL    HW122421   3.311   0.892   8.830 -1.8448 -1.2850 -1.6883
 3653SOL    HW222422   3.255   1.027   8.831 -2.8639 -2.2221  0.4364
 3654SOL     OW22423   4.171   2.986   1.899 -0.1094 -0.4704 -0.3770
 3654SOL    HW122424   4.264   2.961   1.895  0.2012  0.1970  2.3098
 3654SOL    HW222425   4.177   3.069   1.853  1.6480 -0.1869  0.3443
 3655SOL     OW22426   1.367   2.116   0.273 -1.0710 -0.2002 -0.5450
 3655SOL    HW122427   1.323   2.195   0.242 -1.8536 -0.1668  0.6392
 3655SOL    HW222428   1.427   2.145   0.342  0.7551 -2.8891 -1.0110
 3656SOL     OW22429   0.345   1.458   6.749 -0.0506 -0.1191 -0.0796
 3656SOL    HW122430   0.440   1.466   6.758 -0.0195  0.8303 -1.2749
 3656SOL    HW222431   0.340   1.418   6.663 -0.8817 -1.4461  0.5833
 3657SOL     OW22432   4.042   3.402   2.969 -0.1928  0.1552 -0.1350
 3657SOL    HW122433   4.018   3.310   2.979  2.1901 -0.7023 -2.4887
 3657SOL    HW222434   4.068   3.423   3.059 -0.7828 -1.2334  0.3624
 3658SOL     OW22435   3.650   3.841   5.067  0.5405 -0.3000  0.4396
 3658SOL    HW122436   3.626   3.785   4.993  0.0750 -1.0863  1.1884
 3658SOL    HW222437   3.566   3.837   5.112  2.2068 -2.0589  3.3927
 3659SOL     OW22438   4.108   2.043  10.933  0.1731  0.1281 -0.3890
 3659SOL    HW122439   4.113   1.949  10.914 -0.0450  0.1756 -0.6825
 3659SOL    HW222440   4.130   2.047  11.026  2.2231 -0.7910 -0.8200
 3660SOL     OW22441   0.190   2.437   2.316  0.8289  0.5517  0.8400
 3660SOL    HW122442   0.204   2.342   2.318 -0.2598  0.3986  1.1453
 3660SOL    HW222443   0.281   2.465   2.326  1.2122 -0.3680 -0.1168
 3661SOL     OW22444   3.819   0.903   5.170  0.2694 -0.4686  0.8353
 3661SOL    HW122445   3.843   0.826   5.119  0.2150  1.6174 -2.2964
 3661SOL    HW222446   3.900   0.952   5.157  0.2231 -0.5965  0.0542
 3662SOL     OW22447   3.985   3.459  11.148 -0.7189 -0.1682  0.0532
 3662SOL    HW122448   3.926   3.404  11.097  2.0772  0.8966 -4.3792
 3662SOL    HW222449   4.057   3.480  11.087 -2.0592  2.2329 -0.7127
 3663SOL     OW22450   4.283   2.728   2.093 -0.1297 -0.4580 -0.3004
 3663SOL    HW122451   4.307   2.638   2.115  0.3717  0.1356  1.5957
 3663SOL    HW222452   4.318   2.774   2.169 -0.4689 -0.7058  0.0074
 3664SOL     OW22453   2.979   3.937  12.062 -0.6985  0.5258 -0.1970
 3664SOL    HW122454   2.995   3.917  11.969 -1.5317 -0.1005 -0.1969
 3664SOL    HW222455   3.064   3.931  12.106 -1.1368 -0.6345  0.4768
 3665SOL     OW22456   4.186   0.468   7.504 -0.0101  0.1437 -0.0416
 3665SOL    HW122457   4.238   0.495   7.428  0.0995 -1.8781 -0.6714
 3665SOL    HW222458   4.110   0.427   7.463  0.1496 -1.5340  1.3506
 3666SOL     OW22459   0.061   3.439   1.963  0.0337  0.0440 -0.1182
 3666SOL    HW122460   0.056   3.353   1.922  1.8983 -0.4112  0.6291
 3666SOL    HW222461   4.689   3.444   1.974  0.0530  1.6119 -0.7106
 3667SOL     OW22462   0.283   1.107   3.498 -0.1157 -0.1734 -0.0611
 3667SOL    HW122463   0.251   1.167   3.431 -3.2233  0.1207  1.6763
 3667SOL    HW222464   0.205   1.093   3.552  1.7615 -0.9360  2.4266
 3668SOL     OW22465   0.109   0.895   7.735  0.1675 -0.4161 -0.1416
 3668SOL    HW122466   0.065   0.819   7.698  1.2094 -0.5700 -1.0736
 3668SOL    HW222467   0.170   0.907   7.662 -0.6701 -2.7013 -1.2236
 3669SOL     OW22468   4.335   1.283  12.955  0.3233  0.0299 -0.2440
 3669SOL    HW122469   4.376   1.370  12.950 -1.4221  0.8931  0.7065
 3669SOL    HW222470   4.316   1.281  12.861  0.8047  1.4569 -0.3786
 3670SOL     OW22471   0.481   1.010   0.578 -0.0556  0.0811  0.2271
 3670SOL    HW122472   0.503   1.023   0.670  0.1100  0.8788  0.0796
 3670SOL    HW222473   0.540   0.938   0.559 -2.0340 -1.6046  0.4500
 3671SOL     OW22474   4.199   2.995   0.311  0.3037 -0.7819 -0.1268
 3671SOL    HW122475   4.180   3.018   0.219  0.9920 -1.9838 -0.5639
 3671SOL    HW222476   4.286   3.030   0.332 -0.0193  0.2379 -0.4921
 3672SOL     OW22477   3.281   3.440   7.009 -0.2630 -0.4896  0.7383
 3672SOL    HW122478   3.312   3.367   7.062  0.3597 -2.0421 -1.7839
 3672SOL    HW222479   3.362   3.489   6.998 -0.9757  0.4786 -0.2301
 3673SOL     OW22480   2.892   1.549   3.113  0.6444 -0.3253 -0.0639
 3673SOL    HW122481   2.931   1.635   3.103  1.4999 -0.4949  1.9159
 3673SOL    HW222482   2.906   1.524   3.204 -0.6077  2.4072  0.8619
 3674SOL     OW22483   3.780   2.688   1.486  0.0590 -0.3737  0.1380
 3674SOL    HW122484   3.791   2.635   1.407 -2.0807  1.6197 -1.4745
 3674SOL    HW222485   3.694   2.654   1.511 -1.8457  1.1227 -4.3032
 3675SOL     OW22486   0.358   2.332   6.757 -0.1088  0.1368  0.3387
 3675SOL    HW122487   0.442   2.288   6.746  0.6269  1.3324  1.2758
 3675SOL    HW222488   0.348   2.397   6.688  0.1143  0.5782  0.7244
 3676SOL     OW22489   3.319   3.647  11.353  0.3539  0.0907 -0.1606
 3676SOL    HW122490   3.250   3.696  11.397  1.5428  2.5050 -0.9990
 3676SOL    HW222491   3.313   3.571  11.410  0.5326 -0.9025 -1.4619
 3677SOL     OW22492   3.758   3.115   6.706 -0.4627  0.3836 -0.4065
 3677SOL    HW122493   3.752   3.080   6.617 -0.7933 -0.0492 -0.2152
 3677SOL    HW222494   3.852   3.134   6.698 -0.4894  0.6413 -0.1230
 3678SOL     OW22495   2.224   2.804   3.118 -0.9327  0.0767  0.5001
 3678SOL    HW122496   2.256   2.744   3.051 -0.6772  0.4957  0.2467
 3678SOL    HW222497   2.209   2.880   3.062 -0.1215 -1.2907 -1.5842
 3679SOL     OW22498   2.274   4.204   7.110 -0.6998  0.2680 -0.0896
 3679SOL    HW122499   2.321   4.262   7.170 -0.3609  1.3285 -1.3834
 3679SOL    HW222500   2.206   4.265   7.082 -0.3908 -0.8896 -3.3450
 3680SOL     OW22501   3.977   1.499  17.535  0.1324 -0.2779  0.0549
 3680SOL    HW122502   3.980   1.408  17.507  0.7438 -0.3042  0.1976
 3680SOL    HW222503   4.060   1.513  17.582  1.4724 -0.6749 -2.2240
 3681SOL     OW22504   2.042   2.746  11.296 -0.0476  0.0849 -0.1315
 3681SOL    HW122505   2.104   2.683  11.260 -0.3492 -1.0693  1.3711
 3681SOL    HW222506   2.103   2.803  11.343 -0.1118 -0.0215  0.0822
 3682SOL     OW22507   0.102   0.604  17.450  0.3196  0.1560 -0.3855
 3682SOL    HW122508   0.098   0.547  17.527  0.6828  1.1846  0.3941
 3682SOL    HW222509   0.011   0.613  17.422 -0.0122 -1.0166  0.3447
 3683SOL     OW22510   3.251   4.280   3.083  0.5048  0.6244  0.0808
 3683SOL    HW122511   3.319   4.213   3.068 -1.3539 -1.5116  1.1629
 3683SOL    HW222512   3.180   4.216   3.082  1.7354 -0.7292 -1.2577
 3684SOL     OW22513   0.219   2.268   3.991 -0.1549 -0.6467 -0.0754
 3684SOL    HW122514   0.242   2.308   4.074 -1.2471 -0.0364 -0.0678
 3684SOL    HW222515   0.297   2.259   3.936  0.8181  1.3668  0.9881
 3685SOL     OW22516   0.719   3.120   3.770 -0.5386  0.1531 -0.0314
 3685SOL    HW122517   0.669   3.144   3.692  0.2420  1.1846 -0.2150
 3685SOL    HW222518   0.735   3.207   3.807 -0.6307  0.2664 -0.2627
 3686SOL     OW22519   1.199   1.489   3.135 -0.4483 -0.0230 -0.1876
 3686SOL    HW122520   1.182   1.582   3.128 -0.1266  0.0434 -0.1134
 3686SOL    HW222521   1.135   1.452   3.075 -0.0021 -1.2416  0.0711
 3687SOL     OW22522   3.358   2.280   3.719 -0.0349  0.6666 -0.3628
 3687SOL    HW122523   3.320   2.323   3.796  1.5366  1.0920  0.1695
 3687SOL    HW222524   3.277   2.271   3.669  0.1684  0.8261 -0.7164
 3688SOL     OW22525   0.976   3.603   8.461 -0.6475 -0.0118 -0.5634
 3688SOL    HW122526   0.910   3.540   8.431  0.3327 -0.4334 -1.8520
 3688SOL    HW222527   1.054   3.549   8.472 -0.3459  0.6712  0.5842
 3689SOL     OW22528   2.981   3.513   2.105 -0.2347 -0.1312 -0.0893
 3689SOL    HW122529   3.070   3.505   2.139  0.2775  2.5166 -0.7661
 3689SOL    HW222530   3.011   3.547   2.021 -0.1000 -1.0699 -0.4225
 3690SOL     OW22531   1.878   4.283   7.499  0.1361 -0.3574 -0.4264
 3690SOL    HW122532   1.909   4.319   7.582  2.3646 -1.1751 -0.8998
 3690SOL    HW222533   1.863   4.193   7.529 -2.0452  0.2873  0.4026
 3691SOL     OW22534   2.732   4.572   4.336  0.3315  0.0690 -0.0365
 3691SOL    HW122535   2.788   4.641   4.303  0.3662  0.2043  0.3005
 3691SOL    HW222536   2.775   4.505   4.282  2.3896  1.3288  0.0494
 3692SOL     OW22537   0.647   3.237  14.965 -0.0442 -0.4738  0.1810
 3692SOL    HW122538   0.677   3.200  15.048 -2.6129 -1.9195  0.4972
 3692SOL    HW222539   0.578   3.174  14.944 -0.9388  0.4098  0.4744
 3693SOL     OW22540   3.812   3.469   1.737  0.0923 -0.6482 -0.2520
 3693SOL    HW122541   3.854   3.533   1.679  0.9349  0.0449  1.1083
 3693SOL    HW222542   3.806   3.519   1.818  0.2614 -2.0477  0.6225
 3694SOL     OW22543   3.661   2.291   3.327 -0.0907  0.0916 -0.0491
 3694SOL    HW122544   3.604   2.343   3.384  0.3861 -0.6126  1.0587
 3694SOL    HW222545   3.602   2.305   3.253 -0.3066  1.8743  0.4658
 3695SOL     OW22546   4.386   4.133  10.981 -0.1530  0.0337  0.0555
 3695SOL    HW122547   4.350   4.093  10.902 -1.0835  0.7869  0.1022
 3695SOL    HW222548   4.447   4.200  10.952  1.4703 -2.4583 -2.2335
 3696SOL     OW22549   2.752   1.657   4.463 -0.5520 -0.6633  0.1614
 3696SOL    HW122550   2.799   1.696   4.390  1.0328 -0.3470  1.3662
 3696SOL    HW222551   2.663   1.657   4.426 -0.5610 -1.6232  0.1996
 3697SOL     OW22552   1.070   1.780  16.407 -0.2433  0.1447 -0.1086
 3697SOL    HW122553   1.000   1.794  16.471 -0.5976 -0.5671 -0.3454
 3697SOL    HW222554   1.135   1.758  16.473  0.2187  0.7888 -0.3542
 3698SOL     OW22555   0.152   3.036  17.143 -0.0856  0.2637 -0.3485
 3698SOL    HW122556   0.155   3.057  17.050  1.7733 -0.0355 -0.3504
 3698SOL    HW222557   0.104   3.108  17.184 -0.4051  0.1715 -0.5609
 3699SOL     OW22558   0.268   2.015   6.931  0.5741 -0.1036 -0.0540
 3699SOL    HW122559   0.208   2.012   6.857 -1.3543 -1.3999  1.5772
 3699SOL    HW222560   0.209   1.999   7.004 -0.8279 -0.8667 -1.3539
 3700SOL     OW22561   1.012   2.499  11.364  0.1999  0.4443  0.6027
 3700SOL    HW122562   0.928   2.454  11.359  0.4966 -0.0397 -0.0468
 3700SOL    HW222563   1.073   2.432  11.331 -0.6735 -0.4611  0.8150
 3701SOL     OW22564   4.574   4.333   4.617  0.3927  0.0315  0.6003
 3701SOL    HW122565   4.658   4.364   4.650 -0.4952  0.6335  2.2935
 3701SOL    HW222566   4.519   4.410   4.602 -0.9315 -0.9680  0.2816
 3702SOL     OW22567   3.609   3.822   8.790  0.4054 -0.1826 -0.1959
 3702SOL    HW122568   3.631   3.736   8.754  2.7302  0.9124 -1.4266
 3702SOL    HW222569   3.613   3.805   8.884  1.5248  0.5841 -0.0966
 3703SOL     OW22570   1.491   3.532  13.799 -0.4305  0.2065 -0.2146
 3703SOL    HW122571   1.413   3.585  13.783  0.8264  1.4917 -2.1743
 3703SOL    HW222572   1.512   3.543  13.891  2.0253  1.3993 -0.8960
 3704SOL     OW22573   2.748   3.845  11.572  0.2485 -0.2609 -0.4442
 3704SOL    HW122574   2.695   3.875  11.498 -0.4409 -3.2622 -1.1845
 3704SOL    HW222575   2.808   3.919  11.583  1.1529 -1.3214  1.6577
 3705SOL     OW22576   1.872   3.579   5.461  0.1469 -0.7424 -0.0545
 3705SOL    HW122577   1.926   3.500   5.470  0.4850 -0.5021  0.0412
 3705SOL    HW222578   1.935   3.621   5.402 -1.1533  0.3254 -0.6633
 3706SOL     OW22579   3.350   2.824   1.057  0.3387 -0.1281 -0.3952
 3706SOL    HW122580   3.348   2.730   1.075 -0.8128 -0.4034 -1.9879
 3706SOL    HW222581   3.348   2.825   0.961 -0.0866  2.8062 -0.3333
 3707SOL     OW22582   3.261   0.370   4.011  0.1845  0.5187 -0.0060
 3707SOL    HW122583   3.226   0.437   3.952  0.5601  0.7941  0.0880
 3707SOL    HW222584   3.331   0.329   3.960  0.1117  0.1583  0.1881
 3708SOL     OW22585   3.004   3.883  11.765  0.2861  0.4539  0.1808
 3708SOL    HW122586   3.081   3.879  11.709  0.8850 -2.2013  1.1941
 3708SOL    HW222587   2.957   3.955  11.723  0.9548  0.4852 -0.5053
 3709SOL     OW22588   4.008   3.080   6.974 -0.1116 -0.0293  0.0944
 3709SOL    HW122589   4.062   3.012   6.934  0.4183  0.9603 -0.8710
 3709SOL    HW222590   4.020   3.058   7.067 -1.0039 -0.4224  0.1155
 3710SOL     OW22591   4.251   0.312  11.388 -0.1994  0.5743 -0.1145
 3710SOL    HW122592   4.218   0.280  11.304  0.6744 -1.3611  0.2755
 3710SOL    HW222593   4.218   0.237  11.438  0.3893  2.0976  2.5604
 3711SOL     OW22594   1.254   3.051   1.493  0.2244  0.1242 -0.1890
 3711SOL    HW122595   1.171   3.080   1.456  0.3599 -0.0268 -0.6099
 3711SOL    HW222596   1.222   2.990   1.559 -1.2224  1.6407  0.5123
 3712SOL     OW22597   2.537   0.623  16.702 -0.0168 -0.0107 -0.0052
 3712SOL    HW122598   2.570   0.666  16.781  0.1431 -1.0470  0.4893
 3712SOL    HW222599   2.504   0.699  16.654 -1.6563  0.4489  1.8547
 3713SOL     OW22600   4.553   4.598  16.550  0.0123  0.0640 -0.3388
 3713SOL    HW122601   4.638   4.555  16.565 -0.2094  0.4718  1.9342
 3713SOL    HW222602   4.531   4.621  16.640 -0.0689  1.9738 -0.8575
 3714SOL     OW22603   3.549   3.689  16.797  0.0322 -0.0854 -0.8032
 3714SOL    HW122604   3.611   3.638  16.744  2.6040  0.4565  1.6661
 3714SOL    HW222605   3.543   3.639  16.878  2.4741  1.1479  0.1253
 3715SOL     OW22606   0.217   0.225  10.788 -0.1056  0.5298 -0.4288
 3715SOL    HW122607   0.249   0.241  10.877 -1.6375  1.4934 -0.0487
 3715SOL    HW222608   0.260   0.297  10.742 -1.3664  2.5072  1.5082
 3716SOL     OW22609   0.833   1.583   5.597 -0.0036 -0.8710 -0.6937
 3716SOL    HW122610   0.786   1.557   5.675  0.0468 -1.2576 -0.7957
 3716SOL    HW222611   0.766   1.574   5.528 -0.4805  2.2348 -0.6405
 3717SOL     OW22612   4.278   3.149   2.760 -0.1065 -0.0031 -0.4534
 3717SOL    HW122613   4.248   3.061   2.738  1.0285 -0.2383 -1.0734
 3717SOL    HW222614   4.205   3.173   2.816 -1.7134  2.4927 -3.6244
 3718SOL     OW22615   0.824   1.327   2.037 -0.1463 -0.1770  0.1504
 3718SOL    HW122616   0.895   1.377   2.077 -0.9116 -1.5637  3.2516
 3718SOL    HW222617   0.766   1.399   2.060 -2.1602 -1.0370 -2.2446
 3719SOL     OW22618   1.658   3.450  11.524  0.0198 -0.5614  0.2253
 3719SOL    HW122619   1.654   3.524  11.463  0.5430 -0.2529  0.5653
 3719SOL    HW222620   1.569   3.444  11.559  0.3159  0.1843  1.1243
 3720SOL     OW22621   4.122   3.905   7.449  0.2109 -0.1276 -0.5074
 3720SOL    HW122622   4.166   3.984   7.480  0.5689 -0.3579 -0.4308
 3720SOL    HW222623   4.116   3.924   7.355  0.4679 -2.7238 -1.0289
 3721SOL     OW22624   3.380   4.453   8.397 -0.1227 -0.0916 -0.4749
 3721SOL    HW122625   3.359   4.388   8.464  0.0877 -2.3249 -2.5628
 3721SOL    HW222626   3.379   4.539   8.439 -1.1047 -0.6607  0.6616
 3722SOL     OW22627   3.209   1.711   2.630  0.7967 -0.0520 -0.4138
 3722SOL    HW122628   3.128   1.762   2.633  1.5250  1.0047  1.4771
 3722SOL    HW222629   3.267   1.758   2.690  0.5021 -0.7027  0.3858
 3723SOL     OW22630   2.652   4.161   8.339  0.4004  0.0983 -0.1169
 3723SOL    HW122631   2.633   4.243   8.385  1.3295  0.6029 -0.6291
 3723SOL    HW222632   2.574   4.114   8.369  0.8754 -0.1615  0.6867
 3724SOL     OW22633   1.855   1.886   8.775  0.0098  0.0036 -0.5883
 3724SOL    HW122634   1.769   1.888   8.819  0.5424 -3.2028  0.5993
 3724SOL    HW222635   1.846   1.824   8.703  0.6722  0.3347 -0.9519
 3725SOL     OW22636   3.732   0.582  17.528  0.2914 -0.3287 -0.0541
 3725SOL    HW122637   3.746   0.495  17.565  0.2728 -0.3030  0.0129
 3725SOL    HW222638   3.715   0.569  17.434  0.8152  1.1209 -0.3475
 3726SOL     OW22639   3.289   4.140   8.005 -0.4221  0.3224 -0.3078
 3726SOL    HW122640   3.296   4.129   8.100 -0.4639  1.3889 -0.1796
 3726SOL    HW222641   3.251   4.227   7.995  0.3857  1.0659  2.8376
 3727SOL     OW22642   1.421   0.030   5.401  0.3153  0.0484 -0.2302
 3727SOL    HW122643   1.446   0.035   5.309  1.3234  3.4709  0.2040
 3727SOL    HW222644   1.433   4.661   5.422  0.8162  0.1856  0.0946
 3728SOL     OW22645   0.015   3.871   3.937  0.0967 -0.0136  0.7948
 3728SOL    HW122646   0.013   3.933   3.864  1.5856 -0.9409 -0.0384
 3728SOL    HW222647   4.722   3.920   4.018  2.9651  2.5853 -0.1730
 3729SOL     OW22648   0.618   3.855  10.111  0.3424 -0.1326 -0.4600
 3729SOL    HW122649   0.629   3.937  10.159  0.7791 -0.3779 -0.1411
 3729SOL    HW222650   0.695   3.803  10.135  1.2150  1.2763 -0.2520
 3730SOL     OW22651   1.678   0.312  12.413  0.6079  0.0840  0.0035
 3730SOL    HW122652   1.682   0.349  12.325 -0.3732  0.0472 -0.0531
 3730SOL    HW222653   1.625   0.233  12.409 -0.7934  1.0636 -0.8215
 3731SOL     OW22654   0.658   2.940  15.344 -0.0660  0.6295  0.2850
 3731SOL    HW122655   0.674   2.970  15.433  0.1187  0.0401  0.4470
 3731SOL    HW222656   0.580   2.888  15.363 -0.1195  0.6679  0.1778
 3732SOL     OW22657   1.216   4.532   8.641  0.2638 -0.1242  0.4056
 3732SOL    HW122658   1.218   4.590   8.565  0.9877  1.4716  1.6379
 3732SOL    HW222659   1.298   4.484   8.628 -0.6828 -1.9605  1.1225
 3733SOL     OW22660   2.778   2.484  16.452  0.2223 -0.1169  0.0632
 3733SOL    HW122661   2.831   2.465  16.374  0.8262  3.1134 -0.3193
 3733SOL    HW222662   2.691   2.507  16.420 -0.3647  0.2766  1.9347
 3734SOL     OW22663   0.503   1.469   8.526  0.7410  0.5254  0.2066
 3734SOL    HW122664   0.495   1.564   8.537  1.7820  0.8436 -1.6488
 3734SOL    HW222665   0.574   1.468   8.591 -0.4068  0.6476  1.4536
 3735SOL     OW22666   3.441   3.937   2.560 -0.2783  0.5225  0.4305
 3735SOL    HW122667   3.468   3.928   2.652  0.1505  4.5025  0.6981
 3735SOL    HW222668   3.491   4.014   2.534  1.7507 -0.2184  2.0954
 3736SOL     OW22669   3.295   4.632  16.256  0.5579  0.0367  0.1250
 3736SOL    HW122670   3.280   4.684  16.334 -0.6468 -0.1352  0.0123
 3736SOL    HW222671   3.206   4.623  16.223  0.6084 -0.3348  0.0876
 3737SOL     OW22672   1.351   1.998  11.968 -0.4553 -0.1878  0.3133
 3737SOL    HW122673   1.379   1.974  12.056  0.3841 -2.3261 -0.5463
 3737SOL    HW222674   1.422   1.959  11.916 -0.5152  1.0732 -0.7139
 3738SOL     OW22675   2.741   4.397  16.225  0.0813 -0.3278  0.4077
 3738SOL    HW122676   2.672   4.422  16.162  1.9307  0.6260 -1.2512
 3738SOL    HW222677   2.758   4.306  16.201  1.1370 -0.1029  0.2990
 3739SOL     OW22678   2.522   1.679   0.284  0.0871  0.3638  0.7229
 3739SOL    HW122679   2.580   1.699   0.211 -0.4525 -0.5276  0.0487
 3739SOL    HW222680   2.448   1.624   0.257 -1.1908  1.6365  1.6061
 3740SOL     OW22681   2.403   0.369   7.822  0.0756  0.4354  0.1564
 3740SOL    HW122682   2.394   0.464   7.818 -1.4340  0.1591 -2.6852
 3740SOL    HW222683   2.315   0.344   7.848  0.3081 -0.8934 -0.3350
 3741SOL     OW22684   0.398   1.402   2.527 -0.2927 -0.3278 -0.3338
 3741SOL    HW122685   0.360   1.490   2.531 -2.2326 -1.2544  1.5608
 3741SOL    HW222686   0.390   1.395   2.431  0.4626 -2.1281 -0.2538
 3742SOL     OW22687   2.360   2.252   2.250  0.5701 -0.0292 -0.7896
 3742SOL    HW122688   2.302   2.247   2.326  0.0129 -3.5722 -1.4281
 3742SOL    HW222689   2.444   2.247   2.296  0.3603  0.5825 -0.3521
 3743SOL     OW22690   3.063   2.014   5.557  0.0622  0.0090 -0.2294
 3743SOL    HW122691   3.050   2.101   5.593  1.7249  0.8737 -1.7578
 3743SOL    HW222692   2.992   1.998   5.495 -1.4287  2.5626  0.8574
 3744SOL     OW22693   3.137   1.303  11.351 -0.1449  0.2462  0.5497
 3744SOL    HW122694   3.209   1.242  11.333 -0.9069 -0.7600  0.8518
 3744SOL    HW222695   3.096   1.275  11.269  0.9704  0.8897 -0.2228
 3745SOL     OW22696   2.844   4.352  11.348  0.5033 -0.6160 -0.0939
 3745SOL    HW122697   2.753   4.378  11.332 -0.0901 -2.5985  0.0589
 3745SOL    HW222698   2.890   4.362  11.264  0.6117 -1.2421 -0.1108
 3746SOL     OW22699   4.104   3.084   4.588  0.0753  0.1380  0.0417
 3746SOL    HW122700   4.038   3.054   4.526 -0.9747 -0.0741  1.2595
 3746SOL    HW222701   4.055   3.060   4.666 -0.4452 -0.5544 -0.4994
 3747SOL     OW22702   3.353   4.281   8.662 -0.3780  0.1666  0.5280
 3747SOL    HW122703   3.262   4.286   8.690 -0.9279  0.6577 -1.3838
 3747SOL    HW222704   3.366   4.192   8.695 -0.6659 -0.4266 -0.9335
 3748SOL     OW22705   2.169   0.950  13.508  0.7219 -0.2354 -0.4379
 3748SOL    HW122706   2.099   1.009  13.478  0.5155  0.6436  1.8225
 3748SOL    HW222707   2.231   1.009  13.549 -1.5013  1.1235  0.9533
 3749SOL     OW22708   3.325   2.802   9.670  0.6341  0.4910 -0.6179
 3749SOL    HW122709   3.383   2.874   9.696  0.7815  0.4785 -0.9214
 3749SOL    HW222710   3.243   2.843   9.641  1.3151  0.6690 -2.2357
 3750SOL     OW22711   2.819   4.437   6.445 -0.8357  0.0006 -0.2974
 3750SOL    HW122712   2.825   4.343   6.459  0.5052  0.1734  0.2993
 3750SOL    HW222713   2.822   4.449   6.350  2.6584  1.5231 -0.0084
 3751SOL     OW22714   3.013   4.647  15.746 -0.0575 -0.1498  0.6498
 3751SOL    HW122715   2.956   4.617  15.817 -0.0835 -1.1269  0.2178
 3751SOL    HW222716   3.025   4.563  15.701 -0.0264 -0.0494  0.4701
 3752SOL     OW22717   4.112   1.071   7.701  0.0666  0.0348  0.1696
 3752SOL    HW122718   4.022   1.103   7.711  0.4663  0.1803  3.3957
 3752SOL    HW222719   4.169   1.145   7.727 -1.1326  0.5925  1.2345
 3753SOL     OW22720   3.300   3.344   4.637  0.2191  0.3031 -0.3529
 3753SOL    HW122721   3.337   3.304   4.716 -2.6519 -2.0176 -0.1824
 3753SOL    HW222722   3.329   3.435   4.635 -1.1360  0.7292 -0.0014
 3754SOL     OW22723   1.640   4.585   7.744 -0.2278 -0.6373  0.5897
 3754SOL    HW122724   1.633   4.507   7.689 -0.4217 -1.2591  1.5090
 3754SOL    HW222725   1.735   4.581   7.758  0.1562  2.4190 -0.9947
 3755SOL     OW22726   4.110   3.379  15.270 -0.1483 -0.0796  0.1759
 3755SOL    HW122727   4.193   3.334  15.255  0.6256  1.3372  0.1467
 3755SOL    HW222728   4.148   3.465  15.290 -0.1113 -0.0515 -0.0133
 3756SOL     OW22729   3.528   2.121   4.017 -0.2473 -0.1067  0.0914
 3756SOL    HW122730   3.542   2.183   4.088  0.3589  1.0525 -1.0528
 3756SOL    HW222731   3.553   2.034   4.049  0.9744  0.2164 -0.0031
 3757SOL     OW22732   0.325   1.116   6.872  0.1549 -0.3517 -0.1377
 3757SOL    HW122733   0.293   1.070   6.795  0.9514  0.6683 -1.0755
 3757SOL    HW222734   0.259   1.183   6.889 -2.4867 -3.2043  0.8474
 3758SOL     OW22735   2.092   3.961   5.520  0.1325  0.6194  0.5224
 3758SOL    HW122736   2.005   3.926   5.496  1.2396 -1.6695 -0.1911
 3758SOL    HW222737   2.081   3.999   5.607 -0.9761 -0.5159  0.8929
 3759SOL     OW22738   0.282   1.735  12.750  1.0351  0.5892 -0.6540
 3759SOL    HW122739   0.223   1.660  12.758 -0.7165  2.1102  0.7884
 3759SOL    HW222740   0.225   1.794  12.702  0.0052  1.6048  1.7988
 3760SOL     OW22741   3.909   3.336   6.902 -0.2405 -0.0035  0.2574
 3760SOL    HW122742   3.957   3.261   6.938  2.8722  1.6223 -0.4926
 3760SOL    HW222743   3.918   3.320   6.808  0.0172 -0.4650  0.3602
 3761SOL     OW22744   2.981   2.453  17.379 -0.1199 -0.1824  0.1419
 3761SOL    HW122745   2.997   2.461  17.285  0.0346 -0.1567  0.1713
 3761SOL    HW222746   2.900   2.402  17.372  0.0732 -0.5736  0.7290
 3762SOL     OW22747   2.900   2.358   4.747 -0.0335  0.1683  0.0102
 3762SOL    HW122748   2.851   2.439   4.756 -1.1342 -0.4927  0.0013
 3762SOL    HW222749   2.867   2.321   4.665 -2.6820  0.6615  0.8843
 3763SOL     OW22750   0.498   4.316  16.750  0.2103 -0.3322 -0.3656
 3763SOL    HW122751   0.540   4.385  16.698  0.8974 -0.8697 -0.5177
 3763SOL    HW222752   0.505   4.241  16.692  4.7626  2.0692 -2.9827
 3764SOL     OW22753   1.085   0.037   4.809  0.2063 -0.3309 -0.5257
 3764SOL    HW122754   1.145   4.704   4.857  0.1269 -0.2983 -0.3882
 3764SOL    HW222755   1.091   4.715   4.725 -0.9261  1.0780 -1.3869
 3765SOL     OW22756   1.359   3.558   2.647 -0.3283  0.2547  0.0781
 3765SOL    HW122757   1.321   3.526   2.566 -0.3931  2.0952 -0.6192
 3765SOL    HW222758   1.275   3.592   2.679  0.3602  2.1085 -0.1087
 3766SOL     OW22759   1.871   4.375  13.597  0.1775 -0.0049  0.1190
 3766SOL    HW122760   1.842   4.445  13.539 -0.6880 -0.8844 -0.5145
 3766SOL    HW222761   1.920   4.316  13.539  0.8269  0.2110  0.4490
 3767SOL     OW22762   4.704   4.681   1.418  0.4290  0.4166  0.0026
 3767SOL    HW122763   0.017   4.601   1.380 -2.0618 -0.2014 -1.0760
 3767SOL    HW222764   4.612   4.655   1.414  0.9863 -1.8849  2.2664
 3768SOL     OW22765   0.257   4.625  15.860  0.1569  0.1982 -0.3822
 3768SOL    HW122766   0.264   4.611  15.955  0.8785 -2.4846 -0.8323
 3768SOL    HW222767   0.224   4.540  15.831 -0.2058 -0.4600  1.9189
 3769SOL     OW22768   1.407   2.184  14.220 -0.8286 -0.0141 -0.1299
 3769SOL    HW122769   1.487   2.133  14.204 -1.1253 -0.9384  1.2875
 3769SOL    HW222770   1.355   2.158  14.144  0.4572  1.8952 -1.6716
 3770SOL     OW22771   2.143   2.721  10.370 -0.2343  0.0185  0.1138
 3770SOL    HW122772   2.104   2.788  10.315 -0.0978 -0.2920 -0.3616
 3770SOL    HW222773   2.103   2.647  10.324 -2.1972  1.4675 -0.4570
 3771SOL     OW22774   2.494   0.738   4.535 -0.1765  0.2945  0.0573
 3771SOL    HW122775   2.457   0.826   4.541 -1.1853 -0.1141 -0.1251
 3771SOL    HW222776   2.478   0.722   4.442 -2.6531  1.4590  0.2891
 3772SOL     OW22777   0.609   2.183  12.971  0.1486  0.1462 -0.1591
 3772SOL    HW122778   0.539   2.171  13.035 -1.9336 -1.5956 -2.7914
 3772SOL    HW222779   0.640   2.093  12.960 -1.4660 -0.1986 -2.0203
 3773SOL     OW22780   2.572   1.244   2.163  0.0237  0.3919 -0.1484
 3773SOL    HW122781   2.533   1.331   2.165  0.9283  0.8305 -1.4200
 3773SOL    HW222782   2.604   1.235   2.073  0.8953  2.2537 -0.0264
 3774SOL     OW22783   0.754   4.588   7.604  0.0447  0.1168  0.0104
 3774SOL    HW122784   0.835   4.617   7.645  1.4151 -1.5789 -1.5189
 3774SOL    HW222785   0.712   4.665   7.566 -1.3224 -0.8447 -0.4363
 3775SOL     OW22786   2.772   3.514   5.581  0.2543 -0.3068  0.5096
 3775SOL    HW122787   2.841   3.550   5.636 -0.5074  2.6799 -0.4880
 3775SOL    HW222788   2.797   3.422   5.570  0.7847 -0.2060  0.8534
 3776SOL     OW22789   2.330   3.403  14.405 -0.7626  0.1651  0.1671
 3776SOL    HW122790   2.378   3.334  14.450 -0.8742 -0.1757 -0.2433
 3776SOL    HW222791   2.399   3.430  14.344  0.0757  1.4567  1.6862
 3777SOL     OW22792   2.710   1.434   9.422  0.0444 -0.3722 -0.1297
 3777SOL    HW122793   2.694   1.350   9.379  1.1570 -0.9303  0.5496
 3777SOL    HW222794   2.799   1.422   9.456  0.7228  0.3720 -1.6311
 3778SOL     OW22795   4.431   2.853   1.822 -0.7253 -0.1455  0.3025
 3778SOL    HW122796   4.446   2.911   1.747  1.1187 -1.3341 -0.2453
 3778SOL    HW222797   4.449   2.907   1.899  0.7022 -1.0915  0.6170
 3779SOL     OW22798   0.053   1.751   2.353  0.2269 -0.0603  0.3788
 3779SOL    HW122799   0.087   1.667   2.385  0.5751 -0.7210 -1.7503
 3779SOL    HW222800   0.074   1.740   2.261  2.0383 -1.0003  0.8884
 3780SOL     OW22801   2.674   4.675   9.215 -0.5366  0.2119 -0.2041
 3780SOL    HW122802   2.598   4.718   9.174 -0.3347  1.5294  0.8059
 3780SOL    HW222803   2.647   4.584   9.208 -3.4785  1.0747 -0.5340
 3781SOL     OW22804   1.657   4.466   5.104  0.2720 -0.1177 -0.3538
 3781SOL    HW122805   1.685   4.485   5.014  0.7882 -2.7143 -0.7341
 3781SOL    HW222806   1.597   4.541   5.108  0.7127  0.3183 -1.8009
 3782SOL     OW22807   3.669   4.636   0.061  0.4792 -0.2281  0.1056
 3782SOL    HW122808   3.636   4.580  17.687 -0.6297 -1.7788  1.8696
 3782SOL    HW222809   3.739   4.585   0.100 -0.0708  0.7212  2.2949
 3783SOL     OW22810   0.642   3.014   2.793 -0.6734 -0.3488 -0.4375
 3783SOL    HW122811   0.735   3.028   2.810 -1.0668 -0.0891  1.4904
 3783SOL    HW222812   0.627   2.960   2.871 -0.9051  0.4740  0.0904
 3784SOL     OW22813   2.110   0.916   3.572 -0.0277  0.3517 -0.3913
 3784SOL    HW122814   2.152   0.983   3.627 -0.5809  1.8273 -1.7687
 3784SOL    HW222815   2.115   0.837   3.626  0.5580  0.2667 -0.5707
 3785SOL     OW22816   2.324   1.335   1.283  0.1177 -0.2445 -0.5078
 3785SOL    HW122817   2.292   1.425   1.285  1.8056  0.3739 -1.4215
 3785SOL    HW222818   2.402   1.343   1.228 -0.6288  0.9977 -1.4149
 3786SOL     OW22819   4.481   1.918   5.045 -0.1974 -0.8369  0.2482
 3786SOL    HW122820   4.439   1.855   5.103 -1.1791 -0.7909 -0.4128
 3786SOL    HW222821   4.440   1.911   4.959 -2.5923  1.3265  1.2298
 3787SOL     OW22822   0.631   1.806  14.185  0.2656  0.3980  0.0953
 3787SOL    HW122823   0.726   1.817  14.176  0.2918 -0.4344 -0.5335
 3787SOL    HW222824   0.602   1.880  14.239  0.4426  0.1529  0.5243
 3788SOL     OW22825   0.776   3.307   1.290 -0.1119  0.3199  0.6262
 3788SOL    HW122826   0.847   3.278   1.233 -1.9246 -0.5987 -1.1322
 3788SOL    HW222827   0.800   3.256   1.368  2.6403  0.8922  0.1552
 3789SOL     OW22828   1.420   1.633   4.098  0.0700 -0.4148  0.1634
 3789SOL    HW122829   1.331   1.666   4.088 -0.4343 -1.4815  1.1320
 3789SOL    HW222830   1.458   1.639   4.010 -2.1919  1.0357 -0.6907
 3790SOL     OW22831   2.924   4.138   5.842  0.5854 -0.1941  0.5128
 3790SOL    HW122832   2.977   4.063   5.817  1.2831  0.3815  0.2749
 3790SOL    HW222833   2.988   4.209   5.853  0.7504  0.2276 -3.0803
 3791SOL     OW22834   0.023   1.057   6.161 -0.1385 -0.4494  0.1275
 3791SOL    HW122835   0.014   1.118   6.089 -3.4815 -0.4436  0.5301
 3791SOL    HW222836   0.102   1.010   6.135  0.6829  1.1236 -0.2360
 3792SOL     OW22837   1.975   0.230  10.374 -0.1024  0.1117 -0.0600
 3792SOL    HW122838   1.892   0.277  10.384  0.5647  1.5190 -1.1105
 3792SOL    HW222839   2.031   0.283  10.431  2.8290 -3.2673  0.2021
 3793SOL     OW22840   0.005   4.497   7.500 -0.0933  0.0655  0.0514
 3793SOL    HW122841   4.682   4.526   7.578 -0.3035  3.4149 -1.3217
 3793SOL    HW222842   4.663   4.469   7.437  0.1507 -0.4023  0.0071
 3794SOL     OW22843   0.539   2.730   6.961 -0.0479  0.5333  0.3863
 3794SOL    HW122844   0.473   2.768   7.019  0.7708  1.0515  0.9823
 3794SOL    HW222845   0.483   2.684   6.898  0.9899 -1.0172  0.6130
 3795SOL     OW22846   0.838   3.185   4.439  0.0876 -0.2578  0.2074
 3795SOL    HW122847   0.750   3.217   4.420  0.5188  0.3948 -0.6837
 3795SOL    HW222848   0.837   3.091   4.423 -0.4022 -0.2661  0.2794
 3796SOL     OW22849   4.572   1.849   6.744 -1.0113  0.2444  0.3583
 3796SOL    HW122850   4.518   1.822   6.817 -2.9472 -0.1295 -1.2245
 3796SOL    HW222851   4.654   1.801   6.758  0.1744  2.0895 -0.2337
 3797SOL     OW22852   2.218   3.508   1.688  0.2169 -0.0246  0.5219
 3797SOL    HW122853   2.192   3.504   1.780 -0.6466 -1.5398  0.2065
 3797SOL    HW222854   2.150   3.457   1.644  0.0694  1.2123 -0.6860
 3798SOL     OW22855   2.103   1.401   9.486 -0.1036  0.1397 -0.0292
 3798SOL    HW122856   2.119   1.352   9.567  3.6407 -0.1932 -0.9807
 3798SOL    HW222857   2.019   1.439   9.513 -0.0020 -0.2831  0.8955
 3799SOL     OW22858   4.591   0.144  11.920 -0.0399 -0.1129  0.4410
 3799SOL    HW122859   4.617   0.072  11.978  3.6658  0.8860  0.0126
 3799SOL    HW222860   4.534   0.205  11.967 -2.2208 -1.9561  0.1641
 3800SOL     OW22861   2.589   4.409  11.781 -0.1425  0.0222 -0.1337
 3800SOL    HW122862   2.546   4.460  11.713  2.6656  1.0713 -1.1296
 3800SOL    HW222863   2.645   4.471  11.828  0.7762  0.7395 -2.2019
 3801SOL     OW22864   4.346   3.095   3.106  0.5014  0.4899  0.0381
 3801SOL    HW122865   4.262   3.109   3.063  0.8631 -1.3587 -1.2606
 3801SOL    HW222866   4.355   3.175   3.158 -0.3860  1.2123 -0.9329
 3802SOL     OW22867   4.266   1.893   5.412 -0.1726  0.5839 -0.4988
 3802SOL    HW122868   4.272   1.858   5.501  1.3277 -1.2675 -1.3214
 3802SOL    HW222869   4.338   1.954   5.425 -0.3821  0.6432  0.3378
 3803SOL     OW22870   2.199   3.472   8.718  0.8979  0.1900  0.1094
 3803SOL    HW122871   2.107   3.487   8.696  0.1422 -1.0544  2.4179
 3803SOL    HW222872   2.219   3.538   8.784  0.3949 -0.1687  0.6224
 3804SOL     OW22873   1.487   0.881   7.548  0.3956 -0.5043  0.1374
 3804SOL    HW122874   1.534   0.964   7.547  0.5999 -0.6203  0.0421
 3804SOL    HW222875   1.507   0.848   7.460  2.2897 -2.4405  1.2830
 3805SOL     OW22876   1.568   1.198  13.257  0.2046 -0.4389 -0.1308
 3805SOL    HW122877   1.497   1.244  13.302 -1.1798 -3.1788  0.5084
 3805SOL    HW222878   1.573   1.123  13.317  0.3983 -0.2387  0.0984
 3806SOL     OW22879   0.664   3.452  12.422 -0.2979 -0.1475 -0.0757
 3806SOL    HW122880   0.613   3.372  12.428  1.1220 -1.1310 -1.0831
 3806SOL    HW222881   0.754   3.428  12.444 -0.6703  0.2995  1.9649
 3807SOL     OW22882   4.193   0.361   3.643 -0.5374  0.0015 -0.1913
 3807SOL    HW122883   4.117   0.413   3.669  1.8652  3.5683 -0.2063
 3807SOL    HW222884   4.256   0.431   3.625  1.6599 -1.9966 -0.2967
 3808SOL     OW22885   3.470   2.541   5.786  0.0283 -0.3787  0.0934
 3808SOL    HW122886   3.511   2.524   5.872 -0.5577 -0.4291  0.3608
 3808SOL    HW222887   3.415   2.618   5.798  0.3392 -0.2375  0.6636
 3809SOL     OW22888   3.408   0.591  13.991 -0.0831  0.7232 -0.0758
 3809SOL    HW122889   3.484   0.640  14.021 -0.3988  0.9966  0.2734
 3809SOL    HW222890   3.349   0.659  13.958  1.1348  1.1233 -1.4024
 3810SOL     OW22891   1.279   2.385   6.610  0.0928 -0.6984  0.3835
 3810SOL    HW122892   1.304   2.453   6.548  0.3531 -0.4179  0.7954
 3810SOL    HW222893   1.207   2.427   6.658  2.2504  2.9586  0.4283
 3811SOL     OW22894   2.738   1.334  10.258 -0.2363 -0.1793 -0.2799
 3811SOL    HW122895   2.714   1.411  10.310  0.0837 -1.1373  1.2629
 3811SOL    HW222896   2.721   1.383  10.177 -0.4724 -0.7753 -0.5886
 3812SOL     OW22897   3.003   2.807  15.181  0.4002  0.1078  0.0083
 3812SOL    HW122898   3.003   2.827  15.275 -0.9067  1.7878 -0.3503
 3812SOL    HW222899   2.991   2.712  15.176 -1.5341  0.3626 -0.2094
 3813SOL     OW22900   4.600   2.812   2.783  0.1970 -0.0961 -0.8038
 3813SOL    HW122901   4.592   2.777   2.694  0.6176  2.6132 -1.8961
 3813SOL    HW222902   4.676   2.758   2.806 -0.8790 -1.1000  0.3924
 3814SOL     OW22903   4.110   4.366   1.625  0.4419 -0.2176 -0.0664
 3814SOL    HW122904   4.160   4.444   1.601 -1.0488  0.5818 -0.6088
 3814SOL    HW222905   4.162   4.297   1.584  1.2286  1.4885 -1.9520
 3815SOL     OW22906   1.753   0.456   3.681 -0.5646  0.1759  0.2044
 3815SOL    HW122907   1.681   0.402   3.711 -1.3980  1.5227  0.6562
 3815SOL    HW222908   1.832   0.431   3.729 -0.7695 -0.8146  0.0097
 3816SOL     OW22909   4.655   4.182   0.230  0.4101  0.5944 -0.0157
 3816SOL    HW122910   4.580   4.241   0.242 -0.7996 -1.1716  1.0895
 3816SOL    HW222911   4.600   4.104   0.239  1.3715 -0.0482  0.1856
 3817SOL     OW22912   2.982   3.517  16.326 -0.0834 -0.3285 -0.6231
 3817SOL    HW122913   2.922   3.567  16.271  0.6515  0.5873 -0.5972
 3817SOL    HW222914   3.002   3.585  16.390 -0.1605 -0.5762 -0.3350
 3818SOL     OW22915   2.914   3.861   8.966 -0.0208  0.0219  0.7659
 3818SOL    HW122916   2.890   3.932   9.026  2.6814  1.3490  0.3020
 3818SOL    HW222917   2.833   3.812   8.957  0.2332 -0.3229  0.3849
 3819SOL     OW22918   4.464   2.740  15.530 -0.0351  0.3359 -0.6862
 3819SOL    HW122919   4.555   2.723  15.555 -0.3877 -2.0870 -1.0398
 3819SOL    HW222920   4.476   2.831  15.501 -2.2111 -0.0179 -2.7427
 3820SOL     OW22921   2.443   1.776   3.177  0.3006 -0.3420 -0.0707
 3820SOL    HW122922   2.488   1.710   3.123  3.0515  2.6095 -1.3712
 3820SOL    HW222923   2.493   1.853   3.150 -1.1740  0.8411  0.5418
 3821SOL     OW22924   4.584   2.865   5.466  0.4482 -0.2967  0.8215
 3821SOL    HW122925   4.632   2.897   5.390 -1.0863  0.3777  0.1403
 3821SOL    HW222926   4.535   2.941   5.497  0.8694 -0.6437  2.3157
 3822SOL     OW22927   4.273   0.942   2.055  0.1176  0.2295  0.1545
 3822SOL    HW122928   4.359   0.986   2.062  0.3812  0.2477 -3.3274
 3822SOL    HW222929   4.223   0.997   1.995  0.2377 -0.7708 -0.8614
 3823SOL     OW22930   2.893   1.461   1.586 -0.5208  0.5013  0.0918
 3823SOL    HW122931   2.965   1.515   1.555  1.2436 -1.6593  0.4613
 3823SOL    HW222932   2.930   1.373   1.583  2.7921  1.8943  0.8048
 3824SOL     OW22933   0.864   1.644   8.485  0.3831  0.1640  0.4942
 3824SOL    HW122934   0.810   1.630   8.563  0.2149  0.8329  0.4940
 3824SOL    HW222935   0.827   1.713   8.429 -1.2086 -1.4187 -0.4188
 3825SOL     OW22936   0.089   3.719  10.911  0.2307 -0.0203 -0.2514
 3825SOL    HW122937   0.058   3.661  10.841 -0.2297  0.6573 -0.6046
 3825SOL    HW222938   0.182   3.728  10.892  0.7355 -0.4052  2.1440
 3826SOL     OW22939   0.179   0.816   0.396 -0.3168 -0.7139 -0.1672
 3826SOL    HW122940   0.156   0.907   0.376  0.0206 -0.7161 -0.5671
 3826SOL    HW222941   0.097   0.772   0.378 -0.7872 -0.4913  1.3744
 3827SOL     OW22942   2.269   3.511   5.337 -0.1033 -0.0094  0.5681
 3827SOL    HW122943   2.294   3.529   5.247  1.3082  1.0664  1.1800
 3827SOL    HW222944   2.352   3.516   5.385  0.0733  0.5515  0.1928
 3828SOL     OW22945   0.264   0.642   1.923 -0.3941  0.3330  0.3961
 3828SOL    HW122946   0.184   0.590   1.928 -0.1639  0.1061  1.6597
 3828SOL    HW222947   0.227   0.717   1.969 -1.7055 -0.5786  0.8033
 3829SOL     OW22948   0.838   2.337  14.930 -0.2737  0.1206  0.2288
 3829SOL    HW122949   0.821   2.250  14.894 -0.4042 -0.3604  1.4771
 3829SOL    HW222950   0.930   2.347  14.904 -0.6987  0.2053 -1.2464
 3830SOL     OW22951   0.733   3.057   9.084  0.1028  0.6994 -0.0648
 3830SOL    HW122952   0.806   3.114   9.108  0.9242 -0.1385 -0.5634
 3830SOL    HW222953   0.666   3.116   9.050 -0.4368 -0.0838 -0.3439
 3831SOL     OW22954   0.592   2.069   8.968 -0.0182 -0.3110 -1.1504
 3831SOL    HW122955   0.579   2.088   9.061  0.2836 -1.1726 -0.9331
 3831SOL    HW222956   0.677   2.026   8.979 -1.2009 -2.4898 -0.5931
 3832SOL     OW22957   1.821   0.719   9.846 -0.3570 -0.0807 -0.4922
 3832SOL    HW122958   1.882   0.752   9.912 -0.0227  0.7630 -1.2102
 3832SOL    HW222959   1.877   0.704   9.769  1.7808  0.2089  0.9966
 3833SOL     OW22960   3.275   0.413   8.492  0.8432  0.5418  0.3259
 3833SOL    HW122961   3.208   0.446   8.552  2.0648  1.2780  1.2925
 3833SOL    HW222962   3.335   0.367   8.550 -0.5307 -1.1014  0.4297
 3834SOL     OW22963   4.184   4.191   4.366 -0.0910  0.0274  0.2227
 3834SOL    HW122964   4.181   4.098   4.346  1.0877  0.3660 -1.5382
 3834SOL    HW222965   4.092   4.213   4.349 -1.4512 -2.6905  4.1106
 3835SOL     OW22966   3.450   0.312   7.499  0.0420 -0.6615 -0.0415
 3835SOL    HW122967   3.541   0.301   7.527 -0.3204  2.4358  2.3829
 3835SOL    HW222968   3.453   0.359   7.415 -0.1517 -0.4333  0.0797
 3836SOL     OW22969   2.811   2.454   2.315  0.4592  0.2722  0.3491
 3836SOL    HW122970   2.896   2.414   2.296 -0.3728 -1.2772 -0.1356
 3836SOL    HW222971   2.747   2.395   2.276  0.4905  0.8159 -0.5311
 3837SOL     OW22972   1.386   3.687  11.095 -0.5239  0.1304 -0.4565
 3837SOL    HW122973   1.375   3.782  11.107  0.8031  0.1613  0.5481
 3837SOL    HW222974   1.385   3.682  10.999 -1.3867 -1.6289 -0.3516
 3838SOL     OW22975   0.958   4.237   7.630  0.2410  0.3444  0.1121
 3838SOL    HW122976   1.029   4.294   7.602  0.0505  1.2185  1.3995
 3838SOL    HW222977   0.925   4.200   7.548  0.2889  1.2087 -0.2921
 3839SOL     OW22978   3.973   4.197   7.139 -0.1791 -0.0157 -0.4664
 3839SOL    HW122979   3.957   4.210   7.046 -3.1736  2.0565  0.3423
 3839SOL    HW222980   3.888   4.166   7.169 -0.8848  2.6385  0.2281
 3840SOL     OW22981   1.946   0.188   2.328  0.3440  0.2197 -0.5219
 3840SOL    HW122982   1.957   0.138   2.247  2.7701  0.2305 -0.1849
 3840SOL    HW222983   1.863   0.234   2.310 -1.2838 -1.8157  1.8157
 3841SOL     OW22984   4.267   0.908   8.335  0.0005  0.0818  0.1960
 3841SOL    HW122985   4.271   0.814   8.314  0.2006 -0.0999  1.0783
 3841SOL    HW222986   4.337   0.918   8.399  0.7745  0.2005 -0.6747
 3842SOL     OW22987   3.561   0.797   2.373  0.1736  0.3449 -0.4058
 3842SOL    HW122988   3.480   0.803   2.424 -1.0581  0.9226 -2.4305
 3842SOL    HW222989   3.577   0.703   2.379 -1.9741 -0.1687 -2.7159
 3843SOL     OW22990   2.807   0.190   2.576  0.2390 -0.1245 -0.8036
 3843SOL    HW122991   2.858   0.122   2.533  1.3130 -0.8527  1.6335
 3843SOL    HW222992   2.859   0.261   2.537  0.0390 -0.0698 -0.9728
 3844SOL     OW22993   3.874   1.062   1.868  0.3524  0.2458 -0.1920
 3844SOL    HW122994   3.901   1.018   1.787  1.7783 -2.1028  1.5503
 3844SOL    HW222995   3.802   1.119   1.844  1.7985  2.3000  0.3687
 3845SOL     OW22996   0.281   2.657   2.689  0.0749  0.3205 -0.3001
 3845SOL    HW122997   0.345   2.608   2.637  0.8249 -0.2880  1.2100
 3845SOL    HW222998   0.238   2.712   2.623 -0.4491 -0.7697 -0.8725
 3846SOL     OW22999   1.659   1.679  13.057 -1.0139  0.0288 -0.0201
 3846SOL    HW123000   1.576   1.727  13.048 -0.6886  0.6176  0.1444
 3846SOL    HW223001   1.699   1.724  13.131  1.0911 -0.4436 -0.8796
 3847SOL     OW23002   0.795   2.125   5.595  0.2739 -0.1106 -0.5750
 3847SOL    HW123003   0.887   2.110   5.616  0.4833 -1.7036 -2.5871
 3847SOL    HW223004   0.747   2.078   5.663 -0.0886 -0.9775 -1.4321
 3848SOL     OW23005   2.834   2.779   1.087  0.1215 -0.8603 -0.5130
 3848SOL    HW123006   2.825   2.733   1.004 -2.0491 -1.6903  0.1870
 3848SOL    HW223007   2.812   2.714   1.154  1.8686 -1.7517 -0.7855
 3849SOL     OW23008   1.694   2.085   3.630  0.1643 -0.4891  0.3624
 3849SOL    HW123009   1.751   2.056   3.559  0.1153  0.4501 -0.0511
 3849SOL    HW223010   1.642   2.005   3.619 -0.8122  0.0054  1.4465
 3850SOL     OW23011   0.759   4.682   2.140 -0.9666  0.1550  0.2054
 3850SOL    HW123012   0.738   0.040   2.096 -1.8794  0.3452  1.0037
 3850SOL    HW223013   0.789   4.631   2.065  2.9643 -0.7745  2.4099
 3851SOL     OW23014   2.501   0.060   3.199 -0.0816 -0.3461 -0.2613
 3851SOL    HW123015   2.455   0.089   3.277  0.9929 -0.0327  0.2604
 3851SOL    HW223016   2.576   0.120   3.190 -0.9930  1.0098  1.2900
 3852SOL     OW23017   2.911   2.457   1.016 -0.2779 -0.0960  0.0762
 3852SOL    HW123018   2.872   2.516   0.951 -1.1434  0.9853  1.5646
 3852SOL    HW223019   3.000   2.446   0.983  0.3790  1.9722  1.1185
 3853SOL     OW23020   2.876   2.415   3.690 -0.3305  0.4216  0.1479
 3853SOL    HW123021   2.895   2.495   3.640  1.4454 -0.9245 -1.3175
 3853SOL    HW223022   2.885   2.458   3.775 -1.0871 -1.8815  1.3913
 3854SOL     OW23023   0.093   3.404   5.915  0.0951  0.1077 -0.1737
 3854SOL    HW123024   0.060   3.491   5.894  1.8327  0.3907 -1.7449
 3854SOL    HW223025   0.154   3.395   5.841  1.0448 -1.9190  0.8641
 3855SOL     OW23026   0.543   2.725   3.704  0.1026 -0.4130  0.1580
 3855SOL    HW123027   0.597   2.777   3.763  0.2296  2.9441 -2.9753
 3855SOL    HW223028   0.512   2.794   3.645 -0.6334  0.2687  1.3387
 3856SOL     OW23029   0.740   2.748   2.889  0.0058  0.4986 -0.0029
 3856SOL    HW123030   0.704   2.666   2.857  1.8118  0.2954 -1.5253
 3856SOL    HW223031   0.797   2.769   2.815  0.0172 -0.4868 -0.2680
 3857SOL     OW23032   0.117   2.032   1.781 -0.2810  0.1411  0.4808
 3857SOL    HW123033   0.129   1.938   1.768  0.1116  0.2488  0.0681
 3857SOL    HW223034   0.203   2.062   1.812 -0.6457  1.7204 -0.0297
 3858SOL     OW23035   1.536   0.521   4.517  0.1856  0.2127  0.1598
 3858SOL    HW123036   1.559   0.459   4.586  0.7428  0.8612  0.5498
 3858SOL    HW223037   1.548   0.603   4.565 -2.5543  0.4474  0.4757
 3859SOL     OW23038   1.434   3.366   4.904 -0.1786 -0.2497 -0.9964
 3859SOL    HW123039   1.382   3.328   4.834  2.5817 -0.1983 -3.1188
 3859SOL    HW223040   1.509   3.393   4.851  1.0426  2.3662  2.0816
 3860SOL     OW23041   2.314   2.378  17.395 -0.1999  0.0148  0.2011
 3860SOL    HW123042   2.289   2.444  17.330 -1.4096 -0.7500 -0.0950
 3860SOL    HW223043   2.304   2.421  17.480  0.0857 -0.5918  0.5390
 3861SOL     OW23044   0.082   4.208   2.893 -0.1405  0.1916 -0.9229
 3861SOL    HW123045   0.003   4.214   2.840 -1.3139 -0.4199  0.7448
 3861SOL    HW223046   0.078   4.113   2.907 -3.7557 -0.0809 -3.7277
 3862SOL     OW23047   0.695   4.047  16.210  0.7347 -0.9626 -0.0323
 3862SOL    HW123048   0.652   3.974  16.167  0.5023 -1.6388  1.3274
 3862SOL    HW223049   0.717   4.003  16.293 -0.8588  0.0090  0.9202
 3863SOL     OW23050   2.889   3.873   1.785  0.5894  0.1484 -0.3818
 3863SOL    HW123051   2.797   3.899   1.791  0.3679 -1.3792  3.1752
 3863SOL    HW223052   2.925   3.943   1.839 -1.4392  0.1879  0.9177
 3864SOL     OW23053   2.549   4.390   9.911  0.0786  0.1228  0.1315
 3864SOL    HW123054   2.629   4.394   9.964  1.6067  1.8533 -2.2507
 3864SOL    HW223055   2.576   4.442   9.835 -0.2880  1.4486  0.9085
 3865SOL     OW23056   0.958   4.211  10.278 -0.2112  0.0223  0.0429
 3865SOL    HW123057   0.882   4.266  10.260 -0.1626  1.3517  4.0252
 3865SOL    HW223058   0.931   4.130  10.234  0.0606  1.2932 -2.4820
 3866SOL     OW23059   2.703   1.398   9.033  0.2090  0.4986  0.3319
 3866SOL    HW123060   2.666   1.311   9.049 -0.0162  0.3059 -1.2800
 3866SOL    HW223061   2.783   1.370   8.989  0.2443 -0.0906  0.7693
 3867SOL     OW23062   4.222   2.633  15.451 -0.1848 -0.4115 -0.5639
 3867SOL    HW123063   4.257   2.545  15.434  0.3619 -0.2355 -0.3709
 3867SOL    HW223064   4.302   2.670  15.489 -1.4547 -0.1867  1.8838
 3868SOL     OW23065   0.588   2.621   4.409  0.2067 -0.1542 -0.0529
 3868SOL    HW123066   0.510   2.606   4.356 -0.0299 -1.1543  0.5873
 3868SOL    HW223067   0.625   2.700   4.369  0.5169  0.2900  1.1086
 3869SOL     OW23068   1.073   3.842  15.783 -0.3108 -0.7503  0.0898
 3869SOL    HW123069   0.978   3.832  15.785 -0.5276  1.1323 -0.4308
 3869SOL    HW223070   1.078   3.929  15.824 -0.9790 -0.5864 -0.1814
 3870SOL     OW23071   2.620   3.616   6.814  0.2174  0.1367 -0.2505
 3870SOL    HW123072   2.680   3.542   6.806 -0.2991 -0.3394  0.3106
 3870SOL    HW223073   2.533   3.576   6.824  0.4339 -0.3525 -0.3590
 3871SOL     OW23074   3.185   2.977   4.935  0.4567  0.1207  0.1268
 3871SOL    HW123075   3.268   2.949   4.973 -0.4890 -1.0746  1.2997
 3871SOL    HW223076   3.143   2.901   4.895 -1.1767  0.2599  1.5889
 3872SOL     OW23077   4.257   3.276  15.557  0.4039 -0.1030  0.5411
 3872SOL    HW123078   4.325   3.214  15.583 -0.8864 -1.9502 -0.5326
 3872SOL    HW223079   4.283   3.282  15.465 -1.0860 -1.8311  0.0097
 3873SOL     OW23080   2.360   1.949   8.584 -0.4878  0.4616 -0.2465
 3873SOL    HW123081   2.352   1.905   8.500  2.6699  0.5251 -0.5870
 3873SOL    HW223082   2.271   1.932   8.615 -1.4018  0.5587 -2.8845
 3874SOL     OW23083   3.555   1.527   3.923  0.4947  0.2839 -0.1876
 3874SOL    HW123084   3.505   1.541   4.003 -0.7052 -0.4101 -0.8121
 3874SOL    HW223085   3.638   1.570   3.943  1.1351 -1.0126 -0.1301
 3875SOL     OW23086   2.773   1.856   5.479  0.0947 -0.2584  0.2945
 3875SOL    HW123087   2.695   1.818   5.439  0.6188 -0.3555 -0.6200
 3875SOL    HW223088   2.731   1.919   5.537  1.5937  2.3358 -1.4417
 3876SOL     OW23089   2.058   3.450  15.865  0.2239  0.2683  0.7463
 3876SOL    HW123090   1.967   3.478  15.869  0.6456  2.2550 -3.7101
 3876SOL    HW223091   2.080   3.437  15.773  0.5297  3.7786  0.3031
 3877SOL     OW23092   2.065   1.660   8.397  0.7071 -0.4020 -0.4069
 3877SOL    HW123093   1.982   1.674   8.442  0.4778  2.6722 -1.7642
 3877SOL    HW223094   2.030   1.662   8.307 -1.1999 -0.0780  0.3357
 3878SOL     OW23095   3.374   2.988   1.312 -0.6572  0.1776  0.2536
 3878SOL    HW123096   3.313   2.915   1.324  0.5906 -0.9419 -0.3166
 3878SOL    HW223097   3.430   2.957   1.241 -4.7279  0.0093 -2.8637
 3879SOL     OW23098   0.547   1.129  12.839  0.1157  0.1979 -0.6993
 3879SOL    HW123099   0.626   1.115  12.786  0.6507  1.6492 -0.2912
 3879SOL    HW223100   0.526   1.036  12.842  0.7069  0.0386 -1.3508
 3880SOL     OW23101   2.624   2.488  16.674  0.3236 -0.1966 -0.1209
 3880SOL    HW123102   2.674   2.464  16.596  0.7970  3.1247 -0.8283
 3880SOL    HW223103   2.696   2.534  16.717 -2.0741  2.8196  0.6940
 3881SOL     OW23104   2.482   0.526   6.338 -0.2709  0.3466  0.5847
 3881SOL    HW123105   2.484   0.603   6.281  0.1810 -0.1615 -0.0842
 3881SOL    HW223106   2.406   0.544   6.393  0.4142 -1.5106  2.1601
 3882SOL     OW23107   1.400   4.300   8.301  0.3467  0.0256 -0.6521
 3882SOL    HW123108   1.428   4.381   8.258 -0.3128 -0.4850 -2.0288
 3882SOL    HW223109   1.307   4.315   8.320  0.0898 -1.7513 -0.5650
 3883SOL     OW23110   2.620   0.005  15.388 -0.2644  0.1616  0.6265
 3883SOL    HW123111   2.669   0.039  15.464 -0.8056 -0.0362  1.0669
 3883SOL    HW223112   2.685   4.667  15.355  0.5302  0.6565  1.2615
 3884SOL     OW23113   3.202   1.636   0.183  0.2231 -0.9601 -0.3593
 3884SOL    HW123114   3.263   1.563   0.168  0.3093 -0.9137 -0.2402
 3884SOL    HW223115   3.203   1.631   0.279  1.6902  3.5852 -0.1138
 3885SOL     OW23116   2.149   0.884   5.727 -0.6225 -0.4497  0.0027
 3885SOL    HW123117   2.080   0.834   5.771 -1.1376 -0.0870 -0.4027
 3885SOL    HW223118   2.206   0.810   5.704  0.1831  0.6492 -1.5586
 3886SOL     OW23119   2.526   2.016  13.505  0.0670 -0.1332  0.5449
 3886SOL    HW123120   2.606   1.965  13.499  0.5298  0.4682  1.5464
 3886SOL    HW223121   2.509   2.012  13.599  0.0402 -0.4369  0.5247
 3887SOL     OW23122   1.213   2.856   6.635  0.4628  0.3048 -0.3356
 3887SOL    HW123123   1.163   2.921   6.585  0.8843  0.0220 -1.1256
 3887SOL    HW223124   1.207   2.897   6.721 -0.1779 -3.6672  1.5008
 3888SOL     OW23125   4.433   1.535   7.957  0.1897 -0.0707 -0.5122
 3888SOL    HW123126   4.429   1.626   7.988  1.5795 -0.2049  0.0790
 3888SOL    HW223127   4.474   1.546   7.871  0.4367 -1.1880 -0.5390
 3889SOL     OW23128   3.168   0.218   2.639 -0.2006 -0.0160 -0.2810
 3889SOL    HW123129   3.207   0.285   2.582 -1.6385 -0.5766 -1.9405
 3889SOL    HW223130   3.131   0.150   2.582  0.6934 -1.1951  0.5582
 3890SOL     OW23131   2.030   1.508   0.804  0.0135  0.6642  1.1416
 3890SOL    HW123132   2.084   1.496   0.882 -1.3038 -0.5622  1.8651
 3890SOL    HW223133   2.051   1.423   0.764 -1.1678  0.1331  1.6688
 3891SOL     OW23134   2.900   4.717   4.152  0.1153 -0.2416  0.1405
 3891SOL    HW123135   2.879   0.085   4.131 -1.7304 -0.7598 -0.2385
 3891SOL    HW223136   2.983   0.003   4.198  0.2817 -3.3086  0.4713
 3892SOL     OW23137   2.002   3.949   5.028  0.5149  0.1006 -0.1158
 3892SOL    HW123138   1.953   3.935   5.109 -2.6107  2.0739 -1.6640
 3892SOL    HW223139   1.943   3.907   4.966  1.0136  1.6752 -1.6238
 3893SOL     OW23140   0.463   0.329   4.126  0.2753  0.6605  0.0444
 3893SOL    HW123141   0.473   0.268   4.053 -0.7595  0.4570  0.0726
 3893SOL    HW223142   0.430   0.403   4.076  1.4816  0.1024 -1.5859
 3894SOL     OW23143   3.298   4.333  16.083 -0.3679  0.1071  0.0152
 3894SOL    HW123144   3.351   4.275  16.028 -0.6288 -0.1063 -0.0099
 3894SOL    HW223145   3.350   4.359  16.159  0.6068 -0.1537 -0.5593
 3895SOL     OW23146   1.523   2.747   7.665  0.4929  0.0704  0.2308
 3895SOL    HW123147   1.493   2.714   7.749  2.0908  1.7387  1.4552
 3895SOL    HW223148   1.553   2.837   7.680  0.2930 -0.0139  1.1317
 3896SOL     OW23149   3.027   2.958   3.694  0.3761  0.2069 -0.0936
 3896SOL    HW123150   2.970   2.985   3.622  0.5963  0.0016 -0.3421
 3896SOL    HW223151   3.067   2.879   3.660 -1.5721 -1.6406  1.8844
 3897SOL     OW23152   0.097   2.652  15.801 -0.4977  0.8326  0.0978
 3897SOL    HW123153   0.070   2.665  15.710  2.9053 -2.2210 -1.3480
 3897SOL    HW223154   0.187   2.622  15.788 -0.6564 -0.5171  2.2256
 3898SOL     OW23155   1.383   4.225   7.231  0.3839  0.0743  0.0523
 3898SOL    HW123156   1.346   4.311   7.248 -1.2390 -0.3388 -1.4409
 3898SOL    HW223157   1.300   4.178   7.224  1.2135 -1.4173  0.2477
 3899SOL     OW23158   1.934   1.599  14.954  0.0708 -0.1610  0.3326
 3899SOL    HW123159   1.970   1.511  14.966 -1.1943 -0.7245 -0.0195
 3899SOL    HW223160   1.854   1.577  14.906  0.4273  1.9374 -1.2141
 3900SOL     OW23161   4.185   3.281  11.603  0.4165 -0.1884  0.0367
 3900SOL    HW123162   4.137   3.308  11.681 -0.5402  0.8780 -0.9150
 3900SOL    HW223163   4.152   3.341  11.536  0.0859 -1.4463 -0.9317
 3901SOL     OW23164   2.284   0.173  12.093  0.5084  0.3407  0.2351
 3901SOL    HW123165   2.352   0.199  12.031  1.5705 -2.0836  0.3793
 3901SOL    HW223166   2.288   0.077  12.097 -0.0779  0.4121  2.5853
 3902SOL     OW23167   3.366   3.608   4.682 -0.3875  0.1155  0.4889
 3902SOL    HW123168   3.327   3.676   4.628 -2.4714 -2.0335 -0.6675
 3902SOL    HW223169   3.308   3.620   4.758  0.4911  2.0304  0.8766
 3903SOL     OW23170   2.922   1.489   3.376  0.2566 -0.6066  0.0923
 3903SOL    HW123171   2.901   1.526   3.462  0.0368  0.0304 -0.2318
 3903SOL    HW223172   2.977   1.416   3.403 -2.3863 -1.1780  3.8227
 3904SOL     OW23173   2.915   2.719   6.418 -0.0149 -0.3684  0.3572
 3904SOL    HW123174   2.893   2.767   6.498  0.7707  0.6412 -0.0405
 3904SOL    HW223175   2.902   2.629   6.450 -0.0936 -0.8922 -1.1536
 3905SOL     OW23176   0.807   0.782   8.903 -0.5957  0.3265  0.3382
 3905SOL    HW123177   0.866   0.754   8.973  1.3505  0.1295 -1.3993
 3905SOL    HW223178   0.772   0.864   8.938 -3.1777 -0.1087 -1.1823
 3906SOL     OW23179   0.700   3.117  12.561  0.2996 -0.4876 -0.1450
 3906SOL    HW123180   0.643   3.118  12.484 -0.1479  0.6736  0.1963
 3906SOL    HW223181   0.696   3.023  12.578  0.0949 -0.4693 -0.0925
 3907SOL     OW23182   1.515   4.421   2.416 -0.1571 -0.1827 -0.3465
 3907SOL    HW123183   1.608   4.401   2.408  0.2009  2.0276 -1.8322
 3907SOL    HW223184   1.481   4.380   2.495  2.0057 -0.6129  0.3373
 3908SOL     OW23185   4.531   1.246  10.214  0.3476  0.6190  0.3806
 3908SOL    HW123186   4.619   1.210  10.215  0.9012  1.7668 -5.1023
 3908SOL    HW223187   4.543   1.338  10.239 -0.5535  0.6821  0.6089
 3909SOL     OW23188   2.477   4.541   4.152 -0.0715 -0.6807  0.0529
 3909SOL    HW123189   2.487   4.489   4.073  2.0643  1.6974 -1.2127
 3909SOL    HW223190   2.517   4.624   4.127  0.8265 -0.4012  2.4016
 3910SOL     OW23191   0.592   1.470  15.464 -0.1832  0.1092 -0.5339
 3910SOL    HW123192   0.681   1.449  15.493  0.0220 -0.4912 -1.6021
 3910SOL    HW223193   0.552   1.496  15.547 -1.2578 -0.7200 -0.7875
 3911SOL     OW23194   1.229   1.888   1.095  0.5575  0.0012  0.3948
 3911SOL    HW123195   1.234   1.954   1.026  0.9492 -0.0287  0.3957
 3911SOL    HW223196   1.280   1.926   1.166 -0.6489 -1.4424  2.0203
 3912SOL     OW23197   2.484   0.551   5.964  0.5568  0.2568  0.3392
 3912SOL    HW123198   2.452   0.606   6.036  0.7349 -0.9668  1.3511
 3912SOL    HW223199   2.523   0.620   5.910  0.7534 -0.6374 -0.6682
 3913SOL     OW23200   2.991   1.143   3.375 -0.3761 -0.1836 -0.4384
 3913SOL    HW123201   3.083   1.135   3.401 -0.5529 -1.5703 -0.2403
 3913SOL    HW223202   2.953   1.122   3.460  0.1924 -0.1514 -0.1816
 3914SOL     OW23203   1.644   1.552  14.027  0.0909  0.5328 -0.3286
 3914SOL    HW123204   1.622   1.644  14.041 -0.8161  0.1428  0.6966
 3914SOL    HW223205   1.740   1.548  14.035  0.0847 -2.3939 -1.6507
 3915SOL     OW23206   2.116   3.368   1.431 -0.0442  0.4147  0.0262
 3915SOL    HW123207   2.129   3.420   1.352  2.3156 -2.6626 -1.6368
 3915SOL    HW223208   2.053   3.301   1.404  0.6867 -0.6566  1.0056
 3916SOL     OW23209   0.728   1.535   7.122 -0.1006  0.9804 -0.3899
 3916SOL    HW123210   0.741   1.550   7.215  2.7512 -0.7805 -0.4998
 3916SOL    HW223211   0.683   1.614   7.092 -1.2125  0.3089 -0.5317
 3917SOL     OW23212   0.375   1.388   2.265 -0.5346  0.2825 -0.3702
 3917SOL    HW123213   0.373   1.452   2.195  1.4283  0.1291 -0.5704
 3917SOL    HW223214   0.443   1.326   2.237  1.7587  1.8190  1.7122
 3918SOL     OW23215   1.068   2.092   4.499 -0.1404 -0.3928 -0.0999
 3918SOL    HW123216   1.085   2.061   4.410 -0.3730  1.1709 -0.6798
 3918SOL    HW223217   1.157   2.094   4.534  1.0699 -2.4453 -3.0379
 3919SOL     OW23218   1.254   1.620   8.613  0.2886 -0.7181 -0.6700
 3919SOL    HW123219   1.212   1.672   8.545 -2.3946 -0.3413  1.2879
 3919SOL    HW223220   1.214   1.680   8.677 -1.4596 -2.0257 -0.5463
 3920SOL     OW23221   1.978   0.508   1.223  0.7312  0.7777 -0.1218
 3920SOL    HW123222   1.975   0.468   1.136  1.3044  1.0370 -0.2633
 3920SOL    HW223223   1.972   0.603   1.211 -0.7799  0.3909 -2.4674
 3921SOL     OW23224   1.954   2.578  12.994  0.3480 -0.4252 -0.3550
 3921SOL    HW123225   1.997   2.594  13.078  1.7858  0.0609 -1.1759
 3921SOL    HW223226   1.863   2.585  13.021  0.6274 -1.9268  0.9803
 3922SOL     OW23227   1.504   2.082   7.182  0.1483 -0.0414  0.0990
 3922SOL    HW123228   1.524   2.066   7.275 -2.5082 -0.6927  0.5763
 3922SOL    HW223229   1.569   2.023   7.144  2.5580  0.8497  2.8557
 3923SOL     OW23230   0.152   1.422  16.596 -0.1410  0.1571  0.4178
 3923SOL    HW123231   0.150   1.396  16.688 -0.1856 -0.5043  0.2306
 3923SOL    HW223232   0.079   1.484  16.595  0.7813  1.2281  0.8795
 3924SOL     OW23233   4.378   2.005   8.229 -0.6845 -0.7535 -0.1671
 3924SOL    HW123234   4.351   2.018   8.320 -0.7687 -0.8989 -0.1712
 3924SOL    HW223235   4.326   2.073   8.187 -1.8432 -0.7489  1.2969
 3925SOL     OW23236   4.205   4.343   2.177 -1.3702  0.0702  0.6779
 3925SOL    HW123237   4.144   4.413   2.200 -0.2405  0.3927  2.6267
 3925SOL    HW223238   4.255   4.384   2.107 -1.4670  0.0653  0.6051
 3926SOL     OW23239   1.820   0.546   9.491 -0.4141  0.1239  0.0357
 3926SOL    HW123240   1.888   0.608   9.520  0.0200 -0.4595  0.2680
 3926SOL    HW223241   1.794   0.510   9.575  1.6982 -0.2376  0.5488
 3927SOL     OW23242   1.461   4.694   5.143  0.3735  0.3753 -0.1187
 3927SOL    HW123243   1.483   0.033   5.073 -0.9210  1.3854  0.3691
 3927SOL    HW223244   1.385   4.661   5.095  1.1078  0.6265 -1.4662
 3928SOL     OW23245   2.256   1.444  14.874 -0.0167  0.2717 -0.4932
 3928SOL    HW123246   2.212   1.455  14.959  0.0360 -3.2606  0.0168
 3928SOL    HW223247   2.269   1.350  14.861 -1.0514  0.0374  0.1296
 3929SOL     OW23248   0.762   1.910   2.942  0.4712  0.5847  0.5901
 3929SOL    HW123249   0.707   1.977   2.983  0.9148  0.1382  1.8952
 3929SOL    HW223250   0.762   1.847   3.013  1.2481 -0.2854 -0.1886
 3930SOL     OW23251   3.585   4.093   7.387  0.1685  0.3786  0.6130
 3930SOL    HW123252   3.616   4.134   7.468 -0.9125 -0.6968  1.5677
 3930SOL    HW223253   3.491   4.088   7.404  0.0666  0.8369  0.1820
 3931SOL     OW23254   3.379   3.080  14.870 -0.4382  0.2061 -0.5890
 3931SOL    HW123255   3.385   3.064  14.964 -1.7922  0.7281 -0.4174
 3931SOL    HW223256   3.284   3.088  14.865 -0.6750 -1.9757  0.1836
 3932SOL     OW23257   2.997   0.939  14.378 -0.3076 -0.8149  0.4691
 3932SOL    HW123258   3.060   0.937  14.306  0.0724  2.8303  0.7183
 3932SOL    HW223259   2.919   0.895  14.341 -1.7915  2.0460  0.2156
 3933SOL     OW23260   0.498   3.073  16.675  1.0348  0.3386 -0.0008
 3933SOL    HW123261   0.551   2.993  16.669  0.1264 -0.0988 -1.9189
 3933SOL    HW223262   0.426   3.046  16.619  0.5055  3.7076 -0.9577
 3934SOL     OW23263   3.492   2.915  10.894 -0.0070  0.2944 -0.1566
 3934SOL    HW123264   3.567   2.858  10.877  0.3481  1.2703 -1.8928
 3934SOL    HW223265   3.427   2.862  10.939  0.1765  0.2541  0.0562
 3935SOL     OW23266   2.414   2.582   1.979 -0.1167  0.8653 -0.1431
 3935SOL    HW123267   2.440   2.566   2.070  1.3131 -0.6636 -0.8318
 3935SOL    HW223268   2.470   2.657   1.958 -0.2094  0.3606 -2.1781
 3936SOL     OW23269   0.525   3.991   2.190 -0.8375 -0.0588 -0.0969
 3936SOL    HW123270   0.551   3.954   2.106 -2.0220  0.2847 -0.6190
 3936SOL    HW223271   0.433   3.963   2.187 -0.4724 -1.1333 -1.1848
 3937SOL     OW23272   4.593   1.463   8.740  0.0555 -0.7076 -0.4759
 3937SOL    HW123273   4.653   1.515   8.686 -1.0685  1.8257  0.7402
 3937SOL    HW223274   4.507   1.483   8.705  0.7923  1.3600 -1.1272
 3938SOL     OW23275   3.002   2.800   9.610  0.8084 -0.1942  0.0273
 3938SOL    HW123276   2.995   2.712   9.573 -1.0289  0.2562 -0.6870
 3938SOL    HW223277   2.912   2.827   9.593  0.5448 -0.9361  0.2681
 3939SOL     OW23278   0.900   2.748   7.176 -0.4169  0.0265  0.4267
 3939SOL    HW123279   0.989   2.739   7.141 -0.5934  1.2303 -0.3431
 3939SOL    HW223280   0.920   2.813   7.243  0.8122 -1.6084  1.6569
 3940SOL     OW23281   1.587   3.657   3.047 -0.3971 -0.6962  0.0719
 3940SOL    HW123282   1.590   3.750   3.067  0.2592 -0.4257 -1.3443
 3940SOL    HW223283   1.663   3.658   2.989 -0.7424  0.8689 -0.3474
 3941SOL     OW23284   4.111   2.754   0.124  0.0549 -0.0850 -0.0530
 3941SOL    HW123285   4.138   2.831   0.074  0.1272  1.8062  2.9333
 3941SOL    HW223286   4.198   2.720   0.143  0.2321 -0.7631 -1.9935
 3942SOL     OW23287   1.630   3.445   1.054  0.0441  0.4802 -0.1297
 3942SOL    HW123288   1.596   3.534   1.049 -1.6179 -0.0904  1.1310
 3942SOL    HW223289   1.577   3.417   1.129 -0.2233 -1.3239 -1.0127
 3943SOL     OW23290   4.410   1.584   5.530  0.0953  0.2541 -0.3754
 3943SOL    HW123291   4.315   1.593   5.521  0.1610  2.6418  1.3817
 3943SOL    HW223292   4.434   1.533   5.452  2.0194 -1.8715  1.6311
 3944SOL     OW23293   4.616   3.918   8.380  0.1082  0.6933 -0.5785
 3944SOL    HW123294   4.619   3.826   8.353  2.4740  0.5375  0.2442
 3944SOL    HW223295   4.636   3.908   8.474  1.6923 -0.9347 -1.0792
 3945SOL     OW23296   4.708   0.636   0.932 -0.0905  0.0201  0.1129
 3945SOL    HW123297   4.703   0.542   0.949 -1.0612  0.1749  0.7313
 3945SOL    HW223298   0.064   0.640   0.880 -1.8295 -0.1842 -2.5551
 3946SOL     OW23299   2.983   2.827   4.689  0.3264 -0.3161 -0.3911
 3946SOL    HW123300   3.018   2.761   4.749 -0.5584 -1.0488 -0.6871
 3946SOL    HW223301   3.034   2.818   4.608 -0.0931 -0.0723 -0.6827
 3947SOL     OW23302   0.053   0.125   6.271  0.0537 -0.2359 -0.0706
 3947SOL    HW123303   0.095   0.041   6.253  0.9594 -0.5132  3.4757
 3947SOL    HW223304   4.694   0.110   6.226  0.7583 -0.4486 -1.2995
 3948SOL     OW23305   0.031   4.401   6.092 -0.4603  0.3214  0.2631
 3948SOL    HW123306   0.086   4.405   6.014 -0.7082  1.5017  0.1468
 3948SOL    HW223307   4.690   4.340   6.057  1.6313  0.2666 -3.4178
 3949SOL     OW23308   2.408   3.089   2.882 -0.1310  0.5399  0.0237
 3949SOL    HW123309   2.469   3.089   2.956 -0.6969  0.4691  0.4896
 3949SOL    HW223310   2.395   2.995   2.870 -1.4214  0.5910  0.9369
 3950SOL     OW23311   4.659   0.989  11.117  0.4406  0.0734 -0.0255
 3950SOL    HW123312   4.610   1.015  11.195 -0.1064 -1.4733  0.1405
 3950SOL    HW223313   4.604   1.017  11.044  0.9237 -0.1325 -0.4748
 3951SOL     OW23314   1.863   2.712   7.812  0.1342 -0.3181 -0.2215
 3951SOL    HW123315   1.952   2.686   7.833 -0.7841 -1.8171  1.7839
 3951SOL    HW223316   1.873   2.805   7.794 -2.3460 -0.2488 -1.3173
 3952SOL     OW23317   2.712   2.553   1.516 -0.2951  0.2759 -0.1749
 3952SOL    HW123318   2.677   2.635   1.552  1.1262  1.7883 -2.3103
 3952SOL    HW223319   2.716   2.495   1.592  1.0041 -0.4611 -0.8112
 3953SOL     OW23320   3.174   3.238  15.055  0.4208 -0.5143 -0.0302
 3953SOL    HW123321   3.148   3.225  15.145  1.5573 -1.1694  0.2000
 3953SOL    HW223322   3.263   3.272  15.066  0.2285 -0.3930  1.0662
 3954SOL     OW23323   0.162   1.451  16.880  0.2539  1.1786  0.2941
 3954SOL    HW123324   0.077   1.494  16.886  0.3137  1.6562 -2.4088
 3954SOL    HW223325   0.135   1.360  16.885 -1.5993  1.6451 -1.3440
 3955SOL     OW23326   4.708   1.231   8.793 -0.5496 -0.0309 -0.0352
 3955SOL    HW123327   4.676   1.321   8.796  0.7363  0.3699  1.4612
 3955SOL    HW223328   0.074   1.247   8.821 -0.3497 -1.1273 -0.0621
 3956SOL     OW23329   1.895   3.746   8.850 -0.2785 -0.2060 -0.3327
 3956SOL    HW123330   1.816   3.701   8.879  0.1055 -0.0561  0.9277
 3956SOL    HW223331   1.943   3.745   8.932  2.4395  0.0665 -1.9351
 3957SOL     OW23332   3.315   2.732   2.680  0.4966  0.6180  0.7477
 3957SOL    HW123333   3.301   2.638   2.688 -1.2717  0.8409  0.2804
 3957SOL    HW223334   3.403   2.746   2.716  0.9113 -0.0799  0.0049
 3958SOL     OW23335   2.164   1.281   0.687 -0.4254  0.9643  0.3559
 3958SOL    HW123336   2.257   1.280   0.710 -1.0226  1.9928  2.8160
 3958SOL    HW223337   2.169   1.257   0.594 -2.4884  2.0970 -0.0550
 3959SOL     OW23338   1.970   0.973   5.989 -0.2649  0.3584  0.1889
 3959SOL    HW123339   1.919   1.043   6.031  0.1823 -0.1793  1.6140
 3959SOL    HW223340   1.900   0.908   5.983  1.7853 -1.6414 -2.0288
 3960SOL     OW23341   0.590   1.678  15.286  0.5101  0.2411  0.0477
 3960SOL    HW123342   0.659   1.640  15.230  1.6534  3.1577 -0.4994
 3960SOL    HW223343   0.594   1.607  15.350 -1.1226  0.7464  0.6957
 3961SOL     OW23344   4.125   2.838   9.899 -0.0487 -0.1268  0.3291
 3961SOL    HW123345   4.113   2.743   9.896  0.4665 -0.1986  0.5037
 3961SOL    HW223346   4.034   2.864   9.885  0.2763  0.8441  0.0189
 3962SOL     OW23347   1.055   3.896   1.644  0.3728  0.7012  0.1800
 3962SOL    HW123348   1.145   3.916   1.669  1.2972 -2.0729 -0.9752
 3962SOL    HW223349   1.009   3.973   1.679 -2.5281 -1.6726  1.5918
 3963SOL     OW23350   3.446   4.233   1.844  0.2194  0.3151  0.1554
 3963SOL    HW123351   3.386   4.163   1.868 -0.7965  1.9232  2.2629
 3963SOL    HW223352   3.390   4.307   1.819 -1.3747 -1.1916 -0.7307
 3964SOL     OW23353   2.033   1.827  14.620 -0.0566 -0.7571 -0.2029
 3964SOL    HW123354   1.965   1.854  14.681 -0.6456 -1.0850 -0.7153
 3964SOL    HW223355   2.022   1.897  14.555 -0.8148  0.0877  0.8310
 3965SOL     OW23356   4.109   0.787   4.928 -0.1097  0.0067  0.1080
 3965SOL    HW123357   4.109   0.702   4.883 -2.3408 -0.2991  0.7132
 3965SOL    HW223358   4.177   0.781   4.994 -0.4602  0.7620  0.5370
 3966SOL     OW23359   4.244   3.934   5.740  0.1316 -0.3183 -0.3664
 3966SOL    HW123360   4.228   3.906   5.830  1.7522 -1.3062 -0.3965
 3966SOL    HW223361   4.272   3.850   5.705 -1.7937 -0.4853 -1.4915
 3967SOL     OW23362   3.606   0.691   3.733  0.0312 -0.0668  0.4383
 3967SOL    HW123363   3.678   0.630   3.717 -0.2213 -0.4962  0.9447
 3967SOL    HW223364   3.542   0.638   3.687  0.2359 -0.1444  0.2450
 3968SOL     OW23365   1.795   2.501   4.538 -0.3527  0.1228 -0.0582
 3968SOL    HW123366   1.720   2.521   4.482  0.6180  1.8901 -0.7097
 3968SOL    HW223367   1.808   2.580   4.591 -1.2702  1.0327 -1.2136
 3969SOL     OW23368   1.538   1.192   2.940 -0.1943 -0.3117  0.2423
 3969SOL    HW123369   1.519   1.255   2.870 -2.1029 -2.2398 -0.9679
 3969SOL    HW223370   1.481   1.119   2.917 -0.6746  0.4425 -0.9740
 3970SOL     OW23371   3.263   0.539  14.231  0.2004 -0.5466  0.0853
 3970SOL    HW123372   3.305   0.569  14.150 -0.6705 -0.2161 -0.2451
 3970SOL    HW223373   3.232   0.619  14.273 -0.8846 -1.4915  1.0798
 3971SOL     OW23374   2.311   4.594  12.360  0.4028  0.0173 -0.0440
 3971SOL    HW123375   2.314   4.685  12.389 -0.7140  0.7035 -2.1255
 3971SOL    HW223376   2.313   4.543  12.441  1.4022 -1.7484 -1.1729
 3972SOL     OW23377   3.584   0.927   5.664  0.3599 -0.2767 -0.0787
 3972SOL    HW123378   3.488   0.927   5.669  0.4309 -1.1204  1.1584
 3972SOL    HW223379   3.585   0.931   5.568 -1.4659  2.5997  0.0069
 3973SOL     OW23380   2.295   1.716  12.709  0.5223  0.7508  0.2143
 3973SOL    HW123381   2.371   1.768  12.734  0.6140  0.0862  1.3152
 3973SOL    HW223382   2.329   1.647  12.652  1.0982  1.0163  0.2363
 3974SOL     OW23383   4.183   2.906   1.329 -0.4727 -0.4033  0.0785
 3974SOL    HW123384   4.169   2.820   1.289 -0.3581  0.6609 -2.2237
 3974SOL    HW223385   4.123   2.951   1.269 -1.0075 -0.8789  0.2521
 3975SOL     OW23386   4.551   4.491   7.712 -0.5994  0.7767 -0.2789
 3975SOL    HW123387   4.471   4.478   7.661  1.1333 -2.1268 -2.2153
 3975SOL    HW223388   4.532   4.437   7.789  0.7234  0.5479 -0.1156
 3976SOL     OW23389   1.158   4.208   8.141  0.2685 -0.4788 -0.4220
 3976SOL    HW123390   1.138   4.184   8.051 -0.9424 -0.2942 -0.1964
 3976SOL    HW223391   1.076   4.232   8.184  0.3634 -0.2261 -0.3783
 3977SOL     OW23392   3.606   1.129  12.251 -0.1008  0.3332 -0.3905
 3977SOL    HW123393   3.681   1.073  12.271 -0.8773 -1.0007 -1.1760
 3977SOL    HW223394   3.556   1.066  12.198 -1.9329  2.8004 -1.5696
 3978SOL     OW23395   0.907   0.358  12.991 -0.1829 -0.3207  0.0835
 3978SOL    HW123396   0.869   0.280  12.952 -1.1314  0.0927  0.1972
 3978SOL    HW223397   0.960   0.379  12.914  2.9294 -2.5545  1.6323
 3979SOL     OW23398   0.242   3.447   3.400 -0.1650 -0.2677 -0.3439
 3979SOL    HW123399   0.173   3.512   3.387  0.4757  0.5199  0.1194
 3979SOL    HW223400   0.209   3.394   3.473 -0.0106  2.4409  1.6998
 3980SOL     OW23401   4.642   2.313   4.370 -0.2293 -0.0951  0.4880
 3980SOL    HW123402   4.599   2.333   4.287  0.7115 -0.7519 -0.1436
 3980SOL    HW223403   4.569   2.321   4.432  0.2238 -3.5115  1.4724
 3981SOL     OW23404   2.534   3.632   8.689  0.7559  0.0568  0.3897
 3981SOL    HW123405   2.447   3.662   8.662  0.9193  0.0769 -0.0999
 3981SOL    HW223406   2.523   3.674   8.775 -3.1099 -0.0777 -0.0167
 3982SOL     OW23407   0.872   3.312   6.216  0.1105 -0.3823 -0.0136
 3982SOL    HW123408   0.856   3.389   6.271 -0.9042 -0.0687 -0.7419
 3982SOL    HW223409   0.781   3.281   6.211  0.9587 -2.9049  0.2766
 3983SOL     OW23410   0.057   2.389   0.373  0.4522  0.1960 -0.1329
 3983SOL    HW123411   0.141   2.353   0.401 -0.1692 -1.0095  0.1856
 3983SOL    HW223412   0.069   2.481   0.352  1.6445  0.1382  0.2970
 3984SOL     OW23413   4.563   0.945   5.836 -0.1027 -0.3754 -0.2862
 3984SOL    HW123414   4.536   0.966   5.746 -2.2577 -0.0163  0.4460
 3984SOL    HW223415   4.523   1.022   5.877  0.5532 -0.9795  1.4848
 3985SOL     OW23416   4.473   4.178   6.664  0.6610 -0.3381  0.5322
 3985SOL    HW123417   4.403   4.120   6.695 -0.7690  0.3109 -1.5125
 3985SOL    HW223418   4.423   4.254   6.634  1.8000  0.1820 -0.0635
 3986SOL     OW23419   4.032   2.468  16.464 -0.6476 -0.3032  0.2614
 3986SOL    HW123420   4.014   2.469  16.370 -1.2921 -1.7735  0.3703
 3986SOL    HW223421   3.995   2.553  16.488 -1.6437 -0.2220 -1.5842
 3987SOL     OW23422   2.920   1.960   6.609  0.0118 -0.3599  0.5328
 3987SOL    HW123423   2.978   1.891   6.639  0.9461  0.3203  0.2909
 3987SOL    HW223424   2.983   2.033   6.613  0.2262 -0.5906  1.6270
 3988SOL     OW23425   2.464   4.499   5.427  0.6930  0.1227  0.6423
 3988SOL    HW123426   2.379   4.457   5.440  1.7623 -1.1376  3.6477
 3988SOL    HW223427   2.519   4.422   5.441 -1.9689 -1.6747  1.2487
 3989SOL     OW23428   0.568   2.834   5.898  0.4683 -0.2850 -0.2103
 3989SOL    HW123429   0.625   2.784   5.956 -1.2442 -0.2489  1.5093
 3989SOL    HW223430   0.620   2.855   5.820 -0.1077  0.9018 -0.2887
 3990SOL     OW23431   2.889   0.498  13.345  0.4760  0.0879 -0.3077
 3990SOL    HW123432   2.823   0.489  13.414  1.1652  1.0623  0.4788
 3990SOL    HW223433   2.970   0.474  13.389  1.0602  1.7430 -0.4902
 3991SOL     OW23434   4.479   2.356  11.794 -0.3493  0.5941 -0.0433
 3991SOL    HW123435   4.429   2.381  11.717  0.5388 -0.5572 -0.9940
 3991SOL    HW223436   4.539   2.290  11.759 -0.5820 -1.4598  3.3157
 3992SOL     OW23437   3.936   1.242   6.753 -0.2962 -0.7405  0.4938
 3992SOL    HW123438   3.998   1.189   6.701 -1.6241 -1.5597 -0.2607
 3992SOL    HW223439   3.858   1.186   6.755 -0.2016 -0.8699  0.5404
 3993SOL     OW23440   0.517   1.379   6.096  0.0438  0.4311  0.2532
 3993SOL    HW123441   0.451   1.445   6.076  0.8362  1.3028  0.5042
 3993SOL    HW223442   0.468   1.298   6.084 -1.6399  1.6924 -1.3237
 3994SOL     OW23443   1.166   1.225   2.713 -0.3035 -0.0697  0.2920
 3994SOL    HW123444   1.110   1.176   2.653 -1.7448  0.0599  1.5379
 3994SOL    HW223445   1.094   1.274   2.754  0.5407  2.3357 -1.0361
 3995SOL     OW23446   3.982   0.065   7.412  0.6341  0.0046 -0.1655
 3995SOL    HW123447   3.972   0.028   7.500 -3.4388 -2.5281 -1.6830
 3995SOL    HW223448   4.077   0.067   7.423  0.5972 -1.7227  0.5153
 3996SOL     OW23449   1.265   2.427   2.069  0.4363  0.0977  0.2045
 3996SOL    HW123450   1.318   2.347   2.073 -1.7176 -1.2776  0.9093
 3996SOL    HW223451   1.333   2.493   2.053  0.2875  0.2248  0.1005
 3997SOL     OW23452   1.598   0.673   8.597 -0.9382 -0.2615 -0.5475
 3997SOL    HW123453   1.648   0.674   8.516  0.6434  0.1397  0.4364
 3997SOL    HW223454   1.644   0.601   8.641 -0.5486 -0.1069 -0.7088
 3998SOL     OW23455   0.574   3.399  17.007  0.6791  0.5064  0.1921
 3998SOL    HW123456   0.513   3.365  16.941  0.4626 -1.6249  1.4788
 3998SOL    HW223457   0.509   3.453  17.052  0.4256  1.0986 -0.8850
 3999SOL     OW23458   2.415   2.186   9.617 -0.1994  0.3117  0.7403
 3999SOL    HW123459   2.455   2.228   9.693  1.3713 -1.6067  0.9799
 3999SOL    HW223460   2.383   2.106   9.657 -1.4448  0.6234  0.3544
 4000SOL     OW23461   2.324   0.506   2.439  0.2329  0.1225  0.1328
 4000SOL    HW123462   2.321   0.417   2.402 -2.3030  0.6707 -0.9582
 4000SOL    HW223463   2.249   0.499   2.497  0.9798  1.3432  1.2425
 4001SOL     OW23464   0.670   1.415   8.303  0.5251 -0.0767 -0.8273
 4001SOL    HW123465   0.671   1.491   8.244 -0.9180 -1.1587 -2.2508
 4001SOL    HW223466   0.627   1.439   8.385  1.8814  0.0143 -0.1516
 4002SOL     OW23467   4.457   1.654   9.513  0.1139  0.0076  0.0785
 4002SOL    HW123468   4.370   1.676   9.545  0.5302  1.6738  0.0335
 4002SOL    HW223469   4.449   1.586   9.446 -0.6792 -0.9423  1.1311
 4003SOL     OW23470   2.419   2.444   1.671  0.8559 -0.2307  0.0938
 4003SOL    HW123471   2.444   2.469   1.760  0.8449  0.9425 -0.2334
 4003SOL    HW223472   2.505   2.454   1.631  1.4501 -0.3508  1.3392
 4004SOL     OW23473   1.781   3.208   6.143 -0.4702  0.1184  0.3817
 4004SOL    HW123474   1.734   3.177   6.066 -1.7060  2.2076  0.3089
 4004SOL    HW223475   1.789   3.124   6.189  0.8614  0.9402  1.6490
 4005SOL     OW23476   3.952   2.203  10.738 -0.0301  0.0857  0.0897
 4005SOL    HW123477   4.006   2.273  10.775  0.6026 -0.9267  1.0791
 4005SOL    HW223478   3.976   2.129  10.792 -0.3972  0.1345  0.3177
 4006SOL     OW23479   1.133   4.223   4.834 -0.7975 -0.3357  0.0255
 4006SOL    HW123480   1.205   4.159   4.832 -0.4880 -0.0567  1.9098
 4006SOL    HW223481   1.169   4.286   4.772  2.2142 -1.1315  0.9420
 4007SOL     OW23482   2.648   4.420   7.999  0.3508  0.2066  0.0313
 4007SOL    HW123483   2.650   4.490   7.933  1.0242  2.3158  2.2799
 4007SOL    HW223484   2.687   4.454   8.079 -0.0388  0.9666 -0.0927
 4008SOL     OW23485   4.209   2.629   1.763 -0.2715  1.2136 -0.2830
 4008SOL    HW123486   4.181   2.719   1.775  0.2345  0.9794  2.6595
 4008SOL    HW223487   4.184   2.609   1.673 -0.3448  1.3587 -0.2937
 4009SOL     OW23488   1.336   4.562   3.670 -0.1828  0.0879 -0.5384
 4009SOL    HW123489   1.360   4.625   3.738  0.5263  0.0993 -0.7974
 4009SOL    HW223490   1.303   4.494   3.729 -1.0088 -0.1383 -1.2690
 4010SOL     OW23491   1.414   4.607  17.576 -0.0378  0.1057  0.4167
 4010SOL    HW123492   1.391   4.577  17.488  3.0126 -2.5172  0.5116
 4010SOL    HW223493   1.437   4.697  17.551  1.7767 -0.6102 -0.5063
 4011SOL     OW23494   2.066   3.705   4.446 -0.2414 -0.0092 -0.2547
 4011SOL    HW123495   2.082   3.647   4.371 -2.7671 -0.4521 -0.4597
 4011SOL    HW223496   2.155   3.697   4.480 -0.8697 -0.5359  1.2648
 4012SOL     OW23497   2.627   0.898   7.909  0.0411 -0.0139 -0.4887
 4012SOL    HW123498   2.693   0.956   7.947  0.5651 -1.6239  1.0601
 4012SOL    HW223499   2.563   0.960   7.874 -0.0475  0.9679  1.3950
 4013SOL     OW23500   1.696   3.308  12.222 -0.5342  0.3876 -0.3589
 4013SOL    HW123501   1.671   3.242  12.158  0.1684  0.0810 -0.3243
 4013SOL    HW223502   1.724   3.249  12.292 -0.5257  1.0917  0.2297
 4014SOL     OW23503   3.176   3.987  16.087  0.1237  0.3868  0.1731
 4014SOL    HW123504   3.089   4.025  16.094 -0.7638 -1.0477 -2.9245
 4014SOL    HW223505   3.169   3.892  16.086  0.0218  0.3659  4.9702
 4015SOL     OW23506   4.266   4.214   9.142  0.2799  0.8829  0.2554
 4015SOL    HW123507   4.272   4.196   9.236  1.6291 -0.4647 -0.0924
 4015SOL    HW223508   4.317   4.294   9.135 -1.0446  1.6504 -0.5122
 4016SOL     OW23509   1.178   1.470   7.877  0.4957  0.1891  0.0303
 4016SOL    HW123510   1.192   1.539   7.813 -1.4789 -0.5947 -1.2270
 4016SOL    HW223511   1.083   1.462   7.880  0.3728  2.0077  1.1288
 4017SOL     OW23512   3.471   4.223   2.525 -0.6811 -0.9095  0.2583
 4017SOL    HW123513   3.463   4.258   2.614 -0.3353  0.2342 -0.1511
 4017SOL    HW223514   3.384   4.240   2.489 -0.7023  1.8104  1.5651
 4018SOL     OW23515   3.979   2.684   5.139 -0.0541 -0.4478 -0.5395
 4018SOL    HW123516   4.008   2.772   5.112 -0.6024 -1.3032 -3.9162
 4018SOL    HW223517   4.041   2.661   5.208  0.6144  0.6297 -0.7764
 4019SOL     OW23518   3.404   1.182   6.138 -0.7341 -0.0117  0.0218
 4019SOL    HW123519   3.365   1.097   6.156  0.5706 -0.2224  1.9560
 4019SOL    HW223520   3.387   1.221   6.224 -1.3397  0.5250 -0.3441
 4020SOL     OW23521   2.863   4.462  11.821  0.6466 -0.4024  0.6817
 4020SOL    HW123522   2.808   4.483  11.896 -0.7083  1.1619 -0.7373
 4020SOL    HW223523   2.927   4.533  11.824  1.3884 -0.8874 -2.6188
 4021SOL     OW23524   1.375   1.297   3.646  0.1090 -0.3856 -0.3908
 4021SOL    HW123525   1.339   1.309   3.558 -2.8619 -0.0229  0.8924
 4021SOL    HW223526   1.444   1.363   3.646  1.0135 -1.3597 -4.4518
 4022SOL     OW23527   1.046   3.646   6.884  0.0675  0.2137  0.4728
 4022SOL    HW123528   0.996   3.565   6.895  1.3428 -0.6146  0.1565
 4022SOL    HW223529   1.009   3.691   6.960 -0.1201  0.7651  0.0428
 4023SOL     OW23530   4.252   0.322   1.161 -0.5283  0.0705 -0.0957
 4023SOL    HW123531   4.209   0.404   1.188 -1.6161 -0.5257 -0.0118
 4023SOL    HW223532   4.186   0.274   1.112 -1.3687  0.9144  0.1934
 4024SOL     OW23533   3.436   4.556  12.270  0.6782 -0.0185  0.1679
 4024SOL    HW123534   3.510   4.521  12.321  0.3783 -0.7479  0.1125
 4024SOL    HW223535   3.388   4.606  12.335 -0.4542  1.4285 -1.8027
 4025SOL     OW23536   3.496   2.323   3.131 -0.1444 -0.4319 -0.0413
 4025SOL    HW123537   3.454   2.249   3.088 -0.2312 -0.2027 -0.3466
 4025SOL    HW223538   3.519   2.378   3.056 -1.6528  1.0299  0.5585
 4026SOL     OW23539   1.859   1.072   0.168 -0.3800  0.0762 -0.3029
 4026SOL    HW123540   1.823   1.125   0.239 -0.5542 -1.4748  0.7580
 4026SOL    HW223541   1.950   1.066   0.196 -0.3228  0.0533 -0.4936
 4027SOL     OW23542   2.779   3.306   7.363  0.3279 -0.1914 -0.0361
 4027SOL    HW123543   2.729   3.336   7.439  0.6307 -0.8214  0.4064
 4027SOL    HW223544   2.772   3.212   7.377  0.2815 -0.1425  0.2536
 4028SOL     OW23545   3.401   4.515   6.787 -0.1865  0.3631 -0.4958
 4028SOL    HW123546   3.382   4.591   6.730 -0.5744  0.7525  0.1549
 4028SOL    HW223547   3.363   4.552   6.866  1.3167  1.7748 -0.4290
 4029SOL     OW23548   4.633   3.023   9.984 -0.2355 -0.0576 -0.5265
 4029SOL    HW123549   4.703   3.088   9.992  0.2664 -0.3374 -2.9019
 4029SOL    HW223550   4.640   3.005   9.891 -0.4256  2.0322 -0.9573
 4030SOL     OW23551   4.173   2.859   6.856 -0.2710  0.0830 -0.1649
 4030SOL    HW123552   4.189   2.786   6.796  1.6111 -0.6441  1.2284
 4030SOL    HW223553   4.220   2.826   6.932 -1.5273  0.2052  0.6612
 4031SOL     OW23554   2.537   0.475   3.789  0.4147 -0.4581 -0.2879
 4031SOL    HW123555   2.584   0.554   3.817  1.0312 -0.7072 -0.6192
 4031SOL    HW223556   2.490   0.446   3.867 -1.9237  2.3638 -0.6501
 4032SOL     OW23557   0.612   3.730   9.147  0.3340  0.3956  0.7308
 4032SOL    HW123558   0.658   3.656   9.107  3.0556  1.7873  1.2471
 4032SOL    HW223559   0.647   3.720   9.235  3.3128 -0.5319 -0.5495
 4033SOL     OW23560   3.120   4.181  15.851  0.2170 -0.0082  0.5148
 4033SOL    HW123561   3.179   4.118  15.811 -0.8099  1.7384 -3.7437
 4033SOL    HW223562   3.152   4.193  15.941  1.4429  1.3302 -0.1151
 4034SOL     OW23563   0.356   3.584   8.218  0.3698 -0.0661 -0.8573
 4034SOL    HW123564   0.295   3.523   8.261 -3.0557  2.8320 -1.6023
 4034SOL    HW223565   0.388   3.529   8.147  1.8205  0.6269 -0.7446
 4035SOL     OW23566   3.629   4.066   4.100 -0.2732  0.1388 -0.1924
 4035SOL    HW123567   3.610   4.030   4.013  0.9747  1.9083 -1.1992
 4035SOL    HW223568   3.719   4.034   4.108  0.0107  1.3829  1.6474
 4036SOL     OW23569   1.184   4.147  16.773 -0.0978 -0.4548 -0.2024
 4036SOL    HW123570   1.265   4.098  16.755 -0.9610 -2.3673  1.1368
 4036SOL    HW223571   1.152   4.076  16.828  0.2498 -0.0621  0.5093
 4037SOL     OW23572   3.151   2.055   2.601 -0.0514 -0.3065  0.6779
 4037SOL    HW123573   3.118   2.139   2.632  1.8590  1.1469 -1.2489
 4037SOL    HW223574   3.135   2.001   2.679 -0.4316 -0.8706  0.2144
 4038SOL     OW23575   4.299   0.594   6.484  0.4351 -0.0356  0.2587
 4038SOL    HW123576   4.278   0.568   6.574 -0.0951  1.8687  0.6865
 4038SOL    HW223577   4.266   0.683   6.490 -1.3910 -0.7977  1.6744
 4039SOL     OW23578   2.170   1.558   5.175 -0.2648 -0.0274  0.0699
 4039SOL    HW123579   2.229   1.530   5.245  1.6567 -1.3863 -2.0570
 4039SOL    HW223580   2.182   1.487   5.111  1.1136  1.2553 -1.0918
 4040SOL     OW23581   3.531   0.028   3.987  0.4682  0.3475  0.0150
 4040SOL    HW123582   3.624   0.040   3.970  0.2510  1.7737 -0.1106
 4040SOL    HW223583   3.522   4.658   3.968  1.7717  0.3535 -0.6163
 4041SOL     OW23584   3.715   1.350  16.160 -0.1072 -0.0894 -0.3321
 4041SOL    HW123585   3.757   1.316  16.081 -1.4511 -3.3195  0.3147
 4041SOL    HW223586   3.764   1.320  16.237  1.6485  0.9843 -1.0577
 4042SOL     OW23587   2.184   2.154   4.324  0.2008  0.3699 -0.1778
 4042SOL    HW123588   2.125   2.217   4.283  0.2423  1.4819  1.5226
 4042SOL    HW223589   2.249   2.166   4.255 -0.0073  2.0877 -0.0630
 4043SOL     OW23590   2.181   2.184   9.256  0.0883  0.3542  0.6246
 4043SOL    HW123591   2.190   2.253   9.322 -1.7379 -0.6694  1.9370
 4043SOL    HW223592   2.233   2.115   9.296 -2.9796 -1.3066  1.7752
 4044SOL     OW23593   3.017   3.184  17.454 -0.4993 -0.3321  0.2827
 4044SOL    HW123594   3.104   3.214  17.481  0.0432 -1.6077 -0.0469
 4044SOL    HW223595   3.044   3.117  17.391 -0.1099  1.2324 -1.2080
 4045SOL     OW23596   3.762   2.053   1.641 -0.5697  0.3117  0.3965
 4045SOL    HW123597   3.761   1.957   1.646  1.3925  0.2951  0.5441
 4045SOL    HW223598   3.854   2.062   1.618 -0.5839 -1.2406 -0.2705
 4046SOL     OW23599   4.104   2.204  10.345 -0.2104  0.2688  0.1438
 4046SOL    HW123600   4.186   2.161  10.322 -1.6333 -2.0094 -0.6815
 4046SOL    HW223601   4.078   2.149  10.419  1.7182  2.4404  2.4233
 4047SOL     OW23602   3.343   4.678  14.653  0.4114 -0.1962 -0.3443
 4047SOL    HW123603   3.328   0.003  14.573 -0.7021  1.3655  0.8171
 4047SOL    HW223604   3.264   4.623  14.659  0.2356 -0.1131 -2.0207
 4048SOL     OW23605   4.154   0.899   6.473  0.2135 -0.6987 -0.6760
 4048SOL    HW123606   4.104   0.973   6.437 -0.1375 -2.1775 -3.2032
 4048SOL    HW223607   4.235   0.943   6.499 -0.3629  0.8194 -1.4498
 4049SOL     OW23608   3.566   1.668   0.250  0.1424  0.1122  0.2124
 4049SOL    HW123609   3.631   1.736   0.269  0.8890 -0.0842 -1.7013
 4049SOL    HW223610   3.608   1.634   0.171  0.3417 -0.9818  0.7962
 4050SOL     OW23611   2.113   2.695   7.676  0.4608  0.2713 -0.2384
 4050SOL    HW123612   2.065   2.664   7.599  1.1984  1.0581 -1.0103
 4050SOL    HW223613   2.170   2.619   7.690 -0.4918 -0.0027  2.1744
 4051SOL     OW23614   1.358   2.026   5.016  0.4254  0.9924 -0.0548
 4051SOL    HW123615   1.397   1.975   5.087  0.0367 -1.9971 -1.9780
 4051SOL    HW223616   1.278   2.037   5.067  0.3641 -0.1417  0.1003
 4052SOL     OW23617   3.451   1.682   7.343  0.2005  0.2166 -0.3405
 4052SOL    HW123618   3.387   1.753   7.345  1.8036  1.6398  0.6579
 4052SOL    HW223619   3.499   1.694   7.261 -0.5895  1.6937 -0.5935
 4053SOL     OW23620   0.517   2.406   3.920 -0.5105 -0.0684  0.1761
 4053SOL    HW123621   0.549   2.467   3.986  1.0201 -0.1534 -0.4997
 4053SOL    HW223622   0.595   2.353   3.908 -0.7918 -0.8162  1.5896
 4054SOL     OW23623   2.450   1.192   6.595  0.6345  0.7961  0.2817
 4054SOL    HW123624   2.419   1.127   6.658  0.6801 -0.9727 -1.5545
 4054SOL    HW223625   2.414   1.272   6.635 -1.3504  0.8378 -1.5899
 4055SOL     OW23626   0.276   0.655   6.192 -0.2761 -0.6439 -0.5323
 4055SOL    HW123627   0.303   0.617   6.275  0.4099  0.8525 -0.0722
 4055SOL    HW223628   0.195   0.609   6.167 -1.0445  1.6906 -2.4107
 4056SOL     OW23629   4.326   1.903   4.825 -0.0996  0.0444  0.0183
 4056SOL    HW123630   4.320   1.915   4.730  0.0468 -3.5979 -0.4578
 4056SOL    HW223631   4.260   1.959   4.864  0.0030  0.7763 -0.8636
 4057SOL     OW23632   1.133   0.858   3.805 -0.0385 -0.2058 -0.5466
 4057SOL    HW123633   1.202   0.889   3.865  1.3910  1.9110 -3.2507
 4057SOL    HW223634   1.170   0.778   3.767 -0.5758 -0.8574  0.3037
 4058SOL     OW23635   0.096   4.580   3.733 -0.0067  0.5942  0.6703
 4058SOL    HW123636   0.137   4.659   3.769 -1.4946  1.2481  0.8998
 4058SOL    HW223637   0.060   4.540   3.813 -0.1653 -2.7657 -1.0970
 4059SOL     OW23638   3.667   4.204   5.208 -0.2163  0.5314  0.9099
 4059SOL    HW123639   3.730   4.138   5.237  1.5555  1.8297  0.0525
 4059SOL    HW223640   3.698   4.221   5.119  0.9860  1.5882  1.5128
 4060SOL     OW23641   0.248   2.246   0.696 -0.2957  0.3369 -0.2692
 4060SOL    HW123642   0.332   2.201   0.695  1.4117  3.4077  2.4367
 4060SOL    HW223643   0.257   2.279   0.607  0.1710  1.5796  0.2259
 4061SOL     OW23644   1.279   4.490   1.789 -0.3273 -0.6622 -0.7122
 4061SOL    HW123645   1.211   4.483   1.722 -0.9968  2.4396 -0.3686
 4061SOL    HW223646   1.333   4.564   1.760  2.4701 -2.2361  0.5165
 4062SOL     OW23647   2.382   1.800   8.208  0.1909 -0.1412 -0.4571
 4062SOL    HW123648   2.456   1.854   8.180 -1.0387  1.0629 -1.3795
 4062SOL    HW223649   2.310   1.862   8.217  0.2591 -0.1215 -0.0089
 4063SOL     OW23650   1.922   1.387   6.593  0.4698 -0.0429 -0.3375
 4063SOL    HW123651   2.002   1.341   6.618  0.1041 -0.4523  0.0602
 4063SOL    HW223652   1.921   1.458   6.657  0.2287 -0.6179  0.2882
 4064SOL     OW23653   3.768   0.420  12.756  0.2777  0.3124 -0.3295
 4064SOL    HW123654   3.748   0.502  12.799 -0.5159 -0.4488  0.7471
 4064SOL    HW223655   3.754   0.353  12.823 -0.9821  0.0339 -0.8744
 4065SOL     OW23656   0.388   1.977   5.613 -0.4402  0.0557 -0.1673
 4065SOL    HW123657   0.337   2.015   5.542  1.9571  2.1052 -0.7842
 4065SOL    HW223658   0.421   2.058   5.651 -0.5844 -0.4916  1.1371
 4066SOL     OW23659   3.334   0.089  16.018 -0.4114 -0.0492  0.1915
 4066SOL    HW123660   3.307   4.722  16.034  1.0759 -0.7917 -1.5931
 4066SOL    HW223661   3.426   0.077  15.995 -0.2129  0.7395  0.5818
 4067SOL     OW23662   3.983   0.440   8.053  0.5360  0.3860  0.1125
 4067SOL    HW123663   4.035   0.502   8.002  1.3569 -0.9298 -0.6395
 4067SOL    HW223664   3.899   0.448   8.007 -0.0651 -0.3714  1.0760
 4068SOL     OW23665   1.790   3.336   1.272  0.1976 -0.0677 -0.1613
 4068SOL    HW123666   1.836   3.253   1.287 -2.2889 -1.7127 -1.6858
 4068SOL    HW223667   1.792   3.349   1.177 -3.2068  0.3814 -0.1538
 4069SOL     OW23668   1.001   1.965  11.302 -0.0139  0.3375  0.5265
 4069SOL    HW123669   0.964   1.877  11.310  0.3300 -0.0951 -2.8753
 4069SOL    HW223670   0.986   2.003  11.389  0.6366  2.2713 -0.2087
 4070SOL     OW23671   2.163   4.343   2.470  0.1593 -0.2163 -0.7477
 4070SOL    HW123672   2.249   4.328   2.511 -1.0384  2.7218  2.7988
 4070SOL    HW223673   2.170   4.258   2.426  0.1148 -0.0784 -1.0187
 4071SOL     OW23674   3.591   2.789   3.354 -0.4072  0.1100 -0.5170
 4071SOL    HW123675   3.609   2.716   3.414  1.9817 -0.9709 -2.5941
 4071SOL    HW223676   3.611   2.748   3.270 -0.5612 -1.3898  0.1878
 4072SOL     OW23677   4.566   0.950  16.973 -0.0070 -0.7115 -0.0345
 4072SOL    HW123678   4.527   0.888  16.911  0.3293 -0.6710 -0.2835
 4072SOL    HW223679   4.495   1.006  17.004 -0.9878  0.1853 -3.9532
 4073SOL     OW23680   4.464   0.455  16.099  0.0268  0.0211 -0.1757
 4073SOL    HW123681   4.434   0.531  16.047 -1.0549  1.5938  2.7385
 4073SOL    HW223682   4.466   0.382  16.038 -2.2785  0.2259 -0.5160
 4074SOL     OW23683   1.409   2.780   6.847  0.0255 -0.2428  0.7536
 4074SOL    HW123684   1.496   2.776   6.807  0.1210  2.6158  0.6680
 4074SOL    HW223685   1.357   2.753   6.771  1.4025 -1.2371  0.1764
 4075SOL     OW23686   3.082   4.473   5.569 -0.0650 -0.1686  0.1865
 4075SOL    HW123687   3.106   4.510   5.654 -2.6442 -1.3768  1.4314
 4075SOL    HW223688   3.158   4.416   5.559 -0.8686 -1.2137  0.0124
 4076SOL     OW23689   4.638   2.069  16.532 -0.1465 -0.2082  0.1656
 4076SOL    HW123690   4.557   2.105  16.568 -0.7330 -2.0499  0.6958
 4076SOL    HW223691   4.621   2.055  16.438 -0.4163  1.6933 -0.0799
 4077SOL     OW23692   0.998   1.723   5.760 -0.1157 -0.1754  0.1863
 4077SOL    HW123693   1.088   1.689   5.759 -1.0115 -2.4542 -1.9467
 4077SOL    HW223694   0.976   1.692   5.672  3.1886  0.0039 -0.6977
 4078SOL     OW23695   2.141   2.405   8.850  0.4967  0.0428  0.2517
 4078SOL    HW123696   2.188   2.350   8.787 -2.1327 -1.2246 -0.6118
 4078SOL    HW223697   2.216   2.435   8.901  1.6554  0.8922 -1.9328
 4079SOL     OW23698   2.612   4.311  10.646 -1.1628  0.2405  0.5052
 4079SOL    HW123699   2.599   4.287  10.555 -0.0817 -2.4975  1.0763
 4079SOL    HW223700   2.697   4.353  10.634 -0.3213 -1.5104  0.3447
 4080SOL     OW23701   4.502   0.197   1.132 -0.0818 -0.0893 -0.6154
 4080SOL    HW123702   4.421   0.244   1.153 -1.0252 -1.2517 -1.6583
 4080SOL    HW223703   4.544   0.194   1.218 -1.1130 -1.0181 -0.1448
 4081SOL     OW23704   0.654   3.508   1.575  0.3426 -0.3457 -0.3273
 4081SOL    HW123705   0.674   3.581   1.634  0.5480  1.6728 -2.9025
 4081SOL    HW223706   0.678   3.549   1.492  0.4486 -3.1246 -1.6756
 4082SOL     OW23707   1.091   3.938  16.983 -0.7966  0.1070 -0.2929
 4082SOL    HW123708   1.001   3.922  17.010 -0.1748 -1.8382  0.5992
 4082SOL    HW223709   1.099   3.869  16.917 -0.4351 -0.6215  0.5138
 4083SOL     OW23710   2.208   4.316   0.494 -0.1132  0.1261  0.5122
 4083SOL    HW123711   2.147   4.243   0.508 -0.8909  1.1166  2.3205
 4083SOL    HW223712   2.253   4.315   0.578 -0.3076 -1.4517  0.6087
 4084SOL     OW23713   4.361   3.923   1.677 -0.1847  0.3904 -0.0651
 4084SOL    HW123714   4.427   3.934   1.609 -0.2169 -0.0310 -0.1663
 4084SOL    HW223715   4.302   3.997   1.663 -1.0672 -0.2792  0.1139
 4085SOL     OW23716   1.603   1.833   6.385 -0.5627  1.4211  0.3657
 4085SOL    HW123717   1.577   1.742   6.373  3.0334  0.4526 -0.0677
 4085SOL    HW223718   1.554   1.839   6.467 -2.5984 -0.5349 -0.7349
 4086SOL     OW23719   2.161   4.291   7.534 -0.7460  0.0507  0.0692
 4086SOL    HW123720   2.172   4.197   7.547  3.7161  0.4074 -0.9629
 4086SOL    HW223721   2.075   4.299   7.494 -0.5879  1.2379 -0.0458
 4087SOL     OW23722   1.410   2.249   4.234  0.4188  0.0551  0.0596
 4087SOL    HW123723   1.478   2.299   4.190 -0.0258  0.1683 -0.4825
 4087SOL    HW223724   1.462   2.223   4.311  0.1193  0.6716  0.4742
 4088SOL     OW23725   0.313   1.294  10.744 -0.0444  0.0859 -0.3867
 4088SOL    HW123726   0.333   1.326  10.656  0.6518  0.7267 -0.0010
 4088SOL    HW223727   0.381   1.228  10.758 -0.9506 -0.3365  1.9457
 4089SOL     OW23728   1.878   4.535   7.003  0.1512  0.0388  0.0156
 4089SOL    HW123729   1.945   4.512   7.067 -0.2042  3.4317  1.5862
 4089SOL    HW223730   1.883   4.460   6.943 -0.0489  1.3578 -1.6535
 4090SOL     OW23731   1.594   4.108   7.364 -0.3294 -0.3771 -0.1528
 4090SOL    HW123732   1.525   4.164   7.328 -0.1869  0.3932  0.7606
 4090SOL    HW223733   1.567   4.117   7.456  2.4466 -0.8756  0.6992
 4091SOL     OW23734   0.395   4.141  10.251  0.2066  0.3783 -0.1447
 4091SOL    HW123735   0.476   4.145  10.302 -1.0545 -1.2739  1.9814
 4091SOL    HW223736   0.384   4.232  10.221  1.5500  0.0988 -1.4569
 4092SOL     OW23737   2.905   1.144   1.510  0.0729  0.3963 -0.0875
 4092SOL    HW123738   2.819   1.180   1.488  0.4237  0.9998 -0.4901
 4092SOL    HW223739   2.913   1.081   1.438  0.5365 -0.2658  0.5355
 4093SOL     OW23740   2.337   1.062   7.194  0.1277 -0.1142  0.6843
 4093SOL    HW123741   2.362   1.085   7.284 -0.9650  1.6848  0.5377
 4093SOL    HW223742   2.266   1.001   7.208  1.4145 -1.6293  0.5863
 4094SOL     OW23743   2.522   2.539   2.501  0.0142 -0.1164 -0.2221
 4094SOL    HW123744   2.501   2.553   2.593 -2.6561 -1.1128 -0.6713
 4094SOL    HW223745   2.606   2.583   2.489  0.2685 -0.9017 -1.3567
 4095SOL     OW23746   0.273   4.348   2.783  0.2822  0.0670  0.4067
 4095SOL    HW123747   0.277   4.418   2.848 -0.9563  0.6648 -0.1608
 4095SOL    HW223748   0.230   4.280   2.836 -2.2820  1.0999 -0.3619
 4096SOL     OW23749   2.721   3.759   2.135  0.5130 -0.1255 -0.3667
 4096SOL    HW123750   2.815   3.746   2.126  0.8334  2.2373 -0.5107
 4096SOL    HW223751   2.716   3.839   2.188 -2.9308 -0.7493  0.2177
 4097SOL     OW23752   2.641   0.533   5.671  0.3986  0.3969 -0.5365
 4097SOL    HW123753   2.709   0.527   5.603  1.1997  0.0128  0.3039
 4097SOL    HW223754   2.675   0.451   5.708 -1.1433  0.3079  0.6853
 4098SOL     OW23755   2.341   2.088  10.794 -0.2826 -0.4363 -0.7046
 4098SOL    HW123756   2.390   2.153  10.743  0.0216 -0.3386 -0.2902
 4098SOL    HW223757   2.413   2.025  10.793  0.0116 -0.0694 -2.3670
 4099SOL     OW23758   0.785   1.832   5.912  0.2212 -0.0468 -0.2955
 4099SOL    HW123759   0.739   1.871   5.838 -0.7931 -1.0868 -0.2061
 4099SOL    HW223760   0.839   1.776   5.856 -0.9526 -1.1741 -0.2922
 4100SOL     OW23761   2.977   2.391   8.675  0.0657 -0.0295 -0.5804
 4100SOL    HW123762   3.063   2.395   8.718  0.5884 -0.4889 -1.5671
 4100SOL    HW223763   2.926   2.366   8.752  0.6687  1.8288  0.4060
 4101SOL     OW23764   1.804   1.689   6.111  0.5192  0.0492 -0.4694
 4101SOL    HW123765   1.768   1.625   6.172 -1.0143  1.8275  0.4967
 4101SOL    HW223766   1.756   1.670   6.030 -0.7763  1.4922 -0.0504
 4102SOL     OW23767   0.182   2.928   2.232 -0.1768 -0.2284 -0.1386
 4102SOL    HW123768   0.277   2.924   2.230 -0.2193 -0.5950 -1.1652
 4102SOL    HW223769   0.163   2.942   2.139 -0.5468  0.7161  0.0785
 4103SOL     OW23770   2.852   2.468   5.475  0.1844  0.2306 -0.4649
 4103SOL    HW123771   2.854   2.558   5.443 -0.9489  0.7788  1.0541
 4103SOL    HW223772   2.854   2.465   5.570  0.9061  2.8636 -0.3880
 4104SOL     OW23773   4.525   3.660  13.523  0.0487  0.2789 -0.2186
 4104SOL    HW123774   4.443   3.697  13.490  0.5504  0.2657 -1.4781
 4104SOL    HW223775   4.587   3.711  13.470  0.7071  0.3389  0.6189
 4105SOL     OW23776   2.235   1.404  10.329 -0.2285  0.5661  0.1863
 4105SOL    HW123777   2.304   1.378  10.390 -0.6928 -1.3197 -0.1110
 4105SOL    HW223778   2.285   1.426  10.250 -0.3802 -0.4737 -0.1933
 4106SOL     OW23779   3.676   1.698  15.228  0.4604 -0.5980  0.9129
 4106SOL    HW123780   3.619   1.634  15.270  0.1612 -0.7586  0.2592
 4106SOL    HW223781   3.732   1.724  15.302  1.2337 -1.2960  0.5693
 4107SOL     OW23782   2.540   4.221   4.594 -0.2352  0.6407 -0.4342
 4107SOL    HW123783   2.528   4.211   4.500  0.9106  0.8320 -0.5972
 4107SOL    HW223784   2.478   4.158   4.631  0.6455  0.2791  0.4111
 4108SOL     OW23785   0.011   1.992   0.428 -0.1222 -0.8222 -0.4662
 4108SOL    HW123786   0.034   1.991   0.521 -0.5569  0.2717 -0.3501
 4108SOL    HW223787   4.655   2.044   0.432  0.3371 -0.0975 -0.7679
 4109SOL     OW23788   1.151   0.729  11.810  0.2201  0.2306  0.6625
 4109SOL    HW123789   1.166   0.810  11.761  1.3146 -0.4013 -0.0474
 4109SOL    HW223790   1.086   0.678  11.760  0.7470  0.4657 -0.2666
 4110SOL     OW23791   3.954   3.950  16.424  0.4887  0.9153 -0.2104
 4110SOL    HW123792   4.033   3.952  16.371  0.5337  1.0649 -0.1401
 4110SOL    HW223793   3.894   3.997  16.366 -0.9529 -0.2224  0.3460
 4111SOL     OW23794   1.764   0.280   0.534  0.3405  0.0363  0.3724
 4111SOL    HW123795   1.790   0.281   0.442 -0.0980 -0.9124  0.2351
 4111SOL    HW223796   1.707   0.203   0.531  0.4794 -0.1663  3.2362
 4112SOL     OW23797   0.127   2.908   6.763 -0.5662 -0.2344  0.4139
 4112SOL    HW123798   0.188   2.979   6.741 -1.9604 -0.1658 -3.3101
 4112SOL    HW223799   0.075   2.915   6.683  0.3915  1.0862 -0.0782
 4113SOL     OW23800   1.934   1.072   7.886 -0.1021  0.1844 -0.2737
 4113SOL    HW123801   1.912   1.025   7.967 -0.5137  0.9904  0.0841
 4113SOL    HW223802   1.854   1.049   7.838 -0.9858  1.1883  0.7116
 4114SOL     OW23803   4.469   4.412   3.814 -0.2212 -0.0872  0.3791
 4114SOL    HW123804   4.476   4.508   3.812 -1.8829  0.0151 -0.6955
 4114SOL    HW223805   4.414   4.398   3.738  0.2939 -0.0189 -0.0048
 4115SOL     OW23806   3.411   0.246  10.768 -0.1718 -0.6540  0.0196
 4115SOL    HW123807   3.353   0.285  10.703  1.8476  1.8604 -0.2560
 4115SOL    HW223808   3.343   0.215  10.828 -0.4480 -0.2499 -0.0864
 4116SOL     OW23809   1.053   0.434   6.874  0.0669  0.6831  0.2123
 4116SOL    HW123810   1.098   0.425   6.790  0.3977 -0.4847  0.5108
 4116SOL    HW223811   0.962   0.431   6.846  0.0134  1.8694  0.2580
 4117SOL     OW23812   0.914   4.244   8.294  0.0992 -0.3280  0.0051
 4117SOL    HW123813   0.852   4.304   8.253  1.5809  1.3754  0.2424
 4117SOL    HW223814   0.856   4.173   8.320 -1.4584  0.0662 -2.3719
 4118SOL     OW23815   4.317   0.301   8.962 -0.2980  0.2214 -0.0516
 4118SOL    HW123816   4.350   0.338   8.880 -0.4830  2.4465  0.8767
 4118SOL    HW223817   4.224   0.321   8.951 -0.8357 -2.4305 -0.2987
 4119SOL     OW23818   0.436   1.331   9.131  0.5174 -0.2187  0.4262
 4119SOL    HW123819   0.419   1.347   9.224 -1.9526  0.4759 -0.1452
 4119SOL    HW223820   0.497   1.258   9.146  1.7985  0.3464 -2.1147
 4120SOL     OW23821   2.860   0.773   3.766  0.1927  0.6045 -0.2429
 4120SOL    HW123822   2.847   0.706   3.699  1.4963 -2.6755  2.8106
 4120SOL    HW223823   2.933   0.820   3.726  0.3182 -0.3150 -1.0697
 4121SOL     OW23824   0.513   3.242   9.052 -0.1046  0.5613  0.6985
 4121SOL    HW123825   0.426   3.235   9.091 -1.0849 -0.2254 -1.6131
 4121SOL    HW223826   0.503   3.281   8.965 -1.2476  0.5190  0.8045
 4122SOL     OW23827   0.927   1.595   4.302 -0.7366 -0.0386  0.1085
 4122SOL    HW123828   1.014   1.630   4.323 -0.9181 -0.4906  1.6144
 4122SOL    HW223829   0.885   1.568   4.384 -1.3700  2.9548  0.7876
 4123SOL     OW23830   2.103   3.289   7.521 -0.0047 -0.0629  0.2059
 4123SOL    HW123831   2.054   3.229   7.465 -0.6506 -0.4974  1.2190
 4123SOL    HW223832   2.040   3.356   7.548 -0.6027 -0.3367 -0.5013
 4124SOL     OW23833   3.562   3.690   7.380  0.3700  0.2964  0.0886
 4124SOL    HW123834   3.525   3.744   7.450  1.2312  1.0878 -0.0647
 4124SOL    HW223835   3.565   3.743   7.300 -1.1786  0.3607  0.0801
 4125SOL     OW23836   0.093   1.618  13.354  0.0390  0.3475  0.2412
 4125SOL    HW123837   0.123   1.567  13.279  0.3577 -0.2294  0.7588
 4125SOL    HW223838   0.031   1.672  13.305 -0.5080 -2.4769 -2.1708
 4126SOL     OW23839   0.639   0.648   4.194 -0.1387  0.7799  0.1387
 4126SOL    HW123840   0.647   0.692   4.279  0.8909 -1.6383  1.2761
 4126SOL    HW223841   0.652   0.557   4.219 -0.2064 -0.1459 -3.1765
 4127SOL     OW23842   0.052   0.377   5.081 -0.0074 -0.4128  0.1283
 4127SOL    HW123843   0.046   0.353   5.174  0.0884  1.7018  0.6958
 4127SOL    HW223844   0.081   0.291   5.052  0.7006 -0.4101  0.8156
 4128SOL     OW23845   0.312   1.790   0.412  0.1893 -0.5492 -0.8147
 4128SOL    HW123846   0.395   1.763   0.373 -0.3002 -1.3306 -1.3240
 4128SOL    HW223847   0.293   1.705   0.452 -3.3583  0.9423  0.7408
 4129SOL     OW23848   4.333   2.451   6.980  0.5553  0.0883  0.1187
 4129SOL    HW123849   4.380   2.454   6.897  0.2353  2.1452  0.0276
 4129SOL    HW223850   4.310   2.544   6.981  1.8270  0.3914  1.9845
 4130SOL     OW23851   0.488   1.411  12.767  0.3327 -0.2657  0.2102
 4130SOL    HW123852   0.528   1.325  12.782 -0.1595 -1.0948 -3.3571
 4130SOL    HW223853   0.426   1.431  12.837 -1.5623 -0.5620 -1.4086
 4131SOL     OW23854   4.706   1.518   5.150 -0.4134  0.2233 -0.1087
 4131SOL    HW123855   0.009   1.608   5.130  0.8554 -0.2456 -0.5425
 4131SOL    HW223856   4.714   1.481   5.062 -2.3143  0.6503 -0.4714
 4132SOL     OW23857   1.634   2.617   2.333 -0.6474 -0.1811  0.4272
 4132SOL    HW123858   1.651   2.699   2.288 -1.9741 -0.7279 -1.0754
 4132SOL    HW223859   1.713   2.591   2.380  0.3402 -0.0499 -1.1841
 4133SOL     OW23860   2.441   2.891   7.792 -0.2623  0.2350  0.2649
 4133SOL    HW123861   2.514   2.932   7.837  0.9907  0.6595 -2.1329
 4133SOL    HW223862   2.392   2.968   7.762 -1.8125 -0.8929 -0.0993
 4134SOL     OW23863   0.689   0.516   8.221 -0.2309  0.0734  1.0893
 4134SOL    HW123864   0.683   0.421   8.234 -0.3941 -0.2676 -1.4892
 4134SOL    HW223865   0.643   0.516   8.137 -1.5023  0.1571  1.7801
 4135SOL     OW23866   4.562   4.252   5.295  0.0541 -0.4734  0.2487
 4135SOL    HW123867   4.554   4.346   5.307  0.6246 -0.3925 -0.0059
 4135SOL    HW223868   4.538   4.224   5.384 -1.8757  0.6279  0.0603
 4136SOL     OW23869   1.679   2.739   7.444  0.0801 -0.5829 -0.0204
 4136SOL    HW123870   1.743   2.672   7.467  1.4933  1.2186  1.3099
 4136SOL    HW223871   1.619   2.726   7.518 -0.4710 -0.4403 -0.4399
 4137SOL     OW23872   2.924   1.427   8.849 -0.2276  0.3150 -0.3442
 4137SOL    HW123873   2.968   1.489   8.791 -0.0379  0.8205  0.3467
 4137SOL    HW223874   2.854   1.402   8.788 -1.7223 -0.8546  1.8593
 4138SOL     OW23875   2.624   0.695   3.081 -0.0596  0.2404 -0.5742
 4138SOL    HW123876   2.706   0.663   3.119  0.0741 -0.5848 -1.5741
 4138SOL    HW223877   2.603   0.616   3.031 -0.3985 -0.0951  0.0996
 4139SOL     OW23878   0.591   3.221   4.332  0.0722  0.1452 -0.6004
 4139SOL    HW123879   0.581   3.298   4.277  2.2316 -2.1027 -4.1206
 4139SOL    HW223880   0.509   3.171   4.327 -0.4907  1.0816 -0.5778
 4140SOL     OW23881   4.124   1.040   3.725 -0.1521 -0.6546 -0.6272
 4140SOL    HW123882   4.118   0.981   3.800 -1.9742  0.2538 -0.0471
 4140SOL    HW223883   4.031   1.053   3.708  0.9990  4.8714 -2.8728
 4141SOL     OW23884   0.761   0.263  17.106 -0.4800  0.0518 -0.2433
 4141SOL    HW123885   0.799   0.217  17.180 -1.5043 -0.7267 -0.2064
 4141SOL    HW223886   0.672   0.283  17.135 -0.4390  1.0984 -0.8191
 4142SOL     OW23887   3.629   1.984   5.436 -0.2539 -0.6172  0.0704
 4142SOL    HW123888   3.710   1.994   5.386  0.5879  0.8395  1.7063
 4142SOL    HW223889   3.661   1.928   5.506  1.1661  0.9155  0.6420
 4143SOL     OW23890   4.603   4.262  14.028  0.2226 -0.1351 -0.3528
 4143SOL    HW123891   4.519   4.219  14.014 -0.4283 -0.0895  3.3776
 4143SOL    HW223892   4.669   4.193  14.028 -0.7138 -1.0270  0.6862
 4144SOL     OW23893   0.111   3.801   8.067 -0.0036 -0.5398  0.1486
 4144SOL    HW123894   0.177   3.800   7.998  0.4522  0.8532  0.5610
 4144SOL    HW223895   0.106   3.706   8.082 -3.2957 -0.5587 -1.2594
 4145SOL     OW23896   0.608   2.376   3.617  0.3255  0.4127 -0.2946
 4145SOL    HW123897   0.645   2.359   3.704 -1.4109  1.7232  0.7049
 4145SOL    HW223898   0.637   2.305   3.560  1.3893  0.5640  0.0582
 4146SOL     OW23899   1.923   1.624   5.265  0.0766 -0.2155  0.3343
 4146SOL    HW123900   2.008   1.611   5.222  0.4830  0.2392  0.9895
 4146SOL    HW223901   1.871   1.677   5.206  0.5791 -1.0852 -0.8953
 4147SOL     OW23902   4.505   3.392   3.439  0.3811 -0.1504  0.3898
 4147SOL    HW123903   4.485   3.362   3.350 -1.0348 -1.6042  1.2001
 4147SOL    HW223904   4.457   3.329   3.494  1.1868 -1.1578 -0.0465
 4148SOL     OW23905   4.539   2.000   3.174 -0.3441 -0.6525 -0.3119
 4148SOL    HW123906   4.490   2.047   3.241 -0.2977 -0.2282 -0.5797
 4148SOL    HW223907   4.629   2.005   3.206 -1.2858  1.6330  1.9916
 4149SOL     OW23908   1.736   0.028   3.183  0.5437  0.6601 -0.3311
 4149SOL    HW123909   1.743   4.679   3.121  2.1033  0.7078 -0.1986
 4149SOL    HW223910   1.644   0.036   3.209  0.6908  1.7216 -0.1364
 4150SOL     OW23911   0.130   3.648   7.771 -0.2544  0.3687  0.2024
 4150SOL    HW123912   0.113   3.622   7.862  0.9596  1.0007  0.6025
 4150SOL    HW223913   0.113   3.568   7.722 -0.2296  0.2066  0.4556
 4151SOL     OW23914   0.753   1.238   6.966 -0.4570  0.1569  0.2274
 4151SOL    HW123915   0.842   1.270   6.951 -0.3306 -2.3470 -4.3501
 4151SOL    HW223916   0.726   1.219   6.876 -1.4962 -1.4296  0.8751
 4152SOL     OW23917   4.704   4.548   8.800 -0.5215  0.0646  0.2731
 4152SOL    HW123918   4.682   4.605   8.874 -2.1927  0.4557 -0.5176
 4152SOL    HW223919   4.621   4.503   8.782 -1.8598  0.8901  4.5388
 4153SOL     OW23920   0.945   2.528  16.622 -0.2419  0.1248  0.2725
 4153SOL    HW123921   0.942   2.516  16.717 -3.1479 -1.1995  0.0186
 4153SOL    HW223922   1.040   2.537  16.611 -0.3128 -0.2679 -0.6147
 4154SOL     OW23923   3.099   3.530   7.195 -0.1644 -0.0029  0.1136
 4154SOL    HW123924   3.148   3.489   7.124 -0.0569 -1.3952  0.9843
 4154SOL    HW223925   3.118   3.623   7.183 -2.8264  0.7885  2.2389
 4155SOL     OW23926   1.015   4.554  17.382 -0.0844 -0.1460  0.8056
 4155SOL    HW123927   1.077   4.607  17.332 -1.2433  0.5705  0.1358
 4155SOL    HW223928   0.996   4.620  17.449  0.2444 -1.2052  1.9565
 4156SOL     OW23929   0.978   1.473   8.221  0.4886  0.1555  0.5270
 4156SOL    HW123930   0.969   1.563   8.192  2.9017 -0.3339 -1.7383
 4156SOL    HW223931   0.939   1.472   8.309  0.8477 -0.8327  0.6796
 4157SOL     OW23932   3.567   0.663   3.286  0.5800 -0.0218 -0.4021
 4157SOL    HW123933   3.589   0.592   3.346 -1.1482 -0.8220 -0.7133
 4157SOL    HW223934   3.528   0.729   3.342  1.7026  1.0650 -0.8943
 4158SOL     OW23935   3.089   3.816   0.734  0.2517 -0.4000 -0.2738
 4158SOL    HW123936   3.099   3.736   0.786 -3.0938 -1.1000 -0.7103
 4158SOL    HW223937   3.093   3.780   0.645 -0.5081  0.9473 -0.8605
 4159SOL     OW23938   3.696   3.981   7.711  0.3585 -0.1853 -0.3567
 4159SOL    HW123939   3.610   4.001   7.746  0.5954 -0.9581  0.6591
 4159SOL    HW223940   3.711   4.067   7.672  0.8399  0.3482  1.0308
 4160SOL     OW23941   0.532   1.094   3.744 -0.1784  0.5850  0.0853
 4160SOL    HW123942   0.464   1.034   3.776 -1.0634 -0.1314 -3.1213
 4160SOL    HW223943   0.579   1.098   3.827  0.8083  0.1175 -0.4524
 4161SOL     OW23944   1.378   1.711  14.989 -0.4169  0.4768  0.2242
 4161SOL    HW123945   1.378   1.706  14.893  1.5940  0.8199  0.1939
 4161SOL    HW223946   1.375   1.618  15.012  3.0722  0.6423  1.4221
 4162SOL     OW23947   2.222   3.640   7.272 -0.0694 -0.4198  0.3698
 4162SOL    HW123948   2.278   3.702   7.225 -0.0368  1.0509  2.3221
 4162SOL    HW223949   2.232   3.563   7.217 -2.9697 -0.0584 -0.6766
 4163SOL     OW23950   4.086   4.461   4.067 -0.7557  0.0555 -0.3648
 4163SOL    HW123951   4.080   4.389   4.005  0.1053 -0.5404  0.2468
 4163SOL    HW223952   4.163   4.504   4.029 -0.6748  0.5266  0.3119
 4164SOL     OW23953   4.675   0.597   8.976 -0.2175  0.5832  0.1416
 4164SOL    HW123954   0.036   0.609   8.931 -0.0601 -0.7051  0.1142
 4164SOL    HW223955   4.649   0.515   8.936 -0.1352  0.4762  0.3061
 4165SOL     OW23956   3.591   0.753  12.229  0.4416  0.2398 -0.1410
 4165SOL    HW123957   3.665   0.735  12.286 -1.3667 -1.9830  1.5216
 4165SOL    HW223958   3.537   0.683  12.264  1.2851  0.6200  1.9102
 4166SOL     OW23959   0.411   3.776   8.516  0.3036 -0.0744 -0.1528
 4166SOL    HW123960   0.356   3.791   8.439  0.5007  0.8215 -0.1273
 4166SOL    HW223961   0.348   3.798   8.585  0.7519  0.6136  0.0399
 4167SOL     OW23962   4.504   1.204   1.887  0.0935 -0.4346 -0.1198
 4167SOL    HW123963   4.509   1.217   1.982 -1.9756 -1.3126  0.1157
 4167SOL    HW223964   4.441   1.275   1.872 -0.5709 -0.7383  1.1899
 4168SOL     OW23965   3.160   3.416   2.843 -0.1014  0.3300  0.4367
 4168SOL    HW123966   3.096   3.388   2.777 -0.3144 -1.6940  1.5198
 4168SOL    HW223967   3.095   3.455   2.902 -2.7413  1.0096 -2.8862
 4169SOL     OW23968   2.504   2.224   0.790 -0.2914  0.1483  0.3762
 4169SOL    HW123969   2.466   2.140   0.815  1.6232 -0.1354  2.3842
 4169SOL    HW223970   2.528   2.205   0.700  0.6541  0.3397  0.5887
 4170SOL     OW23971   0.901   3.257   2.676  0.0432  0.0411  0.0255
 4170SOL    HW123972   0.877   3.222   2.591 -0.3198  2.8279 -1.0311
 4170SOL    HW223973   0.863   3.197   2.740 -0.2790  0.1008 -0.1107
 4171SOL     OW23974   1.254   3.537   3.800  0.0999 -0.1963 -0.1137
 4171SOL    HW123975   1.228   3.589   3.876 -1.8141 -1.4654  0.0934
 4171SOL    HW223976   1.295   3.461   3.841 -0.8177 -0.2617  0.6790
 4172SOL     OW23977   0.257   4.476   7.442 -0.2681 -0.3369  0.3186
 4172SOL    HW123978   0.165   4.464   7.466  0.0923 -1.5654  1.0698
 4172SOL    HW223979   0.302   4.476   7.526  0.7227  1.5517 -0.2123
 4173SOL     OW23980   1.179   0.048   8.760 -0.5949  0.0473  0.0596
 4173SOL    HW123981   1.148   4.681   8.754  0.6413 -0.3581 -0.2334
 4173SOL    HW223982   1.263   0.035   8.803 -0.1476 -0.3607 -0.9387
 4174SOL     OW23983   1.674   3.290   2.160 -0.2810  0.1690  0.0148
 4174SOL    HW123984   1.586   3.328   2.167  0.7878  2.0354  3.0557
 4174SOL    HW223985   1.732   3.361   2.186  1.8058 -1.1332 -1.1268
 4175SOL     OW23986   0.221   0.530   8.946 -0.3419 -0.2206 -0.1904
 4175SOL    HW123987   0.250   0.485   9.026  1.4098  0.2409 -0.5522
 4175SOL    HW223988   0.269   0.482   8.879  3.0452  0.5398  1.6588
 4176SOL     OW23989   4.262   3.924   2.631  0.2643 -0.0541 -0.3856
 4176SOL    HW123990   4.246   4.007   2.587  1.7861  0.7066  0.4840
 4176SOL    HW223991   4.352   3.899   2.612 -0.0513 -0.2854 -1.5501
 4177SOL     OW23992   3.082   3.932   7.619 -0.2592 -0.0498  0.1885
 4177SOL    HW123993   3.032   3.850   7.619 -0.5007  0.0972 -0.5909
 4177SOL    HW223994   3.101   3.930   7.712  1.1762  0.2412 -0.0950
 4178SOL     OW23995   3.510   3.127   6.283  0.4628 -0.5613  0.2186
 4178SOL    HW123996   3.470   3.193   6.227 -0.8113 -1.7202 -0.2597
 4178SOL    HW223997   3.462   3.143   6.364  0.1563  1.6910 -0.4216
 4179SOL     OW23998   3.823   1.622   6.302  0.4400  0.4674  0.0075
 4179SOL    HW123999   3.774   1.540   6.293  1.2057 -0.0639  0.6425
 4179SOL    HW224000   3.777   1.676   6.238  0.9004 -0.0292 -0.7409
 4180SOL     OW24001   3.762   0.839   1.745  0.0426  0.1235 -0.1056
 4180SOL    HW124002   3.706   0.792   1.683 -0.0147  0.7513 -0.5238
 4180SOL    HW224003   3.842   0.791   1.721 -0.5502 -1.1967  0.5365
 4181SOL     OW24004   0.216   0.668   4.783 -0.1878 -0.4090  0.3102
 4181SOL    HW124005   0.203   0.715   4.701 -1.8783 -2.4017 -0.5591
 4181SOL    HW224006   0.242   0.736   4.846 -0.6851 -0.2366  0.3309
 4182SOL     OW24007   4.090   1.716   2.097 -0.4114  0.4477 -0.5966
 4182SOL    HW124008   4.025   1.651   2.123  1.6995 -2.0171 -1.5560
 4182SOL    HW224009   4.098   1.759   2.183 -1.6253  0.4150 -0.4571
 4183SOL     OW24010   3.071   0.063  12.862 -0.1479 -0.0830 -0.2727
 4183SOL    HW124011   3.029   0.144  12.892 -1.1309 -0.9729  0.7867
 4183SOL    HW224012   3.085   0.014  12.943  2.5296 -1.8082 -1.7865
 4184SOL     OW24013   0.242   1.289   8.893  0.3485 -0.5156 -0.5846
 4184SOL    HW124014   0.297   1.297   8.971  0.0755 -2.6174 -0.1817
 4184SOL    HW224015   0.251   1.382   8.870  2.1832 -0.4011  0.6166
 4185SOL     OW24016   0.737   3.712   1.705  0.5165  0.4080  0.1789
 4185SOL    HW124017   0.667   3.777   1.714 -1.0863 -1.4119  0.9996
 4185SOL    HW224018   0.786   3.727   1.786 -0.1365  1.2556  0.4177
 4186SOL     OW24019   2.535   4.358   5.822 -0.2322 -0.2934  0.8706
 4186SOL    HW124020   2.535   4.288   5.756  2.2076  1.3376 -0.8932
 4186SOL    HW224021   2.628   4.377   5.808 -0.7282  0.9852 -0.7514
 4187SOL     OW24022   3.649   4.680  16.898 -0.2344 -0.0104  0.1837
 4187SOL    HW124023   3.579   4.700  16.835  0.5375 -1.4077 -1.1277
 4187SOL    HW224024   3.649   0.039  16.945  0.2099  0.4213 -0.5727
 4188SOL     OW24025   4.181   1.993  16.204 -0.1979 -0.4462 -0.1792
 4188SOL    HW124026   4.224   1.941  16.273 -0.4758 -0.9955 -0.4227
 4188SOL    HW224027   4.151   2.068  16.254 -2.2834 -0.1805 -1.8495
 4189SOL     OW24028   1.009   3.826   3.349 -0.1670  0.1592 -0.0070
 4189SOL    HW124029   1.061   3.771   3.291 -0.8457 -1.7757  1.2196
 4189SOL    HW224030   0.975   3.887   3.283 -0.0841  0.5914  0.3514
 4190SOL     OW24031   3.399   4.063  12.753 -0.3475  0.6083  0.1752
 4190SOL    HW124032   3.360   4.107  12.678  0.8973 -1.5620 -1.7170
 4190SOL    HW224033   3.412   3.980  12.706  1.2444  1.5337 -0.9968
 4191SOL     OW24034   3.404   1.508   8.473  0.0514 -0.1217 -1.1469
 4191SOL    HW124035   3.499   1.504   8.458  0.0434 -2.8321 -0.5245
 4191SOL    HW224036   3.396   1.563   8.551  1.0858 -2.5408  0.6695
 4192SOL     OW24037   4.232   0.692   0.506  0.4286  0.0242  0.5406
 4192SOL    HW124038   4.269   0.747   0.576 -0.2090 -0.6691  1.4223
 4192SOL    HW224039   4.233   0.754   0.434  1.3379 -0.1309  0.4100
 4193SOL     OW24040   3.682   0.440   3.666 -0.2330  0.0782  0.1439
 4193SOL    HW124041   3.647   0.358   3.701 -1.9897 -0.0016 -1.7894
 4193SOL    HW224042   3.660   0.437   3.573  0.7166  0.8592 -0.1072
 4194SOL     OW24043   3.174   0.740   3.752 -0.4087  0.4348  0.4225
 4194SOL    HW124044   3.236   0.720   3.682 -0.6963  1.1199 -0.0247
 4194SOL    HW224045   3.161   0.653   3.791  0.0656  0.8725  1.5566
 4195SOL     OW24046   1.447   3.705   7.241 -0.3482  0.3208 -0.4377
 4195SOL    HW124047   1.402   3.751   7.312  0.6633 -0.3619  0.6297
 4195SOL    HW224048   1.489   3.778   7.195  0.3055 -0.0034 -0.3559
 4196SOL     OW24049   2.973   1.845  14.633 -0.1017  0.5243  0.2346
 4196SOL    HW124050   3.002   1.776  14.693  1.0219  0.9904  0.2311
 4196SOL    HW224051   3.032   1.918  14.651 -0.8002  1.1973 -0.1988
 4197SOL     OW24052   3.001   3.559  11.646 -0.4070 -0.0661 -0.0859
 4197SOL    HW124053   3.048   3.572  11.728 -2.6824 -2.4340  1.5741
 4197SOL    HW224054   2.913   3.585  11.671 -1.3446 -1.9172 -1.4563
 4198SOL     OW24055   3.574   3.932   2.805 -0.1993 -0.5042 -0.6421
 4198SOL    HW124056   3.660   3.930   2.763  1.0766 -0.2885  1.9479
 4198SOL    HW224057   3.575   3.845   2.845  2.3316 -0.3861 -0.4139
 4199SOL     OW24058   1.532   3.898   1.959  0.3589  0.2005 -0.1070
 4199SOL    HW124059   1.553   3.975   1.906 -0.5518 -0.5643 -1.5765
 4199SOL    HW224060   1.537   3.829   1.893  1.6689 -1.3935  1.6559
 4200SOL     OW24061   0.711   3.592   3.256 -0.2156  0.0944 -0.4987
 4200SOL    HW124062   0.664   3.647   3.193 -0.8496 -0.6931 -0.7046
 4200SOL    HW224063   0.796   3.637   3.253  0.1872 -0.5998  0.3609
 4201SOL     OW24064   4.148   0.728  16.394  0.0063  0.1522  0.0045
 4201SOL    HW124065   4.065   0.718  16.442  1.2915  1.5545  2.5139
 4201SOL    HW224066   4.121   0.800  16.337  0.3679  0.5739  0.3644
 4202SOL     OW24067   0.602   2.370  16.783 -0.3073 -0.1993 -0.3570
 4202SOL    HW124068   0.624   2.375  16.690  1.5175  0.1995  0.0995
 4202SOL    HW224069   0.511   2.342  16.779 -0.4384  0.0798  0.6527
 4203SOL     OW24070   2.702   1.068  10.801 -0.2728 -0.1800  0.3850
 4203SOL    HW124071   2.780   1.122  10.814  1.9659 -3.2720 -0.2539
 4203SOL    HW224072   2.734   0.978  10.797  2.0049  0.7508 -2.1037
 4204SOL     OW24073   4.210   0.074  11.896  0.3700  0.0162 -0.4960
 4204SOL    HW124074   4.144   0.044  11.834 -1.6619 -0.1652  1.7769
 4204SOL    HW224075   4.275   0.111  11.835  0.5726  2.0987  0.9754
 4205SOL     OW24076   2.964   2.614   8.145 -0.5757 -0.2727 -0.7162
 4205SOL    HW124077   2.940   2.543   8.085 -3.7001  0.1802  0.0277
 4205SOL    HW224078   3.059   2.609   8.156 -0.6661 -1.8065 -0.5568
 4206SOL     OW24079   3.001   2.302   6.818 -0.5395 -0.2441 -0.0337
 4206SOL    HW124080   3.017   2.262   6.903  0.5072 -0.2287 -0.2259
 4206SOL    HW224081   3.077   2.261   6.778  0.6873  2.2340 -0.2773
 4207SOL     OW24082   0.460   1.175   7.115  0.1618  0.6448 -0.6370
 4207SOL    HW124083   0.554   1.155   7.113  0.0503 -0.1032  1.4340
 4207SOL    HW224084   0.434   1.152   7.026 -0.6182 -3.3209  0.6045
 4208SOL     OW24085   1.196   2.336  11.229 -0.5514  1.0652 -0.2737
 4208SOL    HW124086   1.198   2.243  11.206 -0.2082  1.3121 -1.2348
 4208SOL    HW224087   1.211   2.367  11.140 -0.8237 -0.8625 -0.9743
 4209SOL     OW24088   4.554   0.287  16.881  0.0933 -0.3603 -0.0098
 4209SOL    HW124089   4.625   0.301  16.818 -0.0765  0.3785 -0.0348
 4209SOL    HW224090   4.578   0.202  16.919  0.1127  1.4487  3.9517
 4210SOL     OW24091   2.667   2.000   6.552  0.4382  0.1900  0.2408
 4210SOL    HW124092   2.626   1.926   6.596 -1.0614 -0.3199 -2.0896
 4210SOL    HW224093   2.759   1.974   6.554  0.4510  0.0623 -2.3283
 4211SOL     OW24094   4.543   3.995   5.774  0.6417 -0.0091  0.4694
 4211SOL    HW124095   4.532   3.911   5.819 -0.6610 -0.4144 -0.6083
 4211SOL    HW224096   4.576   3.965   5.690 -1.0294  0.2746 -0.2973
 4212SOL     OW24097   2.204   0.634   1.027 -0.2313 -0.3014  0.6726
 4212SOL    HW124098   2.230   0.689   0.953 -0.2904 -1.1284  0.0361
 4212SOL    HW224099   2.116   0.667   1.044 -0.9091 -0.3984 -2.5491
 4213SOL     OW24100   0.018   0.467   8.248  0.4290 -0.1685 -0.2222
 4213SOL    HW124101   0.103   0.499   8.218 -0.7414  2.9017 -0.1614
 4213SOL    HW224102   0.004   0.404   8.177 -1.1448 -0.1384  0.0594
 4214SOL     OW24103   1.194   1.768   4.179 -0.0437  0.2882  0.2120
 4214SOL    HW124104   1.228   1.727   4.259  1.1451 -1.6325 -1.2857
 4214SOL    HW224105   1.164   1.849   4.221  0.2422  0.5942 -0.1719
 4215SOL     OW24106   1.362   3.070   0.692  0.0728 -0.3115 -0.1366
 4215SOL    HW124107   1.356   2.975   0.704  0.6358 -0.2633  0.5241
 4215SOL    HW224108   1.355   3.095   0.784  0.2747  0.1245 -0.2406
 4216SOL     OW24109   1.454   0.669   1.512  0.4087 -0.0059  0.1277
 4216SOL    HW124110   1.411   0.650   1.595  1.7335  0.4233  0.9076
 4216SOL    HW224111   1.383   0.656   1.449 -0.0243 -2.4007  1.0949
 4217SOL     OW24112   2.792   2.147   0.779 -0.1957  0.1535 -0.5358
 4217SOL    HW124113   2.763   2.080   0.717  3.3128 -0.4122 -1.5264
 4217SOL    HW224114   2.729   2.142   0.850  0.3609  3.4924  0.1803
 4218SOL     OW24115   0.854   3.376   8.309  0.0364 -0.0959 -0.1641
 4218SOL    HW124116   0.872   3.294   8.262  1.4113 -0.9313  1.8558
 4218SOL    HW224117   0.818   3.435   8.243  0.3007  1.4650  1.0975
 4219SOL     OW24118   0.152   3.950   7.041  1.1852  0.2835 -0.2962
 4219SOL    HW124119   0.118   3.975   6.954 -1.1813 -0.2825  0.4627
 4219SOL    HW224120   0.191   3.867   7.015  0.6383 -0.7860  2.4048
 4220SOL     OW24121   2.170   0.696   7.861 -0.0292  0.3147 -0.7323
 4220SOL    HW124122   2.182   0.665   7.950 -0.7332  1.3384 -0.2796
 4220SOL    HW224123   2.092   0.752   7.870 -0.4337 -0.2927 -0.4265
 4221SOL     OW24124   0.431   3.889   5.710  0.2137 -0.2529 -0.0062
 4221SOL    HW124125   0.410   3.958   5.649 -1.4231 -0.3275  0.4829
 4221SOL    HW224126   0.382   3.812   5.680 -2.3041  1.5004 -0.3075
 4222SOL     OW24127   4.471   1.872  17.683 -0.6514 -1.4018 -0.1997
 4222SOL    HW124128   4.537   1.869   0.055 -1.8225 -1.7734  0.9127
 4222SOL    HW224129   4.454   1.779  17.670 -1.7281 -1.4348  1.4154
 4223SOL     OW24130   2.400   4.368   2.990  0.1146 -0.1966 -0.0805
 4223SOL    HW124131   2.382   4.409   2.905  1.6312  2.0505  0.6805
 4223SOL    HW224132   2.433   4.284   2.958 -3.7300 -1.4241 -0.8262
 4224SOL     OW24133   3.818   3.426  15.839 -0.2948 -0.8389  0.1578
 4224SOL    HW124134   3.798   3.369  15.913 -1.4286 -1.3396 -0.5496
 4224SOL    HW224135   3.751   3.413  15.772  1.8466 -1.8505 -1.7823
 4225SOL     OW24136   3.960   2.611   6.471 -0.8041 -0.1627 -0.0722
 4225SOL    HW124137   3.913   2.566   6.541 -0.3714 -0.9719 -0.2958
 4225SOL    HW224138   4.031   2.547   6.462  1.5259  2.7417 -2.0140
 4226SOL     OW24139   1.740   3.517   0.287 -0.7226 -0.6108 -0.5807
 4226SOL    HW124140   1.747   3.484   0.377  0.9274  2.2686  0.3376
 4226SOL    HW224141   1.753   3.612   0.291 -1.0928 -0.6358  1.0746
 4227SOL     OW24142   3.730   2.987   3.786  0.0214 -0.5978 -0.3309
 4227SOL    HW124143   3.683   3.057   3.832 -1.7674 -1.8543 -0.2358
 4227SOL    HW224144   3.690   2.994   3.699 -0.4454  0.2358 -0.0517
 4228SOL     OW24145   0.544   1.767   3.514 -0.2806  0.2598  0.1760
 4228SOL    HW124146   0.524   1.702   3.581  0.9107 -0.3844 -0.1037
 4228SOL    HW224147   0.471   1.756   3.452  0.0678 -2.7622  0.2862
 4229SOL     OW24148   0.839   0.907   3.462 -0.3065 -0.0033 -0.3602
 4229SOL    HW124149   0.794   0.850   3.399 -1.7543  1.0225 -0.2659
 4229SOL    HW224150   0.928   0.873   3.473  0.0193  0.9992  0.1148
 4230SOL     OW24151   1.147   3.484  16.237  0.6689  0.0697  0.2846
 4230SOL    HW124152   1.101   3.494  16.154  1.3708  0.6213 -0.0292
 4230SOL    HW224153   1.105   3.555  16.286 -1.1507 -0.1986 -0.8611
 4231SOL     OW24154   4.025   2.846  13.652  0.7134  0.6846  0.2375
 4231SOL    HW124155   3.999   2.909  13.719  1.7758  0.8029  0.5374
 4231SOL    HW224156   3.971   2.880  13.580  1.6064  1.1551 -0.2005
 4232SOL     OW24157   3.031   1.761  12.212  0.7636  0.1255 -0.0192
 4232SOL    HW124158   3.049   1.855  12.207  2.9323 -0.3129 -0.2255
 4232SOL    HW224159   2.967   1.757  12.283 -0.4910  0.2873 -1.1335
 4233SOL     OW24160   0.886   3.656   1.144  0.3031  0.6949 -0.1342
 4233SOL    HW124161   0.940   3.676   1.221  0.2622 -0.6261  0.2402
 4233SOL    HW224162   0.926   3.577   1.107 -2.6494 -1.5451  1.4296
 4234SOL     OW24163   4.170   0.549  11.695 -0.1702 -0.4378  0.4446
 4234SOL    HW124164   4.263   0.557  11.718 -0.4710  1.6573  0.9116
 4234SOL    HW224165   4.165   0.455  11.677  0.5115 -0.3745 -0.1024
 4235SOL     OW24166   2.169   1.074  16.259  0.1119  0.0562 -0.0542
 4235SOL    HW124167   2.237   1.138  16.282  0.6994 -0.8562  0.7515
 4235SOL    HW224168   2.177   1.003  16.323  1.5787  0.2695 -0.0005
 4236SOL     OW24169   3.661   3.557   8.669 -0.3355 -0.2285  0.0787
 4236SOL    HW124170   3.728   3.497   8.703  1.2104  0.5450 -1.5891
 4236SOL    HW224171   3.680   3.549   8.576 -1.9202  2.8875 -0.5292
 4237SOL     OW24172   0.022   1.641  13.623  0.4223  0.0133  0.0951
 4237SOL    HW124173   0.104   1.682  13.650  0.5989  1.4141 -2.5932
 4237SOL    HW224174   0.054   1.622  13.534  0.9954 -0.9465  0.5050
 4238SOL     OW24175   1.525   0.118  14.145  0.0892 -0.3313 -0.2905
 4238SOL    HW124176   1.446   0.115  14.091 -0.9952 -0.1236  1.2942
 4238SOL    HW224177   1.497   0.154  14.229  1.8543  1.9883 -0.7013
 4239SOL     OW24178   0.548   1.649  13.958 -1.1570  0.0340  0.0157
 4239SOL    HW124179   0.503   1.732  13.942  2.4382  2.4468  2.3903
 4239SOL    HW224180   0.598   1.678  14.034  0.7432 -1.5416 -0.6186
 4240SOL     OW24181   4.550   0.663  13.663  0.1113  0.0448  0.4187
 4240SOL    HW124182   4.587   0.710  13.588 -1.5140  2.4526  1.1146
 4240SOL    HW224183   4.596   0.704  13.736  3.8349 -2.1990 -0.6721
 4241SOL     OW24184   4.665   0.380   0.987 -0.3324  0.8220 -0.1672
 4241SOL    HW124185   4.717   0.398   1.065  0.7974 -1.4536 -0.3650
 4241SOL    HW224186   4.593   0.339   1.035  0.1917 -2.6550 -2.3313
 4242SOL     OW24187   0.367   3.975  14.694 -0.0819 -0.1927 -0.3849
 4242SOL    HW124188   0.371   3.933  14.608  0.3211 -2.9638  0.9618
 4242SOL    HW224189   0.427   3.917  14.742 -0.0291 -0.1927 -0.4510
 4243SOL     OW24190   1.541   2.566   5.472 -0.0573  0.1261 -0.0460
 4243SOL    HW124191   1.493   2.533   5.548 -1.3608  0.5290 -0.6855
 4243SOL    HW224192   1.475   2.632   5.448 -2.3815 -1.3411  2.3905
 4244SOL     OW24193   2.676   1.049   0.652 -0.5620  0.4516  0.2819
 4244SOL    HW124194   2.699   1.140   0.631 -0.7692  0.1593 -1.1936
 4244SOL    HW224195   2.586   1.041   0.622 -1.0126  3.1695  0.8378
 4245SOL     OW24196   0.356   3.699   3.643  0.4425  0.1647  0.0448
 4245SOL    HW124197   0.307   3.634   3.693 -1.7041  2.6457  1.1605
 4245SOL    HW224198   0.320   3.783   3.671  0.2423  0.4436 -1.0329
 4246SOL     OW24199   1.559   0.068   0.523  0.1048  0.2993  0.1198
 4246SOL    HW124200   1.509   0.065   0.442  0.3444 -0.1258 -0.0073
 4246SOL    HW224201   1.570   4.703   0.555  1.0521  1.1097  2.0496
 4247SOL     OW24202   2.849   1.417   1.071 -0.2165 -0.4790  0.2689
 4247SOL    HW124203   2.843   1.490   1.009  0.6689 -0.6466 -0.0221
 4247SOL    HW224204   2.906   1.363   1.017 -0.5679  0.4645 -1.0559
 4248SOL     OW24205   2.415   0.116   3.474 -0.7167  0.4772  0.1770
 4248SOL    HW124206   2.444   0.047   3.533  0.0463 -1.3287 -2.3548
 4248SOL    HW224207   2.465   0.188   3.513 -0.2850 -0.8148  2.0133
 4249SOL     OW24208   0.946   2.450   2.921 -0.0318 -0.1316 -0.3267
 4249SOL    HW124209   0.990   2.532   2.898  0.7793  0.0455  1.7963
 4249SOL    HW224210   0.958   2.450   3.016  0.4053 -1.6599 -0.3821
 4250SOL     OW24211   1.052   3.665  12.136  0.1024  0.2701 -0.1676
 4250SOL    HW124212   1.131   3.639  12.087 -0.4783  1.0173 -1.4975
 4250SOL    HW224213   0.997   3.587  12.137 -0.2588  0.5284  0.2444
 4251SOL     OW24214   0.341   0.300   1.031 -0.5012  0.0961 -0.3812
 4251SOL    HW124215   0.334   0.337   0.943 -1.2070  1.2614  0.1656
 4251SOL    HW224216   0.262   0.248   1.039 -0.3704 -0.1066 -0.4079
 4252SOL     OW24217   3.473   0.928   4.676  0.3795 -0.4602 -1.0933
 4252SOL    HW124218   3.493   0.976   4.596 -1.3056 -1.8292 -2.3600
 4252SOL    HW224219   3.379   0.948   4.683  0.5301 -0.4645  1.0318
 4253SOL     OW24220   2.829   3.127  15.286  0.3303 -0.8215  0.1486
 4253SOL    HW124221   2.795   3.117  15.197 -1.2846  0.3429  0.6191
 4253SOL    HW224222   2.755   3.175  15.324 -0.4522 -1.3574 -0.6673
 4254SOL     OW24223   0.530   3.571   5.469 -0.1033  0.0622  0.1140
 4254SOL    HW124224   0.591   3.639   5.496  0.1166  0.4087 -1.2492
 4254SOL    HW224225   0.543   3.575   5.374 -2.2560 -0.2944 -0.1896
 4255SOL     OW24226   2.349   2.006   2.742 -0.6110 -0.6784 -1.1341
 4255SOL    HW124227   2.266   2.024   2.787 -0.1481  0.5048 -0.7272
 4255SOL    HW224228   2.329   1.931   2.686  1.2332 -1.7070 -0.4085
 4256SOL     OW24229   4.299   3.348   2.061  0.3141 -0.3652  0.2598
 4256SOL    HW124230   4.309   3.280   1.993  1.2705  0.1637 -0.1281
 4256SOL    HW224231   4.203   3.346   2.067  0.2936 -1.9419 -0.3596
 4257SOL     OW24232   1.473   1.282   4.235  0.6224  0.3011 -0.1807
 4257SOL    HW124233   1.428   1.208   4.276 -0.6882  0.3015 -1.6045
 4257SOL    HW224234   1.413   1.352   4.258  1.0428  0.4270  0.5372
 4258SOL     OW24235   2.278   3.622   3.839 -0.4254  0.2352 -0.1170
 4258SOL    HW124236   2.244   3.547   3.791  0.2731  0.0203 -0.2707
 4258SOL    HW224237   2.350   3.585   3.891 -1.1376  0.2200  0.8583
 4259SOL     OW24238   3.365   1.831  11.245  0.2544 -0.2228 -0.5072
 4259SOL    HW124239   3.289   1.830  11.303  0.9411  0.2496  0.4009
 4259SOL    HW224240   3.439   1.834  11.306 -0.9968  1.6053  0.9128
 4260SOL     OW24241   3.885   3.349  16.555  0.2847 -0.4072  0.0407
 4260SOL    HW124242   3.837   3.433  16.557 -2.0294 -1.7489  1.0768
 4260SOL    HW224243   3.967   3.368  16.600 -1.5907  0.7894  2.9824
 4261SOL     OW24244   2.022   0.022   2.730 -0.5280  0.1027 -0.1900
 4261SOL    HW124245   2.094   0.033   2.669 -0.7761  0.6847 -0.3721
 4261SOL    HW224246   1.957   0.078   2.687  1.6065  0.9764 -2.2585
 4262SOL     OW24247   3.117   4.456   3.819  0.3532  0.4788 -0.0450
 4262SOL    HW124248   3.035   4.472   3.865  0.2671 -1.2006  0.3824
 4262SOL    HW224249   3.127   4.362   3.806  1.0262  0.4430  0.7044
 4263SOL     OW24250   4.584   4.073   6.325  0.1290  0.1508  0.0041
 4263SOL    HW124251   4.512   4.045   6.381 -0.5235 -1.2055 -1.4915
 4263SOL    HW224252   4.612   3.989   6.289  1.9769  0.6557  0.2262
 4264SOL     OW24253   4.164   1.452   2.434 -0.1068  0.2226  0.1299
 4264SOL    HW124254   4.254   1.430   2.460  0.8449  2.0597 -1.6399
 4264SOL    HW224255   4.158   1.517   2.504  2.2491 -0.4024  0.9192
 4265SOL     OW24256   3.747   0.058   3.328 -0.4829  0.2190 -0.1124
 4265SOL    HW124257   3.746   0.084   3.236  0.8010 -1.8785 -0.7408
 4265SOL    HW224258   3.814   0.110   3.372  0.0309 -0.3009 -0.2861
 4266SOL     OW24259   3.587   0.641   5.964 -0.1290  0.1883 -0.1220
 4266SOL    HW124260   3.525   0.600   6.024 -1.9686  0.0638 -2.0846
 4266SOL    HW224261   3.580   0.729   6.000  2.0271 -0.3694  1.6794
 4267SOL     OW24262   2.626   1.398  11.750  0.4668  0.8220  0.2528
 4267SOL    HW124263   2.564   1.447  11.805 -0.6093 -0.4651  0.1950
 4267SOL    HW224264   2.564   1.362  11.686  1.9192 -1.6372  0.2209
 4268SOL     OW24265   2.482   3.974   5.188  0.3093 -0.1505  0.2888
 4268SOL    HW124266   2.425   3.957   5.113  0.7444  0.4561 -0.1810
 4268SOL    HW224267   2.413   3.978   5.254  0.1442  0.1654  0.0967
 4269SOL     OW24268   4.385   0.055   0.513  0.1306 -0.2590  0.0887
 4269SOL    HW124269   4.474   0.084   0.533 -0.6323  0.1287  2.9186
 4269SOL    HW224270   4.347   0.078   0.597  0.6004  1.3985 -0.1495
 4270SOL     OW24271   2.921   4.452   6.036  0.1296 -0.1518 -0.3831
 4270SOL    HW124272   2.958   4.534   6.069 -2.7558  0.8585  0.3679
 4270SOL    HW224273   3.004   4.405   6.030  0.4340  0.4261 -0.7229
 4271SOL     OW24274   1.494   4.424   8.593  0.2117  0.1942 -0.3989
 4271SOL    HW124275   1.460   4.340   8.624  2.0539 -1.2679 -2.3496
 4271SOL    HW224276   1.544   4.456   8.668 -1.2441  2.0036 -0.1919
 4272SOL     OW24277   1.233   3.803  16.151 -0.6601 -0.2760 -0.1741
 4272SOL    HW124278   1.230   3.890  16.111 -0.9047 -1.0181 -1.7833
 4272SOL    HW224279   1.152   3.794  16.200 -0.8904  0.0630 -0.4932
 4273SOL     OW24280   4.422   0.252   5.458  0.3896 -0.4728 -0.1319
 4273SOL    HW124281   4.453   0.298   5.536  0.3732  1.5382 -1.3257
 4273SOL    HW224282   4.453   0.307   5.387 -1.2897 -0.5053 -0.9095
 4274SOL     OW24283   4.159   0.135   8.325  0.2927  0.0048 -0.4257
 4274SOL    HW124284   4.101   0.118   8.399 -0.1060  1.7063 -0.3586
 4274SOL    HW224285   4.240   0.160   8.369  0.6458  0.6026 -1.4120
 4275SOL     OW24286   1.620   0.773   4.615 -0.3650  0.2960  0.1365
 4275SOL    HW124287   1.586   0.750   4.701  0.2035  0.1741  0.3304
 4275SOL    HW224288   1.650   0.864   4.622  1.2421 -0.2210 -0.0527
 4276SOL     OW24289   0.789   1.362   3.863  0.0535  0.1630 -0.0246
 4276SOL    HW124290   0.827   1.390   3.947  0.5557  1.6200 -0.7190
 4276SOL    HW224291   0.824   1.424   3.798 -0.8969 -0.9639 -1.5938
 4277SOL     OW24292   1.319   1.666   7.536 -0.0897  1.0661  0.2510
 4277SOL    HW124293   1.235   1.694   7.570 -0.5891 -0.5219  0.3378
 4277SOL    HW224294   1.283   1.599   7.478  1.9013  0.4024 -0.2393
 4278SOL     OW24295   3.915   1.372   9.824 -0.1643  0.2815  0.3210
 4278SOL    HW124296   3.899   1.353   9.916 -1.8973  0.7486  0.1182
 4278SOL    HW224297   4.003   1.411   9.823 -0.2582  0.5034  1.0988
 4279SOL     OW24298   3.090   3.026   6.578 -0.8070  0.2380  0.0423
 4279SOL    HW124299   3.040   2.953   6.617  0.7757  0.4475  2.4625
 4279SOL    HW224300   3.119   2.986   6.496  0.0119 -0.7131  0.7959
 4280SOL     OW24301   1.303   4.398   6.389  0.0319  0.1807  0.0252
 4280SOL    HW124302   1.274   4.447   6.467 -1.8154 -2.3049  0.8941
 4280SOL    HW224303   1.333   4.317   6.429  2.8744  1.1133 -0.2460
 4281SOL     OW24304   1.401   1.896  12.473 -0.2078 -0.3610 -0.2906
 4281SOL    HW124305   1.328   1.884  12.533 -1.0956  0.4993 -1.1871
 4281SOL    HW224306   1.399   1.992  12.466  0.3454 -0.3067  0.3476
 4282SOL     OW24307   2.300   0.631   6.484  0.3201  0.1696 -0.5122
 4282SOL    HW124308   2.331   0.650   6.572 -0.5758 -0.6214 -0.0178
 4282SOL    HW224309   2.260   0.714   6.456  0.6007  0.4711 -0.0099
 4283SOL     OW24310   4.567   3.268   8.050 -0.4472  0.3334 -0.3284
 4283SOL    HW124311   4.613   3.254   7.967  0.0979 -0.1995  0.0642
 4283SOL    HW224312   4.514   3.347   8.036 -0.3215  0.1666 -1.7436
 4284SOL     OW24313   0.235   0.837  17.342 -0.4755  0.3363  0.5937
 4284SOL    HW124314   0.312   0.807  17.293 -2.3755 -2.3474 -0.7129
 4284SOL    HW224315   0.208   0.753  17.380 -0.9910  1.0572  1.8256
 4285SOL     OW24316   2.418   4.380  10.851  0.1348 -0.2482 -0.2940
 4285SOL    HW124317   2.354   4.337  10.794  0.7358 -0.8551 -0.5078
 4285SOL    HW224318   2.485   4.396  10.785  1.7871 -1.9005  0.9795
 4286SOL     OW24319   2.366   4.056  10.875 -0.1800 -0.2353  0.7232
 4286SOL    HW124320   2.396   4.136  10.919 -0.7686  0.2370  0.2629
 4286SOL    HW224321   2.348   3.997  10.949 -1.0583 -0.6172  0.1942
 4287SOL     OW24322   4.106   2.967   8.508 -0.5437  0.6006 -0.4529
 4287SOL    HW124323   4.085   3.060   8.507  0.9781  0.9375 -1.6608
 4287SOL    HW224324   4.013   2.948   8.520 -0.1072  0.0879  2.0220
 4288SOL     OW24325   2.982   2.114  10.140 -0.0216 -0.1723  0.2566
 4288SOL    HW124326   2.974   2.199  10.183  0.9015 -0.2623  0.5938
 4288SOL    HW224327   2.981   2.138  10.047  0.0860 -0.9389  0.0587
 4289SOL     OW24328   0.116   1.635   8.575 -0.0437  0.1394 -0.3345
 4289SOL    HW124329   0.158   1.615   8.659 -1.1442  0.7569  0.3606
 4289SOL    HW224330   0.156   1.572   8.515 -1.3402 -0.1889 -0.8433
 4290SOL     OW24331   3.690   4.491   7.690 -0.7107 -0.2528  0.6920
 4290SOL    HW124332   3.646   4.516   7.608 -0.5996 -0.0896  0.6823
 4290SOL    HW224333   3.635   4.535   7.755  0.8421  0.3006  1.6228
 4291SOL     OW24334   0.532   1.925   6.880 -0.2971 -0.4281 -0.8743
 4291SOL    HW124335   0.547   1.989   6.809 -4.3973  1.2974 -0.1724
 4291SOL    HW224336   0.442   1.949   6.899  0.1378  0.4297  0.1341
 4292SOL     OW24337   2.952   0.358   2.429  0.1626 -0.5745  0.1792
 4292SOL    HW124338   3.045   0.368   2.450  0.5654  1.3063 -2.4409
 4292SOL    HW224339   2.937   0.405   2.347  0.1418 -1.1124 -0.1219
 4293SOL     OW24340   3.251   3.753   6.370 -0.2103 -0.4979  1.0827
 4293SOL    HW124341   3.292   3.714   6.447 -0.4546 -0.7470  1.0856
 4293SOL    HW224342   3.284   3.691   6.305  3.0273  0.6847  1.5985
 4294SOL     OW24343   3.044   4.711  10.972 -0.0739  0.1372  0.3603
 4294SOL    HW124344   3.035   4.678  11.062 -2.1918  3.0224  1.2244
 4294SOL    HW224345   3.113   0.054  10.965 -1.6785  1.8034  0.4364
 4295SOL     OW24346   4.247   2.452   6.243 -0.0878  0.0504  0.0894
 4295SOL    HW124347   4.321   2.511   6.230 -0.9578  0.8356 -1.3154
 4295SOL    HW224348   4.195   2.482   6.168  1.9949 -1.9356 -2.1543
 4296SOL     OW24349   4.232   1.164  11.423 -0.0738  0.4012  0.4147
 4296SOL    HW124350   4.139   1.145  11.412 -0.1845  0.3762  1.4424
 4296SOL    HW224351   4.225   1.257  11.442 -0.3480  0.1157  1.7173
 4297SOL     OW24352   3.094   3.116  15.313  0.2842 -0.6272 -0.1696
 4297SOL    HW124353   3.000   3.126  15.298  0.1784  0.7066  1.4424
 4297SOL    HW224354   3.092   3.043  15.375 -0.7763 -0.9442 -0.5744
 4298SOL     OW24355   4.134   1.676  13.761 -0.4248  0.7763  0.6355
 4298SOL    HW124356   4.062   1.615  13.779 -0.0844  0.5918  1.3787
 4298SOL    HW224357   4.190   1.622  13.705 -0.9900 -0.5593  1.3443
 4299SOL     OW24358   0.288   2.274   7.931  0.0853  0.3380  0.5329
 4299SOL    HW124359   0.209   2.298   7.980 -1.4870 -1.1928 -1.2550
 4299SOL    HW224360   0.254   2.206   7.872  0.3320  0.9600 -0.3288
 4300SOL     OW24361   3.876   4.145  17.002 -0.3804 -0.0904  0.0271
 4300SOL    HW124362   3.857   4.190  17.085  0.5613  0.5694 -0.1204
 4300SOL    HW224363   3.808   4.188  16.951  0.2069  0.5228 -0.2268
 4301SOL     OW24364   1.389   2.775   5.875  0.4176 -0.4939 -0.4850
 4301SOL    HW124365   1.312   2.815   5.833  1.9757  2.1417 -0.8295
 4301SOL    HW224366   1.347   2.698   5.913  0.0597  1.1002  2.3789
 4302SOL     OW24367   0.384   0.522  10.373  0.0483 -0.3788 -0.5923
 4302SOL    HW124368   0.380   0.470  10.293 -1.8673 -0.7196 -0.2592
 4302SOL    HW224369   0.450   0.587  10.347  0.9563 -0.8129  0.5785
 4303SOL     OW24370   3.430   3.855   4.392  0.1183  0.0705 -0.5509
 4303SOL    HW124371   3.390   3.844   4.478  1.8384 -1.6109  0.0502
 4303SOL    HW224372   3.361   3.910   4.355  0.7069  1.2488  0.0783
 4304SOL     OW24373   3.047   1.426   9.363 -0.5994 -0.0253 -0.7280
 4304SOL    HW124374   3.018   1.491   9.298 -1.0228  0.5806  0.0650
 4304SOL    HW224375   3.063   1.489   9.433  1.4412  0.3159 -1.5025
 4305SOL     OW24376   0.017   2.481   7.098  0.0137  0.0383 -0.0361
 4305SOL    HW124377   0.047   2.524   7.178  1.7947  0.1437 -0.7614
 4305SOL    HW224378   0.048   2.543   7.033  0.4420 -0.7005 -0.5431
 4306SOL     OW24379   2.132   3.940   3.196  0.6744  0.9170 -0.0977
 4306SOL    HW124380   2.138   4.025   3.240 -0.3904  1.3637 -0.8286
 4306SOL    HW224381   2.208   3.933   3.138 -1.4567  1.2277 -2.8616
 4307SOL     OW24382   1.564   2.435  11.657 -0.2914 -0.6544  0.3590
 4307SOL    HW124383   1.624   2.363  11.640 -2.3829 -2.2723 -0.2488
 4307SOL    HW224384   1.501   2.414  11.588  0.1531  0.4667 -0.3870
 4308SOL     OW24385   0.790   3.513   2.679  0.2115  0.7029  0.0728
 4308SOL    HW124386   0.706   3.466   2.677 -0.2495  1.4834  0.8550
 4308SOL    HW224387   0.851   3.439   2.676  2.7452  2.7928  0.6833
 4309SOL     OW24388   2.979   1.244  12.646 -0.1090  0.0717  0.0784
 4309SOL    HW124389   3.074   1.238  12.649 -0.1573 -0.3827  0.7587
 4309SOL    HW224390   2.951   1.305  12.714 -0.8376  0.4075 -0.5311
 4310SOL     OW24391   2.431   4.341   8.415 -0.6718 -0.0786 -0.4293
 4310SOL    HW124392   2.433   4.393   8.496  0.2020 -0.8232  0.0279
 4310SOL    HW224393   2.338   4.318   8.415 -0.7682  0.3362 -2.0055
 4311SOL     OW24394   0.334   0.093   2.360  0.1316 -0.4661 -0.3262
 4311SOL    HW124395   0.349   0.002   2.332 -3.7999 -1.4201  0.7269
 4311SOL    HW224396   0.239   0.096   2.364  0.2101 -1.1894  1.9113
 4312SOL     OW24397   1.674   4.712   2.189  0.1879  0.0802 -0.1518
 4312SOL    HW124398   1.599   4.676   2.142 -0.3776  2.2634 -0.8803
 4312SOL    HW224399   1.732   4.636   2.192 -1.0117 -0.8120  1.1036
 4313SOL     OW24400   0.458   0.795   4.051  0.2850  0.0428  0.0522
 4313SOL    HW124401   0.500   0.765   4.131  1.7066 -0.0054 -0.7151
 4313SOL    HW224402   0.510   0.871   4.026 -0.8290  1.2582  1.3968
 4314SOL     OW24403   2.398   1.290   3.643 -0.3014  0.3086 -0.0498
 4314SOL    HW124404   2.436   1.377   3.628  0.2937  0.0655  0.0785
 4314SOL    HW224405   2.476   1.247   3.676 -1.0535 -0.7120  0.4074
 4315SOL     OW24406   2.133   3.125  11.532 -0.1829  0.4605  0.3387
 4315SOL    HW124407   2.126   3.029  11.525  1.8372  0.3074  0.4854
 4315SOL    HW224408   2.115   3.136  11.626 -0.2513 -0.0871  0.3925
 4316SOL     OW24409   1.772   3.529  15.837  0.6320  0.1002  0.1174
 4316SOL    HW124410   1.727   3.592  15.781 -2.3167 -3.4699 -1.4432
 4316SOL    HW224411   1.712   3.457  15.824 -0.8465  1.0766  1.5131
 4317SOL     OW24412   4.124   1.931  13.558  0.1683 -0.1699  0.5812
 4317SOL    HW124413   4.085   1.912  13.644 -2.2855  0.2111 -0.4407
 4317SOL    HW224414   4.068   2.002  13.526  2.4879  1.2638 -0.3092
 4318SOL     OW24415   2.006   1.085   0.762  0.2217 -0.0608 -0.3787
 4318SOL    HW124416   1.962   1.053   0.683 -1.5963  0.7943  0.2814
 4318SOL    HW224417   2.032   1.173   0.737  0.6703 -0.6816 -2.0873
 4319SOL     OW24418   2.084   0.038  10.222  0.0021  0.0205  0.6118
 4319SOL    HW124419   2.098   0.111  10.162  0.9200  0.2069  1.0669
 4319SOL    HW224420   2.033   0.066  10.298  1.9708  5.0560  0.0750
 4320SOL     OW24421   0.640   1.512   3.628 -0.5512 -0.1528  0.3382
 4320SOL    HW124422   0.600   1.438   3.583 -1.2923  0.1345  0.5347
 4320SOL    HW224423   0.725   1.522   3.583 -0.6928  1.9233  0.5590
 4321SOL     OW24424   2.203   2.182   6.652 -0.0729 -0.2687  0.2844
 4321SOL    HW124425   2.149   2.105   6.670  0.0654 -0.3677  0.2719
 4321SOL    HW224426   2.147   2.257   6.631  2.2700  0.8427 -2.0666
 4322SOL     OW24427   1.617   1.066  13.921 -0.5958 -0.3081  0.5522
 4322SOL    HW124428   1.614   1.150  13.967  2.4219 -1.1882  2.3411
 4322SOL    HW224429   1.681   1.017  13.973  1.5241  1.8761 -0.0057
 4323SOL     OW24430   3.703   0.800   2.012 -0.0661  0.6554  0.6019
 4323SOL    HW124431   3.722   0.798   1.918 -0.8177  2.6689  0.4028
 4323SOL    HW224432   3.608   0.807   2.012 -0.0423  1.1207 -2.3231
 4324SOL     OW24433   4.343   3.201   3.540  0.7529  0.2566  0.0532
 4324SOL    HW124434   4.369   3.163   3.624 -1.0828  0.0705  0.5530
 4324SOL    HW224435   4.378   3.133   3.483  0.4575  0.1920 -0.0506
 4325SOL     OW24436   3.118   3.040   5.495 -0.5887 -0.4531  0.3259
 4325SOL    HW124437   3.112   3.056   5.590  0.2447  1.7430  0.0038
 4325SOL    HW224438   3.199   3.083   5.468 -1.9675  2.5224  0.8676
 4326SOL     OW24439   1.620   4.171   6.866 -0.3416  0.0234 -0.0922
 4326SOL    HW124440   1.600   4.255   6.908  0.1187  0.0427  0.0868
 4326SOL    HW224441   1.663   4.124   6.938 -3.9054 -1.7151  0.8945
 4327SOL     OW24442   4.433   2.692   0.411  0.2337  0.3066  0.0872
 4327SOL    HW124443   4.405   2.682   0.320  1.5498  1.0934 -0.4052
 4327SOL    HW224444   4.349   2.677   0.453  0.1302  2.0185  0.4667
 4328SOL     OW24445   0.781   0.407   4.592 -0.4776 -0.4354  0.3621
 4328SOL    HW124446   0.709   0.385   4.533 -1.8640  0.4732  1.7053
 4328SOL    HW224447   0.839   0.462   4.540  1.0050 -1.4006  0.9946
 4329SOL     OW24448   0.839   1.540   3.454 -0.7316  0.1261  0.4756
 4329SOL    HW124449   0.802   1.610   3.399 -0.0523 -0.3177 -0.5556
 4329SOL    HW224450   0.861   1.477   3.385 -1.2177  0.0019  0.4278
 4330SOL     OW24451   1.726   4.474  12.259  0.2066 -0.9104  0.1670
 4330SOL    HW124452   1.783   4.532  12.309  0.5454 -1.7495  0.7644
 4330SOL    HW224453   1.800   4.442  12.206 -1.1427 -1.6268 -1.2912
 4331SOL     OW24454   3.117   3.933   5.752 -0.1092  0.0224  0.3066
 4331SOL    HW124455   3.170   3.894   5.821  1.2172  1.7150  0.2470
 4331SOL    HW224456   3.189   3.977   5.706  0.1624 -0.2564  0.4666
 4332SOL     OW24457   1.613   4.719   3.491 -0.1158 -0.2097 -0.1880
 4332SOL    HW124458   1.618   4.658   3.417 -0.2642 -0.6484  0.1640
 4332SOL    HW224459   1.664   4.682   3.563 -1.3788  0.8936  1.2487
 4333SOL     OW24460   0.556   3.273   0.922 -0.0067  0.0915  0.2228
 4333SOL    HW124461   0.482   3.227   0.962  0.7052 -2.2157 -1.0843
 4333SOL    HW224462   0.529   3.297   0.833 -0.9359  1.6328  0.9204
 4334SOL     OW24463   1.974   0.177   2.977  0.0008 -0.0820  0.3047
 4334SOL    HW124464   2.007   0.132   2.900 -1.2871  1.1107 -0.9588
 4334SOL    HW224465   2.056   0.185   3.026 -1.2711  0.3381  2.3901
 4335SOL     OW24466   3.279   2.604  16.185  0.1939  0.1324 -0.1201
 4335SOL    HW124467   3.301   2.696  16.205 -0.7023  0.5621 -1.1100
 4335SOL    HW224468   3.365   2.561  16.183 -0.9127 -1.9940 -1.6249
 4336SOL     OW24469   3.213   1.280   9.666  0.1309  0.2227 -0.4768
 4336SOL    HW124470   3.260   1.331   9.601 -1.4390  0.8565 -1.1050
 4336SOL    HW224471   3.198   1.202   9.611 -1.0684  0.0996  0.0353
 4337SOL     OW24472   1.533   1.998  12.769 -0.6576  0.3375  0.0654
 4337SOL    HW124473   1.605   1.946  12.732 -1.1810  0.3573 -0.9627
 4337SOL    HW224474   1.454   1.982  12.717 -0.7730  2.6246 -0.4599
 4338SOL     OW24475   2.674   0.604   2.343 -0.0995 -0.4519 -0.3160
 4338SOL    HW124476   2.699   0.549   2.417  3.1726 -0.1789 -1.2290
 4338SOL    HW224477   2.722   0.685   2.356  0.7384 -0.9421 -0.3863
 4339SOL     OW24478   0.388   0.767  16.533 -0.4074  0.6624 -0.1159
 4339SOL    HW124479   0.427   0.732  16.613  0.9768 -2.3784 -2.1113
 4339SOL    HW224480   0.423   0.708  16.465 -3.2497 -0.6769 -0.4250
 4340SOL     OW24481   1.552   1.484   5.079 -0.0262  0.0289 -0.0537
 4340SOL    HW124482   1.630   1.446   5.040  0.3026  0.4826  0.1573
 4340SOL    HW224483   1.532   1.415   5.142 -1.4145  2.3325  2.0917
 4341SOL     OW24484   2.429   1.319   1.612  0.3252  0.7294  0.3150
 4341SOL    HW124485   2.506   1.301   1.559  1.5112  3.8202  0.9671
 4341SOL    HW224486   2.403   1.228   1.621  1.3210  0.1866 -2.3571
 4342SOL     OW24487   2.844   3.781   8.163  0.5020 -0.0846  0.6562
 4342SOL    HW124488   2.923   3.808   8.210  0.5236 -0.1567  0.6607
 4342SOL    HW224489   2.792   3.751   8.237  1.3972 -2.3844  0.3435
 4343SOL     OW24490   3.309   2.772   5.812  0.0621  0.4377 -0.0752
 4343SOL    HW124491   3.360   2.832   5.757 -1.6057  1.7275 -0.2145
 4343SOL    HW224492   3.227   2.760   5.765 -0.0404  0.5140  0.0871
 4344SOL     OW24493   4.219   0.975   4.777  0.4372 -0.5288  0.8330
 4344SOL    HW124494   4.289   0.921   4.740 -0.9354 -1.3552 -0.5307
 4344SOL    HW224495   4.168   0.910   4.826  0.6155  0.4869  2.3711
 4345SOL     OW24496   1.098   1.314   2.173 -0.0305 -0.3427  0.9148
 4345SOL    HW124497   1.146   1.396   2.173 -1.2191  0.3534  0.1086
 4345SOL    HW224498   1.115   1.280   2.085 -0.2475  0.3477  0.6109
 4346SOL     OW24499   4.639   1.380  13.427  0.1375 -0.2659  0.3450
 4346SOL    HW124500   4.648   1.470  13.394  0.9782  0.6351  3.0298
 4346SOL    HW224501   4.554   1.350  13.395  0.5134 -0.4627 -0.4847
 4347SOL     OW24502   1.137   2.366   1.667 -0.3638 -0.0585 -0.3300
 4347SOL    HW124503   1.153   2.460   1.664 -0.9236  0.0066 -1.4225
 4347SOL    HW224504   1.045   2.359   1.640 -1.0856  0.0135  2.0873
 4348SOL     OW24505   0.536   2.062   2.303  0.3091 -0.0174 -0.8914
 4348SOL    HW124506   0.568   2.139   2.256 -1.7375  0.9182 -0.7136
 4348SOL    HW224507   0.571   2.082   2.390 -1.9602 -2.2294  0.5249
 4349SOL     OW24508   3.186   3.107   4.586  0.6349  0.1453  0.2151
 4349SOL    HW124509   3.222   3.188   4.622  2.2089 -0.5860  0.2958
 4349SOL    HW224510   3.100   3.104   4.628  0.3915  2.0074 -0.1558
 4350SOL     OW24511   3.933   2.415  17.162  0.0693 -0.0859 -0.2062
 4350SOL    HW124512   4.020   2.407  17.123 -0.5032 -1.6102 -1.1832
 4350SOL    HW224513   3.889   2.479  17.106 -1.1428 -0.8337 -0.1222
 4351SOL     OW24514   2.571   2.288   5.582  0.4885 -0.2144 -0.3355
 4351SOL    HW124515   2.504   2.265   5.647  2.5405 -1.3511  1.3946
 4351SOL    HW224516   2.654   2.287   5.630 -0.4560 -0.3712  1.3102
 4352SOL     OW24517   0.171   4.119   1.389  0.0013  0.2220  0.3649
 4352SOL    HW124518   0.186   4.190   1.326 -1.2982  0.6959  0.5998
 4352SOL    HW224519   0.212   4.040   1.352 -0.4597 -0.0035  0.3440
 4353SOL     OW24520   1.797   1.589   0.727 -0.0769 -0.0844 -0.4212
 4353SOL    HW124521   1.879   1.555   0.764 -0.2895 -1.7664 -1.4883
 4353SOL    HW224522   1.761   1.643   0.797 -0.4946 -1.6540  0.5730
 4354SOL     OW24523   1.026   2.621   6.419 -0.1380 -0.0276  0.0549
 4354SOL    HW124524   1.017   2.692   6.357  1.2936  0.2541  0.1642
 4354SOL    HW224525   0.967   2.650   6.489 -0.3125  2.1223 -1.0016
 4355SOL     OW24526   4.018   0.792   6.269  0.4198  0.2629  0.4411
 4355SOL    HW124527   4.086   0.798   6.335  1.4645  0.0151 -0.6185
 4355SOL    HW224528   4.024   0.698   6.252 -1.5857 -0.4395  3.6024
 4356SOL     OW24529   1.791   2.117   7.430 -0.4378  0.1835  0.2428
 4356SOL    HW124530   1.773   2.036   7.478  0.7698  0.9472  2.0205
 4356SOL    HW224531   1.868   2.105   7.375  0.6077  2.7894  1.1382
 4357SOL     OW24532   2.286   0.334  15.733  0.3208 -0.5212 -0.3546
 4357SOL    HW124533   2.249   0.274  15.798 -0.9640 -0.6124 -1.1608
 4357SOL    HW224534   2.372   0.360  15.767 -0.9919  0.6617  2.0776
 4358SOL     OW24535   4.650   1.096  17.541  0.0716 -0.4530  0.1906
 4358SOL    HW124536   0.020   1.082  17.523  0.0008  0.0483 -0.5582
 4358SOL    HW224537   4.643   1.184  17.503  1.7665  0.3030  1.6221
 4359SOL     OW24538   4.172   1.602  10.174 -0.3168 -0.1960  0.0129
 4359SOL    HW124539   4.256   1.556  10.165 -1.7247 -2.3311 -1.9807
 4359SOL    HW224540   4.193   1.653  10.253 -2.7595  0.0131  0.5104
 4360SOL     OW24541   4.090   2.557  15.146 -0.4604  0.0533 -0.4399
 4360SOL    HW124542   4.126   2.622  15.085  1.5342 -0.4655  0.1723
 4360SOL    HW224543   4.164   2.554  15.207  0.1892  1.1390 -1.1750
 4361SOL     OW24544   3.932   2.274   5.999 -0.0950  0.0019 -0.2267
 4361SOL    HW124545   3.857   2.295   5.943 -0.6209 -0.6284  0.2443
 4361SOL    HW224546   3.964   2.363   6.015 -0.6585 -0.1235  1.6050
 4362SOL     OW24547   0.634   1.436  14.184 -0.1120 -0.3425 -0.2566
 4362SOL    HW124548   0.697   1.465  14.119  0.6374  1.8799  1.4449
 4362SOL    HW224549   0.564   1.398  14.131 -1.1128  2.6028 -1.0768
 4363SOL     OW24550   1.508   4.296  16.591 -0.0463 -0.1957 -0.2107
 4363SOL    HW124551   1.540   4.240  16.521 -2.4027 -2.2077  0.3434
 4363SOL    HW224552   1.553   4.266  16.670  0.0480  0.1449 -0.1314
 4364SOL     OW24553   0.095   4.657   6.575  0.8414  0.5028 -0.4239
 4364SOL    HW124554   0.088   4.616   6.489  2.1318 -1.4264  0.3870
 4364SOL    HW224555   0.162   4.606   6.621  1.9281  2.0111 -0.3471
 4365SOL     OW24556   2.033   3.438   3.597  0.0036 -0.0709 -0.2242
 4365SOL    HW124557   2.058   3.403   3.682  0.5184 -0.3804 -0.5054
 4365SOL    HW224558   1.966   3.503   3.618  0.8895  0.8343 -0.1912
 4366SOL     OW24559   0.241   0.217  15.880 -0.2137 -0.3939 -0.6664
 4366SOL    HW124560   0.297   0.158  15.932  1.5633  0.5323 -1.5387
 4366SOL    HW224561   0.308   0.271  15.840  0.4780  0.5468  1.7465
 4367SOL     OW24562   4.104   0.918   4.020  0.1764 -0.1641 -0.4287
 4367SOL    HW124563   4.117   1.010   4.043 -0.3275  0.0039 -0.7977
 4367SOL    HW224564   4.024   0.905   4.071 -0.1042  1.9869 -0.3084
 4368SOL     OW24565   3.064   0.200   2.918  0.5284  0.5208  0.0124
 4368SOL    HW124566   3.137   0.201   2.856 -0.2397 -1.3890 -0.9324
 4368SOL    HW224567   3.088   0.279   2.966  0.6202  2.4350 -3.1573
 4369SOL     OW24568   2.993   0.737   6.673  0.3387 -0.5144 -0.5282
 4369SOL    HW124569   2.929   0.779   6.732 -1.3997 -2.3769 -1.0758
 4369SOL    HW224570   3.065   0.726   6.735  0.1954 -1.1205 -0.4742
 4370SOL     OW24571   3.240   2.984   2.401 -0.3779  0.0356  0.4437
 4370SOL    HW124572   3.242   2.936   2.484 -1.3385  1.6442  1.4032
 4370SOL    HW224573   3.153   3.022   2.400 -0.5164 -0.2096  2.0063
 4371SOL     OW24574   3.371   4.210   6.501  0.0501 -0.6318  0.4298
 4371SOL    HW124575   3.394   4.199   6.593 -1.1978 -0.2434  0.7894
 4371SOL    HW224576   3.397   4.125   6.465  0.1342 -0.9683  1.2868
 4372SOL     OW24577   3.584   3.752  11.091 -0.4113 -0.5738  0.5064
 4372SOL    HW124578   3.600   3.785  11.180 -1.2362  0.2924  0.3354
 4372SOL    HW224579   3.585   3.839  11.051 -0.7413 -0.0866  1.5408
 4373SOL     OW24580   3.083   2.096   2.074 -0.2334  0.6978  0.3447
 4373SOL    HW124581   2.988   2.096   2.076 -0.2472  2.7915 -0.9720
 4373SOL    HW224582   3.095   2.007   2.107  0.0844  0.7711  0.4306
 4374SOL     OW24583   4.074   2.081   6.431  0.5974  0.1776 -0.2710
 4374SOL    HW124584   4.111   2.139   6.497 -2.5513 -0.5723  2.1646
 4374SOL    HW224585   4.031   2.137   6.366  1.2088 -0.8589 -1.5691
 4375SOL     OW24586   1.803   2.405   4.822 -0.3287  0.2626 -0.2850
 4375SOL    HW124587   1.806   2.428   4.729  0.5029 -0.1784 -0.3732
 4375SOL    HW224588   1.848   2.320   4.819 -1.1179 -0.2196  1.7338
 4376SOL     OW24589   3.715   1.685   6.841  0.1253  0.4656 -0.0976
 4376SOL    HW124590   3.776   1.639   6.782  0.5176  2.3034 -1.1039
 4376SOL    HW224591   3.684   1.753   6.782 -0.0279 -0.5044 -1.1397
 4377SOL     OW24592   2.795   3.238   8.856 -0.3330 -0.0386 -0.0440
 4377SOL    HW124593   2.758   3.162   8.901  1.6743  0.7775  2.9821
 4377SOL    HW224594   2.788   3.197   8.770 -0.6421  0.2293 -0.1464
 4378SOL     OW24595   1.876   1.834   8.236  0.9386  0.1724 -0.3234
 4378SOL    HW124596   1.885   1.929   8.238 -0.5207  0.3095  0.0133
 4378SOL    HW224597   1.786   1.817   8.266  1.0356 -2.4160 -1.4805
 4379SOL     OW24598   1.777   0.558   6.953 -0.1813  0.5411  0.5795
 4379SOL    HW124599   1.716   0.608   6.900 -1.0671 -1.7529 -0.5543
 4379SOL    HW224600   1.790   0.612   7.031  0.0144 -0.7779  1.4528
 4380SOL     OW24601   2.168   0.672   4.280 -1.0602 -0.1459 -0.8610
 4380SOL    HW124602   2.261   0.649   4.289 -0.8871  1.0765  0.4874
 4380SOL    HW224603   2.140   0.731   4.350  0.2064 -0.7125  0.1299
 4381SOL     OW24604   0.806   0.373   2.453 -0.7434  0.2215 -0.2778
 4381SOL    HW124605   0.774   0.427   2.381  1.8878  0.7909 -1.0227
 4381SOL    HW224606   0.745   0.396   2.522 -1.8418 -0.7846 -0.9099
 4382SOL     OW24607   0.061   4.676   0.990  0.0227  0.1756  0.0138
 4382SOL    HW124608   0.070   0.010   1.066 -1.6891  1.0168 -0.4070
 4382SOL    HW224609   4.689   4.689   0.989  0.3776  2.9174  1.9178
 4383SOL     OW24610   0.541   2.102   7.400  0.7222 -0.3863  0.2384
 4383SOL    HW124611   0.486   2.136   7.471  0.8773  2.2780 -0.9026
 4383SOL    HW224612   0.612   2.165   7.413  2.6912 -2.5312 -0.0754
 4384SOL     OW24613   2.848   4.223   3.787 -0.1428  0.0353  0.4878
 4384SOL    HW124614   2.857   4.273   3.705  2.1865  1.4734  1.6452
 4384SOL    HW224615   2.765   4.264   3.813 -0.1735 -0.8822  1.8403
 4385SOL     OW24616   0.499   2.308   5.337 -0.0396 -0.6243 -0.4342
 4385SOL    HW124617   0.588   2.327   5.366 -0.8377 -0.9292  2.2356
 4385SOL    HW224618   0.446   2.292   5.415 -2.6377 -0.7511 -2.1968
 4386SOL     OW24619   0.307   1.856   7.587 -0.3591  0.7698  0.2363
 4386SOL    HW124620   0.291   1.869   7.493 -0.9541 -0.0840  0.2277
 4386SOL    HW224621   0.221   1.821   7.609 -0.8929 -0.0170 -3.1657
 4387SOL     OW24622   1.894   3.379   9.258  0.1983  0.0338 -0.0620
 4387SOL    HW124623   1.838   3.312   9.298 -0.0342  0.8125  0.9236
 4387SOL    HW224624   1.976   3.337   9.284 -0.5859  0.7424  3.5508
 4388SOL     OW24625   1.532   0.527   2.244 -0.6037  0.1519 -0.6114
 4388SOL    HW124626   1.456   0.578   2.271  0.0538  0.5522  0.4673
 4388SOL    HW224627   1.497   0.474   2.172  1.8534 -1.3752 -0.6866
 4389SOL     OW24628   3.541   4.564   2.587  0.0656  0.2912  0.2034
 4389SOL    HW124629   3.554   4.502   2.516  0.4917 -0.4722  0.9491
 4389SOL    HW224630   3.617   4.545   2.642 -0.0357  1.1061  0.6307
 4390SOL     OW24631   0.155   4.719   4.731  0.4885 -0.0004  0.5807
 4390SOL    HW124632   0.151   0.059   4.659  3.1429 -1.0541 -0.4942
 4390SOL    HW224633   0.110   4.650   4.683 -0.6933  1.4760 -0.4343
 4391SOL     OW24634   4.138   0.566   1.221  0.1007 -0.5026 -0.1086
 4391SOL    HW124635   4.130   0.574   1.126 -0.4170  1.1516  0.0652
 4391SOL    HW224636   4.045   0.560   1.240  0.0640  0.8249  0.1628
 4392SOL     OW24637   0.598   0.589   5.521 -0.1954 -0.0091  0.6050
 4392SOL    HW124638   0.546   0.510   5.534 -0.5066  0.2736  1.1213
 4392SOL    HW224639   0.682   0.553   5.496 -0.7739 -2.7269  2.6158
 4393SOL     OW24640   1.097   0.069   4.286  0.0726  0.4669  0.5927
 4393SOL    HW124641   1.006   0.074   4.257 -0.5216 -0.3596  2.2986
 4393SOL    HW224642   1.105   0.160   4.314 -2.1585  0.9539 -0.3830
 4394SOL     OW24643   0.524   1.882  11.318  0.0140 -0.0568 -0.2777
 4394SOL    HW124644   0.530   1.789  11.337  0.1371 -0.4127 -2.0912
 4394SOL    HW224645   0.601   1.899  11.264 -1.5610  1.9525 -1.8641
 4395SOL     OW24646   4.174   0.874   7.898  0.1076 -0.1801 -0.2149
 4395SOL    HW124647   4.120   0.905   7.971 -0.5605 -0.3474 -0.6312
 4395SOL    HW224648   4.129   0.924   7.830  0.2456 -0.8614 -0.8100
 4396SOL     OW24649   3.668   0.111  12.476  0.1582  0.1178  0.3217
 4396SOL    HW124650   3.721   0.066  12.410  0.6686  2.9689 -1.2024
 4396SOL    HW224651   3.647   0.046  12.543 -0.4269 -0.3424 -0.3025
 4397SOL     OW24652   3.358   3.596   4.015  0.5707  0.7630 -0.3102
 4397SOL    HW124653   3.358   3.502   3.997  2.7398  0.6174  0.3973
 4397SOL    HW224654   3.270   3.620   3.987  1.6808  2.8126 -2.0036
 4398SOL     OW24655   4.386   4.553   4.933 -0.1277  0.0714 -0.4497
 4398SOL    HW124656   4.428   4.638   4.927 -1.5776  0.6516 -2.4412
 4398SOL    HW224657   4.458   4.494   4.954 -0.4593  0.3083  1.3309
 4399SOL     OW24658   3.526   1.336   3.231  0.3939  0.1014 -0.4820
 4399SOL    HW124659   3.534   1.353   3.137 -2.0519  0.1171 -0.6920
 4399SOL    HW224660   3.453   1.396   3.244  1.1634  1.1840 -1.2082
 4400SOL     OW24661   4.509   4.164   7.165 -1.0535  0.8534  0.2506
 4400SOL    HW124662   4.415   4.176   7.175 -1.0106 -0.0314  1.6937
 4400SOL    HW224663   4.506   4.085   7.111 -0.9734  2.7560 -2.5380
 4401SOL     OW24664   1.989   1.015  13.883  0.1105 -0.7475 -0.3737
 4401SOL    HW124665   2.006   0.928  13.920  0.4112 -0.4391  0.1970
 4401SOL    HW224666   2.057   1.060  13.933 -1.3405  1.1462 -0.1324
 4402SOL     OW24667   3.159   1.767   5.464  0.5891 -0.3938 -0.6357
 4402SOL    HW124668   3.235   1.815   5.432  0.6901 -1.7060 -2.3820
 4402SOL    HW224669   3.099   1.838   5.486  0.6846 -0.0578 -1.4537
 4403SOL     OW24670   1.661   1.631  16.459 -0.0591 -0.1377 -0.0740
 4403SOL    HW124671   1.670   1.690  16.384 -2.4681 -1.8194 -1.6709
 4403SOL    HW224672   1.705   1.554  16.422  1.6343  0.5392  0.5410
 4404SOL     OW24673   3.588   2.024   0.634 -0.1921  0.1740  0.0983
 4404SOL    HW124674   3.579   2.006   0.727 -0.6100 -2.0302 -0.3636
 4404SOL    HW224675   3.678   1.992   0.626  0.2932  1.7423 -0.7183
 4405SOL     OW24676   0.866   2.376   8.307  0.4154  0.1629  0.7259
 4405SOL    HW124677   0.825   2.428   8.238  1.3908  0.8533  0.6739
 4405SOL    HW224678   0.796   2.310   8.315 -1.8855  2.1715 -2.7705
 4406SOL     OW24679   1.193   3.764  16.497 -0.4465 -0.0095 -0.2898
 4406SOL    HW124680   1.278   3.745  16.458  0.2712 -0.1693  1.3337
 4406SOL    HW224681   1.137   3.767  16.419  0.5974  0.6212 -1.0077
 4407SOL     OW24682   4.056   2.505  14.780 -0.6412  0.5520 -0.7425
 4407SOL    HW124683   4.020   2.510  14.692 -0.5774 -1.0040 -0.8628
 4407SOL    HW224684   4.105   2.587  14.776 -1.8934  1.4302  1.7214
 4408SOL     OW24685   1.432   3.467   1.699  0.2391 -0.5981 -0.7027
 4408SOL    HW124686   1.368   3.438   1.764 -0.8903  0.5785 -1.2926
 4408SOL    HW224687   1.438   3.389   1.643 -0.9592 -1.1442 -0.0620
 4409SOL     OW24688   1.974   1.377   5.389 -0.0457  0.1129 -0.0991
 4409SOL    HW124689   1.941   1.439   5.325  1.2099  0.4586 -0.4032
 4409SOL    HW224690   2.044   1.427   5.430  1.1704 -1.8408  0.2436
 4410SOL     OW24691   2.724   4.302   0.396 -0.0569  0.1002  0.2456
 4410SOL    HW124692   2.637   4.294   0.355  0.1072  0.4029 -0.1557
 4410SOL    HW224693   2.705   4.374   0.456 -1.2664 -0.0402  0.0417
 4411SOL     OW24694   3.810   3.312  15.528 -0.4329 -0.1552 -0.0107
 4411SOL    HW124695   3.844   3.228  15.558 -1.4045 -0.2266  0.8718
 4411SOL    HW224696   3.728   3.320  15.576 -1.0076  0.2416 -1.0467
 4412SOL     OW24697   3.637   2.603   1.782  0.3152  0.1566 -0.2727
 4412SOL    HW124698   3.609   2.692   1.761  2.4087  1.1127  0.9635
 4412SOL    HW224699   3.716   2.633   1.828  0.5039  0.9637 -1.1142
 4413SOL     OW24700   1.731   1.871   1.402 -0.1362  1.2083  0.2607
 4413SOL    HW124701   1.796   1.865   1.472 -0.9847 -1.7807  0.8051
 4413SOL    HW224702   1.705   1.779   1.399 -0.1506  1.2323 -0.2887
 4414SOL     OW24703   2.865   1.581   2.774  0.4096 -0.0860 -0.2195
 4414SOL    HW124704   2.875   1.651   2.709 -0.6945 -0.2545 -0.5570
 4414SOL    HW224705   2.891   1.510   2.716 -3.7796 -1.1662 -0.7751
 4415SOL     OW24706   1.729   0.604   5.458  0.0286  0.2027 -0.2112
 4415SOL    HW124707   1.639   0.593   5.487  0.3485 -0.4325  0.5235
 4415SOL    HW224708   1.760   0.520   5.490  0.0275 -0.2353 -1.3531
 4416SOL     OW24709   2.178   4.055   4.344 -0.2477 -0.1568 -0.3108
 4416SOL    HW124710   2.229   4.080   4.266 -0.4014  1.6147  0.1578
 4416SOL    HW224711   2.123   4.132   4.359  3.0324  3.0128 -4.3673
 4417SOL     OW24712   1.317   0.898   8.705 -0.6265  0.3982 -0.0692
 4417SOL    HW124713   1.263   0.903   8.783 -1.1912  2.2676 -0.5801
 4417SOL    HW224714   1.289   0.968   8.646 -0.1004 -1.0835 -2.0877
 4418SOL     OW24715   0.046   4.552  12.460 -0.0516  0.0476 -0.1982
 4418SOL    HW124716   0.080   4.501  12.533 -0.5672 -0.5295 -0.3582
 4418SOL    HW224717   0.061   4.645  12.477  0.7343 -0.1424  0.1169
 4419SOL     OW24718   3.888   1.811   1.330 -0.0457 -0.2112  0.1066
 4419SOL    HW124719   3.982   1.826   1.320  0.0808 -0.4025  0.9486
 4419SOL    HW224720   3.868   1.851   1.246  0.8870 -0.3686 -0.1887
 4420SOL     OW24721   3.392   0.115   8.111 -0.3076 -0.5644  0.2346
 4420SOL    HW124722   3.354   0.166   8.182  1.3609  2.3877 -0.9623
 4420SOL    HW224723   3.447   0.056   8.164  0.1757  0.2079  0.6050
 4421SOL     OW24724   3.503   1.378   0.644 -0.6894  0.2827  0.0058
 4421SOL    HW124725   3.450   1.302   0.665  1.0063 -1.6502 -2.6279
 4421SOL    HW224726   3.570   1.341   0.587  2.3247  3.1850  1.6351
 4422SOL     OW24727   0.641   1.523   5.779 -0.0358 -0.1122  0.0233
 4422SOL    HW124728   0.597   1.608   5.780 -2.2118 -1.2418  0.3170
 4422SOL    HW224729   0.567   1.463   5.770 -2.2239  2.3233  1.8522
 4423SOL     OW24730   3.794   0.862   7.776 -0.4083 -0.3440  0.3623
 4423SOL    HW124731   3.699   0.878   7.772 -0.1509  1.4474  1.5173
 4423SOL    HW224732   3.824   0.931   7.717  1.0742 -0.8441  0.5353
 4424SOL     OW24733   3.669   4.327   3.491 -0.3349  0.6944 -0.3743
 4424SOL    HW124734   3.631   4.240   3.479  3.1835 -0.9393  0.4797
 4424SOL    HW224735   3.701   4.318   3.580 -2.4714 -0.6350  0.2398
 4425SOL     OW24736   0.720   3.553  11.278  0.1124 -0.3688  0.2468
 4425SOL    HW124737   0.631   3.586  11.290  1.9240  3.7169  2.5158
 4425SOL    HW224738   0.718   3.484  11.344 -1.8691 -0.5759 -0.0390
 4426SOL     OW24739   3.801   4.498   5.087 -0.1531 -0.2274  0.4586
 4426SOL    HW124740   3.897   4.493   5.078 -0.0558 -0.8022  1.8305
 4426SOL    HW224741   3.784   4.575   5.142 -1.6467 -1.7320  2.0836
 4427SOL     OW24742   2.432   3.328   2.777  0.1437  0.3045  0.0847
 4427SOL    HW124743   2.500   3.313   2.711 -0.7145 -0.8847 -0.5396
 4427SOL    HW224744   2.431   3.246   2.826 -0.3442  0.1111 -0.2428
 4428SOL     OW24745   0.210   4.532  11.279  0.1066  0.0116 -0.3049
 4428SOL    HW124746   0.195   4.469  11.350  0.7930 -0.0518 -0.2100
 4428SOL    HW224747   0.188   4.614  11.322 -0.3651 -1.5995  2.5814
 4429SOL     OW24748   2.174   1.021  14.267  0.2683 -0.3620  0.2611
 4429SOL    HW124749   2.140   1.074  14.194  0.1967 -3.2522 -1.7956
 4429SOL    HW224750   2.206   0.945  14.218  1.7545  0.7398 -0.5235
 4430SOL     OW24751   2.929   3.132   3.123  0.3047  0.0278 -0.1538
 4430SOL    HW124752   2.890   3.210   3.162  2.3520  0.1118  1.7389
 4430SOL    HW224753   2.998   3.110   3.185  1.2550 -0.1647 -1.2702
 4431SOL     OW24754   3.210   2.286   9.996  0.8503  0.0416  0.3026
 4431SOL    HW124755   3.287   2.344   9.992  0.6795  0.3047  0.8819
 4431SOL    HW224756   3.160   2.341  10.056  1.2768 -0.3884  1.0588
 4432SOL     OW24757   4.244   0.464   3.934  0.0322 -0.0944  0.6126
 4432SOL    HW124758   4.169   0.408   3.955 -0.7195  1.1648  1.2872
 4432SOL    HW224759   4.199   0.545   3.958 -1.5738 -0.7133 -0.2963
 4433SOL     OW24760   4.054   2.746   4.412  0.3145  0.1561 -0.5419
 4433SOL    HW124761   4.130   2.721   4.359 -0.1390  0.8939 -1.5237
 4433SOL    HW224762   4.093   2.723   4.497  1.4042 -0.5904 -1.2408
 4434SOL     OW24763   0.104   4.640   8.185 -0.1582  1.3450 -0.5920
 4434SOL    HW124764   0.105   4.618   8.092 -0.1250  1.3166 -0.5849
 4434SOL    HW224765   0.014   4.621   8.211  0.1494 -0.0888 -0.5964
 4435SOL     OW24766   1.735   4.268   0.347  0.5621  0.5070 -0.6956
 4435SOL    HW124767   1.642   4.255   0.367  0.8658  0.6572  0.7867
 4435SOL    HW224768   1.736   4.287   0.253 -1.1784  1.2046 -0.5656
 4436SOL     OW24769   2.291   0.165  12.378 -0.1125 -0.4219 -0.6292
 4436SOL    HW124770   2.290   0.176  12.283 -0.3637  1.6986 -0.3831
 4436SOL    HW224771   2.251   0.247  12.407  0.6986 -0.0294 -0.6377
 4437SOL     OW24772   1.401   4.312   6.708  0.2481 -0.2874  0.1371
 4437SOL    HW124773   1.485   4.321   6.662  0.4511  1.5890  0.9139
 4437SOL    HW224774   1.426   4.235   6.759  0.6128  0.5050  1.1435
 4438SOL     OW24775   3.948   2.997  13.886 -0.0530 -0.0812  0.4056
 4438SOL    HW124776   3.925   3.070  13.828  2.5664  0.4866  0.0527
 4438SOL    HW224777   3.938   3.041  13.970  2.5337  0.8222  0.2487
 4439SOL     OW24778   1.611   0.039   4.681  0.1883  0.6429 -0.4078
 4439SOL    HW124779   1.588   0.132   4.672 -1.6711  0.0568 -1.6170
 4439SOL    HW224780   1.659   0.023   4.599  0.9697 -0.2180  0.2119
 4440SOL     OW24781   3.438   0.224   3.025  0.3230 -0.0688 -0.0059
 4440SOL    HW124782   3.404   0.261   3.106  1.2239  0.4063  0.1473
 4440SOL    HW224783   3.417   0.131   3.033 -0.4529  0.0299 -0.8617
 4441SOL     OW24784   1.209   3.728   6.118  0.2062 -0.3083 -0.7770
 4441SOL    HW124785   1.157   3.722   6.198  0.3014  1.4899 -0.5726
 4441SOL    HW224786   1.259   3.646   6.121  1.9906  0.8710  1.7860
 4442SOL     OW24787   3.412   2.116   8.614  0.1693  0.5749  0.5136
 4442SOL    HW124788   3.338   2.074   8.569  1.8277 -0.4150 -1.2786
 4442SOL    HW224789   3.479   2.050   8.598  1.4713  1.2959  3.0316
 4443SOL     OW24790   1.896   2.515   6.252 -0.0319 -0.2394  0.0229
 4443SOL    HW124791   1.985   2.552   6.254 -1.3670  3.0171 -0.5850
 4443SOL    HW224792   1.902   2.484   6.162  2.2075 -0.5046  0.2472
 4444SOL     OW24793   1.371   0.715  14.468 -0.2041  0.4203  0.3910
 4444SOL    HW124794   1.338   0.628  14.445  1.1056  0.6640 -2.4092
 4444SOL    HW224795   1.309   0.773  14.423  0.8855 -0.5411 -2.3338
 4445SOL     OW24796   1.842   3.551   7.018  0.3261 -0.3361  0.1634
 4445SOL    HW124797   1.875   3.638   7.038 -1.9039  1.0604 -2.1725
 4445SOL    HW224798   1.753   3.574   6.992  0.4241  0.0616  0.1924
 4446SOL     OW24799   3.818   1.248  10.067 -0.4554  0.0527  0.4965
 4446SOL    HW124800   3.883   1.286  10.126 -2.2082 -0.2950  2.6109
 4446SOL    HW224801   3.820   1.155  10.090 -1.7481  0.3591  1.8055
 4447SOL     OW24802   2.334   2.240   8.007  0.7449 -0.2623 -0.6047
 4447SOL    HW124803   2.315   2.225   8.100  0.2473  0.8237 -0.5283
 4447SOL    HW224804   2.283   2.171   7.963 -0.1365  0.7571 -1.1883
 4448SOL     OW24805   3.351   1.453   0.988 -0.3636  0.6045 -0.3337
 4448SOL    HW124806   3.357   1.488   1.076 -0.4725  0.3249 -0.2150
 4448SOL    HW224807   3.432   1.403   0.982 -0.2317  0.9707 -1.6381
 4449SOL     OW24808   4.363   1.741   4.290 -0.1873  0.1706 -0.0624
 4449SOL    HW124809   4.416   1.667   4.321 -0.8803  0.2482  1.2791
 4449SOL    HW224810   4.413   1.774   4.215  1.6163 -1.3536  0.4773
 4450SOL     OW24811   0.984   2.921   7.686  0.1088  0.1135  0.0719
 4450SOL    HW124812   1.023   2.841   7.650  0.1488 -1.0953  2.8180
 4450SOL    HW224813   0.987   2.891   7.777 -0.8137 -0.1803  0.0071
 4451SOL     OW24814   3.562   2.251  13.639  0.2423  0.1746  0.7156
 4451SOL    HW124815   3.505   2.315  13.597  0.8052  0.5637  0.5317
 4451SOL    HW224816   3.645   2.299  13.641 -1.1084  2.5312  0.9007
 4452SOL     OW24817   0.142   0.768  13.630  0.1457 -0.2754 -0.4563
 4452SOL    HW124818   0.177   0.848  13.669 -1.0233  0.0824 -0.1182
 4452SOL    HW224819   0.074   0.810  13.577 -0.3391  0.2907  0.6176
 4453SOL     OW24820   2.126   1.198   1.674 -0.5139 -0.2668  1.0515
 4453SOL    HW124821   2.194   1.138   1.643 -1.3922 -1.2221  0.9913
 4453SOL    HW224822   2.145   1.221   1.765 -2.6421 -1.6174  1.8471
 4454SOL     OW24823   1.590   0.924   6.082 -0.3133  0.3030 -0.2785
 4454SOL    HW124824   1.574   0.974   6.002 -2.0635  1.4822  0.7912
 4454SOL    HW224825   1.671   0.877   6.065  0.9773  2.5305 -0.1570
 4455SOL     OW24826   4.641   0.174   9.623  0.2205 -0.3090 -0.6305
 4455SOL    HW124827   4.554   0.139   9.606  0.0185  1.1233 -2.5059
 4455SOL    HW224828   4.699   0.099   9.637  1.5741  0.5063 -1.8696
 4456SOL     OW24829   0.674   0.565  17.195 -0.0369  0.3862 -0.4076
 4456SOL    HW124830   0.747   0.583  17.255 -1.0137 -0.0292  0.9174
 4456SOL    HW224831   0.626   0.494  17.238  1.5106 -1.8493 -2.3872
 4457SOL     OW24832   0.463   0.864   2.632 -0.6082  0.4186 -0.1727
 4457SOL    HW124833   0.395   0.930   2.622 -0.7109  0.1500 -1.2373
 4457SOL    HW224834   0.406   0.792   2.660 -1.2617  0.9651 -0.1190
 4458SOL     OW24835   3.750   2.820  15.128  0.3747  0.3101  0.5860
 4458SOL    HW124836   3.744   2.773  15.044  1.3615  0.6575  0.3199
 4458SOL    HW224837   3.832   2.789  15.166 -0.7989  0.1566  2.9799
 4459SOL     OW24838   1.072   4.090   4.012 -0.1781  0.3389 -0.0567
 4459SOL    HW124839   0.987   4.052   3.989  0.6748 -0.4753 -1.8785
 4459SOL    HW224840   1.139   4.032   3.975 -0.1387 -0.3057  1.0058
 4460SOL     OW24841   0.589   1.301   8.762  0.2255 -1.0531  0.5149
 4460SOL    HW124842   0.509   1.255   8.735 -0.3874  0.1701  0.1989
 4460SOL    HW224843   0.564   1.382   8.806 -0.7181 -1.5051  0.8094
 4461SOL     OW24844   2.195   3.216   5.597  0.1651  0.9371  0.2517
 4461SOL    HW124845   2.130   3.164   5.644  1.4378  1.7276  2.8594
 4461SOL    HW224846   2.276   3.205   5.645  0.0177  0.9827  0.5133
 4462SOL     OW24847   3.174   0.129   3.427 -0.0465  0.1494  0.4784
 4462SOL    HW124848   3.134   0.046   3.400 -0.4477 -0.1153  1.9284
 4462SOL    HW224849   3.182   0.115   3.521  4.2060  2.9142  0.4975
 4463SOL     OW24850   0.099   3.903   7.665 -0.1673 -0.1669 -0.4243
 4463SOL    HW124851   0.070   3.951   7.742  0.0274  0.5473 -0.8001
 4463SOL    HW224852   0.101   3.817   7.708 -0.6894  0.4593  0.8550
 4464SOL     OW24853   1.410   4.574   5.754 -0.0745  0.0072  0.2652
 4464SOL    HW124854   1.441   4.487   5.732 -2.3496 -1.3078  2.2783
 4464SOL    HW224855   1.493   4.617   5.776  0.9263 -1.4284 -0.7406
 4465SOL     OW24856   4.614   3.384   4.365  0.0485 -0.5777 -0.3849
 4465SOL    HW124857   4.589   3.298   4.396  1.2016 -0.4291  0.9720
 4465SOL    HW224858   4.677   3.417   4.430  0.8094  1.8218 -2.2955
 4466SOL     OW24859   2.322   1.473   4.915 -0.5507 -0.0218 -0.0710
 4466SOL    HW124860   2.235   1.495   4.882  0.1306 -1.4581 -2.8525
 4466SOL    HW224861   2.372   1.503   4.839 -0.9021  0.3472 -0.1563
 4467SOL     OW24862   4.633   4.537   0.246  0.2726  0.1459  0.0577
 4467SOL    HW124863   4.562   4.481   0.215 -0.2583  1.7375 -1.6384
 4467SOL    HW224864   4.635   4.497   0.333  0.4802 -0.1516 -0.0824
 4468SOL     OW24865   3.972   4.282   4.735  0.3897 -0.1993 -0.1899
 4468SOL    HW124866   3.921   4.250   4.660  4.4280 -0.0519 -3.0176
 4468SOL    HW224867   3.958   4.376   4.724  0.5674 -0.4514 -2.6357
 4469SOL     OW24868   0.047   2.541   7.361  0.0122 -0.1898  0.1521
 4469SOL    HW124869   0.036   2.472   7.426 -2.7610  0.6501  0.5891
 4469SOL    HW224870   0.119   2.583   7.407 -0.1232  0.7595 -0.5058
 4470SOL     OW24871   1.615   2.696  11.591  0.0150  0.1581  0.1494
 4470SOL    HW124872   1.706   2.680  11.565  0.9783  0.9375  3.0643
 4470SOL    HW224873   1.585   2.614  11.629  0.8377  0.1815  0.8313
 4471SOL     OW24874   3.005   3.024   5.999 -0.2376  1.0391 -0.4700
 4471SOL    HW124875   2.936   3.078   6.039 -1.3638 -1.1731  0.5562
 4471SOL    HW224876   2.973   3.018   5.909  0.0038  1.2061 -0.5669
 4472SOL     OW24877   3.640   0.653   5.693 -0.3429  0.0144  0.2429
 4472SOL    HW124878   3.618   0.639   5.785  0.5345  2.9058  0.9076
 4472SOL    HW224879   3.620   0.747   5.692  0.0024  0.0766 -1.0726
 4473SOL     OW24880   2.156   0.060   4.218 -0.0623 -0.7721 -0.5567
 4473SOL    HW124881   2.183   0.005   4.291  2.0730  0.1002 -0.7014
 4473SOL    HW224882   2.062   0.043   4.214 -0.0855 -0.3531 -1.8387
 4474SOL     OW24883   1.602   2.791   6.667  0.0897  0.0627 -0.0199
 4474SOL    HW124884   1.673   2.734   6.636 -0.7866 -0.5430 -0.9223
 4474SOL    HW224885   1.603   2.865   6.606  0.3798  0.5886  0.6208
 4475SOL     OW24886   3.588   2.406   2.495 -0.3401  0.2197  0.2924
 4475SOL    HW124887   3.500   2.442   2.487 -1.0892 -1.9847 -1.5052
 4475SOL    HW224888   3.627   2.437   2.413  0.7163 -2.1428 -0.1123
 4476SOL     OW24889   3.978   4.354  10.715  0.0350  0.6576  0.6510
 4476SOL    HW124890   3.921   4.364  10.791 -1.5487  1.6368 -0.6850
 4476SOL    HW224891   4.069   4.358  10.745 -0.1597 -0.4601  1.3863
 4477SOL     OW24892   1.152   0.945   5.993 -0.0416  0.4615 -0.9870
 4477SOL    HW124893   1.067   0.928   5.952  0.2472 -0.1722 -1.3147
 4477SOL    HW224894   1.189   0.994   5.920  2.3471 -0.4364 -0.4002
 4478SOL     OW24895   1.900   1.751   9.248 -0.8203  0.1838  0.4422
 4478SOL    HW124896   1.830   1.689   9.266 -1.3247  0.5103 -0.4304
 4478SOL    HW224897   1.863   1.810   9.183  0.4587  1.8788  1.2414
 4479SOL     OW24898   2.707   3.080   0.211  0.0172  0.1897 -0.6495
 4479SOL    HW124899   2.646   3.041   0.148  0.3227 -0.7541 -0.3515
 4479SOL    HW224900   2.757   3.144   0.160  2.0356 -0.9721 -0.1180
 4480SOL     OW24901   3.338   0.877   2.959  0.5792  0.8508 -0.1372
 4480SOL    HW124902   3.351   0.893   3.053 -1.3217  0.3429  0.2170
 4480SOL    HW224903   3.400   0.942   2.927  1.4057  1.2272  2.1960
 4481SOL     OW24904   1.627   1.791   3.226  0.4237 -0.7334 -0.0901
 4481SOL    HW124905   1.550   1.740   3.199  0.1436 -1.0972  1.3896
 4481SOL    HW224906   1.630   1.779   3.321 -1.9933 -0.4399  0.0207
 4482SOL     OW24907   3.232   3.499  12.222  0.8230  0.1089  0.2977
 4482SOL    HW124908   3.243   3.431  12.156 -1.2497 -0.5433  0.6109
 4482SOL    HW224909   3.320   3.516  12.256  0.9713 -1.3026  0.6221
 4483SOL     OW24910   0.966   3.314  17.646 -0.2930 -0.3456 -0.2959
 4483SOL    HW124911   1.011   3.396  17.629  1.3726 -1.6702 -2.2556
 4483SOL    HW224912   0.882   3.333  17.688  0.1750  1.6031 -0.2420
 4484SOL     OW24913   2.777   2.531   0.419 -0.2002 -0.6028  0.0456
 4484SOL    HW124914   2.812   2.478   0.490 -2.2218  0.8352  2.1019
 4484SOL    HW224915   2.752   2.610   0.467 -1.2380 -0.3373 -0.9357
 4485SOL     OW24916   2.570   0.912   4.236  0.2757  0.0708  0.3950
 4485SOL    HW124917   2.653   0.941   4.275  1.2016 -0.7657 -0.9543
 4485SOL    HW224918   2.560   0.978   4.167 -2.3286 -0.9344 -0.1626
 4486SOL     OW24919   0.485   4.008  12.422 -0.1607 -0.8703  0.4795
 4486SOL    HW124920   0.397   4.039  12.404  1.1796  0.9453 -2.9512
 4486SOL    HW224921   0.475   3.952  12.499 -0.3291  0.9875  1.8194
 4487SOL     OW24922   0.865   4.713  15.389  0.0665  0.3463  0.6991
 4487SOL    HW124923   0.914   4.634  15.365  1.2798  0.8841  1.4650
 4487SOL    HW224924   0.776   4.680  15.405 -0.2139  0.2871 -0.9116
 4488SOL     OW24925   2.181   0.891   8.879  0.1433  0.6269 -0.4767
 4488SOL    HW124926   2.236   0.856   8.949  0.8535  1.0883 -0.8148
 4488SOL    HW224927   2.190   0.825   8.811  0.8146  1.5012 -1.2289
 4489SOL     OW24928   0.262   3.954   3.721 -0.3878 -0.3801  0.1013
 4489SOL    HW124929   0.346   3.996   3.703 -0.3588 -0.9079 -0.9990
 4489SOL    HW224930   0.210   4.026   3.757 -1.2396 -1.0090  0.1199
 4490SOL     OW24931   0.965   4.090  13.705  0.1066 -0.2017 -0.8503
 4490SOL    HW124932   0.983   4.025  13.774  0.2660 -0.3260 -1.0075
 4490SOL    HW224933   0.923   4.161  13.752  2.3741  1.4381 -1.2889
 4491SOL     OW24934   1.586   3.574   6.937  0.6269  0.6273 -0.0992
 4491SOL    HW124935   1.591   3.506   6.870 -0.2317 -2.1849  2.6852
 4491SOL    HW224936   1.505   3.558   6.984  1.0353 -0.3050  0.2840
 4492SOL     OW24937   2.888   3.864   2.416 -0.0790  0.1048  0.1785
 4492SOL    HW124938   2.846   3.927   2.358 -1.5230  1.0578  2.2660
 4492SOL    HW224939   2.980   3.886   2.399 -0.3428  0.5061 -0.7221
 4493SOL     OW24940   1.551   0.381   1.468  0.1296 -0.0136 -0.4824
 4493SOL    HW124941   1.636   0.424   1.461  0.2499 -0.1858 -0.0628
 4493SOL    HW224942   1.496   0.458   1.480  1.0893  0.7466 -0.9568
 4494SOL     OW24943   4.109   0.209   5.866 -0.1861  0.3229 -0.0180
 4494SOL    HW124944   4.057   0.182   5.790  0.7833  0.3336 -0.6895
 4494SOL    HW224945   4.168   0.275   5.831  1.5905 -0.5765  1.2748
 4495SOL     OW24946   0.749   4.444  12.861  0.1468 -0.0638 -0.1244
 4495SOL    HW124947   0.718   4.366  12.815 -0.0551  1.3475 -2.3664
 4495SOL    HW224948   0.697   4.437  12.941  1.2101  0.2014  0.5885
 4496SOL     OW24949   0.262   1.524   0.508 -0.5687  0.4062 -0.1258
 4496SOL    HW124950   0.255   1.431   0.531 -1.3850  0.6647  0.6756
 4496SOL    HW224951   0.348   1.540   0.547  0.7708 -2.9263 -1.6624
 4497SOL     OW24952   2.536   1.267   4.541  0.4025  0.2606 -0.8016
 4497SOL    HW124953   2.517   1.353   4.578 -0.4314 -0.5900  0.7392
 4497SOL    HW224954   2.630   1.278   4.531  0.4802  1.0601  0.8587
 4498SOL     OW24955   2.346   1.426   6.690 -0.1239 -0.2533 -0.6236
 4498SOL    HW124956   2.253   1.403   6.683 -0.1179 -0.9285  1.4898
 4498SOL    HW224957   2.338   1.521   6.695 -0.9220 -0.4355  1.4287
 4499SOL     OW24958   3.486   4.563   5.514 -0.8170 -0.0696 -0.0240
 4499SOL    HW124959   3.502   4.590   5.604  0.9785  0.9303 -0.6424
 4499SOL    HW224960   3.484   4.651   5.476 -1.4526  0.1666  0.5481
 4500SOL     OW24961   3.938   2.178   4.063  0.6209 -0.4365 -0.1035
 4500SOL    HW124962   4.011   2.237   4.082  1.0682 -1.3552  1.0152
 4500SOL    HW224963   3.888   2.177   4.144  0.0985 -0.2503 -0.4207
 4501SOL     OW24964   0.980   3.085   1.677  0.0313 -0.1991  0.6721
 4501SOL    HW124965   1.044   3.155   1.674 -0.2358 -0.0397 -1.0783
 4501SOL    HW224966   0.914   3.099   1.610 -0.0433  0.6140  0.9216
 4502SOL     OW24967   2.714   0.347   7.475  0.3064 -0.5829 -0.1353
 4502SOL    HW124968   2.796   0.335   7.427  0.3089  0.4113 -0.3903
 4502SOL    HW224969   2.733   0.430   7.518  1.2676  0.0753 -1.8321
 4503SOL     OW24970   2.963   1.032  16.182 -0.2543  0.1107  0.0207
 4503SOL    HW124971   3.048   1.048  16.223  0.0864  1.2763 -1.1505
 4503SOL    HW224972   2.936   1.113  16.139 -2.8701 -0.4550  0.6061
 4504SOL     OW24973   3.816   3.534   7.420 -0.3258  0.5440  0.3736
 4504SOL    HW124974   3.746   3.580   7.466 -1.1905  1.1297 -1.5114
 4504SOL    HW224975   3.788   3.446   7.443  0.5692  0.9852  3.0806
 4505SOL     OW24976   0.765   0.003  15.102 -0.1951  0.5681 -0.1475
 4505SOL    HW124977   0.704   0.076  15.088 -0.9733 -0.1111 -0.3564
 4505SOL    HW224978   0.781   0.004  15.196  0.0010  2.9433 -0.2130
 4506SOL     OW24979   1.729   3.204   9.383 -0.4573 -0.3633 -0.0095
 4506SOL    HW124980   1.672   3.213   9.460 -1.9791  2.1408 -1.4281
 4506SOL    HW224981   1.683   3.151   9.318  0.1620  0.4957 -1.1278
 4507SOL     OW24982   0.626   3.893   7.613 -0.4358  0.5616  0.0396
 4507SOL    HW124983   0.676   3.879   7.533 -1.6837 -0.0849 -0.6368
 4507SOL    HW224984   0.547   3.932   7.574 -0.8332  0.5116  0.7851
 4508SOL     OW24985   2.289   0.250   5.565  0.2505  0.2573 -0.5506
 4508SOL    HW124986   2.349   0.274   5.635 -0.9036 -2.6142  1.4298
 4508SOL    HW224987   2.320   0.162   5.542 -0.5228  0.0714 -0.9094
 4509SOL     OW24988   2.653   3.261   2.653  0.2985 -0.1106 -0.7834
 4509SOL    HW124989   2.689   3.201   2.587 -0.4185 -1.4699  0.0602
 4509SOL    HW224990   2.698   3.234   2.733 -0.9786 -0.0966 -0.0670
 4510SOL     OW24991   3.912   2.780   6.258  0.1041 -0.1993  0.5440
 4510SOL    HW124992   3.911   2.700   6.310 -0.7806 -1.4974 -1.4954
 4510SOL    HW224993   3.983   2.824   6.306  0.0157 -1.3464  1.7404
 4511SOL     OW24994   0.512   4.200   6.441  0.4928 -0.2888 -0.4083
 4511SOL    HW124995   0.491   4.290   6.468  1.9103  0.2979 -1.2585
 4511SOL    HW224996   0.607   4.201   6.431  0.5111  1.6240 -0.0047
 4512SOL     OW24997   3.198   1.371   8.157  0.0310  0.2875  0.1637
 4512SOL    HW124998   3.274   1.426   8.141  0.1676  0.1563  0.3652
 4512SOL    HW224999   3.242   1.308   8.215 -0.4069 -0.1345  0.0423
 4513SOL     OW25000   0.119   2.780   5.142 -0.1500  0.4353 -0.5160
 4513SOL    HW125001   0.071   2.858   5.170 -0.3214  0.2859 -0.3983
 4513SOL    HW225002   0.056   2.719   5.104  0.1737  0.6129 -1.3448
 4514SOL     OW25003   3.639   1.037   4.870  0.2075  0.5437  0.2229
 4514SOL    HW125004   3.575   0.987   4.820 -0.8629  1.8579  0.2894
 4514SOL    HW225005   3.715   1.016   4.816 -0.1645  1.1374 -0.5278
 4515SOL     OW25006   3.550   4.639  15.936  0.1224 -0.4673 -0.1278
 4515SOL    HW125007   3.575   0.001  15.902  1.8454 -0.8290  0.2450
 4515SOL    HW225008   3.625   4.607  15.986  0.7899 -0.0052 -0.8482
 4516SOL     OW25009   2.856   2.384   7.972 -0.1660 -0.1901  0.2378
 4516SOL    HW125010   2.889   2.301   8.007  2.7924  0.6634 -0.4881
 4516SOL    HW225011   2.765   2.359   7.959 -0.3800  0.2376  0.8623
 4517SOL     OW25012   1.977   2.784   8.494 -0.2783  0.4532  0.5436
 4517SOL    HW125013   2.010   2.774   8.583 -0.4532  2.9243  0.8743
 4517SOL    HW225014   2.030   2.714   8.456 -0.9970  0.8435 -1.1937
 4518SOL     OW25015   3.876   2.893   7.466 -0.3563 -0.3061 -0.1819
 4518SOL    HW125016   3.786   2.880   7.436 -1.1739 -0.2582  2.2160
 4518SOL    HW225017   3.870   2.970   7.523 -1.4928 -0.8102  0.3817
 4519SOL     OW25018   0.950   2.382  13.847 -0.0769 -0.0588 -0.0560
 4519SOL    HW125019   0.965   2.477  13.846  1.8325 -0.3618 -0.6701
 4519SOL    HW225020   0.916   2.363  13.935  1.2895 -0.0659  0.4722
 4520SOL     OW25021   0.279   2.144  14.910  0.4097  0.0873 -0.0140
 4520SOL    HW125022   0.214   2.147  14.841  0.2119 -0.8953  0.1281
 4520SOL    HW225023   0.268   2.235  14.938  0.7161 -0.1687  0.9552
 4521SOL     OW25024   1.525   2.978   4.026  0.1947 -0.6793  0.4360
 4521SOL    HW125025   1.584   2.915   4.067  1.4704  1.4383  1.8719
 4521SOL    HW225026   1.476   3.003   4.104 -0.0210 -0.2898  0.1790
 4522SOL     OW25027   2.324   3.381   0.545 -0.5405 -0.7370 -0.2737
 4522SOL    HW125028   2.349   3.333   0.466 -0.3489  2.3869 -2.0889
 4522SOL    HW225029   2.246   3.344   0.587 -0.4032 -0.6813  0.0332
 4523SOL     OW25030   3.883   0.007   5.364  0.1286 -0.0457 -0.0057
 4523SOL    HW125031   3.839   0.085   5.330 -0.7784 -0.8636 -0.7038
 4523SOL    HW225032   3.975   0.035   5.359  0.1599 -0.0520  0.4978
 4524SOL     OW25033   1.255   1.621   5.829  0.2396  0.2665 -0.1246
 4524SOL    HW125034   1.203   1.552   5.870 -2.0646  1.1130 -1.6081
 4524SOL    HW225035   1.344   1.595   5.854  0.4562 -0.9624 -2.1362
 4525SOL     OW25036   3.783   0.964   7.160  0.1745  0.1215  0.6847
 4525SOL    HW125037   3.793   1.050   7.120  0.4863 -0.2759 -0.0968
 4525SOL    HW225038   3.871   0.929   7.145 -0.8337 -1.6805 -1.0553
 4526SOL     OW25039   4.704   3.279   7.791 -0.7802  0.0474 -0.6464
 4526SOL    HW125040   0.029   3.201   7.762 -0.4432 -0.0363  0.1275
 4526SOL    HW225041   0.006   3.338   7.720 -0.7746  0.8521  0.0220
 4527SOL     OW25042   3.084   4.245   7.628  0.2914  0.1083 -0.0868
 4527SOL    HW125043   3.074   4.340   7.643 -2.4700 -0.3043  0.7532
 4527SOL    HW225044   3.051   4.211   7.711  0.8035  1.2272  0.5780
 4528SOL     OW25045   3.137   4.290   5.940 -0.2134 -0.4977 -0.1094
 4528SOL    HW125046   3.139   4.243   6.023 -2.8627  1.2591  0.9220
 4528SOL    HW225047   3.229   4.296   5.913 -0.4225 -3.2633 -1.5341
 4529SOL     OW25048   0.694   2.762   6.161  0.5543  0.1763 -0.0211
 4529SOL    HW125049   0.730   2.850   6.170  2.0948 -0.4079 -0.3720
 4529SOL    HW225050   0.681   2.747   6.255  0.6370  0.0449 -0.0303
 4530SOL     OW25051   2.519   0.614   2.095  0.0343  0.4921  0.8518
 4530SOL    HW125052   2.570   0.631   2.175  1.9823 -0.5744 -0.1795
 4530SOL    HW225053   2.593   0.611   2.035 -1.8449  0.5847 -1.4400
 4531SOL     OW25054   0.616   0.372   6.281  0.5727 -0.2538  0.3741
 4531SOL    HW125055   0.706   0.340   6.291  0.7126  0.5540  1.8017
 4531SOL    HW225056   0.636   0.464   6.260 -1.5821 -0.3143 -1.9011
 4532SOL     OW25057   4.348   3.751   9.108  0.0497  0.9484 -0.3376
 4532SOL    HW125058   4.364   3.709   9.193  0.2772  0.5364 -0.5822
 4532SOL    HW225059   4.255   3.768   9.096  0.0700  0.6549 -0.9078
 4533SOL     OW25060   0.438   3.161   3.270 -0.0531 -0.1722  0.0301
 4533SOL    HW125061   0.374   3.102   3.230  0.3737  1.2321 -2.7198
 4533SOL    HW225062   0.524   3.119   3.279 -0.9531 -2.1386 -0.4423
 4534SOL     OW25063   4.079   0.719   2.303  0.2196  0.3388 -0.0620
 4534SOL    HW125064   3.998   0.668   2.306  0.7391 -0.4692  0.2030
 4534SOL    HW225065   4.045   0.805   2.330 -0.2165  0.1865 -0.1348
 4535SOL     OW25066   3.570   2.399  10.527 -0.6264  0.5349 -0.0784
 4535SOL    HW125067   3.532   2.391  10.440 -2.2155  0.6355  0.6027
 4535SOL    HW225068   3.655   2.357  10.514 -1.7543 -1.7585 -0.1476
 4536SOL     OW25069   4.021   3.306  10.213  0.1311  0.6306  0.1428
 4536SOL    HW125070   4.039   3.242  10.282  4.5916  3.0353  1.2211
 4536SOL    HW225071   3.966   3.253  10.155 -0.7492  0.1082  1.4395
 4537SOL     OW25072   1.809   1.943   7.663 -0.2213 -0.4065 -0.1312
 4537SOL    HW125073   1.810   1.847   7.673  0.1901 -0.5750 -1.7908
 4537SOL    HW225074   1.714   1.959   7.663 -0.4974 -1.9645  1.9781
 4538SOL     OW25075   2.209   1.704  11.034  0.5358 -0.6429 -0.4344
 4538SOL    HW125076   2.257   1.756  11.098  0.4348 -1.8129  0.6036
 4538SOL    HW225077   2.272   1.679  10.967 -0.0623 -1.6424 -0.6321
 4539SOL     OW25078   2.498   1.673   1.084 -0.1300  0.2150  0.0432
 4539SOL    HW125079   2.524   1.664   1.176 -0.7277 -0.9767  0.1068
 4539SOL    HW225080   2.433   1.742   1.095  0.8724  1.0764  0.5889
 4540SOL     OW25081   2.098   2.061   7.968 -0.0216  0.7365 -0.2461
 4540SOL    HW125082   2.020   2.101   8.007 -0.3564  0.1112 -0.2566
 4540SOL    HW225083   2.074   2.091   7.881 -1.2773 -1.3533 -0.6311
 4541SOL     OW25084   3.860   1.994  16.437  0.1619  0.6576 -0.0904
 4541SOL    HW125085   3.793   1.966  16.500 -0.6107  1.3239 -0.6208
 4541SOL    HW225086   3.885   1.908  16.404  1.1871 -0.2975  3.1130
 4542SOL     OW25087   1.775   2.491   2.977  0.5857  0.2405  0.0538
 4542SOL    HW125088   1.690   2.508   3.017 -0.2740 -0.9773 -1.2661
 4542SOL    HW225089   1.819   2.574   2.995 -0.3273  0.5050  1.0596
 4543SOL     OW25090   3.395   2.547  13.884 -0.3372  0.5892 -0.2635
 4543SOL    HW125091   3.436   2.571  13.801 -3.3812  2.1437 -1.3024
 4543SOL    HW225092   3.404   2.626  13.937  0.0342  0.7198 -0.5162
 4544SOL     OW25093   3.743   3.149  11.279 -0.0484  0.1589  0.2833
 4544SOL    HW125094   3.725   3.073  11.334 -1.5792 -1.2419 -2.1770
 4544SOL    HW225095   3.833   3.169  11.305 -0.7342 -1.4744  3.8589
 4545SOL     OW25096   1.051   1.348   5.739  0.4676  0.3596  0.1412
 4545SOL    HW125097   0.977   1.324   5.683 -0.4043  0.7336  1.1306
 4545SOL    HW225098   1.006   1.408   5.799  1.1686  0.0637  0.9619
 4546SOL     OW25099   1.346   3.939   1.641  0.0895 -0.0706  0.6423
 4546SOL    HW125100   1.401   3.880   1.692 -0.6684 -0.7532  0.6773
 4546SOL    HW225101   1.350   4.013   1.701 -4.1229  0.6311  0.0303
 4547SOL     OW25102   0.540   4.225   5.853 -0.2340 -0.2210 -0.1483
 4547SOL    HW125103   0.544   4.137   5.891  1.5076  0.0692  0.2925
 4547SOL    HW225104   0.472   4.203   5.789 -0.7159  1.4586 -0.2024
 4548SOL     OW25105   3.615   0.993  10.904 -0.0119 -0.0938  0.6939
 4548SOL    HW125106   3.591   0.907  10.937 -2.0409  1.6970  3.8762
 4548SOL    HW225107   3.687   1.019  10.962  1.5132 -0.4256 -1.0551
 4549SOL     OW25108   3.459   0.848   2.121  0.0667 -0.1880  1.0710
 4549SOL    HW125109   3.503   0.819   2.201 -0.0627  1.4950  1.7494
 4549SOL    HW225110   3.391   0.901   2.162  0.8209  0.2591  1.7660
 4550SOL     OW25111   1.669   0.298   3.911  0.5578  0.5024 -0.0433
 4550SOL    HW125112   1.726   0.364   3.951 -0.7975  2.0687 -0.7358
 4550SOL    HW225113   1.725   0.238   3.862  0.1041  0.8687 -1.0139
 4551SOL     OW25114   1.684   0.381   5.600  0.6067  0.1018  0.1869
 4551SOL    HW125115   1.767   0.363   5.644 -0.7509 -0.3045  2.5793
 4551SOL    HW225116   1.644   0.295   5.595  0.6923  0.0572  0.2665
 4552SOL     OW25117   4.435   1.166   4.541  0.2840 -0.0725  0.0156
 4552SOL    HW125118   4.344   1.161   4.571  0.7390 -1.5375  1.1610
 4552SOL    HW225119   4.436   1.114   4.461  1.8625 -1.4376  0.9100
 4553SOL     OW25120   3.687   2.533   2.274 -0.4667  0.2469 -0.1008
 4553SOL    HW125121   3.720   2.618   2.303  1.3487 -0.2926 -0.6001
 4553SOL    HW225122   3.621   2.554   2.207  0.3183 -0.0974 -0.9765
 4554SOL     OW25123   0.161   3.263   5.529  0.1483 -0.2398 -0.6482
 4554SOL    HW125124   0.095   3.277   5.461 -1.3907 -0.4125  0.8402
 4554SOL    HW225125   0.177   3.169   5.520 -1.9681 -0.7548  1.1252
 4555SOL     OW25126   4.381   0.351   2.981  0.1526  0.4250 -0.0875
 4555SOL    HW125127   4.410   0.319   3.066 -0.8935  1.8625  0.8206
 4555SOL    HW225128   4.462   0.366   2.931  1.0911 -3.3144  0.3715
 4556SOL     OW25129   0.200   3.810   8.334 -0.3838  0.1355 -0.2547
 4556SOL    HW125130   0.155   3.737   8.377  0.4179  0.4218  1.0740
 4556SOL    HW225131   0.167   3.805   8.244  0.0405 -1.6351 -0.3183
 4557SOL     OW25132   0.621   1.674   1.379  0.1768  0.1519  0.4464
 4557SOL    HW125133   0.541   1.724   1.360 -0.0137  0.3676  1.8169
 4557SOL    HW225134   0.584   1.589   1.402  2.2022 -0.7305  0.4397
 4558SOL     OW25135   3.747   1.424   2.451 -0.4756 -0.0483  0.1191
 4558SOL    HW125136   3.756   1.364   2.378  3.0761  1.7646 -0.9570
 4558SOL    HW225137   3.812   1.384   2.508 -1.2283 -0.9887  0.3153
 4559SOL     OW25138   0.307   1.850   2.846 -0.5311  0.5160  0.9909
 4559SOL    HW125139   0.396   1.835   2.815 -1.0574 -1.1984  0.3074
 4559SOL    HW225140   0.316   1.943   2.869  1.8064  0.4967  0.1292
 4560SOL     OW25141   0.678   2.540   6.014  0.6357 -0.0990  0.5018
 4560SOL    HW125142   0.717   2.604   6.074 -1.1030 -1.0129  2.6121
 4560SOL    HW225143   0.687   2.461   6.068  0.5768  0.8185  1.8388
 4561SOL     OW25144   2.738   2.258   3.513  0.5641  0.8866  0.4138
 4561SOL    HW125145   2.716   2.344   3.478 -1.6546  0.0121 -0.3348
 4561SOL    HW225146   2.795   2.279   3.587  1.0898 -1.6910  0.7461
 4562SOL     OW25147   0.168   3.453   6.204 -1.0203 -0.6234 -1.0713
 4562SOL    HW125148   0.130   3.424   6.121 -0.5243 -1.7965 -0.8848
 4562SOL    HW225149   0.164   3.547   6.186 -0.8102 -0.0166  1.9789
 4563SOL     OW25150   0.633   1.145   4.695 -0.1629 -0.0116  0.3089
 4563SOL    HW125151   0.722   1.128   4.664 -1.2967  1.3040 -3.6245
 4563SOL    HW225152   0.651   1.234   4.724 -0.2265  0.4729 -1.1799
 4564SOL     OW25153   2.770   3.960   8.627  0.2015  0.2706  0.2728
 4564SOL    HW125154   2.690   4.011   8.635 -1.1941 -1.8470 -0.2583
 4564SOL    HW225155   2.831   4.006   8.685  1.3587  0.3323 -0.9988
 4565SOL     OW25156   4.156   0.050  11.407  0.0469 -0.6118 -0.3125
 4565SOL    HW125157   4.152   4.698  11.465  0.5590 -0.3952  0.0050
 4565SOL    HW225158   4.064   0.067  11.388 -1.0339 -3.3734  2.5971
 4566SOL     OW25159   3.030   4.393  13.155 -0.0180  0.0789 -0.0016
 4566SOL    HW125160   3.049   4.302  13.131 -1.5546 -0.6629  1.5348
 4566SOL    HW225161   2.959   4.379  13.218  0.4970  1.4811  0.8887
 4567SOL     OW25162   2.310   0.745   1.352  0.2794  0.6432  0.0831
 4567SOL    HW125163   2.242   0.746   1.419 -0.6558 -0.3391 -0.8570
 4567SOL    HW225164   2.254   0.707   1.284  1.1212  0.6925 -0.6389
 4568SOL     OW25165   3.431   3.086   4.772 -0.1859 -0.6144 -0.4473
 4568SOL    HW125166   3.438   3.058   4.864  1.7636  0.0627 -0.3805
 4568SOL    HW225167   3.372   3.019   4.738  0.6489 -1.7965  0.4125
 4569SOL     OW25168   4.135   3.377   3.488 -0.2031  0.3879 -0.2409
 4569SOL    HW125169   4.220   3.341   3.513  0.2119  2.3930  1.2747
 4569SOL    HW225170   4.080   3.304   3.460  0.5915 -0.1695 -0.3551
 4570SOL     OW25171   1.679   2.302   4.010 -0.2702 -0.0761  0.4576
 4570SOL    HW125172   1.719   2.216   4.013 -0.9264 -0.3266  1.7310
 4570SOL    HW225173   1.757   2.357   4.001 -0.1432 -0.5356 -1.3045
 4571SOL     OW25174   3.412   2.275  10.714 -0.3220  0.2009 -0.0573
 4571SOL    HW125175   3.340   2.276  10.650 -0.2469  0.6388 -0.1358
 4571SOL    HW225176   3.465   2.342  10.671  0.7529  0.2310  1.3335
 4572SOL     OW25177   1.171   2.236  16.031 -0.3678  0.7152  0.0247
 4572SOL    HW125178   1.104   2.246  15.963 -2.0819  2.8687  2.0030
 4572SOL    HW225179   1.164   2.324  16.070  0.1873  0.5205  0.5520
 4573SOL     OW25180   4.011   4.076   2.064  0.3179  0.2934  0.4376
 4573SOL    HW125181   3.959   4.102   2.140 -0.5145 -0.2739  0.0532
 4573SOL    HW225182   3.983   4.141   2.000 -4.5027 -2.7252 -0.5133
 4574SOL     OW25183   0.909   3.149   8.126 -0.1041  0.5868  0.0317
 4574SOL    HW125184   0.943   3.217   8.068 -0.6618 -0.1687 -1.1866
 4574SOL    HW225185   0.969   3.075   8.112 -1.9743 -1.1067  0.9574
 4575SOL     OW25186   1.716   1.110   2.266 -0.3890 -0.1093  0.9620
 4575SOL    HW125187   1.779   1.039   2.255  0.3785  0.7417 -0.1915
 4575SOL    HW225188   1.646   1.064   2.312  0.5783 -1.7898  0.7585
 4576SOL     OW25189   2.181   1.553   3.633  0.1252  0.0710 -0.0151
 4576SOL    HW125190   2.261   1.546   3.686 -1.1295 -0.1840  1.8165
 4576SOL    HW225191   2.190   1.643   3.601  1.2903  0.0303  0.1814
 4577SOL     OW25192   1.586   3.790   8.119 -0.0587  0.3466 -0.9441
 4577SOL    HW125193   1.506   3.840   8.137  0.1123 -0.5149  2.2574
 4577SOL    HW225194   1.576   3.711   8.174  0.5436  0.1970 -1.0511
 4578SOL     OW25195   2.990   4.329   6.944  0.0528  0.3563 -0.2093
 4578SOL    HW125196   2.901   4.322   6.911 -0.6878 -1.1085  2.1177
 4578SOL    HW225197   2.986   4.361   7.034 -0.7054 -1.0793  0.2562
 4579SOL     OW25198   0.262   4.172  12.529 -0.1117 -0.2060 -0.2570
 4579SOL    HW125199   0.249   4.100  12.592  1.7787 -0.6650 -0.3909
 4579SOL    HW225200   0.325   4.227  12.576 -1.1911  0.6357  0.1935
 4580SOL     OW25201   2.474   0.350   6.865 -0.0191 -0.2196 -0.6799
 4580SOL    HW125202   2.402   0.300   6.904  2.4655 -1.9333  1.7286
 4580SOL    HW225203   2.471   0.340   6.770 -0.0648  1.5314 -0.8694
 4581SOL     OW25204   4.608   4.004  11.115  0.1443  0.2234  0.0515
 4581SOL    HW125205   4.526   4.026  11.070  0.3638  2.2090  0.6415
 4581SOL    HW225206   4.662   4.020  11.038  1.6818 -0.7669  0.9311
 4582SOL     OW25207   4.619   4.642   5.692  0.1343 -0.2494  0.2168
 4582SOL    HW125208   4.594   4.703   5.761  0.9807  2.0918 -1.5617
 4582SOL    HW225209   4.541   4.630   5.638  0.7533  2.0722 -1.2183
 4583SOL     OW25210   4.110   2.035   3.084 -0.0043 -0.0438  0.4735
 4583SOL    HW125211   4.133   2.019   3.176 -1.4232 -1.0469  0.6444
 4583SOL    HW225212   4.036   2.094   3.096 -0.6212 -0.6061 -0.6133
 4584SOL     OW25213   4.609   1.051   0.536 -0.0561 -0.7015  0.3489
 4584SOL    HW125214   4.660   1.058   0.455 -1.0274  1.4829 -0.0779
 4584SOL    HW225215   4.596   1.142   0.563  1.5240 -0.2559 -0.3792
 4585SOL     OW25216   1.741   0.965   3.932 -0.2162 -0.0478 -0.3702
 4585SOL    HW125217   1.756   0.942   3.840 -0.2655 -0.3254 -0.3079
 4585SOL    HW225218   1.767   0.883   3.973  0.6836  0.5658  0.3011
 4586SOL     OW25219   4.268   4.213   7.960  0.2592 -0.0168 -0.0799
 4586SOL    HW125220   4.194   4.275   7.960  0.2217 -0.0369  2.0185
 4586SOL    HW225221   4.233   4.131   7.994 -2.7488  0.9181 -0.8996
 4587SOL     OW25222   3.551   0.873   6.105  0.5193  0.4996 -0.9143
 4587SOL    HW125223   3.466   0.898   6.141  0.0716 -0.1123 -1.5378
 4587SOL    HW225224   3.582   0.961   6.082 -2.5219  1.4253 -1.4280
 4588SOL     OW25225   3.469   3.803  12.654  0.1964 -0.4790 -0.7380
 4588SOL    HW125226   3.554   3.840  12.679  0.0973 -1.3174  0.8560
 4588SOL    HW225227   3.504   3.716  12.635  1.4910 -0.1198 -0.0283
 4589SOL     OW25228   4.054   1.159   6.402  0.3653 -0.1054  0.1503
 4589SOL    HW125229   4.012   1.204   6.328 -1.6632 -3.0579 -0.4761
 4589SOL    HW225230   4.134   1.212   6.395  0.0806  0.5543  1.8218
 4590SOL     OW25231   3.007   1.911   9.291  0.6105  0.0496 -0.1697
 4590SOL    HW125232   3.072   1.915   9.361  0.5669 -0.5858 -0.0924
 4590SOL    HW225233   2.931   1.882   9.340 -0.6548  1.9515 -1.0015
 4591SOL     OW25234   2.155   1.640  12.946  0.1449  0.1940  0.7170
 4591SOL    HW125235   2.207   1.662  12.869  2.2904 -2.4025  1.4028
 4591SOL    HW225236   2.152   1.724  12.991 -1.2322 -1.6090  4.0243
 4592SOL     OW25237   1.853   0.614  10.960 -0.5443  0.1809  0.2599
 4592SOL    HW125238   1.913   0.574  11.023  1.1678 -1.0244 -2.1634
 4592SOL    HW225239   1.858   0.705  10.991 -0.1525  0.3077 -0.1859
 4593SOL     OW25240   2.201   4.357  11.204 -0.6389 -0.3775  0.3588
 4593SOL    HW125241   2.249   4.283  11.168 -1.3371 -1.3535  1.4353
 4593SOL    HW225242   2.157   4.329  11.285  0.3261 -0.3141  0.9094
 4594SOL     OW25243   2.818   0.058  16.035 -0.2981  0.4103 -0.2963
 4594SOL    HW125244   2.752   0.089  15.974 -2.3926  0.2801  1.9296
 4594SOL    HW225245   2.843   4.699  15.994  1.0174  1.1498 -1.0099
 4595SOL     OW25246   2.857   1.840   1.165 -0.4210 -0.1582 -0.4128
 4595SOL    HW125247   2.801   1.896   1.113 -0.0152  0.0927 -0.5808
 4595SOL    HW225248   2.868   1.773   1.098 -0.6073 -2.8679  2.2159
 4596SOL     OW25249   3.346   1.921   5.171 -0.0234  0.1405  0.2392
 4596SOL    HW125250   3.429   1.961   5.145 -1.1899  1.4073 -1.4543
 4596SOL    HW225251   3.323   1.973   5.249  0.2246 -1.0866  1.1417
 4597SOL     OW25252   1.164   3.319   2.710  0.2309  0.2797 -0.1735
 4597SOL    HW125253   1.178   3.339   2.617  2.1199 -1.0756 -0.1877
 4597SOL    HW225254   1.075   3.284   2.712  0.4439 -0.2779 -0.5436
 4598SOL     OW25255   3.883   0.583  10.890  0.5616 -0.1535  0.2054
 4598SOL    HW125256   3.954   0.636  10.925 -0.1842  1.3703 -0.5683
 4598SOL    HW225257   3.891   0.506  10.946  0.7820 -1.3430 -1.4569
 4599SOL     OW25258   3.529   1.167   3.439  0.2679 -0.1123 -0.0431
 4599SOL    HW125259   3.569   1.202   3.519  0.6715 -1.4389  0.3397
 4599SOL    HW225260   3.511   1.240   3.381  0.6917 -1.0621 -1.3736
 4600SOL     OW25261   4.576   1.756  16.347  0.7849  0.2362 -0.9382
 4600SOL    HW125262   4.642   1.801  16.294  1.4448 -1.3409 -1.4350
 4600SOL    HW225263   4.625   1.707  16.413  0.7953  0.9505 -0.4056
 4601SOL     OW25264   1.187   3.466  12.333  0.5392 -0.3822  0.9662
 4601SOL    HW125265   1.282   3.457  12.330  0.5915 -0.5041  3.1251
 4601SOL    HW225266   1.148   3.406  12.268  0.8333  2.0966 -1.5129
 4602SOL     OW25267   2.855   0.563   5.961 -0.1399 -0.0252 -0.1260
 4602SOL    HW125268   2.897   0.631   6.014 -2.2438  2.3857 -1.5898
 4602SOL    HW225269   2.781   0.614   5.930 -1.7683 -1.2962  1.7074
 4603SOL     OW25270   2.202   2.957   1.352 -0.3981 -0.3506  0.0742
 4603SOL    HW125271   2.245   2.873   1.338 -1.7795 -0.7499 -1.7910
 4603SOL    HW225272   2.273   3.004   1.394 -0.0611 -0.6005 -0.2146
 4604SOL     OW25273   3.931   3.718  12.134 -0.4026  0.1099  0.2316
 4604SOL    HW125274   4.023   3.698  12.116 -1.0244  0.3486 -3.2627
 4604SOL    HW225275   3.912   3.767  12.054 -1.3716 -2.1441 -0.9339
 4605SOL     OW25276   2.755   2.710   7.474  0.4093 -0.1645 -0.2888
 4605SOL    HW125277   2.669   2.748   7.458  1.0029  0.9814 -0.7465
 4605SOL    HW225278   2.783   2.737   7.562  0.8731  0.5764 -0.6662
 4606SOL     OW25279   2.471   2.801   7.509 -0.4395  0.6113 -0.7963
 4606SOL    HW125280   2.389   2.752   7.499  0.1520 -0.6028  0.3500
 4606SOL    HW225281   2.475   2.809   7.605 -1.1181 -0.5959 -0.6665
 4607SOL     OW25282   4.086   4.074  13.913  0.5398  0.3342  0.4847
 4607SOL    HW125283   4.038   4.111  13.838 -1.4664 -0.6328  1.2994
 4607SOL    HW225284   4.176   4.097  13.890  0.2449  0.9211 -0.0867
 4608SOL     OW25285   0.973   3.447   0.981 -0.3387 -0.7325  0.0482
 4608SOL    HW125286   1.053   3.443   0.929  0.2891  3.9826  0.6499
 4608SOL    HW225287   0.933   3.361   0.972  0.3633 -1.0105 -0.3842
 4609SOL     OW25288   3.105   4.199   3.911  0.4934 -0.0241 -0.0767
 4609SOL    HW125289   3.165   4.125   3.904  0.6790  0.1344 -0.1560
 4609SOL    HW225290   3.021   4.165   3.882 -0.2538  0.8630  1.0215
 4610SOL     OW25291   0.732   0.868  14.904 -0.2727 -0.0049  0.9708
 4610SOL    HW125292   0.720   0.935  14.971 -0.9151  0.1581  0.6934
 4610SOL    HW225293   0.679   0.790  14.920 -1.9008  0.6988 -1.1028
 4611SOL     OW25294   0.157   0.192   1.670  0.4296 -0.3977 -0.2041
 4611SOL    HW125295   0.233   0.206   1.614  0.5191  1.7070  0.4648
 4611SOL    HW225296   0.169   0.100   1.693 -0.8089 -0.4773  0.1365
 4612SOL     OW25297   3.913   4.248   6.286 -0.5597 -0.4085  0.0652
 4612SOL    HW125298   3.877   4.269   6.372 -0.4393 -2.6957  0.6696
 4612SOL    HW225299   3.894   4.329   6.238 -0.3294 -0.7943 -0.6699
 4613SOL     OW25300   1.322   2.924  16.568  0.0617  0.0008 -0.7581
 4613SOL    HW125301   1.332   2.983  16.643  0.3543  1.0270 -1.5981
 4613SOL    HW225302   1.381   2.855  16.598 -2.4207 -2.3490 -1.2762
 4614SOL     OW25303   1.412   1.613   0.091 -0.0993  0.0587  0.5904
 4614SOL    HW125304   1.433   1.702   0.120  0.5827  0.4322 -1.0573
 4614SOL    HW225305   1.319   1.623   0.074  0.2420  0.6018 -0.9662
 4615SOL     OW25306   1.342   0.158   5.818  0.2805  0.3558 -0.1688
 4615SOL    HW125307   1.392   0.135   5.896  0.1430 -1.4411 -0.6042
 4615SOL    HW225308   1.413   0.191   5.763  0.5516  2.7179  1.5914
 4616SOL     OW25309   3.418   0.148   6.352  0.0330 -0.8568  0.0284
 4616SOL    HW125310   3.333   0.165   6.391 -0.2034  0.0965 -0.9236
 4616SOL    HW225311   3.410   0.052   6.357  1.8107 -0.9588  1.2615
 4617SOL     OW25312   2.755   3.205   9.567 -0.3454  0.4898  0.1491
 4617SOL    HW125313   2.843   3.233   9.541 -0.5457  0.5604 -0.4543
 4617SOL    HW225314   2.765   3.188   9.660  1.1940  2.9478  0.4151
 4618SOL     OW25315   2.755   2.646   4.142 -0.2550  0.1132  0.5393
 4618SOL    HW125316   2.660   2.640   4.135 -0.0316 -3.6022  1.0525
 4618SOL    HW225317   2.760   2.740   4.162 -1.3850  0.9073 -3.0046
 4619SOL     OW25318   2.683   2.487   6.574 -0.6158 -0.0638  0.5583
 4619SOL    HW125319   2.747   2.418   6.559 -1.5678 -0.9550  0.5686
 4619SOL    HW225320   2.602   2.435   6.579 -0.4253 -0.4690 -0.5142
 4620SOL     OW25321   4.436   0.143   9.146  0.3913  0.3432  0.0292
 4620SOL    HW125322   4.384   0.190   9.081  1.4475  0.8180 -0.4745
 4620SOL    HW225323   4.449   0.200   9.221 -0.3412  1.7667 -0.9347
 4621SOL     OW25324   0.375   4.613   4.893 -0.6699 -0.0693 -0.4881
 4621SOL    HW125325   0.346   4.542   4.951 -1.7944 -0.8404 -1.9901
 4621SOL    HW225326   0.293   4.643   4.853  0.0438 -2.1449 -3.4362
 4622SOL     OW25327   3.162   1.907   7.708  0.1194 -0.0205  0.4369
 4622SOL    HW125328   3.080   1.902   7.659  0.9327  1.5492 -1.0437
 4622SOL    HW225329   3.129   1.901   7.798 -2.4625  2.1772 -0.3913
 4623SOL     OW25330   3.780   2.867   4.463 -0.0384  0.6335  0.3713
 4623SOL    HW125331   3.834   2.941   4.436 -1.2912  1.1176 -0.8459
 4623SOL    HW225332   3.849   2.801   4.452 -1.2556 -0.6558  0.5333
 4624SOL     OW25333   0.166   1.564   8.836  0.0386  0.6654  0.9872
 4624SOL    HW125334   0.123   1.552   8.921  0.6349  0.2812  1.2328
 4624SOL    HW225335   0.236   1.629   8.846  1.1077 -0.4176  0.5236
 4625SOL     OW25336   0.830   0.554  11.801  0.4648 -0.0151  0.6923
 4625SOL    HW125337   0.756   0.610  11.779  2.3624  2.4490  0.5063
 4625SOL    HW225338   0.885   0.579  11.727  1.9405 -0.3510  1.6792
 4626SOL     OW25339   0.481   4.100   4.909 -0.8637  0.5876  0.1759
 4626SOL    HW125340   0.510   4.145   4.830 -0.4741  1.2935  0.7175
 4626SOL    HW225341   0.539   4.153   4.965  0.2812  0.2677 -0.7229
 4627SOL     OW25342   0.926   0.284  11.844 -0.1271  0.4244 -0.3518
 4627SOL    HW125343   0.921   0.370  11.802  1.3950  0.8937  0.4306
 4627SOL    HW225344   0.911   0.310  11.935 -1.2365  1.1859 -0.7483
 4628SOL     OW25345   4.320   2.864   8.357 -0.3883  0.1038 -0.1214
 4628SOL    HW125346   4.258   2.799   8.325  2.5998 -1.9415 -1.7654
 4628SOL    HW225347   4.264   2.915   8.415 -0.5936  1.0971 -1.1669
 4629SOL     OW25348   1.532   3.326   2.462  0.1166 -0.1534 -0.4777
 4629SOL    HW125349   1.513   3.232   2.465  1.0293 -0.3288 -0.1362
 4629SOL    HW225350   1.515   3.338   2.369  0.3433 -1.0674 -0.6377
 4630SOL     OW25351   2.605   1.965   4.525 -0.8549 -0.1662 -0.5823
 4630SOL    HW125352   2.565   2.025   4.587 -1.0571 -2.8312  1.8816
 4630SOL    HW225353   2.586   1.879   4.562 -0.6340  0.1261  0.1941
 4631SOL     OW25354   0.290   3.615  12.674  0.3020  0.1218  0.5552
 4631SOL    HW125355   0.221   3.551  12.693 -1.7441  1.1256 -3.4761
 4631SOL    HW225356   0.322   3.639  12.761  0.2896 -1.7328  1.0773
 4632SOL     OW25357   2.078   2.955  10.067  0.1617 -0.3531  0.2808
 4632SOL    HW125358   2.152   3.016  10.070  0.1923 -0.2735 -1.7845
 4632SOL    HW225359   2.021   2.991  10.135 -0.1949  0.5980 -0.5183
 4633SOL     OW25360   3.089   0.429   4.457  0.4294  0.0531 -0.9033
 4633SOL    HW125361   3.120   0.360   4.515 -2.1895  0.3307  0.8247
 4633SOL    HW225362   3.149   0.419   4.384  0.8416 -3.8857 -0.0367
 4634SOL     OW25363   0.095   0.327  14.334 -0.1602 -1.0016  0.5667
 4634SOL    HW125364   0.046   0.379  14.270  0.9621  0.0834  0.5863
 4634SOL    HW225365   0.158   0.270  14.290 -1.2572 -0.2425 -2.0135
 4635SOL     OW25366   0.906   3.422   6.921 -0.0014 -0.0877  0.3446
 4635SOL    HW125367   0.941   3.380   6.999  1.6955  1.9066  0.6545
 4635SOL    HW225368   0.819   3.445   6.955 -0.2116 -0.6807  0.2113
 4636SOL     OW25369   4.394   0.851  10.856 -0.2355 -0.4152 -0.1096
 4636SOL    HW125370   4.451   0.783  10.821 -0.4533  0.3709 -2.0300
 4636SOL    HW225371   4.452   0.925  10.836  0.9226 -0.7850  1.9213
 4637SOL     OW25372   2.214   4.541   0.779 -0.3705  0.4350 -0.5106
 4637SOL    HW125373   2.269   4.464   0.760  0.7242  0.7467  1.4077
 4637SOL    HW225374   2.262   4.579   0.852  0.8333 -0.2664 -0.9303
 4638SOL     OW25375   4.214   0.015   4.748  0.4310  0.2784  0.0011
 4638SOL    HW125376   4.231   0.018   4.842  0.0199  1.7442  0.0310
 4638SOL    HW225377   4.227   0.107   4.727 -1.9880  0.7288  0.3792
 4639SOL     OW25378   0.478   0.532   4.488  0.2530  0.2069 -0.3037
 4639SOL    HW125379   0.537   0.498   4.421  1.1294  0.7055  0.2102
 4639SOL    HW225380   0.517   0.620   4.489  1.3700 -0.3463  3.9395
 4640SOL     OW25381   0.504   2.835   5.410  0.0785  0.5507  0.5702
 4640SOL    HW125382   0.543   2.899   5.350 -0.3486 -0.6004 -0.9367
 4640SOL    HW225383   0.461   2.771   5.353 -0.9313 -0.6635  2.7277
 4641SOL     OW25384   3.057   0.937   7.886 -0.1552  0.7248 -0.6629
 4641SOL    HW125385   3.150   0.933   7.864 -0.3908  0.2209 -1.5796
 4641SOL    HW225386   3.061   0.988   7.967  3.0045  0.6255 -0.7615
 4642SOL     OW25387   2.266   1.641  12.358  0.4152  0.7415 -0.1258
 4642SOL    HW125388   2.338   1.612  12.414 -0.5228  2.3548  1.9215
 4642SOL    HW225389   2.243   1.727  12.392 -0.2502  0.5019  0.0220
 4643SOL     OW25390   0.499   3.390   4.148  0.0052  0.0447 -0.0719
 4643SOL    HW125391   0.507   3.482   4.122  2.5587 -0.4440 -1.1167
 4643SOL    HW225392   0.404   3.381   4.155 -0.0840  1.3822  0.3420
 4644SOL     OW25393   4.039   3.506  15.024  0.5496  0.0479  0.1349
 4644SOL    HW125394   4.027   3.445  15.096 -2.2828  1.7363  1.0738
 4644SOL    HW225395   4.134   3.506  15.027  0.6173  0.1936 -1.7305
 4645SOL     OW25396   0.919   1.995  10.070  0.1075  0.2427 -0.3534
 4645SOL    HW125397   1.013   2.014  10.076  0.2256 -0.7179  0.9518
 4645SOL    HW225398   0.906   1.910  10.112  0.7563  0.8711  1.1102
 4646SOL     OW25399   3.605   2.098   7.741 -0.6690 -0.7814 -0.6336
 4646SOL    HW125400   3.546   2.053   7.682 -0.5454 -1.2628 -0.3892
 4646SOL    HW225401   3.540   2.164   7.766  0.1798  0.0345 -0.5594
 4647SOL     OW25402   2.572   3.654   2.775 -0.6813  0.1173 -0.4986
 4647SOL    HW125403   2.503   3.607   2.729  0.2564  0.1869 -1.9702
 4647SOL    HW225404   2.641   3.639   2.710 -1.8851 -0.3009 -1.6797
 4648SOL     OW25405   0.715   4.200   7.429  0.2691  0.0671  0.1040
 4648SOL    HW125406   0.723   4.127   7.368  3.1035  0.0136  0.5368
 4648SOL    HW225407   0.643   4.251   7.392  0.1009 -1.6781 -1.9361
 4649SOL     OW25408   3.771   1.643   3.092 -0.0778 -0.6488 -0.1729
 4649SOL    HW125409   3.824   1.568   3.065  0.2466 -0.4309 -0.1370
 4649SOL    HW225410   3.692   1.612   3.046 -1.1996  0.1401  1.2141
 4650SOL     OW25411   0.124   4.379  15.872  0.4018  0.0100 -0.2667
 4650SOL    HW125412   0.105   4.296  15.828 -0.0117 -0.5126  0.9042
 4650SOL    HW225413   0.043   4.424  15.848 -0.0820  0.4060  2.1234
 4651SOL     OW25414   2.701   0.084   2.795  0.6181 -0.4198 -0.1573
 4651SOL    HW125415   2.751   0.126   2.725 -2.2228  0.7428 -1.4936
 4651SOL    HW225416   2.719   4.716   2.775 -1.8461 -1.6540  3.2214
 4652SOL     OW25417   3.373   3.127   5.325 -0.7320  0.7580  0.2658
 4652SOL    HW125418   3.320   3.048   5.314  1.6468 -0.8960  0.7452
 4652SOL    HW225419   3.459   3.089   5.344 -0.6624  1.2783  0.9536
 4653SOL     OW25420   4.209   0.987  16.609  0.0894  0.0216 -0.1009
 4653SOL    HW125421   4.153   0.989  16.531  1.0319  2.9346 -0.6923
 4653SOL    HW225422   4.162   0.932  16.672  1.3478  0.7584  1.4705
 4654SOL     OW25423   0.828   3.233   0.938  0.1629 -0.4358  0.3866
 4654SOL    HW125424   0.819   3.138   0.951  0.6718 -0.4816  0.4222
 4654SOL    HW225425   0.736   3.255   0.927 -0.0425 -2.4000 -1.7614
 4655SOL     OW25426   1.654   0.507   7.514 -0.1711 -0.3594  0.2516
 4655SOL    HW125427   1.705   0.481   7.438 -0.1838 -0.4687  0.2809
 4655SOL    HW225428   1.720   0.528   7.581  1.9133 -0.2236 -1.8665
 4656SOL     OW25429   3.963   0.635   8.928  0.1961  0.2975 -0.6996
 4656SOL    HW125430   4.035   0.678   8.974 -0.7951  0.1479  0.9813
 4656SOL    HW225431   3.901   0.636   9.000  0.6002 -3.0958 -0.2947
 4657SOL     OW25432   4.407   3.585  15.316 -1.3210 -0.5040 -0.4796
 4657SOL    HW125433   4.409   3.489  15.311  1.4699 -0.4815  0.2939
 4657SOL    HW225434   4.321   3.612  15.283  0.5747  1.8371 -3.5326
 4658SOL     OW25435   0.543   2.679  15.160 -0.2338  0.5985  0.2158
 4658SOL    HW125436   0.503   2.709  15.241 -0.6105  1.9757 -0.4770
 4658SOL    HW225437   0.637   2.687  15.173  0.1422 -1.1856 -1.4601
 4659SOL     OW25438   0.786   0.904   2.628 -0.1696 -0.4827 -0.3334
 4659SOL    HW125439   0.816   0.890   2.718 -0.0145  2.0606  0.0114
 4659SOL    HW225440   0.695   0.876   2.637 -0.2994 -0.6316 -2.1315
 4660SOL     OW25441   0.509   3.223   5.334 -0.3438  0.0727  0.0235
 4660SOL    HW125442   0.584   3.222   5.394 -0.9145 -1.4273  0.7186
 4660SOL    HW225443   0.532   3.141   5.289 -1.9502 -0.7181  0.6185
 4661SOL     OW25444   1.147   1.023   3.575  0.1739  0.6921  0.5525
 4661SOL    HW125445   1.197   0.954   3.532 -2.1899 -1.3699  1.1396
 4661SOL    HW225446   1.151   1.002   3.668  0.7287 -2.1977 -0.1324
 4662SOL     OW25447   1.667   0.136   7.574  0.3625 -0.0457 -0.1578
 4662SOL    HW125448   1.594   0.076   7.560 -1.2603  1.9989 -0.6099
 4662SOL    HW225449   1.727   0.091   7.515 -0.4428  0.6731 -1.5092
 4663SOL     OW25450   1.253   3.744  12.304 -0.2897 -0.6043 -0.1043
 4663SOL    HW125451   1.179   3.705  12.258 -0.8813  1.2813 -0.7708
 4663SOL    HW225452   1.303   3.664  12.314 -0.9252 -1.0734 -0.6599
 4664SOL     OW25453   3.496   4.505   7.425 -0.3505 -0.8216 -0.0394
 4664SOL    HW125454   3.423   4.527   7.367 -0.2300  2.0451  0.8483
 4664SOL    HW225455   3.461   4.513   7.514 -0.5356 -0.0031 -0.1874
 4665SOL     OW25456   1.023   3.030   0.009  0.3691 -0.0756 -0.3004
 4665SOL    HW125457   1.004   3.120  17.679  2.1780 -0.2066 -2.0281
 4665SOL    HW225458   1.028   3.054   0.101  0.6746  0.3535 -0.4313
 4666SOL     OW25459   2.520   2.267   9.162 -0.3004 -0.3215 -0.3932
 4666SOL    HW125460   2.463   2.330   9.205  0.8354 -0.8641  1.8709
 4666SOL    HW225461   2.530   2.202   9.231  2.5388  1.5241  0.9122
 4667SOL     OW25462   1.886   2.557  12.707 -0.0435  0.2951  0.5923
 4667SOL    HW125463   1.904   2.555  12.801 -2.7248  0.1618  1.1105
 4667SOL    HW225464   1.835   2.638  12.697 -1.3925 -0.4552  1.4725
 4668SOL     OW25465   4.416   0.775   6.791  0.5155 -0.3199 -0.1211
 4668SOL    HW125466   4.512   0.771   6.793  0.3990 -1.2616  3.4543
 4668SOL    HW225467   4.396   0.853   6.740  1.3016 -0.4895 -0.6956
 4669SOL     OW25468   4.075   3.463   5.120 -0.3578  1.1344 -0.7340
 4669SOL    HW125469   4.061   3.555   5.142 -0.5274  1.1510 -0.9153
 4669SOL    HW225470   3.991   3.461   5.075 -0.5477  1.2040 -0.3865
 4670SOL     OW25471   2.084   1.556  10.756  0.4652 -0.1821 -0.0936
 4670SOL    HW125472   2.093   1.531  10.664 -2.1561  0.1858 -0.4591
 4670SOL    HW225473   2.106   1.472  10.796  2.9322 -0.2436 -1.5824
 4671SOL     OW25474   3.635   2.247   4.490 -0.3438 -0.0889 -0.4197
 4671SOL    HW125475   3.589   2.331   4.484  0.7107  0.4430 -1.1034
 4671SOL    HW225476   3.599   2.224   4.575  0.9870 -0.4215  0.0500
 4672SOL     OW25477   1.743   1.140  12.666  0.1019 -0.6119  0.0478
 4672SOL    HW125478   1.756   1.224  12.710  0.7157 -1.3495  1.2671
 4672SOL    HW225479   1.653   1.123  12.695 -0.0147  0.3031  0.2362
 4673SOL     OW25480   2.902   1.892   7.586  0.1903  0.4293  0.4449
 4673SOL    HW125481   2.868   1.803   7.595 -2.9289  1.6393  0.8655
 4673SOL    HW225482   2.822   1.945   7.586 -1.0693 -1.4731 -0.9447
 4674SOL     OW25483   1.657   4.136   5.094  0.4339 -0.4399  0.1355
 4674SOL    HW125484   1.617   4.133   5.007  0.6427 -2.6509  0.0990
 4674SOL    HW225485   1.616   4.060   5.135 -0.2385  0.3416  0.8948
 4675SOL     OW25486   2.303   0.830   4.914 -0.4659 -0.2420  0.4488
 4675SOL    HW125487   2.242   0.764   4.880 -2.4240  1.8334 -0.0477
 4675SOL    HW225488   2.246   0.903   4.936  0.2424  0.6354 -0.6379
 4676SOL     OW25489   3.543   4.626   5.778  0.0706  0.0494  0.2530
 4676SOL    HW125490   3.542   4.714   5.818  1.5161 -0.4637  1.4330
 4676SOL    HW225491   3.630   4.596   5.804 -0.1273  0.2624  1.1857
 4677SOL     OW25492   2.308   3.996  15.152 -0.0372  0.3174  0.0603
 4677SOL    HW125493   2.294   4.085  15.122 -4.4225  0.4768  2.5435
 4677SOL    HW225494   2.299   3.948  15.069  0.2779  0.8266 -0.2634
 4678SOL     OW25495   2.092   2.865  13.543 -0.2223 -0.2293  0.5292
 4678SOL    HW125496   2.024   2.918  13.502  0.5403 -1.0663 -1.7761
 4678SOL    HW225497   2.170   2.887  13.492  0.5923  0.8844  2.2464
 4679SOL     OW25498   3.635   4.016   2.219 -0.3129 -0.1059 -0.1858
 4679SOL    HW125499   3.702   4.084   2.222 -0.6493  0.1651  1.0245
 4679SOL    HW225500   3.648   3.993   2.127 -1.1651  1.3353 -0.6815
 4680SOL     OW25501   2.957   2.025   8.551  0.2366 -0.1587 -0.2010
 4680SOL    HW125502   2.941   2.120   8.554  0.6761 -0.1446  2.0039
 4680SOL    HW225503   2.871   1.989   8.531  1.0037 -1.1070 -1.8292
 4681SOL     OW25504   2.732   2.600   1.262  0.0369 -0.5097  0.0554
 4681SOL    HW125505   2.737   2.509   1.232 -2.0481 -0.6472  0.1515
 4681SOL    HW225506   2.720   2.572   1.353  2.1142  1.8622  1.0406
 4682SOL     OW25507   0.616   0.204  16.197  0.0123  0.8309 -0.0525
 4682SOL    HW125508   0.607   0.117  16.156 -0.0301  0.8423 -0.0676
 4682SOL    HW225509   0.633   0.178  16.287 -0.2120 -1.2466 -0.6148
 4683SOL     OW25510   3.866   2.926  16.765  0.3694 -0.0836  0.5081
 4683SOL    HW125511   3.901   3.015  16.771 -0.2736  0.2305 -0.3147
 4683SOL    HW225512   3.942   2.880  16.729  1.2260  1.7505 -0.0813
 4684SOL     OW25513   1.502   0.998  12.762 -0.5862  0.4536 -0.4683
 4684SOL    HW125514   1.511   1.001  12.857 -1.2870  0.1747 -0.3901
 4684SOL    HW225515   1.505   0.903  12.752 -0.3440  0.2237  1.6615
 4685SOL     OW25516   0.371   4.647  16.458 -0.1690  0.0510  0.2924
 4685SOL    HW125517   0.301   4.675  16.517  0.0028  0.7395  0.1735
 4685SOL    HW225518   0.390   4.557  16.483  0.7405  0.3696  0.7651
 4686SOL     OW25519   3.540   2.913  12.356 -0.5425  0.1077 -0.4555
 4686SOL    HW125520   3.485   2.845  12.394 -0.2440 -0.9017 -1.8236
 4686SOL    HW225521   3.627   2.891  12.389 -0.4994  0.7112 -0.1665
 4687SOL     OW25522   0.086   1.538   7.002  1.1510 -0.2224 -0.4455
 4687SOL    HW125523   0.079   1.609   7.066  1.4947  0.1821 -0.8583
 4687SOL    HW225524   0.105   1.585   6.921 -4.0104 -0.5935 -1.8482
 4688SOL     OW25525   3.916   4.687  14.071 -0.3444  0.6852 -0.0478
 4688SOL    HW125526   3.956   0.032  14.123  0.5299  0.2316 -0.1249
 4688SOL    HW225527   3.937   4.707  13.980  1.3177  1.0180  0.4149
 4689SOL     OW25528   4.543   1.058  13.561 -0.1782 -0.5257  0.5047
 4689SOL    HW125529   4.500   1.010  13.490  0.4007  0.0160 -0.2198
 4689SOL    HW225530   4.630   1.017  13.569  0.3925  0.4172 -0.7673
 4690SOL     OW25531   3.413   1.240   7.610 -0.2214 -0.2444 -0.5647
 4690SOL    HW125532   3.403   1.329   7.575 -1.3480 -0.6681 -1.3176
 4690SOL    HW225533   3.379   1.193   7.534 -0.0108 -0.2670 -0.6430
 4691SOL     OW25534   3.413   4.039  16.700 -0.3401  1.0321  0.0127
 4691SOL    HW125535   3.399   4.101  16.629  3.0565  1.0013 -0.6987
 4691SOL    HW225536   3.361   3.965  16.669  0.6738  0.2271  0.2200
 4692SOL     OW25537   2.766   1.552   1.325  0.0836 -0.4377  0.2108
 4692SOL    HW125538   2.840   1.574   1.382  0.8258 -0.0954 -0.8844
 4692SOL    HW225539   2.807   1.526   1.242  0.5003 -2.0251  0.9162
 4693SOL     OW25540   4.257   0.862  12.304  0.6761  0.3423 -1.1924
 4693SOL    HW125541   4.183   0.805  12.288  0.5397  0.1438  0.0966
 4693SOL    HW225542   4.310   0.790  12.340 -0.2317 -0.1895 -0.9297
 4694SOL     OW25543   0.215   4.015   4.853  0.4521  0.0677  0.1069
 4694SOL    HW125544   0.305   4.043   4.868  0.5642  0.8063 -1.9346
 4694SOL    HW225545   0.238   3.928   4.820 -2.9338 -0.4436 -0.9042
 4695SOL     OW25546   1.223   0.608   3.619 -0.2296 -0.4671 -0.4352
 4695SOL    HW125547   1.278   0.591   3.542  0.5161  1.8058 -0.4015
 4695SOL    HW225548   1.250   0.535   3.675  0.9294 -1.4912 -2.3109
 4696SOL     OW25549   2.904   3.559  12.212 -0.2091  0.6951 -0.0907
 4696SOL    HW125550   2.922   3.508  12.291 -1.7013 -0.5610 -0.5632
 4696SOL    HW225551   2.948   3.497  12.153 -0.7193 -1.2211  1.5589
 4697SOL     OW25552   0.847   3.711  16.050  0.2282  0.0085 -0.5278
 4697SOL    HW125553   0.753   3.695  16.045  0.2727 -1.2058  2.5109
 4697SOL    HW225554   0.884   3.630  16.013  1.3312  0.5618 -0.6382
 4698SOL     OW25555   4.176   0.603   2.565  0.3604  0.0510  0.0966
 4698SOL    HW125556   4.218   0.669   2.510 -0.2439  0.6679  0.3777
 4698SOL    HW225557   4.111   0.563   2.507 -0.7728  1.3019  0.5147
 4699SOL     OW25558   3.372   0.020   8.482 -0.7144 -0.2345 -0.6918
 4699SOL    HW125559   3.292   4.720   8.528 -0.2369 -0.8664 -0.1925
 4699SOL    HW225560   3.333   0.086   8.425 -0.8085 -1.2861 -1.8502
 4700SOL     OW25561   3.689   4.394   2.762  0.3548 -0.4393  0.5186
 4700SOL    HW125562   3.743   4.316   2.749  0.6980 -0.0161 -0.6066
 4700SOL    HW225563   3.619   4.347   2.808  2.1453 -0.6715  3.0111
 4701SOL     OW25564   1.690   3.539   5.818  0.2072 -0.3854  0.1219
 4701SOL    HW125565   1.623   3.524   5.885  0.2412  1.4969  0.5794
 4701SOL    HW225566   1.769   3.525   5.871  1.0693  0.5318 -0.9106
 4702SOL     OW25567   2.349   3.620   4.544  0.2799 -0.0942 -0.3147
 4702SOL    HW125568   2.431   3.615   4.494  0.2182  2.5744 -0.7180
 4702SOL    HW225569   2.376   3.566   4.618  1.9587 -0.1297 -0.9335
 4703SOL     OW25570   1.211   0.866  15.884  0.2203  0.4987  0.3769
 4703SOL    HW125571   1.274   0.838  15.951  1.6028  1.1836 -0.6238
 4703SOL    HW225572   1.136   0.812  15.909  0.4401  1.2231  2.6166
 4704SOL     OW25573   0.486   3.326   1.225 -0.4879  0.0080 -0.9320
 4704SOL    HW125574   0.472   3.413   1.264 -1.6040 -0.7453  0.3733
 4704SOL    HW225575   0.580   3.314   1.219 -0.5143 -1.0051  0.6734
 4705SOL     OW25576   0.917   2.329   4.050 -0.3621  0.6019 -0.2168
 4705SOL    HW125577   0.884   2.407   4.096  1.2541  1.6961 -0.9144
 4705SOL    HW225578   1.011   2.330   4.070 -1.2025 -0.1623  3.8329
 4706SOL     OW25579   0.714   0.700   1.672 -0.1242 -0.1638 -0.5553
 4706SOL    HW125580   0.723   0.711   1.577 -0.8064 -2.9143 -0.9298
 4706SOL    HW225581   0.623   0.678   1.692 -0.2386  1.4685  0.6795
 4707SOL     OW25582   0.527   1.725   6.510 -0.2814 -0.4537 -0.0799
 4707SOL    HW125583   0.527   1.685   6.423 -1.6570 -0.6474  0.0098
 4707SOL    HW225584   0.589   1.666   6.551 -0.0603 -0.6887 -0.7531
 4708SOL     OW25585   2.880   1.884  12.442 -0.2117 -0.3495  0.5956
 4708SOL    HW125586   2.820   1.815  12.469 -0.4680  0.5871  2.4435
 4708SOL    HW225587   2.827   1.956  12.406  0.5003  0.4671  1.1718
 4709SOL     OW25588   1.165   4.205   3.181  0.0015  0.2073 -0.4594
 4709SOL    HW125589   1.179   4.178   3.090  1.0285 -1.9662  0.3322
 4709SOL    HW225590   1.082   4.161   3.199  0.2558  0.3413  1.0354
 4710SOL     OW25591   1.098   2.091   5.127 -0.4741 -0.2571 -0.2126
 4710SOL    HW125592   1.002   2.100   5.125 -0.3502  1.5668  1.9038
 4710SOL    HW225593   1.112   2.027   5.196 -1.9420  1.8324  2.0233
 4711SOL     OW25594   1.119   3.413   7.253 -0.2446 -0.4123  0.0728
 4711SOL    HW125595   1.084   3.329   7.221 -0.8198 -1.0102  2.2491
 4711SOL    HW225596   1.154   3.465   7.181  0.3514 -3.7742 -2.0576
 4712SOL     OW25597   2.863   0.939  12.038 -0.2147 -0.2181 -0.2909
 4712SOL    HW125598   2.872   0.848  12.068  2.6325  1.2461  3.2403
 4712SOL    HW225599   2.839   0.985  12.118 -0.6206 -2.1971  0.7341
 4713SOL     OW25600   2.796   3.457   0.043 -0.5543  0.4684  0.2054
 4713SOL    HW125601   2.886   3.443   0.073 -0.4979 -0.7468 -0.5524
 4713SOL    HW225602   2.797   3.399  17.663  1.4735 -2.1992  2.2399
 4714SOL     OW25603   4.697   1.137   7.676 -0.0344  0.2760  0.3263
 4714SOL    HW125604   0.035   1.078   7.720  0.1589 -0.2044 -0.5924
 4714SOL    HW225605   0.005   1.111   7.590 -1.4586 -0.6730  0.0909
 4715SOL     OW25606   4.421   3.098  17.602 -0.0306  0.3395  0.1891
 4715SOL    HW125607   4.489   3.040  17.637 -0.7984  0.1578  1.3749
 4715SOL    HW225608   4.467   3.177  17.628 -0.8614  0.2835  1.8376
 4716SOL     OW25609   2.705   1.423   7.470  0.0421  0.1021  0.3950
 4716SOL    HW125610   2.794   1.389   7.459  0.0316  0.3515 -0.4291
 4716SOL    HW225611   2.669   1.415   7.382  0.0325  0.9699  0.3202
 4717SOL     OW25612   2.763   1.839   1.455  0.3464 -0.1916 -0.1532
 4717SOL    HW125613   2.737   1.756   1.495  1.2989 -0.2655  0.2971
 4717SOL    HW225614   2.774   1.824   1.361  1.3636 -0.9750  0.0929
 4718SOL     OW25615   1.058   3.313   5.310 -0.1627 -0.1961  0.0027
 4718SOL    HW125616   1.104   3.303   5.227  1.5008  0.9731  0.7845
 4718SOL    HW225617   1.121   3.310   5.382  0.7638  1.8620 -0.7312
 4719SOL     OW25618   3.078   4.544   2.640  0.0055 -0.6750  0.1440
 4719SOL    HW125619   3.012   4.534   2.708 -1.8711 -2.1361 -1.8710
 4719SOL    HW225620   3.059   4.634   2.615  0.3849 -0.9907 -1.3388
 4720SOL     OW25621   3.378   4.253   5.211 -0.3434 -0.0717  0.5417
 4720SOL    HW125622   3.472   4.233   5.208 -0.2947  0.1671  0.4942
 4720SOL    HW225623   3.343   4.171   5.178  0.2394  0.5271 -1.5555
 4721SOL     OW25624   0.075   2.452   8.529  0.4910  0.0636 -0.0174
 4721SOL    HW125625   0.092   2.406   8.611  1.2033  0.1949 -0.0921
 4721SOL    HW225626   0.073   2.377   8.468 -0.8592  0.3670 -0.3476
 4722SOL     OW25627   1.269   3.195  14.645 -0.0112  0.2531  0.1287
 4722SOL    HW125628   1.353   3.153  14.662 -0.5079 -0.0787  1.7237
 4722SOL    HW225629   1.299   3.241  14.566 -0.0576  1.7682  1.0030
 4723SOL     OW25630   0.505   1.302   3.259 -0.5065  0.3034 -0.0278
 4723SOL    HW125631   0.424   1.353   3.266 -0.5013  0.3895 -0.6703
 4723SOL    HW225632   0.513   1.283   3.353 -0.8360  1.4201  0.2312
 4724SOL     OW25633   2.249   0.909   7.718 -0.3319  0.1546 -0.6593
 4724SOL    HW125634   2.310   0.942   7.784  0.0266  0.0104 -0.9170
 4724SOL    HW225635   2.242   0.818   7.749  1.7482  0.0834 -0.4219
 4725SOL     OW25636   3.811   1.212   7.021 -0.2133  0.5799  0.6393
 4725SOL    HW125637   3.798   1.179   6.932  0.8600  0.1906  0.6251
 4725SOL    HW225638   3.751   1.286   7.020  0.3470  1.0000 -0.6185
 4726SOL     OW25639   3.962   1.721   4.196 -0.0558 -0.4761 -0.6717
 4726SOL    HW125640   3.951   1.793   4.258 -1.1350  0.2400 -1.6956
 4726SOL    HW225641   3.905   1.653   4.232 -1.4821  1.3350  0.5542
 4727SOL     OW25642   1.111   0.225   5.620  0.2950  0.1614  0.2173
 4727SOL    HW125643   1.089   0.143   5.577  1.0873 -0.3305  0.7429
 4727SOL    HW225644   1.071   0.218   5.707 -1.8557 -1.2651 -0.8970
 4728SOL     OW25645   1.385   1.673   6.851  0.1037  0.2010  0.0303
 4728SOL    HW125646   1.463   1.681   6.796  1.3114  1.5308  1.9432
 4728SOL    HW225647   1.425   1.710   6.930  0.4243  1.2966 -0.6413
 4729SOL     OW25648   1.180   2.400  11.664 -0.7743  0.5510 -0.1516
 4729SOL    HW125649   1.216   2.421  11.578 -0.9222  2.4437  0.2598
 4729SOL    HW225650   1.207   2.310  11.684  0.1422  1.2519  1.7899
 4730SOL     OW25651   4.674   0.774  13.883  0.5005  0.4812 -0.1823
 4730SOL    HW125652   4.610   0.756  13.952  0.4349  2.8355  0.3809
 4730SOL    HW225653   4.723   0.843  13.928 -0.5798  1.4148 -0.4138
 4731SOL     OW25654   4.321   2.743   7.053 -0.0059  0.3142 -0.3423
 4731SOL    HW125655   4.323   2.729   7.148 -0.0103 -2.5662 -0.7682
 4731SOL    HW225656   4.386   2.812   7.049 -1.7944  2.0581  0.7784
 4732SOL     OW25657   1.803   1.628   5.531 -0.0944  0.0853 -0.0390
 4732SOL    HW125658   1.838   1.557   5.585  0.1538 -0.0829 -0.4177
 4732SOL    HW225659   1.841   1.608   5.445 -0.3916 -0.5659 -0.0102
 4733SOL     OW25660   3.697   2.395  12.054  0.4068 -0.5461  0.5587
 4733SOL    HW125661   3.687   2.456  11.981  0.7011 -1.0286  0.1087
 4733SOL    HW225662   3.712   2.316  12.001  1.6965  0.8951 -1.2031
 4734SOL     OW25663   0.205   0.180   3.012 -1.0608 -0.0805 -0.3612
 4734SOL    HW125664   0.271   0.130   2.963 -0.9329  1.1902 -1.4870
 4734SOL    HW225665   0.259   0.205   3.087  1.0157 -1.1819 -1.5022
 4735SOL     OW25666   1.449   2.963  15.368 -0.3829  0.3607  0.0142
 4735SOL    HW125667   1.398   2.972  15.288 -1.0918 -0.4485  0.3730
 4735SOL    HW225668   1.531   2.993  15.329  0.9355  0.2025  2.6417
 4736SOL     OW25669   2.229   3.806   4.730 -0.6724  0.0374  0.1736
 4736SOL    HW125670   2.269   3.893   4.728  1.2011 -0.8044  2.0551
 4736SOL    HW225671   2.277   3.767   4.657 -3.0462 -0.6923 -1.0042
 4737SOL     OW25672   0.705   1.311   5.161  0.4371 -0.0629 -1.0136
 4737SOL    HW125673   0.775   1.326   5.225  0.9873  0.9939 -1.8480
 4737SOL    HW225674   0.704   1.216   5.151  1.3034 -0.4266  2.3680
 4738SOL     OW25675   3.180   1.723   3.444  0.2017  0.4293  0.4973
 4738SOL    HW125676   3.156   1.783   3.373  0.4140 -1.4864 -1.2231
 4738SOL    HW225677   3.099   1.682   3.472 -0.4879  0.4736 -1.3879
 4739SOL     OW25678   3.203   4.340   2.434 -1.0047  0.6120 -0.1109
 4739SOL    HW125679   3.196   4.434   2.416 -1.2876  0.4203 -1.0243
 4739SOL    HW225680   3.169   4.349   2.523  0.8427 -0.7868  0.7266
 4740SOL     OW25681   0.143   1.521  12.771 -0.3142  0.1854 -0.0549
 4740SOL    HW125682   0.214   1.477  12.819  1.0074  1.1131 -1.1424
 4740SOL    HW225683   0.112   1.451  12.714 -0.1992  1.9771 -2.3283
 4741SOL     OW25684   4.357   1.088   0.298 -0.1423 -0.0337  0.2384
 4741SOL    HW125685   4.304   1.013   0.271  0.3691 -0.4965  0.5235
 4741SOL    HW225686   4.323   1.101   0.386 -1.5363  3.4613 -0.7855
 4742SOL     OW25687   3.908   0.101  14.989  0.1908 -0.4025 -0.6038
 4742SOL    HW125688   3.863   0.185  14.976  0.1869 -0.2950  0.0640
 4742SOL    HW225689   3.863   0.043  14.928 -1.0842  1.3956 -1.4032
 4743SOL     OW25690   2.929   2.595   3.261 -0.2742  0.3962  0.0194
 4743SOL    HW125691   2.984   2.517   3.267  1.8118  1.7778 -1.1384
 4743SOL    HW225692   2.905   2.606   3.353  3.0199 -2.1984  1.1612
 4744SOL     OW25693   2.457   2.973  11.012 -0.1911  0.3326  0.7188
 4744SOL    HW125694   2.459   3.050  11.070 -0.7446 -0.8550  2.3319
 4744SOL    HW225695   2.488   3.020  10.935  0.3303  0.2882  0.9008
 4745SOL     OW25696   0.426   4.506  12.384  0.3825  0.1277 -0.3469
 4745SOL    HW125697   0.469   4.427  12.353  0.7410  0.6986 -1.2941
 4745SOL    HW225698   0.392   4.463  12.463 -0.6777 -0.3130 -1.0367
 4746SOL     OW25699   2.485   2.365   5.160  0.3181 -0.0235  0.5114
 4746SOL    HW125700   2.436   2.440   5.194 -0.7035  0.3540 -1.7447
 4746SOL    HW225701   2.561   2.411   5.125  0.2280  0.1897  0.5923
 4747SOL     OW25702   1.896   0.046   6.877 -0.3372 -0.0861  0.6731
 4747SOL    HW125703   1.991   0.042   6.890  0.0805  0.7470 -2.0665
 4747SOL    HW225704   1.877   4.696   6.935  0.7932 -1.3941 -0.6314
 4748SOL     OW25705   1.242   0.065   1.561  0.1632  0.2515 -0.2878
 4748SOL    HW125706   1.264   0.136   1.501 -0.5031  2.3284  1.9290
 4748SOL    HW225707   1.292   4.714   1.528  3.8358  2.2538  0.8041
 4749SOL     OW25708   3.416   1.506   8.063 -0.0115 -0.3430 -0.4381
 4749SOL    HW125709   3.452   1.523   7.976  1.3487 -1.1628 -0.0437
 4749SOL    HW225710   3.490   1.529   8.120 -3.1249  3.3490  2.1717
 4750SOL     OW25711   4.259   0.533   6.739  0.1636  0.4380  0.1041
 4750SOL    HW125712   4.326   0.597   6.765 -0.6877  1.2861  0.1863
 4750SOL    HW225713   4.229   0.494   6.821 -0.1985 -0.8640 -0.6611
 4751SOL     OW25714   3.077   2.693   6.211 -0.0118  0.5047  0.9850
 4751SOL    HW125715   3.036   2.701   6.125  1.1796 -0.9579  0.2863
 4751SOL    HW225716   3.007   2.721   6.271 -1.7816 -0.9664 -0.3859
 4752SOL     OW25717   3.013   0.849   7.181  0.1454 -0.5222  0.2697
 4752SOL    HW125718   2.989   0.791   7.254  1.0982 -0.1852  0.8406
 4752SOL    HW225719   3.019   0.787   7.108  0.6655  0.7429 -0.7454
 4753SOL     OW25720   1.496   1.055   5.798 -0.1444 -0.0177 -0.4148
 4753SOL    HW125721   1.409   1.090   5.781 -1.4087 -1.3040  3.2016
 4753SOL    HW225722   1.527   1.127   5.853 -0.3272  2.2710 -3.3609
 4754SOL     OW25723   4.112   1.769   0.233 -0.3742 -0.0883  0.1538
 4754SOL    HW125724   4.060   1.818   0.168 -0.2818  1.3867  1.2063
 4754SOL    HW225725   4.172   1.730   0.170  1.4282  0.3835  1.5990
 4755SOL     OW25726   4.134   0.743  10.896  0.0996 -0.2011  1.1386
 4755SOL    HW125727   4.131   0.778  10.985  1.0395 -0.4562  1.2766
 4755SOL    HW225728   4.204   0.801  10.865 -1.2064  0.0578 -1.3568
 4756SOL     OW25729   2.363   3.827   5.541  0.6286 -0.0697 -0.3899
 4756SOL    HW125730   2.296   3.858   5.480  0.8028  3.0034  0.9742
 4756SOL    HW225731   2.371   3.902   5.600  0.5482 -0.6963  0.4168
 4757SOL     OW25732   3.955   4.605   7.197 -0.4591  0.2727 -0.3168
 4757SOL    HW125733   3.953   4.668   7.269 -1.7252  0.1819 -0.2755
 4757SOL    HW225734   3.866   4.570   7.202 -0.9916  1.1027 -3.5934
 4758SOL     OW25735   3.402   4.423   5.879 -0.0751 -0.2219 -0.2048
 4758SOL    HW125736   3.354   4.494   5.922 -0.8590 -0.1279 -1.2374
 4758SOL    HW225737   3.434   4.473   5.803  2.1738 -2.8455 -0.9633
 4759SOL     OW25738   4.719   3.546   2.302 -0.7365 -0.0456 -0.4576
 4759SOL    HW125739   4.656   3.476   2.286 -0.8795  0.1783 -0.8664
 4759SOL    HW225740   4.672   3.629   2.297 -0.4975  0.2451  1.8181
 4760SOL     OW25741   0.054   0.560  14.183 -0.0782 -0.1031 -0.3584
 4760SOL    HW125742   4.709   0.584  14.121  1.0473 -1.9435 -2.3171
 4760SOL    HW225743   0.105   0.640  14.188 -1.5546  0.8102  0.3642
 4761SOL     OW25744   3.774   0.913  15.617 -0.4321 -0.3574  0.2457
 4761SOL    HW125745   3.790   0.893  15.525  0.2103 -2.7496  0.8553
 4761SOL    HW225746   3.775   0.824  15.652  0.4177  0.0450  1.2469
 4762SOL     OW25747   2.585   4.590   7.269 -0.5709 -0.0997  0.3628
 4762SOL    HW125748   2.560   4.644   7.194 -1.7011 -0.9482  0.1355
 4762SOL    HW225749   2.660   4.637   7.307 -1.4204 -0.5778  2.6463
 4763SOL     OW25750   4.211   2.976  16.780  0.7018 -0.1090  0.0878
 4763SOL    HW125751   4.167   2.998  16.862 -0.4901  1.4286 -0.9743
 4763SOL    HW225752   4.149   2.911  16.746 -1.0627  0.7829  1.5913
 4764SOL     OW25753   0.350   4.195   4.622 -0.1371 -0.0721 -0.2997
 4764SOL    HW125754   0.430   4.224   4.665  1.9503 -2.0111 -2.8678
 4764SOL    HW225755   0.343   4.260   4.551 -1.0767 -0.2623 -0.3854
 4765SOL     OW25756   1.640   4.205  16.171 -0.1536 -0.1103 -0.2778
 4765SOL    HW125757   1.624   4.299  16.171  2.4178  0.3254 -1.0114
 4765SOL    HW225758   1.622   4.186  16.263 -0.8315  0.4601 -0.2908
 4766SOL     OW25759   2.851   1.203   2.278  0.0047  0.5497 -0.5456
 4766SOL    HW125760   2.904   1.138   2.232 -2.3770 -0.3561 -2.0510
 4766SOL    HW225761   2.757   1.195   2.258  0.0045 -4.0350  1.0674
 4767SOL     OW25762   4.339   0.641  15.306 -0.2446 -0.2636  0.1858
 4767SOL    HW125763   4.418   0.612  15.261 -0.5819  0.5995 -0.9528
 4767SOL    HW225764   4.349   0.734  15.286  0.6743 -0.5619 -0.7543
 4768SOL     OW25765   0.654   2.921   5.659  0.2836 -0.5638 -0.0073
 4768SOL    HW125766   0.584   2.876   5.611 -2.1602  3.3822 -0.1032
 4768SOL    HW225767   0.658   3.001   5.608  0.4097 -0.0733  0.7721
 4769SOL     OW25768   0.312   0.693  11.754  0.3991 -0.4023 -0.8346
 4769SOL    HW125769   0.307   0.743  11.836  2.3574 -4.6288  1.8912
 4769SOL    HW225770   0.233   0.721  11.708 -0.3536  1.6117  1.6672
 4770SOL     OW25771   2.716   4.349   6.209 -0.2924  0.2793  0.3645
 4770SOL    HW125772   2.633   4.373   6.166  0.3626 -0.1461 -1.1411
 4770SOL    HW225773   2.782   4.390   6.153  1.8706  0.6889  3.2430
 4771SOL     OW25774   1.845   1.063   4.855 -0.0455  0.0416  0.3319
 4771SOL    HW125775   1.908   1.124   4.816  0.1969  0.2400  1.0401
 4771SOL    HW225776   1.771   1.053   4.795  2.1152 -0.8533 -2.1477
 4772SOL     OW25777   1.268   3.444   0.762 -0.0721  0.2344  0.1949
 4772SOL    HW125778   1.326   3.404   0.827 -1.0945  0.3301  1.1585
 4772SOL    HW225779   1.327   3.480   0.695  0.4280 -0.7098  0.1197
 4773SOL     OW25780   3.120   1.831   2.145  0.0616  0.3636 -0.3091
 4773SOL    HW125781   3.089   1.740   2.153  1.1020  0.1834  1.5356
 4773SOL    HW225782   3.168   1.851   2.225 -2.0889  0.7197  0.8874
 4774SOL     OW25783   2.721   0.145   5.470 -0.1479  0.4400  0.1195
 4774SOL    HW125784   2.801   0.152   5.417 -0.3448  0.1287 -0.2125
 4774SOL    HW225785   2.663   0.193   5.412  2.1195  0.3515 -2.2631
 4775SOL     OW25786   0.624   2.897  14.382  0.2634 -0.2994 -0.0539
 4775SOL    HW125787   0.604   2.896  14.475 -2.8712 -1.4517 -0.7248
 4775SOL    HW225788   0.621   2.804  14.359  0.9889 -0.8497  2.1260
 4776SOL     OW25789   0.926   1.267   8.052 -0.8891 -0.1051  0.3614
 4776SOL    HW125790   0.909   1.332   8.120 -1.5960 -1.7199  1.7227
 4776SOL    HW225791   1.010   1.232   8.082 -0.1061  0.7057 -0.8865
 4777SOL     OW25792   0.417   1.668   6.970 -0.1658 -0.6705 -0.2104
 4777SOL    HW125793   0.475   1.736   6.935  1.3359 -0.6628  2.2461
 4777SOL    HW225794   0.332   1.700   6.940  0.0784  0.3076  0.1317
 4778SOL     OW25795   4.536   1.019  15.744  0.4517  0.9135 -0.2060
 4778SOL    HW125796   4.621   1.060  15.728  1.5635 -0.2312  2.6999
 4778SOL    HW225797   4.525   0.977  15.659 -0.6082 -0.6173  0.6738
 4779SOL     OW25798   0.814   0.343   3.773 -0.4709 -0.3909 -0.1399
 4779SOL    HW125799   0.821   0.423   3.721 -1.5204  0.2906  0.7651
 4779SOL    HW225800   0.760   0.378   3.844 -0.1002 -0.2909  0.0969
 4780SOL     OW25801   4.601   2.847   8.419 -0.6129  0.3326 -0.1154
 4780SOL    HW125802   4.603   2.883   8.508  0.3779  0.3248 -0.1342
 4780SOL    HW225803   4.510   2.833   8.394 -0.1495 -0.0041 -1.6299
 4781SOL     OW25804   0.234   1.969   4.658 -0.4488  0.0441 -0.1149
 4781SOL    HW125805   0.258   1.879   4.637 -2.3449 -0.6132  0.4949
 4781SOL    HW225806   0.180   1.995   4.584 -0.8009  0.2396  0.2134
 4782SOL     OW25807   0.188   0.767   4.544 -0.5087 -0.0317  0.4276
 4782SOL    HW125808   0.249   0.838   4.525 -0.1118 -0.0323  1.6592
 4782SOL    HW225809   0.121   0.780   4.477 -2.0263 -1.3996  1.6780
 4783SOL     OW25810   3.053   2.531   9.837  1.1791  0.2585  0.6157
 4783SOL    HW125811   3.086   2.616   9.808 -0.5522  1.0738  1.0454
 4783SOL    HW225812   3.076   2.526   9.929  0.8377  1.1779  0.7541
 4784SOL     OW25813   0.755   0.487  16.042 -0.0409  0.5102 -0.2148
 4784SOL    HW125814   0.727   0.555  16.103  0.4354  0.1413  0.4119
 4784SOL    HW225815   0.822   0.438  16.090  1.4101  1.6529 -1.0562
 4785SOL     OW25816   0.389   0.711  15.574  0.0328 -0.2054 -0.0529
 4785SOL    HW125817   0.460   0.722  15.637 -0.3966  1.5590  0.1491
 4785SOL    HW225818   0.363   0.802  15.557  0.7669 -0.3581 -1.9274
 4786SOL     OW25819   3.170   0.719   4.480 -0.2919  0.2571 -0.1087
 4786SOL    HW125820   3.139   0.635   4.447 -1.4003  0.5074  0.3159
 4786SOL    HW225821   3.091   0.743   4.529  0.0240 -0.6101  0.8290
 4787SOL     OW25822   0.733   4.404   5.781 -0.0991 -0.8252 -0.1627
 4787SOL    HW125823   0.813   4.378   5.827  0.7466  1.0202 -0.5484
 4787SOL    HW225824   0.677   4.330   5.805  1.5678 -1.6767  1.0485
 4788SOL     OW25825   2.976   4.486   7.186  0.1108  0.5831  0.5401
 4788SOL    HW125826   2.968   4.576   7.155 -1.3349  0.2682  0.0070
 4788SOL    HW225827   2.891   4.493   7.229  0.0887 -0.4070  0.6622
 4789SOL     OW25828   1.910   4.390   7.751 -0.5783 -0.5858  0.2846
 4789SOL    HW125829   1.857   4.364   7.826 -1.5811 -0.1607 -0.2772
 4789SOL    HW225830   1.999   4.393   7.786 -1.7119 -0.3429  3.1725
 4790SOL     OW25831   2.082   0.753   1.497  0.0181  0.2421 -0.2075
 4790SOL    HW125832   2.136   0.787   1.569 -1.0427  4.6186 -1.4990
 4790SOL    HW225833   2.030   0.692   1.549  1.6719  0.0467  1.2037
 4791SOL     OW25834   1.600   4.675   1.502 -0.6398  0.6427  0.0737
 4791SOL    HW125835   1.600   4.648   1.410 -4.0476  2.6941 -0.5376
 4791SOL    HW225836   1.512   4.649   1.530  0.2498 -0.8888  1.4074
 4792SOL     OW25837   2.018   0.080   9.811 -0.1590 -0.3294  0.1450
 4792SOL    HW125838   1.971   0.137   9.873  1.8824  0.1301  1.2526
 4792SOL    HW225839   2.069   0.027   9.873  0.8865  1.2787  0.6353
 4793SOL     OW25840   1.817   0.345   6.750 -0.2163 -0.2252 -0.1963
 4793SOL    HW125841   1.900   0.320   6.710  0.8021  0.7584  1.2974
 4793SOL    HW225842   1.821   0.288   6.827 -0.2432 -1.5042 -1.1520
 4794SOL     OW25843   0.478   0.396  10.118 -0.4460 -0.3571  0.2680
 4794SOL    HW125844   0.480   0.313  10.166 -1.2242 -0.8692 -0.5728
 4794SOL    HW225845   0.570   0.400  10.091 -0.4128  0.2496  0.4717
 4795SOL     OW25846   0.900   2.094  16.071 -0.2424 -0.5009  0.6675
 4795SOL    HW125847   0.943   2.125  15.992 -5.0454  0.1847 -1.6918
 4795SOL    HW225848   0.812   2.120  16.043  0.3029  0.6801  0.0886
 4796SOL     OW25849   4.510   4.457   7.130  0.0640 -0.3078 -0.2943
 4796SOL    HW125850   4.592   4.466   7.082 -0.3327  3.0785 -0.3846
 4796SOL    HW225851   4.502   4.362   7.134  1.1202 -0.4119 -0.8002
 4797SOL     OW25852   0.927   4.329   2.508  0.2073 -0.6560  0.3691
 4797SOL    HW125853   0.841   4.321   2.468 -0.2373 -1.8093  1.5681
 4797SOL    HW225854   0.916   4.416   2.546  2.2786  0.3597 -1.3763
 4798SOL     OW25855   0.570   2.921   8.380  0.0213 -0.2940  0.0360
 4798SOL    HW125856   0.651   2.890   8.421  1.2737 -0.3533 -2.5109
 4798SOL    HW225857   0.590   3.014   8.365  2.2999 -0.6562  0.8957
 4799SOL     OW25858   2.019   0.435   4.681 -0.9026 -0.5398 -0.3001
 4799SOL    HW125859   2.092   0.490   4.710 -1.2055 -0.8918  1.1138
 4799SOL    HW225860   1.959   0.505   4.656  1.1118  0.8934 -1.2019
 4800SOL     OW25861   0.707   0.445   9.951 -0.3802  0.1145 -0.0061
 4800SOL    HW125862   0.776   0.417  10.011 -0.2006 -0.3481 -0.4221
 4800SOL    HW225863   0.759   0.455   9.871  0.1674 -1.7795  0.1266
 4801SOL     OW25864   0.125   2.131   0.967  0.5100 -0.6229 -0.6359
 4801SOL    HW125865   0.041   2.176   0.962 -0.3751 -1.8467  3.3669
 4801SOL    HW225866   0.104   2.061   1.029  0.0324  2.0401  2.1718
 4802SOL     OW25867   4.206   4.478   4.357  0.7172  0.4278 -0.1014
 4802SOL    HW125868   4.220   4.383   4.356  1.9492  0.5789  1.9995
 4802SOL    HW225869   4.195   4.498   4.264 -0.2329 -0.1320 -0.1034
 4803SOL     OW25870   1.812   1.392   0.552  0.4212 -0.1669  0.5783
 4803SOL    HW125871   1.779   1.322   0.609 -1.0296 -0.2875 -0.3854
 4803SOL    HW225872   1.791   1.462   0.613 -0.1429  1.9692 -2.0612
 4804SOL     OW25873   2.745   3.198   7.022 -0.7042  0.0405  0.4054
 4804SOL    HW125874   2.659   3.201   7.063 -1.2931 -1.6344 -0.7148
 4804SOL    HW225875   2.803   3.189   7.098 -0.8527  0.0569  0.5198
 4805SOL     OW25876   3.752   2.618   3.537 -0.0657 -0.1726  0.2589
 4805SOL    HW125877   3.766   2.529   3.504 -1.6703 -1.4166  2.9519
 4805SOL    HW225878   3.695   2.589   3.608 -3.1599  1.5234 -1.5481
 4806SOL     OW25879   0.110   1.053   5.485 -0.2065 -0.6095 -0.6841
 4806SOL    HW125880   0.024   1.036   5.523 -0.4762 -0.6116 -1.2957
 4806SOL    HW225881   0.118   0.984   5.420  0.5711 -1.7166  0.5951
 4807SOL     OW25882   2.451   0.050   5.478 -0.5575  0.4093  0.1335
 4807SOL    HW125883   2.456   4.679   5.469 -0.7698  0.2485  1.6144
 4807SOL    HW225884   2.544   0.070   5.494 -0.1653 -0.4872 -1.0837
 4808SOL     OW25885   3.213   1.482   4.023  0.2889 -0.1018  0.2676
 4808SOL    HW125886   3.242   1.443   4.106 -0.0819 -0.2360  0.3337
 4808SOL    HW225887   3.243   1.572   4.016 -0.0315  0.0900  1.3551
 4809SOL     OW25888   3.743   0.098   6.169 -0.8984  0.5224 -0.2307
 4809SOL    HW125889   3.680   0.165   6.141  0.5722  1.6363 -0.8609
 4809SOL    HW225890   3.689   0.021   6.154  1.5875 -1.2494 -0.0330
 4810SOL     OW25891   3.653   1.969   8.622 -0.2572 -0.1961  0.0327
 4810SOL    HW125892   3.736   2.014   8.639  0.1867 -0.7314 -0.6799
 4810SOL    HW225893   3.661   1.913   8.699 -0.8135  0.6176  0.6773
 4811SOL     OW25894   2.022   4.630   9.308 -0.3611 -0.2608  0.2449
 4811SOL    HW125895   2.038   4.673   9.392 -0.7961  0.0402  0.1787
 4811SOL    HW225896   1.975   4.701   9.264  0.2456 -0.4326 -0.6795
 4812SOL     OW25897   0.840   1.439   1.343  0.5284 -0.2507 -0.0708
 4812SOL    HW125898   0.897   1.366   1.315  0.4352  0.0647 -1.0987
 4812SOL    HW225899   0.754   1.412   1.312 -1.5658  2.3838  3.5590
 4813SOL     OW25900   1.231   0.441   5.664  0.2995  0.7005  0.3111
 4813SOL    HW125901   1.291   0.419   5.735  2.0978  0.1021 -1.4174
 4813SOL    HW225902   1.184   0.359   5.648  1.0400  0.0489  1.4228
 4814SOL     OW25903   4.602   1.335   6.612 -0.2129  0.0933  0.0251
 4814SOL    HW125904   4.631   1.424   6.591  1.9782 -0.9094 -1.2540
 4814SOL    HW225905   4.669   1.313   6.677 -0.6239  0.5933  0.6069
 4815SOL     OW25906   0.601   3.852   3.419  0.1887 -0.1679 -0.2068
 4815SOL    HW125907   0.592   3.946   3.406 -0.7823 -0.3200 -0.6106
 4815SOL    HW225908   0.511   3.823   3.404  0.7773 -1.4291 -1.4187
 4816SOL     OW25909   4.163   1.188   4.632 -0.0644 -0.6414  0.7510
 4816SOL    HW125910   4.148   1.243   4.709  0.1733  2.2011 -1.2158
 4816SOL    HW225911   4.189   1.109   4.678  1.6374 -0.0436  0.8336
 4817SOL     OW25912   3.435   0.162  16.789  0.0417 -0.0731 -0.1968
 4817SOL    HW125913   3.358   0.213  16.811 -0.3951 -0.4931 -0.7488
 4817SOL    HW225914   3.481   0.228  16.738  0.9610 -0.3031  0.3296
 4818SOL     OW25915   4.074   0.669   3.924 -0.1616 -0.3228 -0.2641
 4818SOL    HW125916   4.084   0.751   3.971  2.2691 -1.0577  0.5079
 4818SOL    HW225917   4.040   0.706   3.842  0.0388 -0.9828 -0.6433
 4819SOL     OW25918   1.421   3.086   6.409  0.4731 -0.6837  0.7463
 4819SOL    HW125919   1.503   3.044   6.434  0.8736  0.2815  1.0488
 4819SOL    HW225920   1.359   3.020   6.379  0.4433 -0.4536  0.3021
 4820SOL     OW25921   3.566   1.482   9.185 -0.2734 -0.0799  0.2980
 4820SOL    HW125922   3.470   1.476   9.186 -0.1560 -1.5530  2.3236
 4820SOL    HW225923   3.597   1.396   9.211 -0.2222 -0.1782 -0.0799
 4821SOL     OW25924   3.014   3.663  13.547  0.2668 -0.0012  0.2269
 4821SOL    HW125925   2.932   3.642  13.503 -0.0407 -1.0830  1.3071
 4821SOL    HW225926   2.982   3.715  13.620  1.6366 -1.3955  1.8370
 4822SOL     OW25927   1.764   0.997   8.527  0.2527  0.1250 -0.0083
 4822SOL    HW125928   1.686   1.023   8.576  0.8605 -1.0911  1.6178
 4822SOL    HW225929   1.832   1.059   8.553 -1.0786  0.7997  1.8168
 4823SOL     OW25930   2.259   1.864   5.051 -0.4605 -0.0309 -0.2228
 4823SOL    HW125931   2.176   1.902   5.081  0.5212  1.1054  1.0345
 4823SOL    HW225932   2.269   1.778   5.091  2.5065  0.3430 -0.1351
 4824SOL     OW25933   2.402   4.501   5.061 -0.0250  0.1348 -0.1907
 4824SOL    HW125934   2.363   4.463   5.140  2.3355  1.4754  1.6269
 4824SOL    HW225935   2.418   4.592   5.086 -0.3928  0.5523 -1.4649
 4825SOL     OW25936   0.124   4.182   5.163  0.6776  0.2287 -0.3070
 4825SOL    HW125937   0.082   4.114   5.111  0.7671  0.6713 -0.9430
 4825SOL    HW225938   0.054   4.226   5.212 -0.2919  0.1239 -1.6142
 4826SOL     OW25939   4.205   0.734   9.112  0.0362  0.4394  0.2611
 4826SOL    HW125940   4.204   0.639   9.104 -0.6218  0.4797 -0.1983
 4826SOL    HW225941   4.282   0.748   9.058 -0.6205  0.8764 -0.5641
 4827SOL     OW25942   4.487   3.916  16.115  0.3890  0.1758  0.0535
 4827SOL    HW125943   4.459   3.999  16.154 -1.0310 -1.2853  2.1311
 4827SOL    HW225944   4.566   3.946  16.070  1.4004  0.1426  1.8083
 4828SOL     OW25945   0.629   3.671   0.453 -0.0335 -0.2820  0.8017
 4828SOL    HW125946   0.634   3.637   0.542  0.6588 -1.3846  0.3313
 4828SOL    HW225947   0.644   3.765   0.466  2.5818 -0.3332 -1.8926
 4829SOL     OW25948   4.095   3.438   3.223 -0.7133  0.0303  0.1760
 4829SOL    HW125949   4.113   3.435   3.317  1.2515  1.9097 -0.1249
 4829SOL    HW225950   4.037   3.513   3.229  0.1530  0.6949  0.2795
 4830SOL     OW25951   2.139   3.064   1.120 -0.0201 -0.5253 -0.2870
 4830SOL    HW125952   2.177   3.001   1.180 -0.6091  1.7065  2.4395
 4830SOL    HW225953   2.222   3.092   1.082 -0.1706  2.2117  1.4093
 4831SOL     OW25954   3.992   3.486  13.272  0.7016 -0.4842 -0.0482
 4831SOL    HW125955   3.937   3.525  13.203  0.5334  1.3118  1.0950
 4831SOL    HW225956   3.956   3.398  13.277 -0.4602  0.0937  1.9035
 4832SOL     OW25957   1.403   2.944  13.828 -0.4157 -0.1524  0.3214
 4832SOL    HW125958   1.402   2.934  13.733 -0.0641  1.3600  0.1681
 4832SOL    HW225959   1.413   3.037  13.846  0.3019  0.5014 -3.4360
 4833SOL     OW25960   3.977   3.041   6.116  0.0073  0.0874  0.1342
 4833SOL    HW125961   3.974   3.011   6.207  1.4440  0.3541  0.2760
 4833SOL    HW225962   3.890   3.080   6.109  0.8171  1.7859 -0.5873
 4834SOL     OW25963   2.443   1.284   4.149 -0.4346  0.1871 -0.4943
 4834SOL    HW125964   2.502   1.346   4.190 -1.2664  1.6841 -1.5615
 4834SOL    HW225965   2.492   1.223   4.093 -0.2434  1.1574 -1.3782
 4835SOL     OW25966   1.638   0.720   7.747 -0.0442 -0.0161  0.1466
 4835SOL    HW125967   1.627   0.707   7.653  1.8230  2.4932 -0.4230
 4835SOL    HW225968   1.669   0.632   7.770  0.3152  0.6027  2.0554
 4836SOL     OW25969   4.386   2.069   7.583  0.6233 -0.4668  0.1855
 4836SOL    HW125970   4.389   2.045   7.491 -1.3084  0.3180 -0.0816
 4836SOL    HW225971   4.403   2.164   7.584  2.5747 -0.8278  1.6847
 4837SOL     OW25972   3.315   2.843   2.169 -0.4135 -0.2973 -0.0217
 4837SOL    HW125973   3.247   2.875   2.228  1.2801  1.7233  0.8319
 4837SOL    HW225974   3.323   2.925   2.120 -0.8690 -0.3228 -0.1348
 4838SOL     OW25975   3.077   3.323   9.196 -0.4782  0.3169 -0.3864
 4838SOL    HW125976   3.018   3.398   9.196 -1.4140 -0.4250 -1.4826
 4838SOL    HW225977   3.064   3.278   9.113 -2.7125  3.2021 -1.5942
 4839SOL     OW25978   4.209   2.284   2.725  0.2887 -0.2888  0.2159
 4839SOL    HW125979   4.134   2.251   2.675  0.4712  0.7189 -0.7227
 4839SOL    HW225980   4.179   2.371   2.754  2.3882  1.0155 -1.5032
 4840SOL     OW25981   1.554   1.858   3.631 -0.0575  0.5564 -0.4441
 4840SOL    HW125982   1.539   1.786   3.693  1.3472 -0.5964 -1.4635
 4840SOL    HW225983   1.539   1.823   3.544 -1.8181 -1.3855  0.6267
 4841SOL     OW25984   4.096   4.269   8.245 -0.4821 -0.2926 -0.1645
 4841SOL    HW125985   4.133   4.348   8.206 -0.4208  0.2427  0.9713
 4841SOL    HW225986   4.049   4.238   8.167 -1.9208 -0.3907  0.7555
 4842SOL     OW25987   2.661   1.406   7.173  0.1075  0.3119 -0.0043
 4842SOL    HW125988   2.571   1.424   7.148  1.5941  2.1602 -4.0674
 4842SOL    HW225989   2.690   1.358   7.095 -0.2544  0.2890 -0.1239
 4843SOL     OW25990   3.505   1.090  16.806 -1.3668  0.1488  0.3093
 4843SOL    HW125991   3.529   1.005  16.768 -0.8550  1.2720 -1.8536
 4843SOL    HW225992   3.476   1.050  16.888  2.3102 -0.3784  1.3312
 4844SOL     OW25993   0.050   1.341  13.660  0.0391 -0.1374  0.5452
 4844SOL    HW125994   4.698   1.305  13.706 -0.8727  1.7464  0.5188
 4844SOL    HW225995   0.003   1.389  13.592 -0.3581  0.5097  1.2757
 4845SOL     OW25996   1.671   2.152  11.660  0.5047 -0.2356 -0.7509
 4845SOL    HW125997   1.632   2.064  11.666 -0.2897  0.0270 -2.2070
 4845SOL    HW225998   1.737   2.147  11.591 -1.0252  1.6941 -2.3346
 4846SOL     OW25999   2.655   0.438  13.479  0.6087 -0.0209  0.1030
 4846SOL    HW126000   2.683   0.406  13.565 -0.4413  1.4904  0.9986
 4846SOL    HW226001   2.595   0.506  13.507  1.5006  1.2404 -1.0632
 4847SOL     OW26002   0.951   1.783   3.702  0.0041  0.2411 -0.3347
 4847SOL    HW126003   1.047   1.779   3.707  0.0656 -0.1243 -1.7802
 4847SOL    HW226004   0.923   1.691   3.701  0.1081  0.2123 -0.5545
 4848SOL     OW26005   4.700   1.350   5.528  1.0568 -0.1386  0.2969
 4848SOL    HW126006   0.046   1.293   5.496  0.2710 -1.7788  1.4952
 4848SOL    HW226007   0.028   1.430   5.535  0.1851  0.4469 -0.0135
 4849SOL     OW26008   0.030   2.907  14.810 -0.2393  0.3323 -0.3509
 4849SOL    HW126009   0.074   2.939  14.890 -0.3136  1.1876 -0.6574
 4849SOL    HW226010   0.089   2.932  14.739  0.4010  2.3186  0.8907
 4850SOL     OW26011   3.939   4.215  11.773  0.0057  0.0469  0.4469
 4850SOL    HW126012   3.990   4.283  11.817  2.1879 -0.1411 -1.7614
 4850SOL    HW226013   3.942   4.146  11.840  0.5010 -1.1053 -0.7572
 4851SOL     OW26014   4.567   3.590   9.035 -0.3832 -0.2325 -0.0332
 4851SOL    HW126015   4.646   3.644   9.030 -0.2153 -0.6513 -1.9289
 4851SOL    HW226016   4.501   3.653   9.062  0.5304  0.4996  0.4885
 4852SOL     OW26017   4.054   2.069   7.952 -0.0446 -0.4054 -0.4859
 4852SOL    HW126018   3.994   2.104   7.886 -2.2958 -0.8278  1.3364
 4852SOL    HW226019   3.995   2.057   8.026  0.9699  0.3466  0.4373
 4853SOL     OW26020   1.035   3.664  13.081 -0.2764 -0.1500  0.0849
 4853SOL    HW126021   0.997   3.682  13.167  1.8022  0.0508  0.9548
 4853SOL    HW226022   0.986   3.725  13.026  0.8045  0.2192 -0.4612
 4854SOL     OW26023   2.918   4.008  11.049 -0.0093  0.6226  0.0385
 4854SOL    HW126024   2.919   3.994  10.954  1.0365 -2.5008  0.5001
 4854SOL    HW226025   2.857   4.081  11.058 -2.3470 -1.4336  1.0554
 4855SOL     OW26026   2.168   1.552   3.238 -0.6024 -0.2594 -0.3112
 4855SOL    HW126027   2.218   1.490   3.291  1.3667  1.5060 -0.1426
 4855SOL    HW226028   2.206   1.525   3.155  0.3657  1.5981 -0.4597
 4856SOL     OW26029   2.444   3.256   0.340  0.1181 -0.1261  0.1185
 4856SOL    HW126030   2.369   3.223   0.291  0.6395  0.0922 -0.8256
 4856SOL    HW226031   2.523   3.218   0.300  0.8091  1.1990  0.2281
 4857SOL     OW26032   0.981   3.393   3.805 -0.1785 -0.1987  0.1185
 4857SOL    HW126033   1.060   3.446   3.797 -1.3327  1.7443  1.5576
 4857SOL    HW226034   0.926   3.435   3.740 -0.0110  0.3831  0.3542
 4858SOL     OW26035   0.852   2.423   7.285 -0.4656  0.8497 -0.2608
 4858SOL    HW126036   0.897   2.466   7.212 -0.8465  1.6370 -0.0308
 4858SOL    HW226037   0.861   2.494   7.349 -2.0145  1.5537 -0.8097
 4859SOL     OW26038   4.589   2.087   6.088  0.2794 -0.4120  0.2713
 4859SOL    HW126039   4.673   2.084   6.041  0.4422  0.7818  0.4790
 4859SOL    HW226040   4.592   2.015   6.151  1.2878 -0.9621 -0.4107
 4860SOL     OW26041   3.044   4.505   7.733 -0.1673  0.0706 -0.0977
 4860SOL    HW126042   3.037   4.573   7.667 -0.3006  0.2437  0.0959
 4860SOL    HW226043   2.997   4.558   7.797  1.6569 -0.9806  2.0884
 4861SOL     OW26044   3.596   3.292  15.700  0.3094  0.3138 -0.2011
 4861SOL    HW126045   3.545   3.276  15.780  3.0543  1.2934  1.7362
 4861SOL    HW226046   3.531   3.353  15.666 -0.0728  1.0091  1.7622
 4862SOL     OW26047   4.267   0.156   5.027 -1.0138 -0.1295  0.1746
 4862SOL    HW126048   4.357   0.187   5.030 -1.4490  1.4062 -2.5813
 4862SOL    HW226049   4.221   0.237   5.047 -0.2325 -0.0465  1.6356
 4863SOL     OW26050   3.259   0.441   1.650  0.7940 -0.4410  0.5711
 4863SOL    HW126051   3.174   0.432   1.693 -0.1304  0.8405 -1.0128
 4863SOL    HW226052   3.246   0.398   1.566  1.6011 -1.5719  1.0197
 4864SOL     OW26053   2.312   0.310   5.292  0.1486 -0.0974  0.0807
 4864SOL    HW126054   2.281   0.267   5.372 -0.9629  2.3969  1.0090
 4864SOL    HW226055   2.405   0.294   5.307  0.4241 -0.9649 -2.5555
 4865SOL     OW26056   1.802   1.666   8.583  0.3343  0.4261 -0.6767
 4865SOL    HW126057   1.707   1.673   8.572  0.3956 -0.1679 -1.5843
 4865SOL    HW226058   1.809   1.584   8.534  2.4093 -0.0076  0.3682
 4866SOL     OW26059   1.081   1.368   1.207  0.0688 -0.0396 -0.2701
 4866SOL    HW126060   1.095   1.340   1.116  0.6738 -0.2974 -0.1028
 4866SOL    HW226061   1.109   1.459   1.206 -1.3704  0.4133  1.0631
 4867SOL     OW26062   4.491   0.318   3.269 -0.1071 -0.4124 -0.4358
 4867SOL    HW126063   4.569   0.278   3.231  0.2688 -1.0768  0.9947
 4867SOL    HW226064   4.439   0.240   3.289 -0.0895 -0.6458 -1.3327
 4868SOL     OW26065   4.150   4.651   5.633 -0.1404  0.0560  0.1828
 4868SOL    HW126066   4.205   4.601   5.694 -0.5421  0.9442  1.2931
 4868SOL    HW226067   4.071   4.597   5.621  0.1277 -0.5924  1.2875
 4869SOL     OW26068   3.093   2.951   4.398 -0.1083 -0.3530  0.0140
 4869SOL    HW126069   3.118   3.016   4.464 -1.3832 -0.0189  0.1810
 4869SOL    HW226070   3.160   2.885   4.411  0.7281  0.7189  1.1602
 4870SOL     OW26071   1.000   2.192   1.370 -0.1999 -0.3705 -0.2385
 4870SOL    HW126072   1.029   2.103   1.346 -1.2323 -1.3300  2.0802
 4870SOL    HW226073   1.032   2.241   1.294 -1.3124 -0.5902 -0.8545
 4871SOL     OW26074   3.848   2.087  11.189 -0.2808 -0.3466 -0.2382
 4871SOL    HW126075   3.779   2.040  11.142  0.5861 -0.7201 -1.1326
 4871SOL    HW226076   3.920   2.097  11.126 -1.0876 -2.5493 -1.5101
 4872SOL     OW26077   1.610   4.032  11.715 -0.2994  0.6440  0.5981
 4872SOL    HW126078   1.679   4.011  11.653 -1.3327  0.0867 -0.3459
 4872SOL    HW226079   1.625   3.955  11.770 -0.0911  0.5944  0.4716
 4873SOL     OW26080   0.010   1.896   8.019 -0.0460 -0.3313 -0.0424
 4873SOL    HW126081   4.702   1.911   7.930 -1.6114 -0.4036  0.4998
 4873SOL    HW226082   0.010   1.801   8.010 -3.4456 -0.3471  0.1917
 4874SOL     OW26083   2.076   4.419   6.279 -0.2929 -0.1343 -0.4664
 4874SOL    HW126084   2.088   4.394   6.187 -1.1059  1.2359 -0.9499
 4874SOL    HW226085   2.156   4.459   6.314 -0.9275 -1.4256  2.4062
 4875SOL     OW26086   2.300   4.050  16.791 -0.1706  0.2411 -0.3467
 4875SOL    HW126087   2.319   4.091  16.875  2.4935 -1.7715  0.0301
 4875SOL    HW226088   2.355   4.098  16.729  1.0924 -2.4421 -1.3432
 4876SOL     OW26089   2.134   1.704   9.421  0.2581  0.2938  0.0377
 4876SOL    HW126090   2.135   1.795   9.452  1.6337  0.1476  0.4458
 4876SOL    HW226091   2.054   1.708   9.370  1.0557 -0.8460 -1.3116
 4877SOL     OW26092   4.633   4.015   2.068 -0.2517  0.1442  0.2658
 4877SOL    HW126093   4.559   3.970   2.028 -1.6411  0.1807  2.7875
 4877SOL    HW226094   4.686   3.939   2.095  0.7418  1.0538  0.8938
 4878SOL     OW26095   1.209   3.239   2.097 -0.1253  0.0146 -0.5873
 4878SOL    HW126096   1.113   3.238   2.103 -0.1205 -0.9308 -0.6710
 4878SOL    HW226097   1.230   3.145   2.092 -1.9019 -0.2662 -3.0251
 4879SOL     OW26098   2.602   4.514  12.339 -0.3233 -0.3841  0.7318
 4879SOL    HW126099   2.630   4.572  12.410 -0.6175 -0.4655  0.9167
 4879SOL    HW226100   2.538   4.454  12.377 -0.5983 -1.4737 -1.5235
 4880SOL     OW26101   4.064   1.949   3.373  0.5061 -0.0077  0.0272
 4880SOL    HW126102   4.019   1.886   3.429 -1.2376  1.5045  0.3119
 4880SOL    HW226103   4.009   2.027   3.386  1.1191  0.2104  1.3691
 4881SOL     OW26104   0.380   1.527   9.493  0.2577 -0.1806  0.3156
 4881SOL    HW126105   0.306   1.504   9.550  0.9618  0.6567  1.5652
 4881SOL    HW226106   0.367   1.454   9.432  1.5802 -0.0076 -0.1733
 4882SOL     OW26107   2.532   2.888  16.678 -0.5058 -0.2537  0.5528
 4882SOL    HW126108   2.484   2.806  16.681 -1.1737  0.0780 -0.8755
 4882SOL    HW226109   2.553   2.896  16.585 -0.2137 -1.2616  0.5297
 4883SOL     OW26110   0.993   0.676   9.095  0.0442  0.2397  0.2810
 4883SOL    HW126111   0.929   0.658   9.164 -0.2772 -0.7811 -0.2884
 4883SOL    HW226112   1.067   0.640   9.143 -0.9236 -1.2003  0.6995
 4884SOL     OW26113   4.301   3.869  10.264  0.0020 -0.7443  0.0145
 4884SOL    HW126114   4.340   3.898  10.181 -2.0631  0.1263 -0.6635
 4884SOL    HW226115   4.212   3.854  10.232 -0.4807 -0.9057  1.4386
 4885SOL     OW26116   1.280   3.533  11.598  0.4226 -0.3077  0.8459
 4885SOL    HW126117   1.220   3.531  11.523  0.3367 -2.1501  0.9530
 4885SOL    HW226118   1.329   3.611  11.574 -0.0426 -0.3327 -0.2148
 4886SOL     OW26119   4.319   0.633   7.695 -0.1255  0.1838 -0.0434
 4886SOL    HW126120   4.299   0.726   7.687  0.1706  0.0669 -1.9929
 4886SOL    HW226121   4.268   0.599   7.622 -1.0432 -0.1644  0.7585
 4887SOL     OW26122   3.362   4.579   0.858 -0.2928  0.1873 -0.5355
 4887SOL    HW126123   3.336   4.510   0.798  0.0419 -0.7632  0.4076
 4887SOL    HW226124   3.435   4.624   0.815 -1.4766  2.8078  0.1415
 4888SOL     OW26125   3.459   3.605   4.269  0.4952 -0.4043  0.3151
 4888SOL    HW126126   3.453   3.698   4.290 -2.2621 -0.0077 -2.1178
 4888SOL    HW226127   3.404   3.592   4.192  2.8698  0.2484 -1.4991
 4889SOL     OW26128   4.055   2.547   2.706 -0.7952  0.0269  0.1766
 4889SOL    HW126129   4.132   2.596   2.678 -0.3519 -0.1097  1.1839
 4889SOL    HW226130   4.026   2.506   2.624  2.6027 -1.8253 -0.0589
 4890SOL     OW26131   2.008   0.347   7.532 -0.8622  0.4184 -0.4114
 4890SOL    HW126132   1.993   0.410   7.461 -1.7460  0.5752 -0.0816
 4890SOL    HW226133   2.084   0.299   7.498 -0.2490 -0.8373  2.7161
 4891SOL     OW26134   0.213   1.354   4.755  0.5490 -0.6988  0.0689
 4891SOL    HW126135   0.263   1.284   4.714 -1.5959 -2.1298 -0.0892
 4891SOL    HW226136   0.194   1.395   4.671  2.9576  3.1022  1.3651
 4892SOL     OW26137   1.761   2.606  10.369  0.5882  0.4400 -0.1811
 4892SOL    HW126138   1.785   2.549  10.442 -0.8419  0.8323  0.5916
 4892SOL    HW226139   1.833   2.583  10.310  0.2026 -1.8771  0.2498
 4893SOL     OW26140   3.719   3.039   4.175  0.0131  0.2330 -0.3244
 4893SOL    HW126141   3.699   3.122   4.132  1.7886  2.1073  2.5094
 4893SOL    HW226142   3.745   3.078   4.258 -0.9719 -0.0404  0.1182
 4894SOL     OW26143   1.548   1.416   6.664  0.0865  0.3207 -0.1054
 4894SOL    HW126144   1.584   1.333   6.632 -2.1915  0.0168 -1.9219
 4894SOL    HW226145   1.455   1.393   6.672  0.0061  0.5305 -0.4084
 4895SOL     OW26146   1.746   4.667   1.780 -0.3540 -1.0552  0.4357
 4895SOL    HW126147   1.726   4.659   1.687  0.7518 -0.9487  0.1879
 4895SOL    HW226148   1.817   4.602   1.785 -0.4611 -1.2375 -0.4163
 4896SOL     OW26149   3.985   2.918   6.687  0.2768 -0.5454 -0.3362
 4896SOL    HW126150   4.046   2.941   6.757 -0.8962 -0.8090  0.7845
 4896SOL    HW226151   3.970   2.824   6.700  0.9771 -0.3239  2.0848
 4897SOL     OW26152   0.352   3.169   4.630 -0.3121 -0.0927 -0.1176
 4897SOL    HW126153   0.287   3.184   4.698 -0.3629 -3.7825  0.5932
 4897SOL    HW226154   0.424   3.224   4.663 -0.9854  1.1593 -0.7456
 4898SOL     OW26155   2.906   0.166   2.038  0.4237 -0.1634  0.3448
 4898SOL    HW126156   2.877   0.075   2.037 -2.5821  0.7735  0.9044
 4898SOL    HW226157   2.960   0.171   2.117 -1.3611  0.1358  1.5551
 4899SOL     OW26158   2.008   1.524  13.161 -0.5328 -0.2158 -0.2684
 4899SOL    HW126159   2.080   1.543  13.101  0.1135 -1.0625  0.2257
 4899SOL    HW226160   1.937   1.525  13.097  1.6730 -0.8856 -2.7394
 4900SOL     OW26161   1.633   1.829  12.261 -0.5274 -0.3121 -0.7915
 4900SOL    HW126162   1.713   1.776  12.263  1.1189  2.2481  2.1213
 4900SOL    HW226163   1.654   1.898  12.325  1.3513 -1.8396  0.2709
 4901SOL     OW26164   1.488   1.816   7.368  1.1560 -0.1975 -0.2164
 4901SOL    HW126165   1.460   1.805   7.277 -2.5351  3.3285  0.4884
 4901SOL    HW226166   1.416   1.786   7.423  0.4113 -1.2437 -1.7769
 4902SOL     OW26167   2.906   3.943   3.873 -0.1910 -0.5849 -0.3521
 4902SOL    HW126168   2.843   3.871   3.868  0.5834 -1.4667  2.2669
 4902SOL    HW226169   2.855   4.018   3.904 -0.0524 -0.0473 -1.4528
 4903SOL     OW26170   1.697   2.851   8.413  0.4061  0.5116 -0.2074
 4903SOL    HW126171   1.719   2.850   8.507  1.3506 -1.5629 -0.4551
 4903SOL    HW226172   1.772   2.810   8.372 -0.3163 -0.0610 -0.9549
 4904SOL     OW26173   4.014   1.503   6.812  0.1328 -0.7041 -0.6256
 4904SOL    HW126174   3.998   1.409   6.809 -1.5816 -0.3717 -1.4606
 4904SOL    HW226175   3.964   1.531   6.736  1.6763 -0.3155 -1.5093
 4905SOL     OW26176   0.348   0.742   7.317  0.0268 -0.3547 -0.1659
 4905SOL    HW126177   0.362   0.786   7.233  1.4736  2.1319  1.3619
 4905SOL    HW226178   0.341   0.654   7.281  2.9687  0.5915 -3.0578
 4906SOL     OW26179   3.022   4.127  16.386 -0.0305 -0.3046  0.3745
 4906SOL    HW126180   3.062   4.070  16.452 -0.7867 -0.7073  0.4832
 4906SOL    HW226181   2.945   4.147  16.440  0.5896  2.4019  0.2612
 4907SOL     OW26182   3.047   2.370   2.204  0.0462  0.0773 -0.3635
 4907SOL    HW126183   3.067   2.321   2.124 -0.8292 -1.8589  0.6127
 4907SOL    HW226184   3.110   2.332   2.266  0.2273 -1.1247 -1.2688
 4908SOL     OW26185   2.372   2.472   9.267 -0.3357  0.1507 -0.3543
 4908SOL    HW126186   2.312   2.445   9.337  1.0084 -0.7896  0.4349
 4908SOL    HW226187   2.398   2.560   9.293 -0.1509  0.4063 -1.4150
 4909SOL     OW26188   2.456   4.575   3.575  0.3827  0.1653  0.0068
 4909SOL    HW126189   2.420   4.635   3.640  1.2442  0.2773  0.3861
 4909SOL    HW226190   2.379   4.542   3.530  1.4101  0.2162 -1.8041
 4910SOL     OW26191   1.391   1.807   7.105 -0.2474  0.0678  0.6771
 4910SOL    HW126192   1.416   1.896   7.080  0.7100  0.3946  2.7425
 4910SOL    HW226193   1.303   1.818   7.140 -1.1964 -3.3462 -0.6873
 4911SOL     OW26194   1.334   0.648   1.762  0.3250  0.3295 -0.0388
 4911SOL    HW126195   1.254   0.661   1.812 -0.4601  0.2590 -1.2927
 4911SOL    HW226196   1.369   0.573   1.810 -0.5391  1.0300  1.6566
 4912SOL     OW26197   2.653   4.028  10.700 -0.0016 -0.5292 -0.3612
 4912SOL    HW126198   2.558   4.019  10.694  0.0918 -1.6018 -0.1744
 4912SOL    HW226199   2.668   4.123  10.707 -0.0843 -0.3338 -2.7349
 4913SOL     OW26200   0.808   1.209  17.593 -0.1234  0.2187 -0.4557
 4913SOL    HW126201   0.812   1.248  17.681 -2.8014  0.9594 -0.6579
 4913SOL    HW226202   0.884   1.152  17.594  0.6047  1.2105  0.3345
 4914SOL     OW26203   0.454   3.136   5.629 -0.4814 -0.3173 -0.2994
 4914SOL    HW126204   0.407   3.109   5.550 -1.6521 -2.1578  1.0168
 4914SOL    HW226205   0.508   3.210   5.601 -1.4023 -0.0218 -1.3035
 4915SOL     OW26206   2.265   4.431   6.653 -0.2165  0.3210  0.2134
 4915SOL    HW126207   2.356   4.460   6.645 -0.4066  1.0016  0.4825
 4915SOL    HW226208   2.288   4.338   6.654 -2.1353 -0.1379  2.0103
 4916SOL     OW26209   1.196   2.995  14.456 -0.7117  0.3274  0.5496
 4916SOL    HW126210   1.208   3.019  14.548 -0.1099 -2.8625  1.2690
 4916SOL    HW226211   1.257   3.054  14.412  0.6231 -0.2927  1.5752
 4917SOL     OW26212   4.211   2.916  15.384 -0.5232  0.0107 -0.1058
 4917SOL    HW126213   4.279   2.974  15.351 -1.3556  0.6462 -0.6886
 4917SOL    HW226214   4.264   2.844  15.419 -0.0226  1.0242  1.2527
 4918SOL     OW26215   4.616   3.996   1.563 -0.0795  0.8428  0.1448
 4918SOL    HW126216   4.587   4.084   1.585 -1.8959  0.1479  0.6080
 4918SOL    HW226217   4.681   3.989   1.633 -1.3583  0.5220  1.3141
 4919SOL     OW26218   0.961   4.030   6.824  0.4419  0.0592 -0.1809
 4919SOL    HW126219   1.036   3.975   6.847  1.1903  0.6701 -1.1883
 4919SOL    HW226220   0.960   3.998   6.734  0.7953 -0.1151 -0.1214
 4920SOL     OW26221   4.645   3.856   6.193  0.6240  0.8033  0.0813
 4920SOL    HW126222   4.613   3.776   6.234  2.6174 -0.0378  0.0035
 4920SOL    HW226223   0.017   3.848   6.192  0.6355  0.7830  3.2633
 4921SOL     OW26224   2.146   2.390  16.027  0.0427  0.7374  0.3756
 4921SOL    HW126225   2.094   2.459  16.069  0.0465  0.7948  0.2859
 4921SOL    HW226226   2.108   2.311  16.066  0.4768  0.0753 -0.5523
 4922SOL     OW26227   1.440   3.073   2.493 -0.4117 -0.0055 -0.3151
 4922SOL    HW126228   1.376   3.066   2.564  0.3200 -2.7435  0.0547
 4922SOL    HW226229   1.394   3.011   2.437  1.1645  0.1381 -1.7567
 4923SOL     OW26230   2.238   3.343   4.688 -0.3356 -0.0137  0.2250
 4923SOL    HW126231   2.279   3.284   4.625  0.3859  0.5380  0.1810
 4923SOL    HW226232   2.304   3.370   4.752 -1.1938 -0.3224  1.2360
 4924SOL     OW26233   3.585   1.898   8.290  0.6558  0.1168 -0.5367
 4924SOL    HW126234   3.551   1.824   8.340 -0.5427 -1.2200 -3.2855
 4924SOL    HW226235   3.647   1.860   8.228 -0.9108 -2.8746 -0.2987
 4925SOL     OW26236   3.877   2.811   4.163  0.3017  0.1659 -0.3169
 4925SOL    HW126237   3.804   2.874   4.162  0.0154 -0.1696 -0.5946
 4925SOL    HW226238   3.943   2.873   4.192  1.7563 -2.5697  2.1375
 4926SOL     OW26239   1.372   3.053   6.872  0.2476  0.0459 -0.1770
 4926SOL    HW126240   1.392   2.959   6.865 -1.3382 -0.4369  1.6828
 4926SOL    HW226241   1.442   3.078   6.932 -0.7652  0.5526  0.7934
 4927SOL     OW26242   4.044   4.168  14.746  0.1395 -0.2477 -0.3140
 4927SOL    HW126243   4.079   4.241  14.798 -0.8878 -0.2508  0.3805
 4927SOL    HW226244   4.073   4.097  14.804 -0.5258 -0.2942 -0.0375
 4928SOL     OW26245   4.171   2.739  14.934  0.6705  0.1360 -0.6685
 4928SOL    HW126246   4.144   2.803  15.000  0.5511 -0.6274  0.0177
 4928SOL    HW226247   4.256   2.778  14.915  1.3414 -0.6035  0.8503
 4929SOL     OW26248   0.685   4.022   6.896 -0.2533 -0.1214 -0.5369
 4929SOL    HW126249   0.773   4.023   6.858  0.5579  2.4179  1.4529
 4929SOL    HW226250   0.681   3.927   6.911  0.0264 -0.0881 -0.2742
 4930SOL     OW26251   0.445   1.144   0.852 -0.1534 -0.6672  0.3619
 4930SOL    HW126252   0.350   1.154   0.841 -0.1456 -0.5752  0.3830
 4930SOL    HW226253   0.449   1.160   0.946 -0.5600  0.4244  0.1990
 4931SOL     OW26254   2.845   2.917   4.214  0.7526  0.1666  0.2225
 4931SOL    HW126255   2.886   2.898   4.129  0.9934 -0.1045  0.3984
 4931SOL    HW226256   2.927   2.927   4.263 -0.0701 -0.8499  1.8042
 4932SOL     OW26257   3.071   1.995   4.451  0.1226 -0.4956 -0.2412
 4932SOL    HW126258   2.989   2.044   4.456  0.2326 -0.3615  0.2986
 4932SOL    HW226259   3.122   2.068   4.416  0.0953  1.0958  2.9593
 4933SOL     OW26260   2.836   1.061   0.904  0.4453  0.2534 -0.0250
 4933SOL    HW126261   2.892   0.999   0.857  0.7425  1.3783 -1.1755
 4933SOL    HW226262   2.780   1.094   0.834 -0.3247  2.2670  1.5402
 4934SOL     OW26263   3.114   2.310   3.599  0.3261 -0.0537  0.2373
 4934SOL    HW126264   3.039   2.329   3.655 -1.3440  1.3702 -2.5068
 4934SOL    HW226265   3.084   2.331   3.510 -0.4842 -0.5401  0.3924
 4935SOL     OW26266   4.096   4.506   3.662 -0.2254 -0.0567  0.1673
 4935SOL    HW126267   4.085   4.430   3.719  0.7927 -0.9314 -0.7758
 4935SOL    HW226268   4.139   4.466   3.586 -0.7107 -1.4324  0.6170
 4936SOL     OW26269   3.956   4.676   6.290 -0.5798  0.0424  0.2821
 4936SOL    HW126270   3.873   4.720   6.269  0.0700  0.7503 -0.8631
 4936SOL    HW226271   3.976   4.628   6.209  0.2977 -0.5807  0.8689
 4937SOL     OW26272   2.471   0.915   3.108 -0.3250  0.2123  0.5637
 4937SOL    HW126273   2.535   0.843   3.107 -0.6004 -0.0041 -1.7071
 4937SOL    HW226274   2.385   0.877   3.089  0.4085 -2.1058  1.8106
 4938SOL     OW26275   0.232   0.057   3.816 -0.4492  1.0559 -0.0634
 4938SOL    HW126276   0.178   0.131   3.843 -1.5491 -0.6056  2.2912
 4938SOL    HW226277   0.301   0.070   3.881  0.0260  1.3421 -0.6179
 4939SOL     OW26278   1.472   0.437   2.599  0.2427  0.2906  0.0933
 4939SOL    HW126279   1.513   0.415   2.516 -3.0594 -1.7185 -0.9773
 4939SOL    HW226280   1.443   0.353   2.633  2.9974 -0.5313  0.4042
 4940SOL     OW26281   3.666   1.744   6.088 -0.3472  0.2364  0.0189
 4940SOL    HW126282   3.592   1.683   6.092  1.0106 -1.2382  2.2986
 4940SOL    HW226283   3.692   1.738   5.996  0.1661  0.3827  0.1542
 4941SOL     OW26284   4.069   2.490   3.610  0.2104 -0.4517 -0.0363
 4941SOL    HW126285   4.107   2.402   3.615  2.8636  0.6366 -0.9740
 4941SOL    HW226286   3.979   2.459   3.601  0.6663 -1.0068 -2.5533
 4942SOL     OW26287   1.139   0.087  17.196 -0.3319  0.4561  0.4319
 4942SOL    HW126288   1.125   0.134  17.278 -1.0572  0.8446  0.0817
 4942SOL    HW226289   1.227   0.057  17.221 -0.0976  0.6290 -0.1832
 4943SOL     OW26290   0.726   3.747   5.501 -0.6546  0.1448  0.0750
 4943SOL    HW126291   0.818   3.727   5.485 -1.6112 -3.0159 -1.3460
 4943SOL    HW226292   0.715   3.831   5.457 -1.9979  0.0362  0.2122
 4944SOL     OW26293   1.689   3.483   4.801  0.1777  0.0426  0.2369
 4944SOL    HW126294   1.746   3.490   4.877 -1.7610 -0.4844  1.7454
 4944SOL    HW226295   1.757   3.456   4.739 -0.3811 -1.6381  0.3639
 4945SOL     OW26296   4.374   2.453   5.139 -0.1781 -0.0104 -0.2275
 4945SOL    HW126297   4.325   2.520   5.188 -1.1231  0.4168 -1.7555
 4945SOL    HW226298   4.398   2.396   5.212  0.4996 -1.8247 -1.8852
 4946SOL     OW26299   2.567   0.851   4.953  0.1404  0.4937 -0.4353
 4946SOL    HW126300   2.571   0.941   4.921  1.4946 -0.0974 -1.9260
 4946SOL    HW226301   2.477   0.828   4.930  0.7122  0.5452 -2.7640
 4947SOL     OW26302   4.723   4.488   9.212 -0.1881  0.0897 -0.0290
 4947SOL    HW126303   4.661   4.493   9.285 -3.6341 -1.4818 -2.8705
 4947SOL    HW226304   4.684   4.554   9.154  0.8669  1.8902  1.2742
 4948SOL     OW26305   3.216   0.270   8.867  0.3266 -0.5309 -0.0293
 4948SOL    HW126306   3.285   0.217   8.828 -0.1797 -0.7630 -0.5951
 4948SOL    HW226307   3.255   0.357   8.879  1.2633 -0.7934 -1.2103
 4949SOL     OW26308   2.615   0.897  11.357 -0.2142 -0.3235 -0.5267
 4949SOL    HW126309   2.657   0.835  11.416 -1.2305 -0.1987  0.3261
 4949SOL    HW226310   2.579   0.834  11.294 -1.0001 -0.8722  0.4839
 4950SOL     OW26311   1.860   2.408   7.319 -0.1198 -0.4917 -0.1893
 4950SOL    HW126312   1.897   2.341   7.261 -2.6084 -0.4846 -1.7709
 4950SOL    HW226313   1.790   2.441   7.263 -0.6938 -2.9181 -0.9106
 4951SOL     OW26314   2.339   1.308   7.387 -0.8864 -0.2777 -0.4377
 4951SOL    HW126315   2.343   1.396   7.425 -1.1970  0.0196 -1.0763
 4951SOL    HW226316   2.385   1.260   7.455 -0.3664  0.7129 -0.0950
 4952SOL     OW26317   1.619   1.339   5.497  0.4314  0.1561  0.5519
 4952SOL    HW126318   1.667   1.300   5.424 -1.0000  1.0101 -0.8511
 4952SOL    HW226319   1.536   1.293   5.492  0.9513 -0.5317 -1.8199
 4953SOL     OW26320   2.834   0.547   8.176 -0.0586  0.2376 -0.1382
 4953SOL    HW126321   2.923   0.513   8.172 -0.4370 -0.9997  1.8441
 4953SOL    HW226322   2.845   0.624   8.121 -0.3204 -0.0194 -0.5468
 4954SOL     OW26323   1.393   3.487  16.348 -0.1071  0.5166 -0.4770
 4954SOL    HW126324   1.303   3.473  16.316  0.3988  1.2608 -2.2622
 4954SOL    HW226325   1.402   3.582  16.348 -0.0989  0.5311 -2.8781
 4955SOL     OW26326   0.730   3.083   7.175  0.5921 -0.1112  0.0211
 4955SOL    HW126327   0.665   3.106   7.242 -0.0118  1.1096 -0.9871
 4955SOL    HW226328   0.680   3.082   7.094  0.1355  1.3405  0.2757
 4956SOL     OW26329   0.952   3.726   2.524 -0.1700 -0.4512 -0.3145
 4956SOL    HW126330   0.924   3.810   2.559  1.5396  0.5185 -1.3038
 4956SOL    HW226331   0.957   3.766   2.438  0.0597  0.7316  0.2433
 4957SOL     OW26332   1.235   2.656  17.589  0.1960  0.6783 -0.3468
 4957SOL    HW126333   1.183   2.642  17.668  1.5705 -1.1546  0.2423
 4957SOL    HW226334   1.319   2.682  17.627 -1.2087  2.8488  1.2729
 4958SOL     OW26335   0.261   3.720   2.560  0.3509  0.5596 -0.0464
 4958SOL    HW126336   0.258   3.625   2.552  1.9509  0.3336  1.9424
 4958SOL    HW226337   0.353   3.745   2.571 -0.4384  3.2624  0.3743
 4959SOL     OW26338   1.441   0.358   7.465 -0.2572 -0.0634  0.0917
 4959SOL    HW126339   1.517   0.406   7.496 -1.8427  0.6024  2.9499
 4959SOL    HW226340   1.466   0.287   7.406 -0.7856 -1.6241  1.7601
 4960SOL     OW26341   0.827   1.958   7.168 -0.1279 -0.0495 -0.1681
 4960SOL    HW126342   0.881   2.030   7.202 -0.5594  0.6989 -1.0909
 4960SOL    HW226343   0.784   2.009   7.100  2.6019  1.4125 -0.7793
 4961SOL     OW26344   4.350   1.647  13.112 -0.4627  0.0142 -0.5389
 4961SOL    HW126345   4.259   1.650  13.083 -0.5092 -0.5262 -0.4516
 4961SOL    HW226346   4.388   1.592  13.043  2.0378  2.3637 -1.0284
 4962SOL     OW26347   4.357   1.777  12.587  0.4330 -0.4037  0.5978
 4962SOL    HW126348   4.380   1.851  12.643  2.3493 -0.2712 -0.3609
 4962SOL    HW226349   4.421   1.709  12.608  1.0102 -0.3366 -1.0211
 4963SOL     OW26350   3.043   3.493   6.877  0.0580  0.6117 -0.2824
 4963SOL    HW126351   3.098   3.498   6.799 -0.1179 -3.0966 -0.6350
 4963SOL    HW226352   3.096   3.431   6.926 -0.4415  0.2268 -0.2290
 4964SOL     OW26353   3.608   2.071  10.606 -0.1497 -0.1731 -0.0990
 4964SOL    HW126354   3.635   2.150  10.653 -0.0643 -0.9470  1.1518
 4964SOL    HW226355   3.614   2.100  10.515 -1.7582  0.9993  0.1667
 4965SOL     OW26356   3.873   1.412   7.570  0.3065  0.3402  0.4753
 4965SOL    HW126357   3.825   1.419   7.653  2.1227  2.4856  1.3474
 4965SOL    HW226358   3.932   1.339   7.591  2.6840  2.1380  0.1198
 4966SOL     OW26359   0.659   0.037  16.415  0.2207  0.6551 -0.6175
 4966SOL    HW126360   0.702   4.676  16.402  1.4957  1.3337 -0.8541
 4966SOL    HW226361   0.588   0.008  16.472 -0.8474  2.4882 -1.0267
 4967SOL     OW26362   0.051   3.520   8.008 -0.1727 -0.1556 -0.3042
 4967SOL    HW126363   0.056   3.438   7.959  2.9037 -0.1251 -0.0438
 4967SOL    HW226364   0.035   3.480   8.093  0.0265  2.1383  0.8196
 4968SOL     OW26365   2.604   0.743   5.827 -0.1379  0.0517 -0.4120
 4968SOL    HW126366   2.685   0.787   5.803  1.3112 -1.0580  2.4614
 4968SOL    HW226367   2.594   0.678   5.758 -2.9102 -0.6463  0.6183
 4969SOL     OW26368   2.744   1.058   7.068 -0.5421  0.4105  0.2933
 4969SOL    HW126369   2.695   0.979   7.045  0.0430  0.3543 -0.7831
 4969SOL    HW226370   2.691   1.088   7.142  1.0444 -0.2641  1.6889
 4970SOL     OW26371   1.706   0.708  11.234  0.0442 -0.5182  0.0383
 4970SOL    HW126372   1.800   0.691  11.237  0.2011  0.4233  0.3971
 4970SOL    HW226373   1.682   0.657  11.156  1.0664 -0.6722 -0.1761
 4971SOL     OW26374   4.311   1.194  13.469  0.3066  0.3014 -0.0475
 4971SOL    HW126375   4.357   1.189  13.386  2.1749  1.2178  0.9287
 4971SOL    HW226376   4.350   1.119  13.516  0.9496  1.1041  0.7008
 4972SOL     OW26377   0.342   3.015   5.863  0.0428  0.0894 -0.6594
 4972SOL    HW126378   0.359   3.061   5.781 -2.3979 -1.6198 -2.1028
 4972SOL    HW226379   0.422   2.963   5.867  0.0868 -0.0322 -3.4990
 4973SOL     OW26380   3.610   1.638   5.505  0.5947  0.7581 -0.3681
 4973SOL    HW126381   3.691   1.619   5.458  0.3473 -1.0321 -0.0688
 4973SOL    HW226382   3.538   1.597   5.457  0.2285  1.4470 -0.4031
 4974SOL     OW26383   3.004   0.035   2.437 -0.0085 -0.2146 -0.5816
 4974SOL    HW126384   2.961   4.721   2.360  0.4659 -0.2062 -0.8530
 4974SOL    HW226385   3.079   4.702   2.453  1.5903  2.1388  0.2609
 4975SOL     OW26386   4.714   0.960  14.546 -0.1158  0.0913 -0.2116
 4975SOL    HW126387   4.697   0.943  14.453  1.5254  0.2082 -0.5314
 4975SOL    HW226388   0.035   1.045  14.539  0.8270 -0.3422  0.6442
 4976SOL     OW26389   0.628   0.632  13.582 -0.2046 -0.2785 -0.0415
 4976SOL    HW126390   0.672   0.636  13.497 -0.1540  0.7361  0.0237
 4976SOL    HW226391   0.538   0.619  13.552 -0.4155  1.6650 -0.2812
 4977SOL     OW26392   0.804   4.510   3.800  0.5911  0.2694 -0.4886
 4977SOL    HW126393   0.731   4.517   3.862  1.8958  3.5521  0.6363
 4977SOL    HW226394   0.847   4.594   3.792  1.8414 -0.1685  1.4943
 4978SOL     OW26395   4.209   0.821  13.885  0.3750  0.1036  0.1496
 4978SOL    HW126396   4.287   0.867  13.853  0.7308  0.6106  1.7343
 4978SOL    HW226397   4.221   0.733  13.852 -0.4909  1.1849 -3.0380
 4979SOL     OW26398   3.796   0.202   6.637 -0.3536  1.0065  0.3904
 4979SOL    HW126399   3.791   0.291   6.670 -0.3189  0.6408  1.3633
 4979SOL    HW226400   3.780   0.222   6.544 -0.8407 -1.0006  0.0328
 4980SOL     OW26401   4.717   4.619   5.127 -0.5792  0.2802 -0.1114
 4980SOL    HW126402   4.695   4.553   5.062 -2.1426  0.4683  0.2217
 4980SOL    HW226403   4.650   4.602   5.194 -0.2034 -2.5957 -0.4532
 4981SOL     OW26404   1.261   0.530   1.342  0.1156 -0.3517 -1.0363
 4981SOL    HW126405   1.245   0.568   1.255  0.3959  1.9774 -0.0557
 4981SOL    HW226406   1.176   0.536   1.384  1.1118 -0.1805  0.9395
 4982SOL     OW26407   1.714   4.678   5.795 -0.8703  0.5004 -0.6055
 4982SOL    HW126408   1.747   4.600   5.750  0.8704  0.3302  0.9787
 4982SOL    HW226409   1.785   0.012   5.769 -0.2896  0.8897  1.8855
 4983SOL     OW26410   1.747   2.808  12.784  0.2356  0.9196  0.0469
 4983SOL    HW126411   1.706   2.892  12.765  1.7003  1.5595 -0.2716
 4983SOL    HW226412   1.768   2.816  12.877  1.2067  2.5222 -0.3008
 4984SOL     OW26413   0.523   0.398   2.620  0.5837  0.3574 -0.6350
 4984SOL    HW126414   0.496   0.363   2.535 -0.4379  0.0280 -0.1802
 4984SOL    HW226415   0.527   0.491   2.596 -0.2235  0.2821 -1.0643
 4985SOL     OW26416   4.323   1.979   3.634  0.3187  0.7634 -0.4708
 4985SOL    HW126417   4.228   1.972   3.631  0.3079 -0.1326  1.7269
 4985SOL    HW226418   4.344   1.888   3.652 -0.8503  0.4034 -0.9385
 4986SOL     OW26419   2.115   3.496  11.779 -0.0490 -0.4380  0.0207
 4986SOL    HW126420   2.192   3.443  11.795  0.2457  0.0454  0.2049
 4986SOL    HW226421   2.151   3.560  11.717  1.4179  0.8043  2.1386
 4987SOL     OW26422   2.548   4.132   6.455  0.0480  0.1467  0.0496
 4987SOL    HW126423   2.627   4.159   6.503 -0.3300 -0.0650  0.7833
 4987SOL    HW226424   2.590   4.062   6.403  0.9559  1.9840 -1.7052
 4988SOL     OW26425   2.901   1.000   9.008  0.5868  0.4473  0.4850
 4988SOL    HW126426   2.866   0.984   8.920 -1.3611 -0.7166  1.4651
 4988SOL    HW226427   2.967   1.068   8.998  2.6195 -1.7679 -1.0433
 4989SOL     OW26428   0.164   0.757   0.078 -0.2938 -0.0944 -0.5175
 4989SOL    HW126429   0.077   0.794   0.069 -1.0520 -2.0132 -0.9600
 4989SOL    HW226430   0.204   0.828   0.128 -0.2512  1.4657 -2.7807
 4990SOL     OW26431   1.905   4.298   2.992  0.2845 -0.1429  0.2336
 4990SOL    HW126432   1.924   4.377   2.942 -0.6445  0.2683  0.5268
 4990SOL    HW226433   1.987   4.254   2.971  1.2327  0.9120  1.6229
 4991SOL     OW26434   3.508   0.458   4.436 -0.5334 -0.4249 -0.4583
 4991SOL    HW126435   3.602   0.450   4.425 -0.4205  1.6107 -0.9682
 4991SOL    HW226436   3.497   0.536   4.490 -0.4735 -0.5669 -0.2422
 4992SOL     OW26437   0.652   2.182  16.004  0.3632 -0.4995  0.0162
 4992SOL    HW126438   0.577   2.125  15.986 -1.8354  2.7347 -1.0018
 4992SOL    HW226439   0.629   2.264  15.961 -2.5102 -1.7878 -0.8926
 4993SOL     OW26440   0.403   3.498   9.057  0.1460  0.8888  0.7540
 4993SOL    HW126441   0.488   3.458   9.040 -1.2332 -0.6553 -2.4357
 4993SOL    HW226442   0.405   3.502   9.153  1.1861 -1.9645  0.8230
 4994SOL     OW26443   1.091   4.605   2.552  0.4957  0.0403 -0.4048
 4994SOL    HW126444   1.042   4.601   2.634  0.9364 -1.4904 -0.2174
 4994SOL    HW226445   1.144   4.527   2.568  0.2085 -0.3708 -1.4677
 4995SOL     OW26446   3.212   3.982  11.621 -0.3245 -0.2991  0.7104
 4995SOL    HW126447   3.272   3.993  11.547 -1.2623 -0.7004 -0.1020
 4995SOL    HW226448   3.162   3.912  11.580 -0.6390  0.2519  0.1533
 4996SOL     OW26449   3.284   0.629   7.641 -0.0000  0.3442 -0.4681
 4996SOL    HW126450   3.332   0.644   7.560 -1.2573  2.3580 -0.8424
 4996SOL    HW226451   3.255   0.718   7.660 -0.3636 -0.1766  1.4466
 4997SOL     OW26452   4.057   4.463   6.413  0.0260 -0.0565 -0.3059
 4997SOL    HW126453   4.013   4.538   6.374 -0.4736 -0.0086  0.3534
 4997SOL    HW226454   4.030   4.482   6.503  2.2536  0.5244  0.2235
 4998SOL     OW26455   2.335   1.921   9.300 -0.1501  0.7040 -0.3491
 4998SOL    HW126456   2.304   1.902   9.388  2.0235 -0.0774  0.2670
 4998SOL    HW226457   2.403   1.853   9.300 -0.0442  0.8114  0.1840
 4999SOL     OW26458   4.607   0.198   0.615  0.1293 -0.5555  0.2521
 4999SOL    HW126459   4.680   0.190   0.676 -1.3593 -2.1253  1.8693
 4999SOL    HW226460   4.550   0.268   0.645 -0.4104 -0.8506 -0.0802
 5000SOL     OW26461   0.211   0.954   6.655  0.6975  0.8924 -0.0814
 5000SOL    HW126462   0.242   0.916   6.572  1.1395  0.3765  0.3174
 5000SOL    HW226463   0.138   1.002   6.616 -1.1228  0.4796  2.8438
 5001SOL     OW26464   1.606   2.225   4.390 -0.0875 -0.2984  0.4742
 5001SOL    HW126465   1.640   2.277   4.463 -1.6261 -1.5705  2.1035
 5001SOL    HW226466   1.689   2.182   4.375 -0.8805 -1.1112 -1.5266
 5002SOL     OW26467   2.867   0.243  12.934  0.3191 -0.2882  0.2917
 5002SOL    HW126468   2.835   0.210  13.018  0.3097  0.3367  0.5302
 5002SOL    HW226469   2.786   0.267  12.890 -1.5212 -2.1880  2.6656
 5003SOL     OW26470   2.714   1.529  16.154 -0.0499 -0.3034 -0.2175
 5003SOL    HW126471   2.675   1.548  16.238 -1.7135 -1.2426 -0.7823
 5003SOL    HW226472   2.735   1.438  16.177  1.0404  0.0105  0.0479
 5004SOL     OW26473   1.211   0.941  11.610  0.3525  0.9660  0.1929
 5004SOL    HW126474   1.130   0.984  11.582  0.6101  0.7342 -0.9068
 5004SOL    HW226475   1.269   0.948  11.533 -1.1641 -1.6045 -1.1682
 5005SOL     OW26476   3.369   0.703   3.550 -0.1017 -0.5496 -0.3844
 5005SOL    HW126477   3.321   0.709   3.468 -1.2485 -2.3441  0.1679
 5005SOL    HW226478   3.448   0.754   3.531  0.2250 -0.8726  0.1087
 5006SOL     OW26479   1.293   1.921   1.979  0.2726  0.6063 -0.1848
 5006SOL    HW126480   1.303   1.832   2.013 -2.3608  1.0843  1.8817
 5006SOL    HW226481   1.380   1.924   1.940  0.3251 -3.9427 -0.3946
 5007SOL     OW26482   1.044   3.694   1.343 -0.3979  0.0393  0.2019
 5007SOL    HW126483   1.130   3.734   1.355  1.1639 -3.0345 -0.6985
 5007SOL    HW226484   1.027   3.658   1.430  0.0718 -0.1807  0.2013
 5008SOL     OW26485   2.533   1.023  13.335 -0.5892  0.2600 -0.1209
 5008SOL    HW126486   2.582   0.948  13.368  1.5362  1.8914  0.4105
 5008SOL    HW226487   2.450   0.985  13.303 -0.3344 -1.5462  1.3666
 5009SOL     OW26488   1.588   3.058   5.400 -0.1502  0.3693 -0.6990
 5009SOL    HW126489   1.654   3.124   5.423 -1.1679  1.0612  0.2364
 5009SOL    HW226490   1.639   2.978   5.411 -1.6859 -0.3893  0.9296
 5010SOL     OW26491   3.784   4.089   6.721 -0.2918  0.1369  0.1886
 5010SOL    HW126492   3.718   4.031   6.684 -1.1687 -0.9766  3.5081
 5010SOL    HW226493   3.864   4.047   6.688  0.7331  1.6411  0.7596
 5011SOL     OW26494   3.614   3.476   1.042 -0.3792  0.0514  0.2904
 5011SOL    HW126495   3.641   3.448   1.129  0.0770 -0.6126 -0.0665
 5011SOL    HW226496   3.597   3.568   1.063  1.9191  0.7282 -0.8575
 5012SOL     OW26497   2.355   2.579   6.713  1.0116  0.0129  0.1348
 5012SOL    HW126498   2.383   2.561   6.803 -2.2269 -0.7474  0.9958
 5012SOL    HW226499   2.372   2.671   6.695 -2.4306  0.4296 -1.1177
 5013SOL     OW26500   2.366   3.919   6.624  0.6966 -0.1377 -0.1666
 5013SOL    HW126501   2.448   3.871   6.617  0.9576  0.2647  0.1028
 5013SOL    HW226502   2.335   3.911   6.534  1.0444  0.8722 -0.3820
 5014SOL     OW26503   3.082   0.285   7.132 -0.4503 -0.6654 -0.8025
 5014SOL    HW126504   3.087   0.371   7.091 -1.0183 -0.5187 -0.5639
 5014SOL    HW226505   3.176   0.266   7.133 -1.0518 -3.6644 -1.6237
 5015SOL     OW26506   2.336   4.088   4.748 -0.4014  0.7970  0.2390
 5015SOL    HW126507   2.329   4.128   4.834  2.0689 -0.6750  1.1390
 5015SOL    HW226508   2.248   4.096   4.711  0.0380  0.8517 -0.8063
 5016SOL     OW26509   0.044   0.065   3.560  0.0048  0.3607 -0.0901
 5016SOL    HW126510   4.695   0.104   3.608 -1.2836  1.0809 -2.6867
 5016SOL    HW226511   0.065   4.715   3.618 -1.4278  1.6314  2.0745
 5017SOL     OW26512   2.581   3.535   4.418 -0.4220 -0.2336 -0.3304
 5017SOL    HW126513   2.667   3.571   4.441  0.5391 -1.1115 -2.5432
 5017SOL    HW226514   2.609   3.456   4.373  1.2558  0.9911 -1.4539
 5018SOL     OW26515   3.361   1.828  12.652  0.2070  0.1460  0.0411
 5018SOL    HW126516   3.408   1.911  12.656  0.4719 -0.0437  0.8120
 5018SOL    HW226517   3.269   1.855  12.649  0.1350  0.3032  3.1754
 5019SOL     OW26518   4.644   0.972  16.464  0.6833  0.0392 -0.7905
 5019SOL    HW126519   4.571   1.016  16.507  1.0319 -1.2431  1.1167
 5019SOL    HW226520   4.722   1.022  16.486  0.0537  0.8375 -0.4073
 5020SOL     OW26521   4.530   1.133   3.370  0.8631  0.6693 -0.3095
 5020SOL    HW126522   4.589   1.070   3.412 -2.9432 -1.4942  1.7136
 5020SOL    HW226523   4.550   1.109   3.279  1.0375 -0.2376 -0.0385
 5021SOL     OW26524   0.499   3.169   2.464  0.5564 -0.3543  0.3048
 5021SOL    HW126525   0.407   3.152   2.443  0.1057  2.5880 -0.0944
 5021SOL    HW226526   0.526   3.083   2.496 -0.0590 -0.6513  0.0481
 5022SOL     OW26527   1.199   1.488   5.547 -0.2236  0.1678  0.2223
 5022SOL    HW126528   1.258   1.526   5.613 -2.6891  2.0156  1.3775
 5022SOL    HW226529   1.160   1.415   5.595 -0.2019  0.9396  1.4258
 5023SOL     OW26530   1.380   3.200   5.309  0.0734  0.0246 -0.1239
 5023SOL    HW126531   1.459   3.164   5.349  1.2127  2.1482 -0.4628
 5023SOL    HW226532   1.349   3.266   5.370  0.1521 -1.2312  1.2637
 5024SOL     OW26533   2.968   4.496   2.898  0.0797 -0.9900  0.7477
 5024SOL    HW126534   2.902   4.560   2.927  0.7606  0.2019 -0.3453
 5024SOL    HW226535   3.034   4.527   2.960 -1.9157  2.0943  1.3784
 5025SOL     OW26536   0.582   2.544   7.805  0.3201 -0.8349  0.1568
 5025SOL    HW126537   0.534   2.570   7.884 -0.0891  0.0513 -0.3892
 5025SOL    HW226538   0.543   2.599   7.738  0.1443 -0.3990  0.6160
 5026SOL     OW26539   2.308   3.310   1.891  0.1451  0.3305 -0.3565
 5026SOL    HW126540   2.350   3.237   1.937 -0.1258  0.6549  0.4119
 5026SOL    HW226541   2.303   3.386   1.950  0.2905 -0.1593  0.2935
 5027SOL     OW26542   2.450   4.723   9.040 -0.0056  0.1475  0.7898
 5027SOL    HW126543   2.393   0.077   9.042 -0.9927 -0.5882  1.4487
 5027SOL    HW226544   2.407   4.672   8.972  0.7127  1.4038 -0.6079
 5028SOL     OW26545   0.637   1.278  10.997 -0.4174  0.5611 -0.4383
 5028SOL    HW126546   0.550   1.238  10.999  0.3233 -0.8003  2.8512
 5028SOL    HW226547   0.666   1.262  10.907 -1.8930 -0.7545 -0.6733
 5029SOL     OW26548   1.989   4.632   8.328 -0.1514  0.3634 -0.5981
 5029SOL    HW126549   1.965   4.557   8.382  0.9419  1.7831  1.8561
 5029SOL    HW226550   1.904   4.653   8.290 -0.3905  0.6975  0.1245
 5030SOL     OW26551   4.417   3.339   4.889  0.0571 -0.3712  0.0974
 5030SOL    HW126552   4.395   3.301   4.804 -3.3517 -1.1884  1.3359
 5030SOL    HW226553   4.367   3.418   4.873 -0.5891 -1.2513 -2.2567
 5031SOL     OW26554   1.401   4.178   2.123 -0.4247 -0.0724 -0.0255
 5031SOL    HW126555   1.341   4.250   2.104 -0.3616 -0.0097  0.0147
 5031SOL    HW226556   1.480   4.217   2.085 -0.9774  0.8229 -0.2572
 5032SOL     OW26557   4.054   3.976   8.692  0.1169  0.6178  0.2383
 5032SOL    HW126558   3.970   4.013   8.664  0.6911  0.9532 -1.0470
 5032SOL    HW226559   4.061   3.986   8.787 -1.4504  1.0165  0.3147
 5033SOL     OW26560   3.701   0.637   1.514 -0.3184 -0.9611 -0.0453
 5033SOL    HW126561   3.629   0.582   1.544  0.3682 -1.9636 -0.2567
 5033SOL    HW226562   3.657   0.722   1.502 -1.5657 -1.4851  0.8775
 5034SOL     OW26563   1.953   2.406   0.383  0.4198 -0.2394 -0.2558
 5034SOL    HW126564   2.025   2.350   0.354 -0.6394 -1.7777  0.0719
 5034SOL    HW226565   2.004   2.487   0.389  1.9053 -1.2408  0.7300
 5035SOL     OW26566   0.795   1.195  10.761 -0.4604 -0.2116 -0.2336
 5035SOL    HW126567   0.868   1.155  10.809 -0.4594 -0.1020 -0.1421
 5035SOL    HW226568   0.853   1.243  10.702  0.3821 -1.0469 -0.0774
 5036SOL     OW26569   1.323   1.697  13.097  0.0422  0.1916 -0.4563
 5036SOL    HW126570   1.380   1.770  13.071 -1.6362  1.5581 -0.3378
 5036SOL    HW226571   1.261   1.697  13.025 -0.1685 -0.7370 -0.2721
 5037SOL     OW26572   3.864   1.351   3.853 -0.0908  0.4928  0.3063
 5037SOL    HW126573   3.815   1.269   3.842  0.9456  0.2144 -2.2388
 5037SOL    HW226574   3.823   1.412   3.792 -0.5349  0.0434  0.1547
 5038SOL     OW26575   2.613   0.244   1.193 -0.1457 -0.2677 -0.5921
 5038SOL    HW126576   2.540   0.285   1.241 -0.4985 -1.2324 -0.2935
 5038SOL    HW226577   2.675   0.247   1.265 -2.3095  1.7886  1.2063
 5039SOL     OW26578   2.456   2.451   8.257  0.5578 -0.1911 -0.8613
 5039SOL    HW126579   2.400   2.386   8.299  1.8184  0.2070  1.4339
 5039SOL    HW226580   2.482   2.496   8.338 -2.2116 -1.8122  0.9484
 5040SOL     OW26581   2.674   2.027   9.043 -0.6662 -0.7621  0.3840
 5040SOL    HW126582   2.610   2.058   8.979  0.8296 -0.9669 -1.2082
 5040SOL    HW226583   2.696   2.109   9.088  0.5454 -2.6616  3.2224
 5041SOL     OW26584   4.038   4.478   1.360  0.4588 -0.4968  0.0008
 5041SOL    HW126585   3.968   4.413   1.367 -0.7003  0.8556  1.0335
 5041SOL    HW226586   4.069   4.499   1.448  0.7836 -1.1703  0.0485
 5042SOL     OW26587   4.090   1.779  14.759 -0.1894  0.0742  0.1325
 5042SOL    HW126588   4.107   1.789  14.853  1.1160 -1.2008  0.0297
 5042SOL    HW226589   4.112   1.864  14.723  0.7675  0.1630  0.9140
 5043SOL     OW26590   1.913   0.979  14.345  0.0929 -0.0358 -0.2452
 5043SOL    HW126591   1.905   1.032  14.424 -4.2442  0.2447 -0.8563
 5043SOL    HW226592   2.006   0.990  14.326  0.2451 -0.3439  0.3291
 5044SOL     OW26593   2.131   0.692   3.729 -0.4527  0.8529 -0.2247
 5044SOL    HW126594   2.139   0.677   3.823  1.8041  0.2336 -0.5039
 5044SOL    HW226595   2.201   0.635   3.696 -0.6678  0.2056  0.4380
 5045SOL     OW26596   3.460   4.438   7.922 -0.6143  0.3440  0.1717
 5045SOL    HW126597   3.499   4.420   8.007 -2.7395 -0.6606  0.9293
 5045SOL    HW226598   3.367   4.440   7.943 -1.3040 -3.7305 -2.4237
 5046SOL     OW26599   1.556   4.409   3.873  0.4168 -0.6982  0.7384
 5046SOL    HW126600   1.469   4.415   3.914 -0.9052  0.6470 -2.2727
 5046SOL    HW226601   1.540   4.385   3.782  2.4210  0.1826  0.1789
 5047SOL     OW26602   0.266   1.409   3.405 -0.1427 -0.0427 -0.2438
 5047SOL    HW126603   0.199   1.439   3.344  1.2256 -1.9456 -2.6533
 5047SOL    HW226604   0.275   1.485   3.464 -0.2631  0.9460 -1.5105
 5048SOL     OW26605   1.266   2.559  12.213 -0.0174  0.0415 -0.3924
 5048SOL    HW126606   1.337   2.622  12.200 -0.7275  0.9890  0.2959
 5048SOL    HW226607   1.319   2.481  12.196 -0.1347 -0.8005  2.9994
 5049SOL     OW26608   2.483   0.254  15.544 -0.0002 -0.0479 -0.1045
 5049SOL    HW126609   2.404   0.274  15.595  1.1767  0.0324  1.6738
 5049SOL    HW226610   2.452   0.200  15.471 -0.6027 -0.0402  0.1416
 5050SOL     OW26611   2.487   3.398   6.532  0.6850 -0.1588  0.9508
 5050SOL    HW126612   2.530   3.483   6.532  0.6878 -0.1690  3.9887
 5050SOL    HW226613   2.413   3.408   6.472  1.0305 -0.6075  0.4371
 5051SOL     OW26614   4.496   1.330   5.799 -0.2132 -0.0938 -0.8185
 5051SOL    HW126615   4.471   1.308   5.710 -1.9843 -1.1502 -0.0658
 5051SOL    HW226616   4.497   1.426   5.801  0.0439 -0.0724 -2.0940
 5052SOL     OW26617   0.333   1.171   1.420 -0.0708  0.0413 -0.2750
 5052SOL    HW126618   0.343   1.150   1.513  0.3653  1.0270 -0.1019
 5052SOL    HW226619   0.279   1.095   1.399  1.0855 -0.6288 -0.7761
 5053SOL     OW26620   0.168   1.516   1.070  0.0537  0.2946 -0.0639
 5053SOL    HW126621   0.195   1.578   1.002  2.2621 -0.6309 -0.0249
 5053SOL    HW226622   0.139   1.445   1.014  1.3364  0.4548 -0.9290
 5054SOL     OW26623   0.989   3.213   7.139  0.0378 -0.0795  0.4445
 5054SOL    HW126624   0.903   3.170   7.146  0.7817 -1.4320  1.3348
 5054SOL    HW226625   1.055   3.149   7.165  2.9052  1.9105 -1.9806
 5055SOL     OW26626   4.527   2.192   5.725 -0.1727  0.0991  0.4506
 5055SOL    HW126627   4.454   2.198   5.786 -1.3753 -1.6627 -0.8343
 5055SOL    HW226628   4.494   2.225   5.641  1.2919 -2.6797 -1.2168
 5056SOL     OW26629   0.669   1.519   9.769  0.0169 -0.2932 -0.4884
 5056SOL    HW126630   0.665   1.559   9.682 -3.9416  1.1818  0.3917
 5056SOL    HW226631   0.626   1.436   9.750  2.0207 -1.4188 -0.1046
 5057SOL     OW26632   0.828   1.322  11.844  0.6312 -0.0484 -0.7042
 5057SOL    HW126633   0.749   1.316  11.898  1.2928 -1.1348  0.1368
 5057SOL    HW226634   0.826   1.240  11.795 -1.7356 -0.5996  0.2907
 5058SOL     OW26635   0.630   0.105   9.816 -0.3374  0.3250  0.5634
 5058SOL    HW126636   0.682   0.058   9.751 -0.6328  0.4609  0.2249
 5058SOL    HW226637   0.700   0.108   9.881 -0.5971 -2.3442  0.9843
 5059SOL     OW26638   3.037   1.556  13.519  0.7955 -0.4465  0.0909
 5059SOL    HW126639   3.103   1.622  13.495 -0.4478 -0.4946 -3.4551
 5059SOL    HW226640   2.965   1.569  13.457  1.8162 -0.4586 -1.1019
 5060SOL     OW26641   0.128   0.204   5.573 -0.4804 -0.5342 -0.2090
 5060SOL    HW126642   0.190   0.183   5.642 -0.5883 -2.5577 -0.7235
 5060SOL    HW226643   0.060   0.250   5.624 -0.1680 -2.2693  1.7847
 5061SOL     OW26644   4.473   1.801  11.097  0.5178 -0.3104 -0.6819
 5061SOL    HW126645   4.428   1.732  11.145  1.1668 -0.1061  0.2157
 5061SOL    HW226646   4.552   1.791  11.150  0.3335  1.3139 -0.0928
 5062SOL     OW26647   3.450   0.166   5.546  0.1256  0.0077 -0.3958
 5062SOL    HW126648   3.369   0.202   5.581  0.5321 -0.2803  0.8592
 5062SOL    HW226649   3.504   0.161   5.625  1.8796 -0.7881 -1.6417
 5063SOL     OW26650   4.080   0.317  11.642 -0.2619 -0.2341 -0.1021
 5063SOL    HW126651   4.017   0.333  11.572 -2.1190 -0.7125  1.4543
 5063SOL    HW226652   4.057   0.228  11.669  0.5708  0.1929  1.9955
 5064SOL     OW26653   3.259   1.917   0.471 -0.0670 -0.3093  0.1792
 5064SOL    HW126654   3.312   1.917   0.392 -1.6394 -0.6624 -0.8693
 5064SOL    HW226655   3.311   1.861   0.528 -0.5880  0.7593  1.7179
 5065SOL     OW26656   1.746   1.423   4.711  0.7161 -0.3473  0.5749
 5065SOL    HW126657   1.749   1.500   4.654  0.8957  0.3398  1.5060
 5065SOL    HW226658   1.654   1.396   4.708  1.1912 -1.7111 -1.6349
 5066SOL     OW26659   2.613   3.647   6.374  0.1442  0.7606 -0.1410
 5066SOL    HW126660   2.694   3.597   6.377 -0.9921 -0.8896  2.7542
 5066SOL    HW226661   2.602   3.674   6.465  2.6830  0.5788  0.2170
 5067SOL     OW26662   1.433   0.773   1.102  0.2179 -0.4756  0.2871
 5067SOL    HW126663   1.463   0.695   1.056  2.4512 -0.1999  1.2349
 5067SOL    HW226664   1.511   0.819   1.135 -0.0453 -0.9454  1.5731
 5068SOL     OW26665   2.995   1.640   4.944  0.3337  0.3137  0.5097
 5068SOL    HW126666   2.954   1.633   5.030  0.3918 -5.5833  0.0563
 5068SOL    HW226667   2.917   1.618   4.892 -0.0871  1.2361  0.7549
 5069SOL     OW26668   0.785   3.106   9.507  0.2451 -0.7177 -0.2175
 5069SOL    HW126669   0.782   3.078   9.416 -0.9899 -0.9610 -0.1155
 5069SOL    HW226670   0.863   3.067   9.545 -0.1964 -1.8487 -0.4850
 5070SOL     OW26671   2.663   4.420  10.996  0.0199  0.3016  0.7950
 5070SOL    HW126672   2.569   4.399  10.989 -0.2244  2.0227 -1.3030
 5070SOL    HW226673   2.667   4.474  10.917 -1.1720 -0.0967  0.4565
 5071SOL     OW26674   1.834   4.240   1.896 -0.4460  0.0033 -0.3001
 5071SOL    HW126675   1.843   4.152   1.930 -1.0847  0.4015  0.8944
 5071SOL    HW226676   1.779   4.218   1.821 -1.0344 -0.0262  0.1394
 5072SOL     OW26677   2.158   0.541  14.790 -0.0303  0.2814  0.3302
 5072SOL    HW126678   2.186   0.566  14.878  1.5035 -3.0681  0.8223
 5072SOL    HW226679   2.152   0.446  14.804 -0.8802  0.2350 -0.3438
 5073SOL     OW26680   2.742   4.690  16.330 -1.1753 -0.0256  0.3529
 5073SOL    HW126681   2.687   0.040  16.301  0.5099 -0.6345 -4.3320
 5073SOL    HW226682   2.697   4.610  16.301 -2.6876 -0.5096  4.0807
 5074SOL     OW26683   3.041   2.187   7.053 -0.1499  0.0723 -0.0939
 5074SOL    HW126684   3.114   2.203   7.113  0.4320  0.6192 -0.9500
 5074SOL    HW226685   3.014   2.099   7.077  2.0561 -0.8426 -1.0406
 5075SOL     OW26686   0.459   4.542   8.953 -0.3332 -0.4206  0.3025
 5075SOL    HW126687   0.373   4.506   8.975 -1.0134  1.6187  0.9222
 5075SOL    HW226688   0.503   4.523   9.036  1.6664 -0.8790 -0.8443
 5076SOL     OW26689   4.212   3.300   4.142 -0.3210 -1.1939 -0.1943
 5076SOL    HW126690   4.283   3.244   4.172 -0.7258 -1.3054  0.5645
 5076SOL    HW226691   4.201   3.262   4.055 -1.2747  1.1691 -1.1278
 5077SOL     OW26692   1.923   2.581   8.815  0.8503 -0.2633 -0.0129
 5077SOL    HW126693   1.995   2.643   8.800  0.2764  0.5169  0.4479
 5077SOL    HW226694   1.967   2.498   8.829  1.8365  0.4663  1.2199
 5078SOL     OW26695   1.451   0.706   8.212  0.5091  0.1382 -0.2412
 5078SOL    HW126696   1.527   0.745   8.255  0.0894 -0.4667  1.0591
 5078SOL    HW226697   1.461   0.709   8.117 -0.9387 -0.6471 -0.4219
 5079SOL     OW26698   0.536   1.503   8.930  0.6941  0.5236 -0.3652
 5079SOL    HW126699   0.507   1.580   8.980 -0.5739 -1.6267  2.1813
 5079SOL    HW226700   0.526   1.436   8.997 -1.4359 -1.8186 -3.0593
 5080SOL     OW26701   4.578   1.948   2.120  0.4065  0.4918  0.8449
 5080SOL    HW126702   4.637   1.875   2.100  0.2823  0.4265  0.7115
 5080SOL    HW226703   4.641   2.016   2.143 -1.0456  1.3428  2.2751
 5081SOL     OW26704   0.105   2.244   7.218  0.1650  0.3254 -0.4037
 5081SOL    HW126705   0.127   2.268   7.308 -0.0122 -0.1870 -0.2173
 5081SOL    HW226706   0.078   2.330   7.187 -0.4078 -0.1312 -1.1929
 5082SOL     OW26707   4.697   1.354   2.524 -0.5757 -0.0020 -0.3327
 5082SOL    HW126708   0.003   1.426   2.580  1.0522 -0.5925 -0.4326
 5082SOL    HW226709   0.004   1.286   2.584  0.0592  0.3503 -0.2588
 5083SOL     OW26710   3.137   2.153   5.172  0.0210  0.0878 -0.2582
 5083SOL    HW126711   3.072   2.119   5.233 -0.7827  0.7694 -0.7368
 5083SOL    HW226712   3.128   2.245   5.194  0.8102 -0.2700  1.5489
 5084SOL     OW26713   1.519   1.613   7.881 -0.0192  0.1843 -0.0523
 5084SOL    HW126714   1.500   1.707   7.876 -1.4784 -0.0874  0.1896
 5084SOL    HW226715   1.484   1.590   7.795  2.4275 -1.7600 -0.5180
 5085SOL     OW26716   0.238   1.448   5.485  0.5068 -0.2612 -0.0996
 5085SOL    HW126717   0.278   1.414   5.406 -0.7471  3.7022 -2.4522
 5085SOL    HW226718   0.257   1.541   5.470  0.7500 -0.3926 -0.6072
 5086SOL     OW26719   4.076   3.471   7.471  0.1268  0.8294  0.7284
 5086SOL    HW126720   4.128   3.549   7.490  0.4925  0.8649 -0.4210
 5086SOL    HW226721   3.999   3.521   7.441  0.0140 -0.6612 -1.4343
 5087SOL     OW26722   4.115   3.447  11.386 -0.3026  0.2445  0.4124
 5087SOL    HW126723   4.062   3.428  11.309  0.7722  1.0131 -0.5195
 5087SOL    HW226724   4.180   3.506  11.349 -0.4676 -0.3819 -0.8818
 5088SOL     OW26725   0.426   3.610   6.096 -0.3084  0.2190  0.1706
 5088SOL    HW126726   0.380   3.664   6.031 -1.0773 -1.2858 -0.5492
 5088SOL    HW226727   0.369   3.533   6.087 -0.2898 -0.1643  3.5878
 5089SOL     OW26728   2.143   4.445  10.274 -0.2396 -0.6141  0.1899
 5089SOL    HW126729   2.156   4.439  10.179  1.2449 -1.5102  0.4478
 5089SOL    HW226730   2.062   4.495  10.281  0.4624  0.4750  0.4114
 5090SOL     OW26731   2.264   3.529   6.422  0.0945  0.2341 -0.4035
 5090SOL    HW126732   2.222   3.525   6.336  2.9597  1.8233 -1.8370
 5090SOL    HW226733   2.237   3.612   6.460 -2.6246 -0.7583 -0.1143
 5091SOL     OW26734   2.714   1.296  16.262 -0.0066 -0.4833 -0.1165
 5091SOL    HW126735   2.785   1.252  16.216  2.0668  3.2804 -0.4625
 5091SOL    HW226736   2.681   1.225  16.318 -1.5241 -0.9656 -1.6102
 5092SOL     OW26737   3.700   2.570   6.901  0.2721  0.0913  0.4764
 5092SOL    HW126738   3.754   2.641   6.935 -0.8995  0.0194  2.4856
 5092SOL    HW226739   3.671   2.540   6.987  0.0814 -0.0817  0.3518
 5093SOL     OW26740   0.422   3.542  14.295 -0.3541 -0.0702 -0.5521
 5093SOL    HW126741   0.483   3.517  14.364  0.0183  0.3699 -0.7176
 5093SOL    HW226742   0.488   3.576  14.234 -0.8242  0.3928 -0.8034
 5094SOL     OW26743   2.460   1.205   5.598 -0.0737 -0.1682 -0.0703
 5094SOL    HW126744   2.501   1.272   5.652 -1.2403 -0.1988  0.8521
 5094SOL    HW226745   2.367   1.219   5.616 -0.3615 -1.2565 -0.7351
 5095SOL     OW26746   0.243   3.801  11.806  0.3446  0.3456 -0.2242
 5095SOL    HW126747   0.281   3.856  11.737 -1.1328  1.0116 -0.5209
 5095SOL    HW226748   0.203   3.872  11.856 -0.1795  0.5120 -0.8630
 5096SOL     OW26749   3.845   1.441  11.480 -0.5290 -0.0079 -0.2758
 5096SOL    HW126750   3.841   1.399  11.566  1.4493 -0.2368 -0.3051
 5096SOL    HW226751   3.839   1.535  11.500  2.5248 -0.1708  1.3499
 5097SOL     OW26752   2.573   3.714   4.180 -0.5446 -0.5614  0.0091
 5097SOL    HW126753   2.492   3.764   4.182 -0.4775 -0.5403  1.6175
 5097SOL    HW226754   2.569   3.671   4.265  3.0615 -1.1007 -0.0673
 5098SOL     OW26755   4.702   3.806   5.576 -0.9143 -0.1184 -0.4350
 5098SOL    HW126756   4.690   3.764   5.491 -1.8456  0.7599 -0.7474
 5098SOL    HW226757   0.073   3.821   5.570 -0.3809 -2.1274  2.7906
 5099SOL     OW26758   3.255   1.237   3.079  0.3140  0.6404 -1.2402
 5099SOL    HW126759   3.191   1.188   3.027 -1.6018  2.0916 -0.2803
 5099SOL    HW226760   3.285   1.310   3.025  3.4065 -0.0807 -0.5098
 5100SOL     OW26761   2.590   2.415   4.764  0.3206  1.1809  0.2634
 5100SOL    HW126762   2.660   2.468   4.802  0.4350  2.7391 -2.1055
 5100SOL    HW226763   2.516   2.471   4.789  0.0137  0.9308 -0.0904
 5101SOL     OW26764   2.513   1.619   1.353 -0.0427 -0.0896 -0.4740
 5101SOL    HW126765   2.513   1.654   1.443 -2.3586 -0.3713 -0.3689
 5101SOL    HW226766   2.606   1.599   1.344 -0.3053 -2.2145  1.4603
 5102SOL     OW26767   4.071   2.325   4.427  0.3035 -0.1839  0.6251
 5102SOL    HW126768   4.140   2.304   4.365  0.3380 -1.6243  1.1475
 5102SOL    HW226769   4.114   2.272   4.495  0.8982 -0.3258  0.1324
 5103SOL     OW26770   2.099   1.485  12.497  0.0393 -0.2222 -0.1670
 5103SOL    HW126771   2.151   1.536  12.435  1.7443 -1.3706  0.3124
 5103SOL    HW226772   2.129   1.398  12.469 -0.4572  0.2347 -2.1011
 5104SOL     OW26773   4.495   4.247   5.025  0.6356  0.1125 -0.5704
 5104SOL    HW126774   4.509   4.245   5.119  0.1783 -1.5898 -0.5487
 5104SOL    HW226775   4.402   4.245   5.002  0.5304 -1.4284  0.0341
 5105SOL     OW26776   4.693   4.035   4.160 -0.3974 -1.3099  0.4450
 5105SOL    HW126777   4.653   4.119   4.181 -1.1087 -1.9915  1.8072
 5105SOL    HW226778   4.633   3.973   4.203 -2.5655  1.6745  1.7342
 5106SOL     OW26779   0.719   1.734   3.302 -0.2358  0.7053 -0.5684
 5106SOL    HW126780   0.658   1.771   3.365  0.2705  1.6326 -0.6193
 5106SOL    HW226781   0.654   1.709   3.236  0.3683 -2.3833 -0.0049
 5107SOL     OW26782   4.214   3.396   9.132  0.0593  0.5255 -0.4036
 5107SOL    HW126783   4.197   3.465   9.196  2.3603  1.5136 -0.8390
 5107SOL    HW226784   4.185   3.428   9.047  1.0629 -1.1066 -1.3514
 5108SOL     OW26785   0.239   1.811   1.464  0.4337  0.5199  0.3650
 5108SOL    HW126786   0.188   1.737   1.431  0.5709  1.2828 -1.5420
 5108SOL    HW226787   0.195   1.882   1.417 -1.5987  0.4129  2.0833
 5109SOL     OW26788   3.240   3.387   3.329  0.1243 -0.1444  0.2507
 5109SOL    HW126789   3.251   3.293   3.348 -1.4241 -0.6488 -1.3159
 5109SOL    HW226790   3.330   3.418   3.335  0.5812 -2.0756  3.1172
 5110SOL     OW26791   0.952   3.195   5.679  0.1318  0.2520  0.7305
 5110SOL    HW126792   0.972   3.252   5.754  2.6104  1.2794 -0.7162
 5110SOL    HW226793   0.992   3.110   5.691  1.2305  0.4932 -1.2633
 5111SOL     OW26794   2.894   3.143  15.556 -0.0838 -0.3023 -0.3489
 5111SOL    HW126795   2.863   3.121  15.469 -0.9676  1.1113 -0.3978
 5111SOL    HW226796   2.918   3.235  15.543  1.2125 -0.2110  2.5720
 5112SOL     OW26797   1.022   2.435  16.878  0.4658 -0.5484 -0.1323
 5112SOL    HW126798   1.027   2.442  16.974  0.6184  0.7351 -0.2299
 5112SOL    HW226799   1.117   2.430  16.864  0.3982 -1.1658 -0.3450
 5113SOL     OW26800   3.845   4.184   5.890 -0.4387 -0.4968  0.2424
 5113SOL    HW126801   3.823   4.114   5.952 -1.5801 -1.9113 -1.7466
 5113SOL    HW226802   3.920   4.232   5.926  0.1730 -0.3422 -1.2472
 5114SOL     OW26803   4.394   1.443   2.756 -0.3566  0.6068 -0.1559
 5114SOL    HW126804   4.402   1.483   2.669  0.9757  1.4337  0.3555
 5114SOL    HW226805   4.334   1.504   2.798  2.8195  2.3936  1.8008
 5115SOL     OW26806   2.064   1.900   5.553  0.3080 -0.2725 -0.3296
 5115SOL    HW126807   2.019   1.926   5.473  1.5694  1.0314 -0.6257
 5115SOL    HW226808   2.140   1.853   5.518 -1.3805 -2.3934 -1.1579
 5116SOL     OW26809   4.212   1.144   1.598  0.2887 -0.6259 -0.2624
 5116SOL    HW126810   4.290   1.199   1.587  0.2760 -0.7605 -1.0561
 5116SOL    HW226811   4.235   1.077   1.533  1.1990 -1.0550  0.5029
 5117SOL     OW26812   3.650   0.292  10.908  0.0700  0.4702  0.3681
 5117SOL    HW126813   3.563   0.260  10.889  1.6134 -1.9730 -2.4356
 5117SOL    HW226814   3.665   0.349  10.832 -1.8138 -0.6211 -0.8061
 5118SOL     OW26815   1.816   4.415   4.220 -0.4383  0.1664 -0.5225
 5118SOL    HW126816   1.797   4.361   4.143 -1.4107 -3.3696  2.1933
 5118SOL    HW226817   1.728   4.438   4.249 -0.5738 -1.7394  0.5740
 5119SOL     OW26818   0.345   4.712   3.518 -0.2054 -0.0701 -0.0509
 5119SOL    HW126819   0.273   0.044   3.489 -0.9764  0.1347  2.2590
 5119SOL    HW226820   0.349   4.642   3.453  1.1919  0.4087 -0.4893
 5120SOL     OW26821   4.681   1.463   1.648  0.1743 -0.8052 -0.6781
 5120SOL    HW126822   4.690   1.496   1.738 -2.4042 -3.4428  0.5558
 5120SOL    HW226823   0.028   1.399   1.652  0.0171 -0.9441 -0.0760
 5121SOL     OW26824   1.072   2.815   1.714  0.0146 -0.1128  0.6647
 5121SOL    HW126825   1.032   2.900   1.730  1.7110  0.4029  2.1896
 5121SOL    HW226826   1.057   2.797   1.622  0.6111 -0.7882  0.6921
 5122SOL     OW26827   2.501   0.190   8.404  0.2235  0.3242  0.3584
 5122SOL    HW126828   2.473   0.104   8.375  0.6983  0.9685 -2.0075
 5122SOL    HW226829   2.442   0.207   8.478 -1.2974 -0.5670 -0.6758
 5123SOL     OW26830   3.257   1.676  12.134 -0.6918  0.6385 -0.3741
 5123SOL    HW126831   3.171   1.707  12.161 -0.0951  1.7436  0.2546
 5123SOL    HW226832   3.254   1.596  12.187  0.1936  1.0488  0.2919
 5124SOL     OW26833   0.297   0.542   6.459 -0.2784 -0.3244 -0.2264
 5124SOL    HW126834   0.342   0.510   6.537 -0.1060 -0.3994 -0.3583
 5124SOL    HW226835   0.241   0.469   6.432  0.1313  0.1668 -2.3713
 5125SOL     OW26836   2.255   3.016   3.673  0.3411 -0.0338  0.3673
 5125SOL    HW126837   2.196   2.947   3.643  0.0038  0.6394 -0.5183
 5125SOL    HW226838   2.240   3.022   3.768 -0.5609 -2.1275  0.3500
 5126SOL     OW26839   2.605   0.181  13.096 -0.1640  0.2146  0.0978
 5126SOL    HW126840   2.684   0.199  13.147 -0.0538 -1.0361  0.3553
 5126SOL    HW226841   2.633   0.096  13.062 -0.2783 -0.6795  2.2873
 5127SOL     OW26842   2.833   3.702  17.607  0.0695  0.7030 -0.1480
 5127SOL    HW126843   2.883   3.660  17.537 -0.1595  0.2178 -0.0245
 5127SOL    HW226844   2.780   3.624  17.626  0.5021  0.4801  0.1540
 5128SOL     OW26845   0.147   1.256  13.148  0.3306 -0.0379  0.3124
 5128SOL    HW126846   0.220   1.229  13.092  0.0284 -1.2524  0.5150
 5128SOL    HW226847   0.165   1.350  13.156 -1.1692  0.1292  1.5964
 5129SOL     OW26848   3.982   3.576   3.604  0.0662  0.2715  0.3316
 5129SOL    HW126849   4.027   3.493   3.585 -2.5703 -0.8083 -1.2152
 5129SOL    HW226850   3.990   3.613   3.516  1.5199 -1.2739 -0.2048
 5130SOL     OW26851   1.946   2.056   6.915  0.5842  0.3794  0.9571
 5130SOL    HW126852   1.986   2.028   6.832 -1.8963  2.7567 -1.0266
 5130SOL    HW226853   1.882   2.122   6.886  0.2618 -0.5987 -0.5588
 5131SOL     OW26854   0.995   3.707  16.310  0.0998  0.0342  0.4103
 5131SOL    HW126855   0.952   3.690  16.226  0.5066 -0.2018  0.2468
 5131SOL    HW226856   0.918   3.725  16.364 -0.1045  1.7642 -0.4654
 5132SOL     OW26857   1.271   2.479  14.074  0.2389  0.1486 -1.0500
 5132SOL    HW126858   1.274   2.457  13.981  0.9373 -0.9818 -0.7582
 5132SOL    HW226859   1.356   2.519  14.089 -0.0888 -0.4367  2.2952
 5133SOL     OW26860   1.808   4.123  14.277 -1.3906 -0.1527  0.1213
 5133SOL    HW126861   1.721   4.111  14.241 -1.3774  1.8526 -0.5863
 5133SOL    HW226862   1.865   4.136  14.201 -2.2366 -2.3185 -0.8429
 5134SOL     OW26863   1.405   2.635   4.857 -0.0609  0.2475  0.0316
 5134SOL    HW126864   1.407   2.667   4.947  0.4041 -1.3516  0.5720
 5134SOL    HW226865   1.458   2.705   4.818 -1.2786  0.7582 -0.7015
 5135SOL     OW26866   3.364   2.152   6.799  0.0048 -0.0201 -0.4486
 5135SOL    HW126867   3.429   2.207   6.757  0.4664  0.3605  0.7648
 5135SOL    HW226868   3.364   2.177   6.892  2.9118 -1.7715  0.0205
 5136SOL     OW26869   3.363   2.656   8.865  0.2549  0.2724  0.9995
 5136SOL    HW126870   3.383   2.575   8.912  0.5047 -0.0326  0.3682
 5136SOL    HW226871   3.431   2.654   8.797 -0.9583 -2.2931 -0.1546
 5137SOL     OW26872   0.899   4.349   6.710  0.2644 -0.2227 -0.1628
 5137SOL    HW126873   0.916   4.255   6.702 -0.2119 -0.4459  1.3096
 5137SOL    HW226874   0.804   4.359   6.721 -0.2139 -3.2898 -1.5387
 5138SOL     OW26875   4.305   3.683   3.647 -0.2486  0.4617 -0.2338
 5138SOL    HW126876   4.286   3.592   3.624 -0.6842  0.6627 -0.6810
 5138SOL    HW226877   4.259   3.720   3.572 -2.1727  0.0489  0.7673
 5139SOL     OW26878   0.096   0.763   2.935  0.0865  0.0757 -0.7697
 5139SOL    HW126879   0.080   0.685   2.988  0.7577 -0.2318 -1.0175
 5139SOL    HW226880   0.113   0.825   3.006 -0.4892 -2.7747  1.8524
 5140SOL     OW26881   4.438   1.265   5.528 -0.4246 -0.1285 -0.1540
 5140SOL    HW126882   4.381   1.293   5.457 -2.9344  0.2189  1.9912
 5140SOL    HW226883   4.523   1.289   5.490  0.4917 -0.0135  1.9605
 5141SOL     OW26884   3.670   1.128   3.880 -0.1919  0.0358  0.4270
 5141SOL    HW126885   3.612   1.132   3.956  3.1752  0.2133  2.9519
 5141SOL    HW226886   3.621   1.068   3.823 -0.6122  1.5680 -0.8407
 5142SOL     OW26887   4.687   1.589   6.547  0.2352 -0.5543  0.1536
 5142SOL    HW126888   4.624   1.629   6.487 -0.6915 -0.6327  1.0881
 5142SOL    HW226889   0.045   1.605   6.501  0.1915 -1.6563 -0.3140
 5143SOL     OW26890   0.112   1.630  11.674  0.0569 -0.1117  0.5843
 5143SOL    HW126891   0.183   1.678  11.631  0.2987  1.6750  3.0485
 5143SOL    HW226892   0.139   1.625  11.765 -1.8122 -1.4575  1.0619
 5144SOL     OW26893   1.980   1.947   3.768 -0.5168  0.4173 -0.0358
 5144SOL    HW126894   1.948   1.892   3.696 -1.8430  0.0191  0.8566
 5144SOL    HW226895   2.065   1.975   3.734 -1.4309  0.9729 -1.8789
 5145SOL     OW26896   0.107   1.054  13.594  0.1972 -0.1615 -0.1003
 5145SOL    HW126897   0.106   1.149  13.606  1.2620  0.1588 -2.4708
 5145SOL    HW226898   0.174   1.054  13.526  2.3811  0.5248  2.0552
 5146SOL     OW26899   3.531   1.563   4.234 -0.8292  0.0713  0.2565
 5146SOL    HW126900   3.462   1.519   4.284 -2.2807 -0.3260 -2.0832
 5146SOL    HW226901   3.487   1.640   4.198 -1.2798  0.7599  2.2881
 5147SOL     OW26902   0.184   2.936   5.511  0.2798  0.2569  0.5985
 5147SOL    HW126903   0.271   2.898   5.526  0.3688  0.2294  0.0270
 5147SOL    HW226904   0.150   2.858   5.466  1.8540  0.0678 -0.2624
 5148SOL     OW26905   1.394   2.870  11.109 -0.0011  0.4942  0.7534
 5148SOL    HW126906   1.326   2.884  11.175  0.6994  1.0046  1.3597
 5148SOL    HW226907   1.391   2.775  11.101 -1.2524  0.7184 -1.4895
 5149SOL     OW26908   0.849   4.515  16.186 -0.1333 -0.6324  0.2522
 5149SOL    HW126909   0.892   4.584  16.237 -0.2274 -2.1080  2.3039
 5149SOL    HW226910   0.790   4.574  16.138 -0.1900 -0.7470  0.1822
 5150SOL     OW26911   4.699   0.360   7.026 -0.8083 -0.4301 -0.4650
 5150SOL    HW126912   4.716   0.361   6.932 -0.4429  1.1338 -0.3767
 5150SOL    HW226913   0.045   0.303   7.057  1.4150  1.8579 -1.3001
 5151SOL     OW26914   3.246   2.888   6.376  0.1140 -0.0667  0.6423
 5151SOL    HW126915   3.185   2.824   6.339  2.5478 -2.5245  0.8925
 5151SOL    HW226916   3.256   2.953   6.306  1.2252 -2.1663 -1.1584
 5152SOL     OW26917   1.068   2.105   6.997  0.0102  0.6162 -0.2868
 5152SOL    HW126918   1.156   2.137   6.974  0.0113  1.2346  0.5543
 5152SOL    HW226919   1.013   2.182   6.981 -0.0765  0.2491 -1.7028
 5153SOL     OW26920   3.725   1.450   8.227 -0.0859 -0.7860  0.4183
 5153SOL    HW126921   3.815   1.464   8.257  0.2699  0.7974 -1.3446
 5153SOL    HW226922   3.707   1.531   8.180  1.5081 -0.4398  0.3941
 5154SOL     OW26923   4.413   0.274   7.320  0.5127 -0.0874 -0.1588
 5154SOL    HW126924   4.489   0.227   7.353  0.4745 -1.0416 -1.4511
 5154SOL    HW226925   4.450   0.346   7.270  1.2415  1.1784  2.1719
 5155SOL     OW26926   1.753   3.392   6.348 -0.3808  0.5650 -0.6927
 5155SOL    HW126927   1.763   3.327   6.277 -0.8553 -0.5758  0.2843
 5155SOL    HW226928   1.660   3.390   6.367  0.1953 -0.6714  1.9814
 5156SOL     OW26929   3.998   0.640  17.612 -0.2446 -0.2684  0.0262
 5156SOL    HW126930   4.029   0.593  17.534 -1.5608 -0.3412 -0.4549
 5156SOL    HW226931   3.904   0.638  17.592 -0.3138 -0.4276  0.3579
 5157SOL     OW26932   3.788   1.627   4.001 -0.1773  0.2212 -0.7107
 5157SOL    HW126933   3.865   1.682   4.014  0.6465 -1.8162  2.8977
 5157SOL    HW226934   3.810   1.553   4.057 -2.7827  0.1842  0.2686
 5158SOL     OW26935   4.598   2.263   3.838 -0.7355  0.0548 -0.4492
 5158SOL    HW126936   4.611   2.292   3.747  0.1509  1.9712  0.2923
 5158SOL    HW226937   4.502   2.256   3.844 -0.6203 -0.1847  0.9156
 5159SOL     OW26938   0.632   3.035  13.859 -0.0644 -0.5288  0.1352
 5159SOL    HW126939   0.684   2.985  13.922 -0.4293 -1.1813 -0.0708
 5159SOL    HW226940   0.700   3.074  13.804 -0.7371 -0.6090 -0.7607
 5160SOL     OW26941   1.966   1.088  17.152  0.0244  0.0002 -0.6394
 5160SOL    HW126942   1.931   1.176  17.140  0.9252  0.1923 -1.9109
 5160SOL    HW226943   1.933   1.041  17.075 -0.8043 -1.0962  0.3755
 5161SOL     OW26944   0.771   0.410   2.179  0.6888 -0.1501 -0.3730
 5161SOL    HW126945   0.749   0.329   2.133  0.2500  1.0747 -2.3110
 5161SOL    HW226946   0.711   0.468   2.133 -0.4295 -1.3059 -0.3947
 5162SOL     OW26947   1.144   1.105   4.734  0.2014 -0.1666  0.0962
 5162SOL    HW126948   1.199   1.183   4.726 -0.0182  0.1536  1.8034
 5162SOL    HW226949   1.183   1.056   4.806 -1.6182  0.2705  1.3607
 5163SOL     OW26950   0.552   3.391   0.676 -0.5240  0.0451 -0.0300
 5163SOL    HW126951   0.624   3.451   0.692 -0.3382  0.0574 -0.9151
 5163SOL    HW226952   0.613   3.324   0.648  0.5662  0.1758  2.0472
 5164SOL     OW26953   2.292   4.302  17.575  0.1928 -0.1114 -0.5523
 5164SOL    HW126954   2.358   4.234  17.587  0.1197  0.0470  0.7685
 5164SOL    HW226955   2.258   4.278  17.489  0.9826 -0.4614 -0.7656
 5165SOL     OW26956   4.089   2.032  14.639  0.3994 -0.4185 -0.2131
 5165SOL    HW126957   4.168   2.084  14.621  0.7415 -1.0107 -0.3932
 5165SOL    HW226958   4.032   2.053  14.565  1.6210 -0.7587 -1.2623
 5166SOL     OW26959   0.953   4.322   5.289 -0.2231  0.4724 -0.0486
 5166SOL    HW126960   0.980   4.352   5.202  1.0493  1.2924  0.6146
 5166SOL    HW226961   0.979   4.230   5.283 -2.5853 -0.2132  0.4365
 5167SOL     OW26962   1.457   0.012   3.830  0.3610  0.1881  0.3894
 5167SOL    HW126963   1.546   4.705   3.819  0.2159 -0.2529  0.4499
 5167SOL    HW226964   1.441   0.026   3.924 -0.3537 -2.0203  0.6036
 5168SOL     OW26965   3.230   4.257  16.989 -0.6033  0.0666  0.4575
 5168SOL    HW126966   3.203   4.291  16.904  1.3730  1.1502  0.2447
 5168SOL    HW226967   3.293   4.325  17.015 -2.1770  1.0513  1.6493
 5169SOL     OW26968   0.071   2.497   9.736 -0.0477  0.2768 -0.0258
 5169SOL    HW126969   0.143   2.444   9.770 -0.3521 -0.4268 -0.4889
 5169SOL    HW226970   0.112   2.583   9.740 -1.9338  1.1242  0.9467
 5170SOL     OW26971   2.780   2.125   2.520 -0.2811 -0.1576  0.1069
 5170SOL    HW126972   2.717   2.175   2.468  0.1719 -0.6316 -0.9142
 5170SOL    HW226973   2.736   2.041   2.529  0.0959 -0.1802  1.6380
 5171SOL     OW26974   0.050   0.765   2.353  0.2874 -0.1477 -0.8698
 5171SOL    HW126975   0.128   0.717   2.326 -1.7245 -2.3491 -2.7056
 5171SOL    HW226976   4.719   0.765   2.275 -1.7829  0.8755  0.5699
 5172SOL     OW26977   2.362   4.706   6.081 -0.5113 -0.2345  0.2312
 5172SOL    HW126978   2.436   0.019   6.129  2.6831 -0.1481 -4.7273
 5172SOL    HW226979   2.394   4.684   5.993 -1.4304 -1.0575  0.1036
 5173SOL     OW26980   1.128   0.268   2.772  0.3874 -0.1996 -1.0255
 5173SOL    HW126981   1.050   0.231   2.812  0.4504  0.9990  0.1959
 5173SOL    HW226982   1.083   0.312   2.700 -1.2815  0.9323  0.7115
 5174SOL     OW26983   4.531   1.871   6.488  0.1693  0.1093  0.2062
 5174SOL    HW126984   4.558   1.887   6.579  2.5040  3.3956 -1.0595
 5174SOL    HW226985   4.437   1.889   6.495 -0.3920 -2.9837  0.5989
 5175SOL     OW26986   4.412   4.402   6.039  0.4839 -0.0833  1.1070
 5175SOL    HW126987   4.355   4.371   6.110 -0.1994  0.6941  0.8998
 5175SOL    HW226988   4.466   4.324   6.027 -1.4425 -1.3809  0.7403
 5176SOL     OW26989   2.733   2.240   6.855  0.0795 -0.1414  0.2951
 5176SOL    HW126990   2.676   2.306   6.895  1.7151  0.0296  2.3629
 5176SOL    HW226991   2.819   2.277   6.873  1.0810 -1.5228 -1.8032
 5177SOL     OW26992   0.861   1.027  15.915  0.4048  0.2082  0.5034
 5177SOL    HW126993   0.912   1.050  15.993 -1.3876  0.1086  1.6910
 5177SOL    HW226994   0.907   0.963  15.859  0.5770  0.0441  0.8329
 5178SOL     OW26995   1.328   1.382   5.309 -0.2962 -0.0405  1.0966
 5178SOL    HW126996   1.389   1.315   5.339 -0.7103 -0.9004  0.0267
 5178SOL    HW226997   1.248   1.354   5.352  1.0095 -2.3857  1.9937
 5179SOL     OW26998   3.450   0.257  12.402  0.1768 -0.0556 -0.0545
 5179SOL    HW126999   3.454   0.221  12.313 -3.1432 -1.7189  0.4735
 5179SOL    HW227000   3.513   0.194  12.439  1.5593  1.1957 -0.2628
 5180SOL     OW27001   3.540   2.098   0.055  0.6174  0.0851  0.2396
 5180SOL    HW127002   3.515   2.085  17.660  1.4733 -0.2196  0.0520
 5180SOL    HW227003   3.632   2.126   0.054  0.3401  1.0093  0.6642
 5181SOL     OW27004   2.070   4.034   7.228 -0.3945  0.2224 -0.4162
 5181SOL    HW127005   1.994   4.023   7.285  0.2915  1.8535  0.7929
 5181SOL    HW227006   2.124   4.057   7.303 -0.4849 -0.1694 -0.2299
 5182SOL     OW27007   2.387   2.233   1.995 -0.5725 -0.1503  0.1831
 5182SOL    HW127008   2.317   2.277   1.945  1.3400  2.6570 -0.0147
 5182SOL    HW227009   2.363   2.228   2.087  3.3180  1.8179  1.2601
 5183SOL     OW27010   1.800   2.616   6.636 -0.6084 -0.1961  0.1002
 5183SOL    HW127011   1.891   2.634   6.662 -0.3047 -0.7294 -0.5947
 5183SOL    HW227012   1.782   2.543   6.696 -0.0747 -0.7502 -0.4116
 5184SOL     OW27013   1.363   4.115   6.184  0.2545  0.3820 -0.0571
 5184SOL    HW127014   1.396   4.030   6.212 -2.3703 -0.4192  0.6377
 5184SOL    HW227015   1.393   4.168   6.258 -0.5500  1.2280 -0.3248
 5185SOL     OW27016   3.481   0.108   8.806  0.2900 -0.6462  0.4855
 5185SOL    HW127017   3.453   0.019   8.787 -0.8404 -0.0776 -0.5422
 5185SOL    HW227018   3.571   0.104   8.774  1.2302  0.8564  2.9212
 5186SOL     OW27019   0.771   0.789   5.185 -0.8750  0.1326  0.1931
 5186SOL    HW127020   0.782   0.792   5.280 -2.2022  0.4548  0.3431
 5186SOL    HW227021   0.752   0.695   5.172 -0.2434  0.5013 -3.3661
 5187SOL     OW27022   0.155   3.924  11.458  0.3928  0.4954 -0.1704
 5187SOL    HW127023   0.231   3.883  11.498  0.4552  1.4877  0.7281
 5187SOL    HW227024   0.180   3.957  11.372 -2.6446  3.4164  0.0426
 5188SOL     OW27025   3.804   4.720   0.659  0.3015  0.0218  0.3358
 5188SOL    HW127026   3.750   4.689   0.586  0.7911 -0.1682  0.0568
 5188SOL    HW227027   3.737   4.723   0.728  0.4085 -1.0865  0.4998
 5189SOL     OW27028   0.062   1.928   2.704 -0.3302  0.5303 -0.4006
 5189SOL    HW127029   0.125   1.869   2.746 -3.0046 -2.5289 -0.7077
 5189SOL    HW227030   0.015   1.970   2.776 -0.7624 -2.3512  0.9839
 5190SOL     OW27031   1.476   4.401  10.358  0.0436  0.0661 -0.0316
 5190SOL    HW127032   1.454   4.410  10.451  0.9548 -0.7232  0.2611
 5190SOL    HW227033   1.385   4.387  10.333  0.6510 -2.5763 -0.7812
 5191SOL     OW27034   2.214   1.061   3.347 -0.2957  0.3430  0.0088
 5191SOL    HW127035   2.199   0.984   3.401 -0.7831 -0.1075 -0.7541
 5191SOL    HW227036   2.142   1.064   3.283 -1.1955 -2.1518  0.9337
 5192SOL     OW27037   3.594   3.002   5.423  0.3172  0.0685  0.5467
 5192SOL    HW127038   3.609   2.912   5.454  3.4784  0.2823 -0.3202
 5192SOL    HW227039   3.664   3.007   5.358 -0.0772  1.8942  0.2800
 5193SOL     OW27040   3.439   2.805  12.125 -0.0427  0.1193 -0.7312
 5193SOL    HW127041   3.512   2.748  12.149  0.4889  1.1768  0.1641
 5193SOL    HW227042   3.447   2.876  12.189 -0.4547  1.1256 -1.7971
 5194SOL     OW27043   0.002   0.410  11.645 -0.8203 -0.3517  0.2780
 5194SOL    HW127044   0.054   0.353  11.702  0.0703 -0.2060 -0.3926
 5194SOL    HW227045   4.659   0.354  11.605 -1.7620  0.3667  0.8157
 5195SOL     OW27046   0.808   3.991  13.003  0.0268 -0.5239  0.0801
 5195SOL    HW127047   0.836   3.984  13.094  1.8128 -0.6549 -0.4881
 5195SOL    HW227048   0.890   4.013  12.958  0.1451  1.1729  1.1458
 5196SOL     OW27049   3.374   3.275   4.098 -0.0999  0.0990  0.2639
 5196SOL    HW127050   3.361   3.186   4.130  0.3195  0.1315  0.5234
 5196SOL    HW227051   3.345   3.317   4.178 -1.4453  0.2085 -0.2868
 5197SOL     OW27052   2.010   3.685   5.274  0.3544  0.1122  0.9959
 5197SOL    HW127053   1.985   3.774   5.299  2.3792  1.2166 -0.8663
 5197SOL    HW227054   2.100   3.680   5.240  0.8103 -0.2870  2.2755
 5198SOL     OW27055   0.069   0.618   3.854  0.4521  0.1657 -0.3967
 5198SOL    HW127056   4.714   0.595   3.904  0.5595 -1.5740 -1.0331
 5198SOL    HW227057   0.126   0.637   3.929 -0.5980  2.1334 -0.0867
 5199SOL     OW27058   1.835   2.319   3.709 -0.2340 -0.4123  0.4872
 5199SOL    HW127059   1.874   2.319   3.622  0.2411 -0.5398  0.6993
 5199SOL    HW227060   1.805   2.228   3.707 -0.1250 -0.3569 -2.8216
 5200SOL     OW27061   3.964   2.257   2.914  0.2265  0.0958  0.0408
 5200SOL    HW127062   3.985   2.350   2.918 -0.4616  0.2549 -0.0939
 5200SOL    HW227063   3.917   2.238   2.995  0.8988 -0.1400  0.3739
 5201SOL     OW27064   0.684   1.991   6.511 -0.3416 -0.3242  0.9265
 5201SOL    HW127065   0.650   1.901   6.512 -2.5489  0.5057 -0.4867
 5201SOL    HW227066   0.776   1.971   6.492 -0.7790  0.4284 -1.9834
 5202SOL     OW27067   4.642   0.061  16.980 -0.0324  0.0411  0.1202
 5202SOL    HW127068   4.577   0.018  16.924 -0.9215  0.0736  1.1236
 5202SOL    HW227069   4.706   4.715  16.995  0.3582  0.0924 -1.2652
 5203SOL     OW27070   2.314   2.604   7.346 -0.8326  0.4103  0.5234
 5203SOL    HW127071   2.320   2.656   7.266  1.4236 -1.6086 -0.6173
 5203SOL    HW227072   2.353   2.522   7.314  1.1461  1.0738  1.2009
 5204SOL     OW27073   3.012   0.233   7.712 -0.5866  0.2652  0.6831
 5204SOL    HW127074   3.056   0.276   7.639 -2.3661  2.4695  0.8972
 5204SOL    HW227075   2.960   0.306   7.746 -0.3046  0.2988  1.0377
 5205SOL     OW27076   3.759   0.146  16.597  0.0918 -0.3729 -0.3240
 5205SOL    HW127077   3.679   0.193  16.618  0.3967  0.5263 -1.2171
 5205SOL    HW227078   3.774   0.179  16.508  0.0308 -0.3274 -0.3173
 5206SOL     OW27079   2.573   2.756   3.266  0.1021  0.2450  0.0311
 5206SOL    HW127080   2.517   2.733   3.192  0.8744  0.7489 -0.7036
 5206SOL    HW227081   2.500   2.799   3.311  0.3395 -1.3808  1.9912
 5207SOL     OW27082   1.781   3.386  10.324  0.2575  0.1128  0.1463
 5207SOL    HW127083   1.719   3.450  10.358 -1.3508 -1.2350 -0.2424
 5207SOL    HW227084   1.830   3.375  10.405 -0.4935  2.7185  0.9539
 5208SOL     OW27085   2.144   4.083   8.947  0.0009 -0.5280  0.1373
 5208SOL    HW127086   2.184   4.032   9.017  2.3880 -1.6157 -2.0208
 5208SOL    HW227087   2.122   4.012   8.886  1.0196 -1.6577  1.0978
 5209SOL     OW27088   1.752   1.381  12.759 -0.4799 -0.6009  0.3261
 5209SOL    HW127089   1.742   1.392  12.854  2.1634  1.1745  0.3893
 5209SOL    HW227090   1.799   1.456  12.723 -0.1334 -0.3863  1.2144
 5210SOL     OW27091   4.618   0.944  14.988 -0.5139  0.0488  0.3248
 5210SOL    HW127092   4.704   0.939  14.946 -1.3592  1.2220 -1.5331
 5210SOL    HW227093   4.556   0.962  14.916 -1.0832  0.6316  0.9650
 5211SOL     OW27094   4.327   1.633   4.806  0.6812  0.0023 -0.3653
 5211SOL    HW127095   4.327   1.725   4.830 -0.1231 -0.0103 -0.3203
 5211SOL    HW227096   4.387   1.637   4.732  0.6224 -2.1112 -0.5306
 5212SOL     OW27097   2.059   4.516  10.947 -0.2084  0.1957  0.7071
 5212SOL    HW127098   2.056   4.458  11.023  1.5841  1.0880  1.4373
 5212SOL    HW227099   2.085   4.461  10.873  0.9991  0.0885  1.2180
 5213SOL     OW27100   1.569   2.539   4.413 -0.3360 -0.5548 -0.2270
 5213SOL    HW127101   1.481   2.568   4.438 -0.0531  1.0423 -1.1054
 5213SOL    HW227102   1.565   2.516   4.321  3.0437 -0.2053 -0.4763
 5214SOL     OW27103   1.019   4.290  13.532  0.1539  0.5225 -0.5242
 5214SOL    HW127104   0.943   4.339  13.501  0.8669  1.3080 -1.0125
 5214SOL    HW227105   0.975   4.212  13.566  0.1641  0.0200 -1.6852
 5215SOL     OW27106   2.968   1.175   9.471 -0.1612 -0.0861 -0.0301
 5215SOL    HW127107   3.046   1.230   9.471 -0.8395  0.8858 -1.1820
 5215SOL    HW227108   2.953   1.172   9.565  1.2174 -0.1365  0.1781
 5216SOL     OW27109   3.068   0.768   2.984 -0.2747 -0.8095  1.1552
 5216SOL    HW127110   3.152   0.803   2.953 -1.3299  2.0212  1.5773
 5216SOL    HW227111   3.042   0.830   3.051 -0.6430 -1.6870  1.8133
 5217SOL     OW27112   1.370   0.274   4.274 -0.8044 -0.4245 -0.2894
 5217SOL    HW127113   1.311   0.349   4.263 -0.8621 -0.7616 -2.1817
 5217SOL    HW227114   1.449   0.315   4.308  0.0119 -1.6652 -0.6938
 5218SOL     OW27115   4.466   3.678   2.615 -0.1831 -0.0114 -0.7346
 5218SOL    HW127116   4.531   3.608   2.609 -1.4859 -1.1282 -2.1620
 5218SOL    HW227117   4.507   3.759   2.587  0.7173 -0.6856 -1.3637
 5219SOL     OW27118   1.986   3.206  10.402 -0.4222  0.2417 -0.3928
 5219SOL    HW127119   1.989   3.114  10.376 -0.4379  0.5577 -1.5039
 5219SOL    HW227120   1.992   3.203  10.498  2.1050  0.5757 -0.5299
 5220SOL     OW27121   2.731   2.766  15.227 -0.0365  0.1949  0.4344
 5220SOL    HW127122   2.692   2.794  15.310  0.0776 -1.6756  1.1301
 5220SOL    HW227123   2.793   2.839  15.222 -0.1653  0.2644 -0.2139
 5221SOL     OW27124   1.234   2.982  17.198 -0.5723 -0.5007  0.0249
 5221SOL    HW127125   1.149   3.005  17.160  0.1909 -1.7596 -2.4042
 5221SOL    HW227126   1.248   2.889  17.183 -1.2302 -0.6147  0.1198
 5222SOL     OW27127   4.659   1.370  11.173 -0.1775 -0.3207  0.2539
 5222SOL    HW127128   0.017   1.377  11.222 -0.6785  0.3438  0.9870
 5222SOL    HW227129   4.620   1.294  11.216  0.7691  0.0513  1.7663
 5223SOL     OW27130   3.954   3.639   3.352 -0.0518  0.0219 -0.0281
 5223SOL    HW127131   3.882   3.671   3.298  0.4146 -0.1135 -0.7340
 5223SOL    HW227132   4.009   3.717   3.360  0.3146 -0.4084  1.5908
 5224SOL     OW27133   2.980   1.332   7.426  0.5489  0.4214  0.7411
 5224SOL    HW127134   2.989   1.299   7.516  0.3413 -2.5866 -0.3487
 5224SOL    HW227135   2.970   1.252   7.374 -1.0066  1.2718 -0.2501
 5225SOL     OW27136   0.028   1.626   0.328 -0.0947 -0.3079 -0.3412
 5225SOL    HW127137   0.027   1.717   0.359 -0.1450 -0.4211 -0.0058
 5225SOL    HW227138   0.088   1.607   0.400  0.5510 -2.4086 -1.4409
 5226SOL     OW27139   3.570   0.962   5.113 -0.2058  0.3547 -0.0264
 5226SOL    HW127140   3.661   0.935   5.121 -0.6434 -0.5328  2.1483
 5226SOL    HW227141   3.565   0.985   5.021  2.4661 -1.7759 -0.6905
 5227SOL     OW27142   2.442   3.908   7.423  0.5330 -0.1143  0.0531
 5227SOL    HW127143   2.439   3.898   7.518 -0.5587 -0.6287 -0.0342
 5227SOL    HW227144   2.370   3.972   7.417  0.3338 -0.2227  1.3458
 5228SOL     OW27145   0.934   3.610  13.805  0.2260 -0.2781 -0.4218
 5228SOL    HW127146   0.960   3.555  13.879 -0.6114 -0.7968 -0.5141
 5228SOL    HW227147   0.867   3.553  13.769 -0.9289 -0.0440  1.3616
 5229SOL     OW27148   0.931   0.941   8.029  0.0985  0.6437  0.0966
 5229SOL    HW127149   0.950   0.987   7.947 -0.7525  1.2025  0.2107
 5229SOL    HW227150   0.845   0.969   8.060  0.4767  1.0673  0.7791
 5230SOL     OW27151   0.570   1.091   9.243  0.4235 -0.4024 -0.8355
 5230SOL    HW127152   0.503   1.024   9.233 -0.2100  0.1992 -0.5948
 5230SOL    HW227153   0.648   1.046   9.211 -1.0111 -1.3555 -3.0190
 5231SOL     OW27154   2.812   4.448   5.801 -0.0636  0.2447  0.2671
 5231SOL    HW127155   2.865   4.400   5.738  0.6953  1.8118 -0.2841
 5231SOL    HW227156   2.861   4.416   5.877  0.1848  0.2272  0.0991
 5232SOL     OW27157   0.758   3.093   7.753  0.1544  0.4888  0.4680
 5232SOL    HW127158   0.846   3.060   7.770  0.5400  1.6532  0.6985
 5232SOL    HW227159   0.767   3.187   7.742  0.8997  0.0190 -2.9701
 5233SOL     OW27160   1.203   0.713   4.116 -0.1934 -0.1817  0.1976
 5233SOL    HW127161   1.238   0.665   4.190  1.0738 -1.1843 -1.0489
 5233SOL    HW227162   1.156   0.645   4.067 -1.1223 -2.9876  5.0067
 5234SOL     OW27163   3.276   2.091   1.320  0.3337  0.3677  0.3001
 5234SOL    HW127164   3.204   2.038   1.356 -0.8852  0.2283 -2.3096
 5234SOL    HW227165   3.237   2.170   1.282  0.4223  0.7182  0.9414
 5235SOL     OW27166   1.230   0.823   1.292  0.2361  0.0632  0.5189
 5235SOL    HW127167   1.313   0.809   1.246 -0.8688  0.4196 -1.5852
 5235SOL    HW227168   1.195   0.902   1.252  1.1717  0.5403  0.6479
 5236SOL     OW27169   1.547   2.930  13.077 -0.4312  0.3206 -0.4766
 5236SOL    HW127170   1.498   2.876  13.015  0.3427 -0.9715  0.0351
 5236SOL    HW227171   1.586   2.994  13.018 -0.6485 -0.4767 -1.4932
 5237SOL     OW27172   3.072   0.075   3.723  0.1505 -0.2272  0.2894
 5237SOL    HW127173   2.978   0.060   3.722  0.5066 -2.3313 -0.6375
 5237SOL    HW227174   3.081   0.126   3.804  4.3655 -0.8345  0.2292
 5238SOL     OW27175   4.497   1.054   7.459  0.4604 -0.1287 -0.4163
 5238SOL    HW127176   4.487   1.149   7.448 -0.3683 -0.1095  0.5369
 5238SOL    HW227177   4.590   1.041   7.439  0.5646 -3.1522  2.1428
 5239SOL     OW27178   4.235   0.456   9.231  0.2910 -0.2693  0.2708
 5239SOL    HW127179   4.308   0.410   9.273  0.2648  0.3329  0.9801
 5239SOL    HW227180   4.175   0.384   9.209 -0.2964  0.3088 -0.0289
 5240SOL     OW27181   1.936   0.844  17.304  0.0528  0.1062  0.3476
 5240SOL    HW127182   1.962   0.935  17.294  0.3365  0.1137  1.1372
 5240SOL    HW227183   2.010   0.798  17.264  1.7764  1.2368  2.2566
 5241SOL     OW27184   0.130   3.239   7.349  0.3469  0.5334 -0.0569
 5241SOL    HW127185   0.214   3.231   7.395  0.4292  0.5896 -0.1984
 5241SOL    HW227186   0.155   3.228   7.257 -0.8406 -0.4034 -0.2664
 5242SOL     OW27187   0.333   0.377   8.134  0.4803  0.2344  0.4477
 5242SOL    HW127188   0.285   0.297   8.111  1.2678 -0.5466  1.5574
 5242SOL    HW227189   0.375   0.345   8.213 -1.3573  3.3357  2.6766
 5243SOL     OW27190   0.065   0.934  14.062 -0.0631 -0.2551  0.8227
 5243SOL    HW127191   0.115   1.015  14.068  3.2895 -2.2431 -0.3634
 5243SOL    HW227192   0.062   0.920  14.156  3.2570  0.4167  1.0323
 5244SOL     OW27193   1.523   1.876  15.159 -0.3533  0.6477  0.0690
 5244SOL    HW127194   1.611   1.842  15.144  0.1105  1.6301  0.5334
 5244SOL    HW227195   1.475   1.810  15.109 -1.5136  2.2375 -0.9147
 5245SOL     OW27196   4.429   2.926   9.054 -0.1287 -0.2531 -0.3384
 5245SOL    HW127197   4.411   3.017   9.030 -1.9740  0.0859  2.4159
 5245SOL    HW227198   4.517   2.928   9.092 -0.1029  0.1436 -0.4235
 5246SOL     OW27199   1.142   0.142   7.475 -0.6072  0.2064 -0.3333
 5246SOL    HW127200   1.086   0.069   7.447  0.1787 -0.4165 -0.2727
 5246SOL    HW227201   1.119   0.200   7.402  2.2746  2.5569  0.6314
 5247SOL     OW27202   0.521   3.648   2.645 -0.7661  0.0864 -0.1239
 5247SOL    HW127203   0.546   3.605   2.563  0.1739  0.3381  0.0276
 5247SOL    HW227204   0.489   3.580   2.704  0.4250  0.6161  1.1374
 5248SOL     OW27205   4.476   2.988   6.995 -0.3387  0.0929  0.7799
 5248SOL    HW127206   4.484   3.063   6.936  0.2700 -1.2075 -0.7776
 5248SOL    HW227207   4.428   3.032   7.065  0.2583  0.5008  0.9355
 5249SOL     OW27208   1.670   0.339   7.077  0.8834  0.1329 -0.0755
 5249SOL    HW127209   1.727   0.265   7.093  1.6032  1.3930  3.0765
 5249SOL    HW227210   1.712   0.390   7.007  0.9924  1.1120  0.7013
 5250SOL     OW27211   0.736   3.777   2.764  0.3630 -0.0366  0.1609
 5250SOL    HW127212   0.795   3.703   2.747  0.4535  0.2679 -0.8345
 5250SOL    HW227213   0.653   3.737   2.741  0.8596 -0.9361 -0.0787
 5251SOL     OW27214   2.510   0.346   8.170 -0.3162 -0.0988  0.1448
 5251SOL    HW127215   2.525   0.306   8.255  0.6187  1.7041  0.8167
 5251SOL    HW227216   2.434   0.301   8.134 -0.2579  0.6800 -0.9763
 5252SOL     OW27217   1.804   4.442   1.449 -0.0232 -0.3057  0.3318
 5252SOL    HW127218   1.735   4.489   1.403  0.3516 -0.5877 -0.5174
 5252SOL    HW227219   1.860   4.517   1.467  0.1081 -0.2178 -0.4481
 5253SOL     OW27220   4.637   0.167   3.881  0.7235  0.0287  0.1436
 5253SOL    HW127221   4.575   0.218   3.933  0.5364  0.7448 -0.7961
 5253SOL    HW227222   4.709   0.228   3.864  2.8463 -2.2690  0.8322
 5254SOL     OW27223   4.616   1.849   0.203 -0.5538 -0.0380  0.2325
 5254SOL    HW127224   4.666   1.912   0.254  1.8165 -0.8561 -1.0644
 5254SOL    HW227225   4.693   1.805   0.166  1.0948  2.2811  0.8969
 5255SOL     OW27226   2.040   2.009   5.968 -0.6934  0.3309 -0.1470
 5255SOL    HW127227   2.098   1.942   6.005 -1.0607 -1.2547 -2.4407
 5255SOL    HW227228   2.098   2.048   5.902  0.3102 -0.1556  0.4444
 5256SOL     OW27229   1.248   0.575   9.201 -0.2759 -0.2490 -0.4039
 5256SOL    HW127230   1.208   0.506   9.254 -0.5982  1.6814  1.8956
 5256SOL    HW227231   1.293   0.623   9.271  2.0019 -0.0214 -2.0318
 5257SOL     OW27232   3.088   1.512   7.040 -0.0504  0.0509  0.3776
 5257SOL    HW127233   3.022   1.542   7.104  0.3065  2.5754 -0.4365
 5257SOL    HW227234   3.073   1.419   7.023  2.2487  0.1726 -2.1993
 5258SOL     OW27235   1.326   0.196   8.573  0.4506  0.3733  0.3766
 5258SOL    HW127236   1.279   0.147   8.640  3.2189 -2.5646  0.1914
 5258SOL    HW227237   1.254   0.212   8.513  1.6811 -0.1031 -1.2104
 5259SOL     OW27238   4.128   1.417   4.772 -0.5939 -0.0270  0.1101
 5259SOL    HW127239   4.201   1.472   4.799 -0.7364  0.0780  0.2814
 5259SOL    HW227240   4.067   1.487   4.745 -0.1967  0.9073  1.6571
 5260SOL     OW27241   3.454   4.642   3.295 -0.0831  0.2167  0.1900
 5260SOL    HW127242   3.469   4.646   3.201 -2.5048  0.6415 -0.1627
 5260SOL    HW227243   3.371   4.596   3.304 -0.0813  0.1450 -0.1762
 5261SOL     OW27244   3.694   1.173   8.203  0.3589 -0.1378  0.2829
 5261SOL    HW127245   3.692   1.268   8.187  1.0047 -0.2032 -0.1727
 5261SOL    HW227246   3.783   1.162   8.235  0.1787 -0.6892  0.5932
 5262SOL     OW27247   1.517   0.209   2.370 -0.3712  0.3827  0.3382
 5262SOL    HW127248   1.438   0.196   2.422 -0.4329 -0.6013  0.0154
 5262SOL    HW227249   1.562   0.124   2.370 -0.0791  0.5422 -0.7222
 5263SOL     OW27250   2.073   3.142   1.961  0.4816  0.3274 -0.1822
 5263SOL    HW127251   2.136   3.176   1.898  1.5854  1.1993  1.4154
 5263SOL    HW227252   2.085   3.205   2.032 -2.8669 -0.7123  1.3268
 5264SOL     OW27253   0.639   0.755   4.480 -0.1909  0.8368 -0.1473
 5264SOL    HW127254   0.671   0.816   4.413  0.0473 -0.3844 -1.1402
 5264SOL    HW227255   0.702   0.787   4.544 -1.4701  1.5993  0.7297
 5265SOL     OW27256   0.533   2.307   2.166  0.0181  0.7743 -0.2426
 5265SOL    HW127257   0.545   2.359   2.245  1.4277  0.2681 -0.1377
 5265SOL    HW227258   0.459   2.351   2.123 -0.6484 -1.7248 -1.6847
 5266SOL     OW27259   0.527   3.129   8.720 -0.0613 -0.2993  0.1061
 5266SOL    HW127260   0.602   3.076   8.747  0.1824  0.0189  0.0635
 5266SOL    HW227261   0.483   3.065   8.665  0.4428 -0.8684  0.3676
 5267SOL     OW27262   0.168   0.539  15.893 -0.2834 -0.0205  0.0548
 5267SOL    HW127263   0.241   0.482  15.867 -2.8294 -2.2100 -2.2735
 5267SOL    HW227264   0.121   0.483  15.955  1.7148  0.6618  2.2238
 5268SOL     OW27265   1.561   1.387   2.052  0.0833  0.3405 -0.0109
 5268SOL    HW127266   1.556   1.481   2.037  2.1890  0.4402 -0.0500
 5268SOL    HW227267   1.656   1.386   2.059  0.1487  0.3056 -0.9411
 5269SOL     OW27268   3.335   2.215   2.013  0.3090  0.3356 -0.1448
 5269SOL    HW127269   3.250   2.178   2.038 -0.4660  1.6103 -0.9350
 5269SOL    HW227270   3.378   2.139   1.974  1.8530  1.2499 -0.2152
 5270SOL     OW27271   0.617   4.700   8.185 -0.4696 -0.3198  0.4761
 5270SOL    HW127272   0.614   0.069   8.207 -0.7897 -0.2933  0.3160
 5270SOL    HW227273   0.551   4.668   8.245 -0.7119 -1.6129 -0.4672
 5271SOL     OW27274   0.574   3.889   1.955  0.2318 -0.5601 -0.4843
 5271SOL    HW127275   0.523   3.808   1.965 -0.8808  0.2411  0.3232
 5271SOL    HW227276   0.550   3.906   1.864 -0.2238  1.3920 -0.0037
 5272SOL     OW27277   2.029   1.573   6.065 -0.1121  0.2182 -0.2018
 5272SOL    HW127278   1.956   1.635   6.067  1.1465  1.7541 -1.3884
 5272SOL    HW227279   2.084   1.631   6.013 -0.2382 -0.3978 -1.0267
 5273SOL     OW27280   1.499   0.703  16.177  0.0565  0.6382  0.0999
 5273SOL    HW127281   1.564   0.671  16.239  0.4123 -0.2242 -0.7081
 5273SOL    HW227282   1.414   0.666  16.200 -0.3383  1.0924 -0.6440
 5274SOL     OW27283   2.355   4.226  16.990  0.8536  0.7592  0.0931
 5274SOL    HW127284   2.413   4.214  17.065  0.0915  1.6135  0.8163
 5274SOL    HW227285   2.289   4.292  17.014 -0.1648 -0.3559  0.3459
 5275SOL     OW27286   3.637   3.380   2.115 -0.0802  0.1229  0.4665
 5275SOL    HW127287   3.611   3.386   2.023 -1.9291 -0.2986  0.9765
 5275SOL    HW227288   3.683   3.462   2.134  0.1737  0.1989 -0.4652
 5276SOL     OW27289   0.740   4.601   1.859 -0.1881 -0.2370  0.8520
 5276SOL    HW127290   0.823   4.596   1.811 -1.3321  0.6048 -1.2254
 5276SOL    HW227291   0.699   4.673   1.810  0.2813 -0.0005  0.8065
 5277SOL     OW27292   0.786   1.804   5.093 -0.6683  0.3845  0.5272
 5277SOL    HW127293   0.868   1.761   5.116 -0.1451 -1.7314 -5.2216
 5277SOL    HW227294   0.801   1.800   4.998 -0.3253 -1.5901  0.6692
 5278SOL     OW27295   4.650   4.025  10.213 -0.1092  0.1773 -0.3225
 5278SOL    HW127296   4.588   4.014  10.141  1.1341 -0.3237 -1.3187
 5278SOL    HW227297   4.712   3.955  10.190 -0.0990  0.8516 -2.3305
 5279SOL     OW27298   0.797   0.923   7.701 -0.6732 -0.0794  0.1473
 5279SOL    HW127299   0.735   0.857   7.671 -0.3632  1.0464 -2.9338
 5279SOL    HW227300   0.738   0.990   7.738  0.2592  0.3554  0.8470
 5280SOL     OW27301   2.120   1.476  11.169 -1.0793 -0.2516  0.2147
 5280SOL    HW127302   2.100   1.560  11.128  1.4002  0.8353  1.2529
 5280SOL    HW227303   2.126   1.417  11.094  0.5321 -1.0057  0.9472
 5281SOL     OW27304   2.411   0.359   1.333 -0.7553  0.1488 -0.0055
 5281SOL    HW127305   2.376   0.361   1.244 -1.3561 -0.7412  0.2039
 5281SOL    HW227306   2.339   0.407   1.374 -1.1517 -0.7158  0.3058
 5282SOL     OW27307   0.119   1.690   6.789 -0.0121  0.2126  0.0272
 5282SOL    HW127308   0.157   1.713   6.705 -2.8862 -1.4173 -1.7484
 5282SOL    HW227309   0.036   1.649   6.763 -0.9146  1.4812  0.9263
 5283SOL     OW27310   3.788   4.296   1.265 -0.2970  0.4226  0.3531
 5283SOL    HW127311   3.822   4.209   1.242 -1.5517  0.1454 -0.4497
 5283SOL    HW227312   3.725   4.309   1.195  0.9076 -0.9631 -0.9773
 5284SOL     OW27313   0.723   0.397   5.969 -0.2115 -0.3213 -0.6274
 5284SOL    HW127314   0.654   0.462   5.958 -0.7069 -1.0922 -2.1692
 5284SOL    HW227315   0.688   0.344   5.897  0.2330  1.6147 -2.2847
 5285SOL     OW27316   2.919   1.495   3.917 -0.0981  0.6708 -0.6006
 5285SOL    HW127317   2.902   1.589   3.909 -0.3037  0.7147  0.3637
 5285SOL    HW227318   3.005   1.496   3.958  0.1512  1.5087 -1.1345
 5286SOL     OW27319   3.747   4.500   3.226  0.2433 -0.4685 -0.2261
 5286SOL    HW127320   3.753   4.405   3.215  0.4306 -0.6650  1.4801
 5286SOL    HW227321   3.727   4.522   3.135  0.9069  0.2497 -0.2033
 5287SOL     OW27322   3.334   0.975   4.400  0.4154 -0.0000 -0.3117
 5287SOL    HW127323   3.277   0.983   4.477  0.4077  1.2830 -0.4535
 5287SOL    HW227324   3.340   0.880   4.395 -1.1336 -0.0719 -0.9561
 5288SOL     OW27325   2.644   3.320   9.111  0.1676  0.1986 -0.0608
 5288SOL    HW127326   2.687   3.235   9.102  0.8456  0.3174  1.9933
 5288SOL    HW227327   2.627   3.325   9.205 -2.2347  0.4750 -0.5140
 5289SOL     OW27328   3.352   4.528  16.569 -0.0246 -0.6956 -0.8703
 5289SOL    HW127329   3.337   4.560  16.480 -1.5270 -0.7704 -0.6368
 5289SOL    HW227330   3.324   4.598  16.628  1.6910 -1.4741  0.8933
 5290SOL     OW27331   2.847   3.503   2.354  0.6559 -0.0892 -0.2062
 5290SOL    HW127332   2.836   3.475   2.263  1.0736 -1.4452  0.1501
 5290SOL    HW227333   2.935   3.541   2.351  2.1798 -3.1851  3.8834
 5291SOL     OW27334   3.355   2.560   2.322  0.0161 -0.4091  0.2530
 5291SOL    HW127335   3.429   2.617   2.300 -1.0627  0.6407 -0.6530
 5291SOL    HW227336   3.294   2.616   2.369 -2.4619 -1.3311 -1.8430
 5292SOL     OW27337   0.826   2.256  12.194  0.6782  0.5400 -0.6835
 5292SOL    HW127338   0.897   2.206  12.236 -0.5698 -2.0015 -1.5541
 5292SOL    HW227339   0.870   2.336  12.169  0.1847  1.2280  0.6552
 5293SOL     OW27340   2.973   3.046  10.209 -0.0640 -0.4671 -0.0635
 5293SOL    HW127341   2.940   3.087  10.289 -0.8857  0.0749 -0.6783
 5293SOL    HW227342   2.895   3.062  10.155 -0.2614 -0.5731  0.1915
 5294SOL     OW27343   3.788   1.669   2.315 -1.1530  0.0173  0.5261
 5294SOL    HW127344   3.826   1.733   2.375  0.2819 -1.7354  1.4757
 5294SOL    HW227345   3.801   1.588   2.364 -0.2755  0.3173  0.7877
 5295SOL     OW27346   0.104   2.232   7.532 -0.0340  0.2339  0.2994
 5295SOL    HW127347   0.057   2.161   7.488  1.3515 -0.6581  0.2854
 5295SOL    HW227348   0.048   2.249   7.608  0.2573 -1.9742  1.0049
 5296SOL     OW27349   4.307   0.857  15.158 -0.3469 -0.0184  0.2812
 5296SOL    HW127350   4.235   0.908  15.121  1.1640  1.0013 -1.2609
 5296SOL    HW227351   4.378   0.917  15.134  2.1825 -2.3708  1.9700
 5297SOL     OW27352   3.494   1.519   7.810 -0.5997  0.3218 -0.9257
 5297SOL    HW127353   3.441   1.555   7.739  2.1311  3.0195 -1.5604
 5297SOL    HW227354   3.574   1.563   7.781 -0.2258 -2.4225 -4.0481
 5298SOL     OW27355   2.314   1.245   5.065 -0.4642  0.3498  0.3593
 5298SOL    HW127356   2.301   1.327   5.018 -0.3843  0.2738  0.2041
 5298SOL    HW227357   2.405   1.239   5.092 -1.0824 -1.1246  2.0919
 5299SOL     OW27358   4.111   3.258   7.212 -0.2297 -0.4221  0.0210
 5299SOL    HW127359   4.174   3.314   7.167  0.3223 -1.6529 -0.7383
 5299SOL    HW227360   4.049   3.324   7.246 -0.4616  0.0765 -1.3556
 5300SOL     OW27361   2.811   4.216   8.797  0.0916 -0.2451  0.1061
 5300SOL    HW127362   2.837   4.231   8.706  0.8506  2.2980  0.7383
 5300SOL    HW227363   2.893   4.238   8.842 -0.0397 -0.2799  0.3619
 5301SOL     OW27364   3.895   1.925   4.914 -0.2665  0.5025  0.4373
 5301SOL    HW127365   3.978   1.966   4.889 -0.1015 -0.1199 -0.0571
 5301SOL    HW227366   3.826   1.978   4.874 -0.2388 -1.6111 -2.4538
 5302SOL     OW27367   1.768   3.209   5.701  0.5490  0.8528  0.0535
 5302SOL    HW127368   1.863   3.220   5.711  0.6315 -0.7159  0.9872
 5302SOL    HW227369   1.745   3.284   5.646  0.4404  0.4868 -0.3914
 5303SOL     OW27370   2.936   3.767   9.717  0.7499  0.1293  0.5719
 5303SOL    HW127371   2.980   3.699   9.768  0.5501 -1.0106 -0.7624
 5303SOL    HW227372   2.857   3.767   9.770 -0.3895  0.1749 -1.1241
 5304SOL     OW27373   4.339   2.469   2.042  0.6169  0.1423 -0.0051
 5304SOL    HW127374   4.387   2.400   1.995 -0.9280 -2.2728  2.0008
 5304SOL    HW227375   4.290   2.410   2.099  1.4855 -0.8202 -0.2504
 5305SOL     OW27376   1.243   1.066   7.900 -0.1986 -0.5921  0.0406
 5305SOL    HW127377   1.274   0.996   7.842 -0.4508 -1.2448  0.6879
 5305SOL    HW227378   1.181   1.102   7.837  0.0426 -0.6987 -0.2596
 5306SOL     OW27379   3.941   3.413   5.527  0.5290 -0.3220 -0.2971
 5306SOL    HW127380   3.861   3.455   5.495  0.0006 -2.4413 -1.7534
 5306SOL    HW227381   3.903   3.364   5.599  2.7266 -0.2074  0.9321
 5307SOL     OW27382   0.566   2.087   9.230  0.4108 -0.5487 -0.0547
 5307SOL    HW127383   0.494   2.057   9.286  0.5748  1.5649  1.2938
 5307SOL    HW227384   0.599   2.158   9.285 -0.4137  0.0119 -0.2821
 5308SOL     OW27385   2.632   2.104   1.415 -0.2331  0.2842 -0.6052
 5308SOL    HW127386   2.638   2.009   1.419  3.6430  0.5863  0.1215
 5308SOL    HW227387   2.540   2.126   1.399 -0.8240 -1.9031 -0.1968
 5309SOL     OW27388   3.753   3.616  16.111 -0.2788  0.2049  0.2060
 5309SOL    HW127389   3.721   3.675  16.179 -0.8703  1.3296 -1.0509
 5309SOL    HW227390   3.828   3.576  16.155 -0.8165  1.0090  1.8273
 5310SOL     OW27391   4.247   2.862   2.716 -0.0894 -0.4279 -0.4717
 5310SOL    HW127392   4.171   2.846   2.661 -2.0985  3.2193  1.2295
 5310SOL    HW227393   4.302   2.797   2.673  1.5377 -1.4768  3.2005
 5311SOL     OW27394   2.030   3.039   6.966 -0.2990  0.1497  0.6538
 5311SOL    HW127395   2.119   3.030   7.000 -0.3955  0.5593  1.0064
 5311SOL    HW227396   2.010   3.130   6.987  3.2656  1.0255  0.2365
 5312SOL     OW27397   1.381   3.737  11.449  0.2839 -0.2480 -0.1883
 5312SOL    HW127398   1.340   3.681  11.382 -2.0968  0.6285  0.5509
 5312SOL    HW227399   1.425   3.800  11.392 -0.4051 -0.0513 -0.5119
 5313SOL     OW27400   0.265   3.314   6.423 -0.5646  0.0406 -0.1638
 5313SOL    HW127401   0.236   3.326   6.332  0.8279 -1.2434 -0.7812
 5313SOL    HW227402   0.267   3.218   6.424 -0.2690  0.0661  1.0834
 5314SOL     OW27403   0.847   0.272   7.957  0.4167 -0.5264  0.2597
 5314SOL    HW127404   0.755   0.291   7.975  0.7676  1.8727 -0.4302
 5314SOL    HW227405   0.893   0.316   8.028 -2.2049 -0.0189  1.6252
 5315SOL     OW27406   3.320   2.188  14.777 -0.1240  0.3749 -0.1794
 5315SOL    HW127407   3.299   2.125  14.846 -2.0322 -0.4608 -1.5384
 5315SOL    HW227408   3.389   2.240  14.819 -0.8811  1.4178 -0.2203
 5316SOL     OW27409   3.053   0.640   5.423  0.7154 -0.1004 -0.4628
 5316SOL    HW127410   3.064   0.731   5.396  1.6032 -0.0753  0.0080
 5316SOL    HW227411   3.047   0.593   5.340 -1.1528 -0.8667  0.1151
 5317SOL     OW27412   2.124   3.529   3.358 -0.2044  0.1075  0.2091
 5317SOL    HW127413   2.215   3.526   3.387 -0.9688  1.9287  2.8694
 5317SOL    HW227414   2.083   3.507   3.442  0.2415  1.9791  0.9189
 5318SOL     OW27415   2.978   0.287   7.383  0.3487  0.0584 -0.3340
 5318SOL    HW127416   3.016   0.250   7.303  3.0892 -0.3524  1.1977
 5318SOL    HW227417   3.036   0.354   7.419 -1.2615  1.3860 -0.1928
 5319SOL     OW27418   2.416   1.470   5.989 -0.6277 -0.1907 -0.1327
 5319SOL    HW127419   2.431   1.432   5.903  0.4490  0.0849 -0.0692
 5319SOL    HW227420   2.355   1.409   6.030  2.7189 -3.2283  0.3016
 5320SOL     OW27421   1.934   2.244   4.472  0.4385  0.7681  0.0877
 5320SOL    HW127422   1.927   2.339   4.480  0.1112  0.7391  0.1355
 5320SOL    HW227423   1.931   2.215   4.563 -0.2103  0.6356  0.0250
 5321SOL     OW27424   3.394   0.491   1.914  0.1972  0.0603  0.4328
 5321SOL    HW127425   3.352   0.571   1.945 -3.4375 -1.0617 -1.5646
 5321SOL    HW227426   3.327   0.423   1.921 -1.9045  1.9231 -1.7097
 5322SOL     OW27427   3.775   2.147   3.101 -0.2586  0.2851 -0.8687
 5322SOL    HW127428   3.700   2.091   3.081  0.2007 -1.5981  2.7936
 5322SOL    HW227429   3.732   2.195   3.171  3.8321 -0.3968  2.1032
 5323SOL     OW27430   3.430   2.621   6.434 -0.4496  0.5898 -0.4865
 5323SOL    HW127431   3.488   2.685   6.394  1.5479 -0.5911  0.5333
 5323SOL    HW227432   3.475   2.603   6.517 -2.5222 -2.8321 -0.1074
 5324SOL     OW27433   1.110   2.817  10.119 -0.1675 -0.4681 -0.5111
 5324SOL    HW127434   1.088   2.843  10.209  2.2310 -0.6765  0.1516
 5324SOL    HW227435   1.074   2.889  10.068 -0.6146 -1.2521 -1.3126
 5325SOL     OW27436   1.773   0.822   5.322 -0.2149  0.2787 -0.0534
 5325SOL    HW127437   1.835   0.788   5.258  1.3272  1.9031  0.5629
 5325SOL    HW227438   1.772   0.745   5.378  0.6251 -0.5461 -1.1652
 5326SOL     OW27439   3.284   1.936   5.753 -0.4508 -0.6724 -0.6871
 5326SOL    HW127440   3.205   1.985   5.729 -0.0979  0.0142 -0.4542
 5326SOL    HW227441   3.322   1.925   5.666 -1.4968  1.2983 -1.3918
 5327SOL     OW27442   4.499   0.542   2.689  0.2920 -0.5442  0.5775
 5327SOL    HW127443   4.440   0.565   2.760  1.6999  0.3760  1.4500
 5327SOL    HW227444   4.512   0.627   2.647  1.8449 -2.5770 -3.0509
 5328SOL     OW27445   0.718   0.820   5.465  0.4635 -0.4134  0.7602
 5328SOL    HW127446   0.650   0.755   5.482  0.6104  0.0582  3.1444
 5328SOL    HW227447   0.779   0.798   5.536  0.6621 -2.5635 -0.0875
 5329SOL     OW27448   4.221   3.484   4.484 -0.5440  0.3504 -0.2059
 5329SOL    HW127449   4.173   3.401   4.476 -0.6747  0.3932  0.1499
 5329SOL    HW227450   4.213   3.499   4.578 -0.4722  2.6164 -0.5753
 5330SOL     OW27451   0.104   2.697   5.398  0.3462  0.1845  0.3459
 5330SOL    HW127452   0.106   2.720   5.305 -1.0905 -0.2928  0.1913
 5330SOL    HW227453   0.061   2.611   5.398 -0.1338  0.4252 -2.2321
 5331SOL     OW27454   2.661   1.105   7.337 -0.2682 -0.3306 -1.2876
 5331SOL    HW127455   2.588   1.167   7.345 -0.7287 -0.8027 -1.7936
 5331SOL    HW227456   2.625   1.021   7.366 -4.0181  1.4779 -0.6564
 5332SOL     OW27457   1.089   4.594   3.522  0.3607  0.1401  0.7303
 5332SOL    HW127458   1.068   4.526   3.586 -1.4215  2.3873  2.5782
 5332SOL    HW227459   0.997   4.617   3.504  0.0760 -1.4330  0.2395
 5333SOL     OW27460   1.805   1.982  12.664  0.4919 -0.4509 -0.2208
 5333SOL    HW127461   1.787   1.896  12.703  1.0671 -0.3460  0.2616
 5333SOL    HW227462   1.898   1.968  12.650  1.0102 -0.0646  2.7483
 5334SOL     OW27463   1.463   0.422   8.433 -0.4017 -0.3246  0.3166
 5334SOL    HW127464   1.438   0.331   8.448  1.7745 -0.8013  1.0003
 5334SOL    HW227465   1.515   0.440   8.510  0.9731  0.2556 -0.7476
 5335SOL     OW27466   0.097   1.248  10.153  0.3900  0.1055  0.0777
 5335SOL    HW127467   0.178   1.223  10.197 -0.4447 -0.5387  1.2649
 5335SOL    HW227468   0.113   1.342  10.144 -0.6692  0.3506  0.7940
 5336SOL     OW27469   3.537   0.958   3.716 -0.0873  0.5764  0.5985
 5336SOL    HW127470   3.562   0.936   3.626  1.8617  1.5322  0.9123
 5336SOL    HW227471   3.535   0.870   3.755 -2.1744  0.4258  0.1081
 5337SOL     OW27472   4.086   3.856   6.894  0.5227 -0.2245 -0.5068
 5337SOL    HW127473   4.081   3.867   6.989 -0.0466  1.2146 -0.7055
 5337SOL    HW227474   4.119   3.768   6.879  0.2480 -0.3816 -0.1744
 5338SOL     OW27475   2.965   2.464   6.537 -0.1500 -0.1525  0.0648
 5338SOL    HW127476   3.029   2.408   6.492 -0.2354 -0.8400  0.8126
 5338SOL    HW227477   2.905   2.393   6.557  2.2730 -1.9213  1.0779
 5339SOL     OW27478   1.587   0.627   3.232  0.3348  0.7044  0.3052
 5339SOL    HW127479   1.613   0.536   3.245 -2.5256 -0.3592 -1.4022
 5339SOL    HW227480   1.568   0.639   3.139  2.9989  0.0653 -0.3022
 5340SOL     OW27481   3.850   2.116   3.429  0.2817  0.0212 -0.3661
 5340SOL    HW127482   3.780   2.054   3.410 -0.2911  1.1220 -1.8159
 5340SOL    HW227483   3.810   2.202   3.424  1.4181  0.5259 -0.7218
 5341SOL     OW27484   0.814   0.113   0.041  0.0216  0.5617 -0.0931
 5341SOL    HW127485   0.885   0.102  17.674  0.1386 -1.6095  0.4253
 5341SOL    HW227486   0.750   0.139  17.671 -0.9519 -1.3918  0.1044
 5342SOL     OW27487   1.411   3.617   3.587 -0.4093 -0.1000  0.2170
 5342SOL    HW127488   1.354   3.564   3.530 -0.6265 -0.2419  0.5661
 5342SOL    HW227489   1.349   3.621   3.660 -0.4570  0.1080  0.1656
 5343SOL     OW27490   3.820   0.977   6.262  0.1601  0.0954  0.2951
 5343SOL    HW127491   3.826   1.025   6.345  0.8076 -1.3819  1.1138
 5343SOL    HW227492   3.878   0.904   6.286 -1.1481 -1.2022 -0.5014
 5344SOL     OW27493   4.321   3.682   5.601 -0.1437  0.4950 -0.6529
 5344SOL    HW127494   4.285   3.632   5.528  1.2312  0.0612 -1.0390
 5344SOL    HW227495   4.414   3.661   5.595 -0.0115  1.3436 -1.6457
 5345SOL     OW27496   4.326   2.180  10.830  0.2410  0.0335  0.6108
 5345SOL    HW127497   4.233   2.159  10.834  0.3316 -0.2123  1.3955
 5345SOL    HW227498   4.364   2.093  10.838 -1.1537 -0.4942  1.4333
 5346SOL     OW27499   2.175   2.410   3.502 -0.0799  0.3262 -0.1552
 5346SOL    HW127500   2.120   2.455   3.566 -0.0020  0.8950 -0.4914
 5346SOL    HW227501   2.114   2.343   3.471 -0.4571  0.9665 -0.7699
 5347SOL     OW27502   0.724   4.640   4.950 -0.5808  0.1929 -0.2842
 5347SOL    HW127503   0.660   4.710   4.945  0.1510  0.8450 -0.5438
 5347SOL    HW227504   0.797   4.695   4.979 -0.0992 -0.4954 -0.1669
 5348SOL     OW27505   0.680   0.999   7.076  0.1025  0.5689  1.0662
 5348SOL    HW127506   0.754   0.939   7.063  1.5085  2.9207 -1.6868
 5348SOL    HW227507   0.708   1.071   7.020  0.0035  1.2129  1.8504
 5349SOL     OW27508   2.438   2.361   6.059 -0.4204  0.1406  0.2941
 5349SOL    HW127509   2.408   2.270   6.052  0.1738 -0.0429  0.1287
 5349SOL    HW227510   2.356   2.409   6.068  1.1763  2.1753  3.8052
 5350SOL     OW27511   1.020   4.501   6.354 -0.2028 -0.4402 -0.1887
 5350SOL    HW127512   1.054   4.417   6.385 -2.3003 -0.6972  1.4314
 5350SOL    HW227513   1.060   4.497   6.267  2.0230  2.0603  0.7431
 5351SOL     OW27514   1.590   3.753   4.856  0.0382  0.3714 -0.0634
 5351SOL    HW127515   1.601   3.659   4.847 -1.8869 -0.0674  1.9626
 5351SOL    HW227516   1.502   3.740   4.892  0.4286  1.1941  1.2149
 5352SOL     OW27517   4.533   4.345   1.606 -0.3499  0.5380  0.1346
 5352SOL    HW127518   4.518   4.428   1.561  1.9435  0.7038 -0.3456
 5352SOL    HW227519   4.628   4.330   1.597 -0.4000  0.7366 -0.7257
 5353SOL     OW27520   2.875   0.204  10.550 -0.0458  0.1428 -0.1031
 5353SOL    HW127521   2.787   0.223  10.583 -0.2857 -2.2964  0.6740
 5353SOL    HW227522   2.878   0.262  10.473 -0.7291  2.9094  1.9642
 5354SOL     OW27523   1.771   3.255   6.803 -0.0627 -0.5982  0.4415
 5354SOL    HW127524   1.856   3.261   6.846  0.4923 -3.9085 -0.2261
 5354SOL    HW227525   1.756   3.161   6.812 -0.6736 -0.6930 -1.7459
 5355SOL     OW27526   3.181   3.748   6.941 -0.5342 -0.3714  0.0711
 5355SOL    HW127527   3.153   3.657   6.944  0.3232 -0.5602  2.8351
 5355SOL    HW227528   3.246   3.753   7.011  1.3680 -2.4251 -1.5218
 5356SOL     OW27529   3.555   3.777   3.972  0.0395  0.0155  0.1297
 5356SOL    HW127530   3.481   3.716   3.977 -0.2621  0.3926  0.2836
 5356SOL    HW227531   3.607   3.743   4.045  0.7287 -0.5121 -0.6060
 5357SOL     OW27532   1.208   1.615   1.083  0.4538  0.6049  0.2677
 5357SOL    HW127533   1.212   1.710   1.094  0.4770  0.3836  2.2170
 5357SOL    HW227534   1.136   1.608   1.020  1.0442  0.8953 -0.4429
 5358SOL     OW27535   4.156   1.128   1.884 -0.2221 -0.7994  0.3100
 5358SOL    HW127536   4.060   1.135   1.889  0.0727  1.5506  2.5335
 5358SOL    HW227537   4.175   1.142   1.791 -0.3674  1.3410  0.6155
 5359SOL     OW27538   1.782   1.410   5.686 -0.4587  0.2438  0.1681
 5359SOL    HW127539   1.730   1.377   5.613  0.5930  1.9680 -1.3526
 5359SOL    HW227540   1.837   1.338   5.715 -1.7225 -0.3393  1.1254
 5360SOL     OW27541   0.229   0.492  10.023 -0.4322  0.6317  0.1476
 5360SOL    HW127542   0.259   0.464   9.936 -1.5203  1.9933 -0.6750
 5360SOL    HW227543   0.296   0.450  10.076 -0.1846  1.4591  0.4929
 5361SOL     OW27544   2.807   0.434   9.358  0.0477 -0.1157  0.7116
 5361SOL    HW127545   2.718   0.410   9.333  1.2708 -3.6527 -0.2485
 5361SOL    HW227546   2.854   0.358   9.325 -2.2406 -0.6305 -1.3230
 5362SOL     OW27547   3.587   1.967  17.133 -0.2884 -0.1710 -0.9730
 5362SOL    HW127548   3.659   1.946  17.194 -0.4918 -0.5502 -0.8654
 5362SOL    HW227549   3.513   1.978  17.192  2.2540  3.4298  1.5944
 5363SOL     OW27550   2.505   0.204   4.750 -0.3138  0.4957 -0.6220
 5363SOL    HW127551   2.430   0.169   4.703  0.2183 -0.1407 -0.9974
 5363SOL    HW227552   2.563   0.239   4.683 -0.2207  2.4868  0.4984
 5364SOL     OW27553   3.774   1.849  10.514 -0.5711  1.0407  0.1276
 5364SOL    HW127554   3.736   1.913  10.574 -0.7130 -0.3320  1.5060
 5364SOL    HW227555   3.867   1.873  10.515 -0.2820 -0.1196  0.9719
 5365SOL     OW27556   0.930   4.375  10.546  0.0018  0.2658 -0.0949
 5365SOL    HW127557   0.853   4.429  10.531 -1.3344 -1.9063 -1.0297
 5365SOL    HW227558   0.941   4.338  10.458  1.1435  2.7626 -1.0128
 5366SOL     OW27559   1.254   1.943   5.785  0.0123  0.3521  0.7217
 5366SOL    HW127560   1.287   1.864   5.828  1.0681  0.3790 -0.0382
 5366SOL    HW227561   1.306   1.948   5.705  0.8283  1.9566  1.3535
 5367SOL     OW27562   2.279   2.522  15.273 -0.3367 -0.2021  0.4307
 5367SOL    HW127563   2.204   2.478  15.315 -1.3035  0.2184 -0.8556
 5367SOL    HW227564   2.266   2.510  15.179 -1.8249 -2.4398  0.8981
 5368SOL     OW27565   2.456   4.659  13.735  0.2252  0.1451 -0.0374
 5368SOL    HW127566   2.467   0.003  13.667 -0.1667 -0.0733 -0.3140
 5368SOL    HW227567   2.441   4.580  13.684  0.6516  0.3678 -0.5199
 5369SOL     OW27568   2.395   2.221   6.868  0.4916 -0.1677 -0.2358
 5369SOL    HW127569   2.361   2.218   6.778  1.5050  2.4833 -0.6949
 5369SOL    HW227570   2.431   2.132   6.875  3.7324  1.0836 -1.1249
 5370SOL     OW27571   2.428   0.549  16.114 -0.6051  0.2867  0.4878
 5370SOL    HW127572   2.392   0.611  16.177 -1.7651  0.0954  0.0191
 5370SOL    HW227573   2.455   0.476  16.171  0.1674 -0.6245 -1.0251
 5371SOL     OW27574   1.105   4.263   4.200  0.2968 -0.6481 -0.1223
 5371SOL    HW127575   1.154   4.202   4.256 -1.6988 -0.7615  1.5254
 5371SOL    HW227576   1.078   4.209   4.126  1.1553  0.9241 -1.5644
 5372SOL     OW27577   3.668   0.927  12.028 -1.0593  0.0962  0.6720
 5372SOL    HW127578   3.755   0.923  11.989 -1.2777 -3.0343  0.5090
 5372SOL    HW227579   3.664   0.854  12.089  4.7238 -0.4767  0.3673
 5373SOL     OW27580   3.835   1.968   5.266  0.1933 -0.2421 -0.0764
 5373SOL    HW127581   3.786   1.903   5.217  0.6410 -0.7863  0.2035
 5373SOL    HW227582   3.925   1.963   5.233 -0.5090  1.5969 -2.2876
 5374SOL     OW27583   0.101   3.403   7.579  0.2078  0.2619  0.4468
 5374SOL    HW127584   0.039   3.436   7.514  1.1857 -0.0256 -0.6283
 5374SOL    HW227585   0.172   3.365   7.527  1.6400  4.2237 -0.4328
 5375SOL     OW27586   0.272   4.027   2.448 -0.5815 -0.1994  0.6308
 5375SOL    HW127587   0.223   4.072   2.379  0.0390  1.8209  1.5221
 5375SOL    HW227588   0.206   4.020   2.517  0.0592 -0.5480  1.2117
 5376SOL     OW27589   1.503   3.368  17.278 -0.0755 -0.0253 -0.1278
 5376SOL    HW127590   1.447   3.310  17.330  2.4143 -2.0225  0.3083
 5376SOL    HW227591   1.483   3.450  17.324 -0.0192  0.6082 -1.2184
 5377SOL     OW27592   0.386   4.094  13.118 -0.6312 -0.2716 -0.4948
 5377SOL    HW127593   0.422   4.013  13.084  1.1144 -0.6519  2.2572
 5377SOL    HW227594   0.406   4.080  13.210 -0.0274  1.0368 -0.4189
 5378SOL     OW27595   4.476   2.044   4.404  0.0530 -0.0318 -0.1467
 5378SOL    HW127596   4.410   1.989   4.446  0.7136 -0.6381  0.0994
 5378SOL    HW227597   4.543   1.978   4.387  0.9008  1.0153 -0.8991
 5379SOL     OW27598   3.787   1.640   9.834 -0.2671  0.2385 -0.4375
 5379SOL    HW127599   3.858   1.587   9.798 -1.1538 -0.5146 -1.0824
 5379SOL    HW227600   3.739   1.566   9.873 -0.1738 -0.0585 -0.8869
 5380SOL     OW27601   0.730   1.475   9.125 -0.2211 -0.0170 -0.3197
 5380SOL    HW127602   0.679   1.556   9.115 -0.4922 -0.1873 -0.3224
 5380SOL    HW227603   0.712   1.447   9.215  1.4803 -1.1404 -0.3364
 5381SOL     OW27604   1.778   2.748   4.656 -0.1107  0.4176  0.0162
 5381SOL    HW127605   1.850   2.796   4.698  0.7860  0.1910 -1.2375
 5381SOL    HW227606   1.707   2.777   4.712 -0.5315 -0.4050 -0.0930
 5382SOL     OW27607   1.553   3.112   8.139  0.7152  0.0384  0.8284
 5382SOL    HW127608   1.511   3.039   8.184 -0.0784 -0.2714 -0.4057
 5382SOL    HW227609   1.622   3.065   8.091 -0.1486 -0.3468 -0.0324
 5383SOL     OW27610   3.466   1.583   6.129 -0.2048 -0.6233  0.8616
 5383SOL    HW127611   3.481   1.492   6.102  0.0955 -0.8875  1.9445
 5383SOL    HW227612   3.397   1.622   6.075  0.2152  1.0075  1.5104
 5384SOL     OW27613   1.533   1.575   8.548  0.3340  0.4029  0.1609
 5384SOL    HW127614   1.441   1.584   8.574  0.0079  2.1817 -1.6036
 5384SOL    HW227615   1.521   1.596   8.455  2.3203 -2.9692 -0.8452
 5385SOL     OW27616   3.286   0.711   5.785  0.6053 -0.0735  0.7600
 5385SOL    HW127617   3.270   0.665   5.867 -0.5552 -0.4549  0.3271
 5385SOL    HW227618   3.206   0.690   5.736  0.6715  2.4586 -0.4555
 5386SOL     OW27619   1.438   3.628  17.431  0.5386 -0.5788 -0.2548
 5386SOL    HW127620   1.410   3.586  17.512 -1.5666 -2.2472 -1.8350
 5386SOL    HW227621   1.362   3.685  17.425  0.9285 -0.0356  0.0461
 5387SOL     OW27622   0.542   0.730   5.751  0.2201  0.3255  0.4271
 5387SOL    HW127623   0.522   0.664   5.818  0.1679  1.8637  1.9006
 5387SOL    HW227624   0.554   0.668   5.678 -1.2788  3.2803 -2.3212
 5388SOL     OW27625   4.204   4.160   2.930  0.6401  0.1193  0.4869
 5388SOL    HW127626   4.122   4.200   2.904  0.7004  0.5515  0.9575
 5388SOL    HW227627   4.181   4.114   3.011 -1.0953 -1.3027 -0.8203
 5389SOL     OW27628   2.027   1.389   6.245 -0.4251  0.0229 -0.9224
 5389SOL    HW127629   2.043   1.460   6.183  0.2162  1.2052  0.5966
 5389SOL    HW227630   2.101   1.332   6.222 -0.2596 -0.1426  0.0264
 5390SOL     OW27631   4.129   0.187   5.402  0.1771 -0.4651 -0.3196
 5390SOL    HW127632   4.069   0.213   5.472  0.2026  0.1679 -0.5265
 5390SOL    HW227633   4.217   0.207   5.433  0.5774 -0.5528 -1.4094
 5391SOL     OW27634   2.838   3.560   5.215 -0.1521 -0.4940  0.6622
 5391SOL    HW127635   2.776   3.632   5.219 -0.6331 -0.9139  0.8280
 5391SOL    HW227636   2.785   3.499   5.164  2.5059 -3.2292  1.1303
 5392SOL     OW27637   3.201   0.706   0.196  0.4899 -0.6383 -0.3884
 5392SOL    HW127638   3.284   0.676   0.159  2.1698  1.9140  1.2873
 5392SOL    HW227639   3.151   0.627   0.176 -0.7267  0.8705 -3.2673
 5393SOL     OW27640   2.335   3.994   9.105  0.2550  0.3369  0.2305
 5393SOL    HW127641   2.348   3.914   9.156 -2.6304  0.6966  1.5269
 5393SOL    HW227642   2.400   3.975   9.037 -1.5441  0.1791 -1.4251
 5394SOL     OW27643   0.119   4.561  12.184  0.4237 -0.1571  0.3994
 5394SOL    HW127644   0.096   4.532  12.273  3.5195 -1.5976  0.7018
 5394SOL    HW227645   0.189   4.622  12.203  0.8969  0.0609 -2.0637
 5395SOL     OW27646   4.692   2.985   3.623 -0.3431  0.3170  0.4611
 5395SOL    HW127647   0.023   2.908   3.615 -1.0680  0.1483 -2.7175
 5395SOL    HW227648   4.625   2.981   3.555 -0.6611 -0.3062  0.8086
 5396SOL     OW27649   3.472   3.444   7.479 -0.0959  0.0865  0.0132
 5396SOL    HW127650   3.392   3.429   7.428  0.2511 -0.4773 -0.3606
 5396SOL    HW227651   3.500   3.532   7.455  0.4100 -0.5260 -1.6121
 5397SOL     OW27652   0.266   0.876   3.324 -0.8399  0.0513 -0.2271
 5397SOL    HW127653   0.263   0.781   3.334 -2.2517  0.2256  1.0237
 5397SOL    HW227654   0.338   0.895   3.384 -1.5660  0.2781  0.5774
 5398SOL     OW27655   4.179   1.511  14.307  0.3131  0.5262  0.4686
 5398SOL    HW127656   4.116   1.558  14.363  1.1925  0.4024  1.5580
 5398SOL    HW227657   4.259   1.532  14.355 -0.3097  1.7471  0.9637
 5399SOL     OW27658   2.499   0.134   7.180  0.2104 -0.7311 -0.8574
 5399SOL    HW127659   2.544   0.217   7.198 -1.9069  0.6776 -2.0911
 5399SOL    HW227660   2.413   0.159   7.214  1.2920 -0.3718  1.6696
 5400SOL     OW27661   2.646   0.657   0.311 -0.2548 -0.4260  0.0116
 5400SOL    HW127662   2.610   0.605   0.382 -1.9692  2.2421  1.1043
 5400SOL    HW227663   2.705   0.717   0.358 -0.7501 -0.2070  0.3492
 5401SOL     OW27664   0.365   0.895   9.236 -0.0082 -0.5317 -0.6942
 5401SOL    HW127665   0.271   0.879   9.228 -0.1699 -0.0343  0.3119
 5401SOL    HW227666   0.380   0.855   9.322  0.6437  3.1277  0.8595
 5402SOL     OW27667   3.437   3.059   9.998  0.2583  0.0544 -0.0030
 5402SOL    HW127668   3.447   3.078   9.905 -2.8745 -0.7227 -0.5176
 5402SOL    HW227669   3.346   3.089  10.008  0.2395  0.2422 -0.7771
 5403SOL     OW27670   0.692   1.033   5.106  0.0556  0.7056 -0.0552
 5403SOL    HW127671   0.607   0.992   5.096  1.0581 -0.9139 -1.9466
 5403SOL    HW227672   0.733   0.969   5.164 -0.7014  0.2884  0.0088
 5404SOL     OW27673   0.468   1.142   6.539 -0.2084 -0.3729 -0.2945
 5404SOL    HW127674   0.508   1.121   6.455 -2.6653 -1.3011 -1.2343
 5404SOL    HW227675   0.544   1.128   6.596 -0.2233 -1.1718 -0.4772
 5405SOL     OW27676   3.169   0.563   6.008  0.3890 -0.0847 -0.4733
 5405SOL    HW127677   3.130   0.510   6.077 -0.0234  1.1817  0.2699
 5405SOL    HW227678   3.103   0.632   5.995  0.3488 -0.3739 -1.8017
 5406SOL     OW27679   2.690   0.347   7.952 -0.5453 -0.5646  0.1325
 5406SOL    HW127680   2.607   0.347   7.903  0.5230 -1.8206 -1.6735
 5406SOL    HW227681   2.663   0.368   8.041 -1.3640 -3.7658  0.6227
 5407SOL     OW27682   1.962   2.730  10.014  0.0416  0.1306  0.5997
 5407SOL    HW127683   1.984   2.683  10.095  0.9862  0.8339  0.7527
 5407SOL    HW227684   2.001   2.813  10.041 -3.3635  1.7998  0.3516
 5408SOL     OW27685   1.678   3.428   3.805 -0.3278  0.0389  0.1679
 5408SOL    HW127686   1.594   3.388   3.784 -0.1883  0.3608 -1.0130
 5408SOL    HW227687   1.694   3.482   3.728  0.6784  0.9238  0.9997
 5409SOL     OW27688   2.946   2.824   0.405 -0.6970  0.2697 -0.4967
 5409SOL    HW127689   2.855   2.852   0.409 -1.1620 -1.1399 -1.0525
 5409SOL    HW227690   2.974   2.890   0.342 -1.1555 -0.5171 -1.5085
 5410SOL     OW27691   2.105   2.675   5.127 -0.4599 -0.0513  0.7719
 5410SOL    HW127692   2.068   2.593   5.160 -0.2312  0.1634  1.5743
 5410SOL    HW227693   2.069   2.737   5.190 -2.2169 -1.2629  0.9559
 5411SOL     OW27694   2.781   4.534  14.389  0.2824 -0.2688  1.0635
 5411SOL    HW127695   2.855   4.479  14.364  0.8451  1.6548 -1.4831
 5411SOL    HW227696   2.718   4.463  14.403 -0.6235  0.5857  1.3606
 5412SOL     OW27697   2.731   3.413   4.974 -0.4897 -0.8961 -0.1229
 5412SOL    HW127698   2.636   3.418   4.972 -0.4041  0.0284 -1.7297
 5412SOL    HW227699   2.760   3.370   4.894  1.0184  1.6808 -0.9471
 5413SOL     OW27700   1.802   0.061   6.584 -0.0491 -0.0632 -0.1501
 5413SOL    HW127701   1.882   0.081   6.536  0.0728  2.1448  0.9287
 5413SOL    HW227702   1.828   0.040   6.674 -0.8372 -1.2290 -0.1981
 5414SOL     OW27703   1.642   3.645   5.269 -0.4485  0.3883  0.0303
 5414SOL    HW127704   1.644   3.550   5.256 -0.5282  0.4433 -0.3825
 5414SOL    HW227705   1.687   3.651   5.354 -2.1374  1.3389  0.8526
 5415SOL     OW27706   2.618   1.037   6.783  0.3955 -0.0572  0.2855
 5415SOL    HW127707   2.552   1.023   6.851  1.4617  1.5803  1.6378
 5415SOL    HW227708   2.651   1.126   6.793  0.4808  0.0162 -0.6179
 5416SOL     OW27709   3.863   2.141   7.757  0.0078  0.2849  0.3365
 5416SOL    HW127710   3.874   2.102   7.671  0.6686  2.3088 -0.5065
 5416SOL    HW227711   3.768   2.132   7.766 -0.2231  1.7228 -0.7796
 5417SOL     OW27712   2.454   0.244   2.870  0.3157  0.2659  0.2280
 5417SOL    HW127713   2.538   0.249   2.916  0.7019  1.2066 -0.5645
 5417SOL    HW227714   2.449   0.339   2.860 -1.0619 -0.0333 -1.8950
 5418SOL     OW27715   4.512   4.522   5.310  0.1504 -0.9156 -0.3677
 5418SOL    HW127716   4.552   4.604   5.340  1.2718 -1.4699 -0.3563
 5418SOL    HW227717   4.422   4.549   5.328  2.0408  4.1289  1.5566
 5419SOL     OW27718   0.282   2.166  11.757  0.0288  0.1475 -0.1997
 5419SOL    HW127719   0.255   2.256  11.775 -2.8215 -0.6559 -0.4941
 5419SOL    HW227720   0.348   2.181  11.689  0.9858 -1.0843  0.4529
 5420SOL     OW27721   2.602   1.632   9.795  0.0206 -0.1833  0.3495
 5420SOL    HW127722   2.639   1.717   9.817  0.4628  0.0839 -1.4338
 5420SOL    HW227723   2.545   1.657   9.722  0.5962 -0.5895 -0.2336
 5421SOL     OW27724   1.863   3.340   4.419 -0.1712 -0.5300 -0.0044
 5421SOL    HW127725   1.897   3.376   4.502 -1.1330  1.2991 -0.3918
 5421SOL    HW227726   1.769   3.342   4.438  0.0565 -1.1042  1.1946
 5422SOL     OW27727   4.288   0.771   9.632  0.5070  0.3679  0.3898
 5422SOL    HW127728   4.266   0.730   9.549  0.1993  0.2385  0.5341
 5422SOL    HW227729   4.345   0.840   9.599  3.8516 -2.8103 -0.3968
 5423SOL     OW27730   1.238   3.603  15.850  0.1284  0.1125  0.4904
 5423SOL    HW127731   1.311   3.659  15.825  0.2999 -0.0817  0.5604
 5423SOL    HW227732   1.171   3.671  15.859  0.7297  0.6712  0.7279
 5424SOL     OW27733   2.777   1.349   4.443  0.2101 -0.0949  0.2798
 5424SOL    HW127734   2.750   1.365   4.352  0.3435  0.6994  0.3794
 5424SOL    HW227735   2.824   1.427   4.473 -1.8949  1.9177 -1.5833
 5425SOL     OW27736   4.192   2.978  11.845  0.0754 -0.3776  0.2224
 5425SOL    HW127737   4.246   2.932  11.909 -0.3994 -1.3201 -0.0501
 5425SOL    HW227738   4.196   3.060  11.893  1.3125 -0.4453  0.2335
 5426SOL     OW27739   3.602   1.801   1.615  0.1361  0.5362 -0.0223
 5426SOL    HW127740   3.638   1.792   1.704  0.0063 -1.1591 -0.1421
 5426SOL    HW227741   3.513   1.833   1.626 -0.3875 -1.0115  0.2546
 5427SOL     OW27742   1.222   0.495  11.577 -0.0853 -0.1427  0.2592
 5427SOL    HW127743   1.192   0.405  11.583 -1.1613  0.2386  0.6511
 5427SOL    HW227744   1.317   0.482  11.577  0.4357  3.5627  0.1166
 5428SOL     OW27745   3.113   0.470   3.247  0.2379 -0.0461 -0.6248
 5428SOL    HW127746   3.116   0.562   3.275  0.0766 -0.3061  0.2685
 5428SOL    HW227747   3.112   0.479   3.152 -0.2168  0.2965 -0.5871
 5429SOL     OW27748   3.155   3.608  11.843 -0.0140  0.6628  0.2538
 5429SOL    HW127749   3.239   3.565  11.824 -0.3011  0.8270 -1.4373
 5429SOL    HW227750   3.181   3.685  11.893 -0.4875  0.8075  0.2730
 5430SOL     OW27751   0.800   2.346   6.647 -0.0735 -0.2289 -0.2350
 5430SOL    HW127752   0.720   2.363   6.597 -0.1747 -1.6401 -0.5476
 5430SOL    HW227753   0.822   2.431   6.685 -1.8651  0.0003  0.2874
 5431SOL     OW27754   0.958   3.687  10.642 -0.3297  0.8834  0.4011
 5431SOL    HW127755   1.031   3.728  10.690 -0.6426 -0.4742  2.0412
 5431SOL    HW227756   0.938   3.618  10.705 -2.0391  0.8626 -0.1814
 5432SOL     OW27757   3.812   3.955  13.047 -0.2217  0.3516 -0.5793
 5432SOL    HW127758   3.767   3.876  13.078  0.6044  0.4313  0.8220
 5432SOL    HW227759   3.743   4.008  13.007  0.1586  0.7836 -0.6579
 5433SOL     OW27760   3.226   3.047   9.525 -0.1181  0.1060 -0.5802
 5433SOL    HW127761   3.231   2.983   9.454 -3.1818 -0.8990  0.0958
 5433SOL    HW227762   3.150   3.105   9.511 -0.3727 -0.0023  0.4115
 5434SOL     OW27763   1.467   3.359   6.419  0.1741  0.1645  0.4125
 5434SOL    HW127764   1.495   3.363   6.510  1.4308 -0.6959  0.0616
 5434SOL    HW227765   1.452   3.265   6.406  0.9967  0.2661 -1.4002
 5435SOL     OW27766   4.053   0.719   4.441  0.0404  0.0146 -0.4184
 5435SOL    HW127767   4.031   0.808   4.413 -2.3845  0.2305  2.2279
 5435SOL    HW227768   3.966   0.680   4.427 -0.0552 -0.0678  0.4333
 5436SOL     OW27769   2.796   0.908   9.357 -0.1890  0.1041 -0.2560
 5436SOL    HW127770   2.890   0.919   9.375  0.3760 -2.1306 -1.8633
 5436SOL    HW227771   2.771   0.851   9.430  1.6824  0.6003  0.7722
 5437SOL     OW27772   0.620   2.362   4.450  0.1333  0.1593  0.6018
 5437SOL    HW127773   0.616   2.453   4.422  2.8161  0.9885  2.9243
 5437SOL    HW227774   0.715   2.365   4.446  0.0976 -0.2431 -0.6227
 5438SOL     OW27775   1.969   1.108  13.383 -0.3580  0.4928 -0.8053
 5438SOL    HW127776   1.940   1.197  13.401  1.4856  0.8493  0.3985
 5438SOL    HW227777   2.020   1.122  13.304 -1.3726  0.4818 -1.4536
 5439SOL     OW27778   0.400   2.270  12.263  0.4078 -0.1069 -0.3163
 5439SOL    HW127779   0.460   2.345  12.267 -0.6438  0.6835  0.5759
 5439SOL    HW227780   0.390   2.253  12.356  0.6029 -0.1503 -0.3027
 5440SOL     OW27781   4.552   2.792   8.821 -0.6229 -0.5336 -0.5078
 5440SOL    HW127782   4.587   2.877   8.794  2.0721 -1.1178  1.0512
 5440SOL    HW227783   4.512   2.812   8.906 -1.1555  0.0717 -0.9075
 5441SOL     OW27784   0.808   2.164   8.028  0.1496  0.5648  0.5290
 5441SOL    HW127785   0.760   2.179   8.109 -0.1893  2.0139  0.0491
 5441SOL    HW227786   0.735   2.169   7.967  0.1381 -1.1998  0.4030
 5442SOL     OW27787   1.997   1.746   7.237  0.3707 -0.8725  0.2658
 5442SOL    HW127788   1.920   1.761   7.291 -0.0696 -0.6083 -0.4361
 5442SOL    HW227789   2.066   1.738   7.303  0.5455 -1.2076  0.0399
 5443SOL     OW27790   1.617   2.116   1.536 -0.0378 -0.2214  0.7218
 5443SOL    HW127791   1.670   2.052   1.488  1.8965  1.7397  0.2593
 5443SOL    HW227792   1.673   2.150   1.605 -0.4670 -2.0731  1.9564
 5444SOL     OW27793   2.662   3.682   8.346  0.0161 -0.2934 -0.2438
 5444SOL    HW127794   2.567   3.684   8.359 -0.1606  0.0327 -1.5958
 5444SOL    HW227795   2.698   3.636   8.421  1.6872 -0.0851 -0.9226
 5445SOL     OW27796   0.957   0.993   7.312 -0.0693 -0.2336 -0.0558
 5445SOL    HW127797   1.000   0.921   7.265  0.2804  0.6172 -1.0251
 5445SOL    HW227798   0.869   0.957   7.323 -0.3823  0.5259 -0.0981
 5446SOL     OW27799   2.130   3.590   4.205 -0.2667  0.2459 -0.5899
 5446SOL    HW127800   2.050   3.539   4.196 -0.3842  0.4411 -0.6493
 5446SOL    HW227801   2.196   3.529   4.174  0.5821 -0.1555  2.0180
 5447SOL     OW27802   3.688   0.491  17.269 -0.1134  0.5653  0.2890
 5447SOL    HW127803   3.609   0.511  17.219 -0.1285  1.5798  0.7078
 5447SOL    HW227804   3.732   0.437  17.203 -1.9933  0.2639 -0.6963
 5448SOL     OW27805   0.479   0.102   0.608 -0.0477  0.0811 -0.3526
 5448SOL    HW127806   0.490   0.171   0.543  2.5685 -0.5050 -0.5358
 5448SOL    HW227807   0.570   0.102   0.640  0.7071  0.9558 -2.4710
 5449SOL     OW27808   4.315   1.886   6.241 -0.0701 -0.0922  0.2409
 5449SOL    HW127809   4.283   1.976   6.246 -1.3250 -0.5783  0.7599
 5449SOL    HW227810   4.229   1.849   6.225  0.3623 -1.7038  1.6049
 5450SOL     OW27811   3.839   3.828   7.503  0.0480  0.0054  0.8482
 5450SOL    HW127812   3.820   3.916   7.468  0.3520  0.0203  0.7146
 5450SOL    HW227813   3.935   3.834   7.504 -0.0176  1.4247 -1.3070
 5451SOL     OW27814   0.166   3.194   3.465 -0.1679 -0.4749 -0.4528
 5451SOL    HW127815   0.156   3.100   3.483  2.2140 -0.8204 -0.8470
 5451SOL    HW227816   0.252   3.198   3.424 -0.3439  2.3886 -0.5590
 5452SOL     OW27817   0.992   3.427  17.194 -0.3820 -0.3954 -0.0052
 5452SOL    HW127818   0.919   3.415  17.134  1.0716  1.1080 -2.1176
 5452SOL    HW227819   1.048   3.359  17.157  2.4202  1.4565  0.8191
 5453SOL     OW27820   0.888   3.476   7.427  0.0201 -0.4719  0.4369
 5453SOL    HW127821   0.911   3.559   7.469  0.3911 -1.1377  1.5632
 5453SOL    HW227822   0.968   3.440   7.389 -0.4317  1.0590 -1.9984
 5454SOL     OW27823   4.281   0.649   1.993 -0.1278  0.3659  0.4959
 5454SOL    HW127824   4.252   0.735   2.024 -1.4705  0.2364 -0.3836
 5454SOL    HW227825   4.368   0.667   1.957 -0.4192  2.0140  0.6038
 5455SOL     OW27826   4.094   4.287   3.823  0.1059 -0.0902  0.6211
 5455SOL    HW127827   4.179   4.245   3.814  0.1235  0.5498 -2.0141
 5455SOL    HW227828   4.047   4.208   3.850 -0.3812 -0.4004 -1.2010
 5456SOL     OW27829   4.564   1.038   2.205  0.3511  0.1709 -0.0128
 5456SOL    HW127830   4.531   1.125   2.183  0.1089  0.4530  1.4571
 5456SOL    HW227831   4.560   1.044   2.300  0.3440 -0.7512  0.0461
 5457SOL     OW27832   0.287   3.779   4.735  0.1799 -0.1042 -0.0105
 5457SOL    HW127833   0.328   3.704   4.779 -1.5436 -1.2489 -0.3296
 5457SOL    HW227834   0.328   3.760   4.650  0.4341 -0.1541  0.1230
 5458SOL     OW27835   0.284   2.042   0.315  0.2376  0.4653 -0.1633
 5458SOL    HW127836   0.192   2.024   0.331  0.4510 -1.4357 -1.0499
 5458SOL    HW227837   0.317   1.968   0.365 -0.0069  1.1301  0.9709
 5459SOL     OW27838   1.431   2.111   2.664  1.1170 -0.5089  0.3880
 5459SOL    HW127839   1.450   2.205   2.676 -2.9324  0.4069 -0.3102
 5459SOL    HW227840   1.440   2.098   2.570  1.3261 -1.7277  0.5816
 5460SOL     OW27841   2.923   3.858  11.267  0.5727 -0.3572 -0.2864
 5460SOL    HW127842   2.834   3.876  11.296  0.4058  0.1307 -1.1005
 5460SOL    HW227843   2.933   3.916  11.192  0.8262 -1.7710 -1.3521
 5461SOL     OW27844   3.647   0.258   7.833 -0.1850  0.0958  0.0505
 5461SOL    HW127845   3.712   0.235   7.899  0.5195  0.3266 -0.5736
 5461SOL    HW227846   3.586   0.311   7.885 -0.4997 -0.2325  0.0209
 5462SOL     OW27847   0.233   3.043  14.435  0.0886 -0.4430 -0.1745
 5462SOL    HW127848   0.299   2.975  14.444  2.7668  2.3443  1.1135
 5462SOL    HW227849   0.253   3.081  14.521 -0.8710 -0.4203  0.0374
 5463SOL     OW27850   3.845   2.397   5.388 -0.0298  0.0098 -0.1561
 5463SOL    HW127851   3.782   2.401   5.460 -0.7400 -1.3734 -0.6806
 5463SOL    HW227852   3.801   2.426   5.308 -2.6172 -0.1218  1.2000
 5464SOL     OW27853   1.590   2.267   2.842 -0.2527  0.4360 -0.5381
 5464SOL    HW127854   1.631   2.298   2.922  1.0033  1.1221 -1.4574
 5464SOL    HW227855   1.591   2.349   2.794  1.0258  0.3797 -0.6030
 5465SOL     OW27856   2.634   1.631   1.607  0.3436  0.2346  0.2209
 5465SOL    HW127857   2.576   1.610   1.680 -2.7961  1.3000 -1.9876
 5465SOL    HW227858   2.715   1.588   1.635 -0.1438 -0.4792  0.5391
 5466SOL     OW27859   0.392   0.455   2.115 -0.5740  0.1650  0.4731
 5466SOL    HW127860   0.321   0.397   2.087 -0.8342  0.4767  0.4857
 5466SOL    HW227861   0.354   0.509   2.185 -0.9474 -0.8858  1.0754
 5467SOL     OW27862   2.009   4.550   8.759 -0.1688 -0.4335 -0.2124
 5467SOL    HW127863   1.919   4.535   8.729 -0.7885  1.7175  0.6369
 5467SOL    HW227864   2.052   4.471   8.725 -0.7924 -1.5128  1.4824
 5468SOL     OW27865   0.399   3.622   9.771  0.4304 -0.2071  0.3190
 5468SOL    HW127866   0.373   3.704   9.729  1.1765  0.9590  2.1588
 5468SOL    HW227867   0.447   3.581   9.699 -0.3231  0.1279 -0.3758
 5469SOL     OW27868   2.956   2.895  15.430 -0.1583 -0.3683 -0.3781
 5469SOL    HW127869   3.006   2.845  15.494  3.7346 -0.6159 -3.5669
 5469SOL    HW227870   2.868   2.902  15.466 -0.3215  3.7986 -1.5579
 5470SOL     OW27871   0.031   0.480   1.208 -0.1137 -0.0203 -0.2539
 5470SOL    HW127872   0.063   0.566   1.237  1.6163 -0.6489 -0.2638
 5470SOL    HW227873   0.002   0.453   1.295  1.8902  1.2536  0.7990
 5471SOL     OW27874   4.149   0.164   8.669  0.4615  0.2297 -0.0003
 5471SOL    HW127875   4.078   0.192   8.612 -0.6524 -0.0763  1.2281
 5471SOL    HW227876   4.116   0.227   8.734 -0.9869 -1.4975  0.9362
 5472SOL     OW27877   3.530   0.026   5.071 -0.0395 -0.2373  0.4181
 5472SOL    HW127878   3.507   0.088   5.141 -1.1837 -0.2670  0.0582
 5472SOL    HW227879   3.626   0.020   5.066 -0.1629 -0.7020 -1.2500
 5473SOL     OW27880   4.138   1.988   7.571  0.4857 -0.2948 -0.4718
 5473SOL    HW127881   4.075   2.059   7.557  1.6248  0.7072 -0.5055
 5473SOL    HW227882   4.226   2.025   7.573  0.7871 -1.0356  0.3323
 5474SOL     OW27883   4.076   1.272   7.977  0.1637  0.0378 -0.0762
 5474SOL    HW127884   4.114   1.234   8.057 -2.3499 -0.3817  0.8921
 5474SOL    HW227885   4.155   1.278   7.923 -1.2640  1.1811 -2.0531
 5475SOL     OW27886   3.572   0.553  10.193 -0.4340  0.4223 -0.0800
 5475SOL    HW127887   3.651   0.507  10.221 -1.0158 -1.8741 -2.1969
 5475SOL    HW227888   3.539   0.475  10.149  0.6822  0.6572 -1.3341
 5476SOL     OW27889   3.885   2.860   5.644 -0.0840  0.0615  0.3336
 5476SOL    HW127890   3.879   2.952   5.667 -1.2310  0.2638 -0.7766
 5476SOL    HW227891   3.794   2.847   5.620  0.1532 -1.9348  0.5172
 5477SOL     OW27892   4.101   1.739  12.589 -0.2243 -0.1414 -0.1741
 5477SOL    HW127893   4.105   1.666  12.651  1.6681 -0.6833 -0.9478
 5477SOL    HW227894   4.196   1.752  12.586 -0.2570  0.3331  0.7158
 5478SOL     OW27895   1.110   2.158   3.337 -0.1087 -0.6801 -0.0484
 5478SOL    HW127896   1.131   2.094   3.270  0.5183  0.9527 -1.4167
 5478SOL    HW227897   1.199   2.188   3.360 -0.9323  2.0560 -0.3766
 5479SOL     OW27898   4.583   0.108   8.524 -0.2011 -0.2973  0.3930
 5479SOL    HW127899   4.580   0.117   8.619  2.6814  0.0798  0.4508
 5479SOL    HW227900   4.499   0.147   8.498 -0.4874 -0.9249  0.3815
 5480SOL     OW27901   0.819   2.051   4.098  0.2870  0.1824  0.4387
 5480SOL    HW127902   0.896   2.107   4.099 -1.2251  2.3636 -3.0379
 5480SOL    HW227903   0.813   2.030   4.005  0.2501  2.4102 -0.0768
 5481SOL     OW27904   4.386   3.931   5.268 -0.2060 -0.2550  0.1298
 5481SOL    HW127905   4.351   4.003   5.216  1.8195 -0.6762 -1.8086
 5481SOL    HW227906   4.346   3.974   5.343 -3.1274 -1.0877 -0.9665
 5482SOL     OW27907   0.652   1.876   5.655 -0.5030 -0.5358 -0.0062
 5482SOL    HW127908   0.570   1.921   5.636  1.1118  2.5188  0.3439
 5482SOL    HW227909   0.675   1.838   5.570 -1.1892  0.5926 -0.6884
 5483SOL     OW27910   1.810   1.625  13.801  0.0441  0.2374 -0.0690
 5483SOL    HW127911   1.896   1.588  13.818 -0.0133  0.2409  0.2237
 5483SOL    HW227912   1.761   1.553  13.762  1.3946 -0.2067 -0.9506
 5484SOL     OW27913   1.183   0.829  17.579  0.8009 -0.3376 -0.0117
 5484SOL    HW127914   1.248   0.872  17.634 -0.7615  1.2855  0.5582
 5484SOL    HW227915   1.123   0.901  17.565  2.9270  1.3552 -0.4113
 5485SOL     OW27916   2.710   1.393   8.686 -0.2424 -1.1583 -0.4573
 5485SOL    HW127917   2.679   1.468   8.635 -0.1782  0.5211  1.9490
 5485SOL    HW227918   2.635   1.334   8.677  0.9197 -2.5261 -1.0965
 5486SOL     OW27919   1.601   1.760   4.996  0.0662 -1.0312 -0.1667
 5486SOL    HW127920   1.586   1.670   5.028  0.7153 -0.4475  1.8261
 5486SOL    HW227921   1.522   1.770   4.944 -0.3386  0.9019  0.8332
 5487SOL     OW27922   1.532   0.746   3.679 -0.0752 -0.5583  0.5155
 5487SOL    HW127923   1.457   0.689   3.698  1.3685 -2.1705  1.4092
 5487SOL    HW227924   1.486   0.830   3.685 -1.1003 -1.1296  0.7226
 5488SOL     OW27925   2.261   2.785   0.511  0.4923  0.4867 -0.1060
 5488SOL    HW127926   2.306   2.768   0.594 -0.5597 -0.6476  0.2360
 5488SOL    HW227927   2.307   2.854   0.464  0.4859 -0.1669 -1.0644
 5489SOL     OW27928   2.405   3.980   8.432  0.8817 -0.6187  0.2020
 5489SOL    HW127929   2.382   3.887   8.438  0.8792 -0.6856 -0.7186
 5489SOL    HW227930   2.334   4.023   8.384  0.2798  0.2296  1.8858
 5490SOL     OW27931   3.824   3.861   0.319 -0.5645  0.2382 -1.0086
 5490SOL    HW127932   3.857   3.905   0.397 -0.2432  0.2883 -1.1746
 5490SOL    HW227933   3.820   3.769   0.345  0.9103  0.9256  1.6632
 5491SOL     OW27934   1.103   4.071   7.418 -0.4987 -0.2063 -0.1830
 5491SOL    HW127935   1.081   4.121   7.339  1.7873  0.1646 -0.5654
 5491SOL    HW227936   1.176   4.117   7.459  0.2751 -2.5643  1.0978
 5492SOL     OW27937   2.888   1.381  12.890 -0.1401 -0.0432  0.0059
 5492SOL    HW127938   2.850   1.361  12.975 -1.6907  1.6564 -0.2709
 5492SOL    HW227939   2.926   1.468  12.906 -0.4015  0.4391 -1.9861
 5493SOL     OW27940   2.663   3.352   7.586  0.2008 -0.7035  0.0078
 5493SOL    HW127941   2.571   3.354   7.614  0.7793  1.9072  1.7381
 5493SOL    HW227942   2.708   3.426   7.628 -0.0292  0.0039 -0.9845
 5494SOL     OW27943   0.920   1.918   8.681  0.6933 -0.3475  0.4789
 5494SOL    HW127944   0.825   1.910   8.679  0.7231  0.2429 -2.6911
 5494SOL    HW227945   0.935   1.983   8.612 -1.5224 -0.7121 -0.3528
 5495SOL     OW27946   2.710   3.488   1.900 -0.0286 -0.5836 -0.1871
 5495SOL    HW127947   2.737   3.509   1.990  1.1328  1.6906 -1.0705
 5495SOL    HW227948   2.703   3.575   1.861 -2.5115 -0.1676  1.1387
 5496SOL     OW27949   3.901   2.574  12.852 -0.0500  0.4219  0.2925
 5496SOL    HW127950   3.975   2.549  12.908  0.8338 -0.0134 -1.0625
 5496SOL    HW227951   3.823   2.541  12.896  1.0078 -3.1209 -0.4430
 5497SOL     OW27952   1.870   4.124   6.194 -0.2892  0.4468 -0.1233
 5497SOL    HW127953   1.856   4.029   6.194  2.0122  0.1000  0.4986
 5497SOL    HW227954   1.828   4.145   6.277 -1.3745 -1.6866 -0.1271
 5498SOL     OW27955   1.378   1.335   6.191 -0.8497 -0.2784  0.4470
 5498SOL    HW127956   1.381   1.426   6.218  1.1142 -0.4339  0.7313
 5498SOL    HW227957   1.292   1.323   6.150 -2.0620  1.3982  2.5312
 5499SOL     OW27958   4.422   2.877  11.973  0.6849 -0.3664  0.3735
 5499SOL    HW127959   4.510   2.911  11.958  0.6681  1.6164  4.6071
 5499SOL    HW227960   4.454   2.812  12.036  0.0563 -2.5066 -1.5101
 5500SOL     OW27961   3.884   1.490   2.129 -0.2527  0.2795  0.2166
 5500SOL    HW127962   3.884   1.513   2.036  0.7735 -1.6070 -0.2587
 5500SOL    HW227963   3.838   1.569   2.156 -0.6277  0.0935  0.1294
 5501SOL     OW27964   4.554   4.425  16.907 -0.1234 -0.4589  0.3647
 5501SOL    HW127965   4.478   4.480  16.889 -0.3380 -0.5095  1.0918
 5501SOL    HW227966   4.549   4.427  17.003  0.5835 -1.2121  0.4157
 5502SOL     OW27967   4.651   0.204   1.393 -0.1091  0.1897  0.3397
 5502SOL    HW127968   4.675   0.114   1.413  2.5287  0.7611 -0.2391
 5502SOL    HW227969   4.620   0.231   1.479  0.5763 -3.5981  1.7614
 5503SOL     OW27970   0.492   0.681  16.770 -0.5444 -0.1767  0.1727
 5503SOL    HW127971   0.562   0.744  16.757  0.6212 -1.6404 -0.6873
 5503SOL    HW227972   0.534   0.629  16.838 -0.4312  0.5667  0.6646
 5504SOL     OW27973   0.144   0.822   8.910 -0.0916 -0.0815 -0.2419
 5504SOL    HW127974   0.122   0.829   9.003 -1.8749 -0.8043 -0.6215
 5504SOL    HW227975   0.186   0.736   8.910  1.1417  0.5244 -0.5516
 5505SOL     OW27976   4.687   2.485   2.551  0.1873  0.0652  0.4516
 5505SOL    HW127977   4.670   2.570   2.509  1.0520  0.5158  0.9931
 5505SOL    HW227978   0.049   2.460   2.516 -0.2431 -0.0763 -0.4904
 5506SOL     OW27979   1.891   4.686   4.206 -0.2239 -0.0898 -0.0583
 5506SOL    HW127980   1.826   4.707   4.273 -1.7197 -0.3060 -1.4517
 5506SOL    HW227981   1.874   4.592   4.211 -2.7915  0.3027 -1.5976
 5507SOL     OW27982   4.532   3.544  11.054  0.1014  0.3099 -0.1042
 5507SOL    HW127983   4.545   3.454  11.084  1.2200  0.8938  1.1212
 5507SOL    HW227984   4.553   3.591  11.134  1.5648  0.7944 -0.7807
 5508SOL     OW27985   3.271   3.747   7.443  0.2122  0.3451  0.2907
 5508SOL    HW127986   3.200   3.707   7.493  1.0269 -2.2686 -0.6453
 5508SOL    HW227987   3.310   3.800   7.513 -0.8846  0.1421  1.0551
 5509SOL     OW27988   1.213   3.474   7.489 -0.3935  0.0329 -0.0602
 5509SOL    HW127989   1.298   3.429   7.485  1.6401  3.7388  0.7529
 5509SOL    HW227990   1.183   3.461   7.399  0.6582 -2.2602 -0.1012
 5510SOL     OW27991   2.425   3.631   8.094  0.6204 -0.0636  0.5691
 5510SOL    HW127992   2.473   3.706   8.058 -1.1575 -0.1260 -1.8653
 5510SOL    HW227993   2.419   3.666   8.183 -1.2836  0.8821  0.0698
 5511SOL     OW27994   0.643   1.037   9.509 -0.1590 -0.2077  0.1639
 5511SOL    HW127995   0.632   1.084   9.427  1.3843 -0.1502 -0.0009
 5511SOL    HW227996   0.699   1.093   9.562  2.1090  0.5989 -3.0777
 5512SOL     OW27997   1.893   4.341   5.856 -0.5080  0.3338 -0.5354
 5512SOL    HW127998   1.833   4.266   5.860 -1.2468  1.0439  1.3130
 5512SOL    HW227999   1.851   4.378   5.778 -0.8136  0.4731 -0.3043
 5513SOL     OW28000   0.404   0.419  10.645 -0.1094  0.3851 -0.0890
 5513SOL    HW128001   0.450   0.497  10.676  1.0956 -0.6803  0.7706
 5513SOL    HW228002   0.427   0.434  10.553  0.2232 -2.7548 -0.5132
 5514SOL     OW28003   1.827   0.386   8.472  0.1636  0.9372 -0.6146
 5514SOL    HW128004   1.758   0.395   8.406 -0.5207  1.0743  0.1205
 5514SOL    HW228005   1.897   0.336   8.429  0.1482  0.6764 -0.3372
 5515SOL     OW28006   1.269   4.695  12.247 -0.0441  0.0508 -0.3239
 5515SOL    HW128007   1.193   0.022  12.275 -1.4892 -0.2273 -3.8444
 5515SOL    HW228008   1.290   0.025  12.171 -0.3631 -0.0317 -0.4667
 5516SOL     OW28009   2.572   2.950  14.170  0.4295 -0.1042  0.1907
 5516SOL    HW128010   2.497   2.960  14.111 -0.8757  1.6824  2.1249
 5516SOL    HW228011   2.645   2.948  14.109  1.5398 -1.4777  1.5468
 5517SOL     OW28012   1.430   4.648   2.055 -0.0465  0.3701  0.5550
 5517SOL    HW128013   1.397   4.561   2.036  0.1707  0.9039 -2.2868
 5517SOL    HW228014   1.445   4.667   1.962  1.4568 -0.5651  0.6142
 5518SOL     OW28015   2.360   4.094   4.114  0.2989 -0.0320 -0.0059
 5518SOL    HW128016   2.323   4.138   4.037 -0.2981  0.3269  0.4914
 5518SOL    HW228017   2.348   4.006   4.076  0.5315 -0.8214  1.7592
 5519SOL     OW28018   0.476   0.329   1.796  0.1720  0.4547  0.4924
 5519SOL    HW128019   0.498   0.308   1.887  2.0896 -3.1291 -0.8257
 5519SOL    HW228020   0.433   0.247   1.773 -2.0649  1.4065  1.2733
 5520SOL     OW28021   3.655   3.884  14.813 -0.0041 -0.1625 -0.0004
 5520SOL    HW128022   3.741   3.923  14.800  0.4608 -1.1977 -0.0332
 5520SOL    HW228023   3.663   3.805  14.759  3.7666 -1.8315  3.0134
 5521SOL     OW28024   4.670   0.696   1.537  0.5842 -0.1940  0.0167
 5521SOL    HW128025   4.585   0.696   1.493  0.4252 -3.4714  0.2992
 5521SOL    HW228026   4.652   0.645   1.616 -0.2461 -0.6506 -0.4637
 5522SOL     OW28027   0.388   3.523  17.153  0.1836 -0.6847  0.0833
 5522SOL    HW128028   0.296   3.531  17.127  0.0231  2.2047  1.5117
 5522SOL    HW228029   0.386   3.501  17.246 -0.0171  0.5736  0.3889
 5523SOL     OW28030   3.525   2.087  13.400  0.1040  0.2119  0.3068
 5523SOL    HW128031   3.462   2.156  13.383 -1.4669 -0.8861  1.6762
 5523SOL    HW228032   3.557   2.109  13.488 -0.0377 -2.4960  1.0628
 5524SOL     OW28033   2.712   3.046  15.070  0.0818  0.0671 -0.0820
 5524SOL    HW128034   2.701   2.954  15.047 -2.1378 -0.0882  1.5677
 5524SOL    HW228035   2.645   3.095  15.022 -0.2398  0.3490  0.6473
 5525SOL     OW28036   0.409   1.691   5.664 -0.0725 -0.1505 -0.3804
 5525SOL    HW128037   0.345   1.756   5.635  1.7589  1.6903 -0.3037
 5525SOL    HW228038   0.476   1.716   5.601 -2.7366 -1.7885 -3.8447
 5526SOL     OW28039   0.690   1.113   6.313 -0.2708 -0.0943  0.0027
 5526SOL    HW128040   0.736   1.190   6.345 -0.2172  0.3304 -1.1012
 5526SOL    HW228041   0.753   1.093   6.244 -2.3403 -2.4599 -1.2081
 5527SOL     OW28042   0.693   1.543   6.629 -0.9222  0.0169  0.0056
 5527SOL    HW128043   0.674   1.502   6.714  2.3296 -1.5709 -0.0311
 5527SOL    HW228044   0.786   1.564   6.641 -0.6559 -0.9844 -0.3719
 5528SOL     OW28045   3.062   1.301   0.622 -0.2139 -0.3605 -0.3091
 5528SOL    HW128046   3.108   1.250   0.688  0.1045 -1.2199 -1.1954
 5528SOL    HW228047   3.115   1.380   0.630 -0.5465 -0.3052  1.3441
 5529SOL     OW28048   3.629   4.576   6.091  0.0118 -0.3273  0.3876
 5529SOL    HW128049   3.709   4.524   6.099 -0.0597 -0.5701 -0.4803
 5529SOL    HW228050   3.605   4.567   5.999 -1.9875  1.9844  0.6801
 5530SOL     OW28051   2.092   0.512   3.342 -0.2656  0.3178  0.8074
 5530SOL    HW128052   2.056   0.566   3.271 -1.1703 -0.8368  0.3930
 5530SOL    HW228053   2.141   0.445   3.295  0.2084  0.3064  1.3235
 5531SOL     OW28054   3.333   2.006  17.273 -0.3687 -0.4462 -0.5555
 5531SOL    HW128055   3.240   1.986  17.284 -0.6186  0.0744 -1.7670
 5531SOL    HW228056   3.321   2.100  17.259  0.0367 -0.3148 -0.0183
 5532SOL     OW28057   1.944   4.275   8.697 -0.1531  0.2182 -0.3175
 5532SOL    HW128058   1.964   4.269   8.791  1.2121 -1.4799 -0.7197
 5532SOL    HW228059   1.945   4.181   8.681  0.6016  0.0026  0.9692
 5533SOL     OW28060   2.117   2.384   3.008  0.0927  0.0989  0.2740
 5533SOL    HW128061   2.189   2.357   2.951 -0.9524 -0.6428 -0.6926
 5533SOL    HW228062   2.070   2.452   2.960 -2.3850 -1.7715  0.0628
 5534SOL     OW28063   1.626   4.146  15.312  0.0093 -0.2884  0.5004
 5534SOL    HW128064   1.599   4.059  15.283 -0.1931 -0.0369 -0.0735
 5534SOL    HW228065   1.558   4.160  15.378 -2.9342 -4.7787 -1.6178
 5535SOL     OW28066   0.611   0.561   2.004 -0.5072  0.4160  0.2351
 5535SOL    HW128067   0.578   0.625   1.941  0.7044  2.4174  1.6090
 5535SOL    HW228068   0.530   0.532   2.045  1.0834 -2.0055  1.6838
 5536SOL     OW28069   4.209   2.304   2.198  0.5106 -0.3132  0.4636
 5536SOL    HW128070   4.224   2.216   2.163 -0.5183 -1.0612  1.9192
 5536SOL    HW228071   4.114   2.312   2.199  0.4866 -0.5399  0.1507
 5537SOL     OW28072   1.626   4.694   2.475  0.0223 -0.0756  0.4175
 5537SOL    HW128073   1.539   4.656   2.489 -0.3419  0.7918  0.5632
 5537SOL    HW228074   1.648   4.682   2.383 -1.3901 -0.8045  0.1794
 5538SOL     OW28075   0.729   3.181   5.501  0.5268 -0.7814 -0.2132
 5538SOL    HW128076   0.796   3.205   5.565 -1.0372 -0.1598  1.1754
 5538SOL    HW228077   0.786   3.159   5.427  1.0759  0.7543 -0.2319
 5539SOL     OW28078   3.105   2.622   4.836 -0.3645 -0.2400 -0.1294
 5539SOL    HW128079   3.114   2.609   4.930  0.2779  0.7610 -0.0562
 5539SOL    HW228080   3.114   2.531   4.809 -0.8595  0.0864 -1.4031
 5540SOL     OW28081   0.742   1.853   8.352  0.0185  0.3048  0.1095
 5540SOL    HW128082   0.774   1.942   8.334  0.2257  0.2373  0.1445
 5540SOL    HW228083   0.674   1.832   8.288  0.8972  2.4464 -1.5304
 5541SOL     OW28084   0.033   0.121   2.522 -0.9901 -0.4846 -0.5512
 5541SOL    HW128085   4.698   0.197   2.519 -1.6858 -0.9951 -0.0538
 5541SOL    HW228086   4.691   0.057   2.496  0.9326 -1.7279 -2.3509
 5542SOL     OW28087   2.914   0.072   5.655 -0.3395  0.5632 -0.2050
 5542SOL    HW128088   2.837   0.056   5.601 -0.8806 -1.3936  1.1335
 5542SOL    HW228089   2.908   4.712   5.701  0.2908  1.4139  1.4094
 5543SOL     OW28090   4.416   0.677   5.923 -0.1907 -0.2378 -0.0763
 5543SOL    HW128091   4.369   0.746   5.876 -2.1292 -0.5403  1.4223
 5543SOL    HW228092   4.417   0.726   6.005  1.4160 -1.1497  0.4274
 5544SOL     OW28093   0.764   3.566   0.705 -0.0049  0.7033 -0.3602
 5544SOL    HW128094   0.775   3.614   0.787  0.9225  0.3802 -0.2952
 5544SOL    HW228095   0.846   3.521   0.685 -0.1639  1.0366 -1.7629
 5545SOL     OW28096   3.395   1.550   0.400  0.5432 -0.1702 -0.5215
 5545SOL    HW128097   3.429   1.461   0.404  0.8494 -0.1318 -2.0840
 5545SOL    HW228098   3.475   1.596   0.377  2.0166 -2.4438  0.0800
 5546SOL     OW28099   3.169   3.001   0.527  0.2247  0.0575 -0.0181
 5546SOL    HW128100   3.126   3.028   0.609 -0.7936 -2.0722  0.1426
 5546SOL    HW228101   3.120   2.924   0.498  0.5952  0.1544 -0.8977
 5547SOL     OW28102   1.325   1.020   2.844  0.4251  0.2482 -0.2536
 5547SOL    HW128103   1.239   0.978   2.840  0.9839 -1.0445  1.2198
 5547SOL    HW228104   1.293   1.105   2.811  2.6722  0.9865 -0.4843
 5548SOL     OW28105   1.375   1.405   8.877  0.4071  0.0873  0.0063
 5548SOL    HW128106   1.458   1.358   8.866  0.5175  0.2458  0.1590
 5548SOL    HW228107   1.342   1.376   8.793 -0.5835 -1.9939  1.1366
 5549SOL     OW28108   0.103   3.680  12.210 -0.2074 -0.2718  0.1074
 5549SOL    HW128109   0.188   3.724  12.210 -0.0887 -0.4693 -3.5532
 5549SOL    HW228110   0.123   3.609  12.270 -1.1798  0.3671  1.1761
 5550SOL     OW28111   1.569   4.673   6.506  0.0837  0.0749  0.3491
 5550SOL    HW128112   1.659   4.691   6.533 -0.0604 -0.2831  1.0641
 5550SOL    HW228113   1.530   4.613   6.570  3.6582 -2.0274  0.5006
 5551SOL     OW28114   0.132   1.786   1.705 -0.0381  0.0441 -0.2883
 5551SOL    HW128115   0.041   1.787   1.676 -0.2918  1.4429  0.5659
 5551SOL    HW228116   0.177   1.792   1.621 -3.1498  1.1653 -1.8589
 5552SOL     OW28117   3.854   0.142   3.640  0.2967  0.2467  0.2378
 5552SOL    HW128118   3.837   0.048   3.632 -2.5991  0.7005  1.0263
 5552SOL    HW228119   3.785   0.169   3.701 -0.7299  0.2163 -0.9108
 5553SOL     OW28120   3.778   3.591   1.988  0.0830 -0.0948 -0.5725
 5553SOL    HW128121   3.684   3.606   1.982  0.2022  1.4166  1.3609
 5553SOL    HW228122   3.803   3.683   1.976  0.3057 -0.3915 -2.3488
 5554SOL     OW28123   0.374   3.715   2.004 -0.2654 -0.5918  0.1131
 5554SOL    HW128124   0.356   3.729   2.097  0.2482 -0.3370  0.1758
 5554SOL    HW228125   0.371   3.620   2.000  0.7726 -0.5913 -0.7466
 5555SOL     OW28126   3.948   1.545  14.946  0.7168  0.5814  0.7953
 5555SOL    HW128127   3.913   1.609  14.883  2.9358  1.7085  0.6969
 5555SOL    HW228128   4.010   1.505  14.885  0.6797 -0.5257  1.4845
 5556SOL     OW28129   2.462   4.399   8.675  0.2917  0.5297  0.1791
 5556SOL    HW128130   2.407   4.447   8.737  0.3650  0.5874  0.1993
 5556SOL    HW228131   2.532   4.463   8.686  1.4375 -0.5152 -0.9755
 5557SOL     OW28132   4.529   1.135   7.886 -0.3270  0.3957  1.0785
 5557SOL    HW128133   4.582   1.069   7.931  0.3121  0.0680 -0.1641
 5557SOL    HW228134   4.582   1.149   7.807 -1.9820  0.1401 -0.0546
 5558SOL     OW28135   2.722   2.481   5.113 -0.5137  0.2146  0.7029
 5558SOL    HW128136   2.794   2.511   5.168  0.1149 -1.1451  0.6261
 5558SOL    HW228137   2.754   2.497   5.024 -2.5969 -0.2436 -0.1410
 5559SOL     OW28138   2.881   0.043   3.039 -0.1369 -0.2006  0.3243
 5559SOL    HW128139   2.964   0.088   3.020 -0.0743 -0.0283  1.0066
 5559SOL    HW228140   2.822   0.089   2.980  0.3042 -1.9695 -1.5155
 5560SOL     OW28141   0.123   3.305  12.983 -0.4500 -0.7339  0.1857
 5560SOL    HW128142   0.194   3.291  13.045 -0.3995 -0.9128  0.0869
 5560SOL    HW228143   0.078   3.380  13.023  0.4380  0.9740 -1.9900
 5561SOL     OW28144   0.707   3.911  10.829 -0.0465  0.0941  0.2597
 5561SOL    HW128145   0.626   3.936  10.874 -0.6322 -0.7599 -0.3262
 5561SOL    HW228146   0.772   3.931  10.896  0.3262  2.2300 -0.7290
 5562SOL     OW28147   1.698   2.943   1.058  0.3247  0.2560 -0.1027
 5562SOL    HW128148   1.781   2.988   1.043  0.6625 -1.3566 -3.1053
 5562SOL    HW228149   1.686   2.967   1.150 -2.4468  1.3125 -0.7326
 5563SOL     OW28150   0.641   3.663   6.251 -0.1428  0.3307  0.8161
 5563SOL    HW128151   0.643   3.754   6.224 -0.0117 -0.0154 -0.3287
 5563SOL    HW228152   0.567   3.655   6.190  1.9411 -1.5839 -1.4359
 5564SOL     OW28153   3.340   3.053   8.052 -0.1683 -0.1793 -0.5783
 5564SOL    HW128154   3.334   3.146   8.034  0.2210 -0.2084 -0.8550
 5564SOL    HW228155   3.386   3.037   8.134  0.1106  0.8758 -0.5339
 5565SOL     OW28156   4.696   0.697   3.360  0.5820 -0.5014 -0.0914
 5565SOL    HW128157   4.675   0.784   3.395  1.8253 -0.8671  1.6024
 5565SOL    HW228158   4.722   0.645   3.436 -2.7959 -0.5420  1.0370
 5566SOL     OW28159   1.447   1.312   1.681  0.4875 -0.3768  0.2734
 5566SOL    HW128160   1.493   1.230   1.660 -1.6062 -1.1643 -1.2814
 5566SOL    HW228161   1.382   1.322   1.612  1.5775  1.2221 -0.5055
 5567SOL     OW28162   0.200   0.925  15.446 -0.2839  0.4076  0.5850
 5567SOL    HW128163   0.144   0.956  15.517 -1.9668  0.1028 -0.5800
 5567SOL    HW228164   0.159   0.843  15.418 -0.1889  0.9356 -1.1200
 5568SOL     OW28165   4.467   1.773   8.105  0.3377  0.2131 -0.0347
 5568SOL    HW128166   4.404   1.845   8.099  0.1694  0.1771  1.3730
 5568SOL    HW228167   4.506   1.800   8.188  1.1394  2.6095 -1.2076
 5569SOL     OW28168   1.962   0.605  11.285  0.3198  0.1528  0.0371
 5569SOL    HW128169   1.998   0.516  11.286 -2.0783 -0.7626  3.4630
 5569SOL    HW228170   2.042   0.649  11.256  0.7407 -0.2337  0.6197
 5570SOL     OW28171   1.469   1.467   1.274  0.1160 -0.0452 -0.1817
 5570SOL    HW128172   1.471   1.371   1.278 -2.4518  0.0340  2.6424
 5570SOL    HW228173   1.375   1.479   1.287  0.3351  0.0458  1.3144
 5571SOL     OW28174   3.690   2.955   4.795 -0.1793 -0.7994  0.0523
 5571SOL    HW128175   3.615   3.011   4.774  1.1086  0.6741 -0.6531
 5571SOL    HW228176   3.670   2.910   4.877  1.8847 -3.9356 -1.2154
 5572SOL     OW28177   3.490   2.476   4.474 -0.3728 -0.2219 -0.8034
 5572SOL    HW128178   3.522   2.564   4.496  0.8358 -1.0134  0.5562
 5572SOL    HW228179   3.397   2.478   4.496  0.6318  1.6387  3.3008
 5573SOL     OW28180   0.654   3.367   8.842 -0.0331  0.8055  0.2956
 5573SOL    HW128181   0.599   3.300   8.802  1.4834  1.6584 -3.2195
 5573SOL    HW228182   0.639   3.449   8.795  0.6733 -0.6581 -2.4405
 5574SOL     OW28183   0.607   2.772   5.056  0.2490 -0.2861 -0.2186
 5574SOL    HW128184   0.530   2.727   5.092 -0.8522  3.0603  1.6293
 5574SOL    HW228185   0.654   2.696   5.021  0.3511 -0.5176  0.4214
 5575SOL     OW28186   1.186   2.429   7.509  0.3160  0.0077  0.3799
 5575SOL    HW128187   1.233   2.476   7.579  0.1970  1.5274 -0.5584
 5575SOL    HW228188   1.124   2.368   7.549  1.8749  0.6570  3.8064
 5576SOL     OW28189   2.029   3.112  13.743  0.0445 -0.6573 -0.3378
 5576SOL    HW128190   1.937   3.093  13.761  0.1300 -0.1406  0.6759
 5576SOL    HW228191   2.075   3.028  13.746  2.5419  0.8225  2.6076
 5577SOL     OW28192   1.172   0.233  11.547 -0.1687  0.9194  0.3471
 5577SOL    HW128193   1.237   0.167  11.521  1.0921  1.3752  2.4015
 5577SOL    HW228194   1.100   0.178  11.578 -1.6836  2.4602 -0.3908
 5578SOL     OW28195   0.592   3.743   7.801  0.2521  0.4287 -0.5397
 5578SOL    HW128196   0.606   3.797   7.724  0.0091  2.5074  0.8586
 5578SOL    HW228197   0.659   3.781   7.858  1.6022  0.0344 -1.8610
 5579SOL     OW28198   1.798   0.494   1.418  0.2551  0.8642  0.2302
 5579SOL    HW128199   1.855   0.497   1.341 -2.7922 -1.2462 -2.0981
 5579SOL    HW228200   1.862   0.489   1.488 -0.4477  1.1958  0.8979
 5580SOL     OW28201   0.338   3.734   4.392 -0.2836 -0.2377  0.3411
 5580SOL    HW128202   0.304   3.649   4.363 -0.0114 -0.3911  0.4757
 5580SOL    HW228203   0.426   3.715   4.425  0.8045  0.5953 -2.1112
 5581SOL     OW28204   3.856   3.905   6.012 -0.1846 -0.4395  0.2823
 5581SOL    HW128205   3.920   3.925   6.080 -1.1625  0.4464  0.9391
 5581SOL    HW228206   3.907   3.859   5.946  0.5883  2.7159 -1.2673
 5582SOL     OW28207   4.309   0.375   7.996 -0.2685 -0.2493  0.1369
 5582SOL    HW128208   4.335   0.388   8.087  0.2245 -0.9434  0.0953
 5582SOL    HW228209   4.386   0.408   7.949 -0.3247 -0.1317  0.1285
 5583SOL     OW28210   2.932   2.998   5.730  0.2167  0.0588 -0.5441
 5583SOL    HW128211   2.852   2.950   5.750 -0.3417  0.6977 -1.2709
 5583SOL    HW228212   2.899   3.047   5.655  1.2569  2.8517  0.8207
 5584SOL     OW28213   4.664   3.642   3.670  0.2716  0.3677  0.2760
 5584SOL    HW128214   4.606   3.583   3.622  0.7955 -1.0008  1.3114
 5584SOL    HW228215   4.674   3.717   3.612  0.2283  2.2483  2.6968
 5585SOL     OW28216   3.581   1.956  12.491  0.1316 -0.0078 -0.2478
 5585SOL    HW128217   3.531   1.976  12.412 -2.9060  1.5551  2.1225
 5585SOL    HW228218   3.644   2.028  12.496 -0.2584  0.2424  1.0654
 5586SOL     OW28219   0.089   3.739  17.110  0.6322  0.1109 -0.1408
 5586SOL    HW128220   0.001   3.740  17.073  0.1567  0.1887  1.0096
 5586SOL    HW228221   0.086   3.831  17.134  0.4049 -0.2352  1.1454
 5587SOL     OW28222   3.959   1.108   5.428 -0.0960 -0.1329  0.1960
 5587SOL    HW128223   3.961   1.037   5.492  0.4712 -1.3790 -1.1893
 5587SOL    HW228224   3.974   1.060   5.346  3.2825  0.6552  0.3289
 5588SOL     OW28225   3.830   3.520   2.821  0.5716 -0.1908 -0.7697
 5588SOL    HW128226   3.770   3.479   2.759 -0.4680 -2.4121  1.7209
 5588SOL    HW228227   3.883   3.454   2.865  0.3679  0.3133  0.2411
 5589SOL     OW28228   1.360   1.907   7.823  0.0666 -0.3195  0.0983
 5589SOL    HW128229   1.310   1.984   7.795  0.9206 -0.6023 -2.2508
 5589SOL    HW228230   1.434   1.907   7.761 -0.4937 -1.6155 -0.5697
 5590SOL     OW28231   3.718   3.615  11.467 -0.3481 -0.2872 -0.0458
 5590SOL    HW128232   3.762   3.699  11.451  1.5941 -1.0567  1.1928
 5590SOL    HW228233   3.631   3.645  11.441  0.1483  0.6319 -0.6629
 5591SOL     OW28234   0.686   4.063  10.259  0.2454  0.2037  0.1857
 5591SOL    HW128235   0.698   4.042  10.352  1.1277  0.2806  0.0798
 5591SOL    HW228236   0.697   4.158  10.261  0.1882  0.2035  0.6626
 5592SOL     OW28237   3.093   1.468  10.957  0.6913 -0.4559  0.5615
 5592SOL    HW128238   3.175   1.517  10.960  0.1211  0.4753  0.7559
 5592SOL    HW228239   3.042   1.530  11.008  0.8443  1.2690 -1.4002
 5593SOL     OW28240   1.085   2.156  12.365  0.0268  0.2240 -0.1522
 5593SOL    HW128241   1.075   2.103  12.443  0.2716  2.7152  1.5673
 5593SOL    HW228242   1.168   2.200  12.386 -0.2153  1.6612 -2.1167
 5594SOL     OW28243   2.384   0.617   6.750 -0.4762  0.1158 -0.2561
 5594SOL    HW128244   2.309   0.623   6.809  0.7492  0.4081  1.2642
 5594SOL    HW228245   2.442   0.562   6.802 -1.3654 -0.6573 -0.0776
 5595SOL     OW28246   3.209   3.752  12.085 -0.3852  0.4786 -0.5237
 5595SOL    HW128247   3.184   3.670  12.126  0.1340  0.2201 -0.7276
 5595SOL    HW228248   3.276   3.779  12.147  0.1304 -0.6834 -0.5736
 5596SOL     OW28249   3.073   0.650   4.218  0.4214 -0.0620 -0.6370
 5596SOL    HW128250   3.115   0.736   4.225 -0.2426  0.2296 -0.2868
 5596SOL    HW228251   3.154   0.599   4.230  0.0282 -0.6243 -0.3370
 5597SOL     OW28252   3.840   1.585   5.399  0.5242  0.7485 -0.4862
 5597SOL    HW128253   3.822   1.544   5.314 -0.8283  1.2439 -0.4463
 5597SOL    HW228254   3.874   1.509   5.445 -0.5930 -0.6563 -1.9768
 5598SOL     OW28255   4.222   0.046   6.310  0.0875  0.3151 -0.2995
 5598SOL    HW128256   4.213   0.113   6.242 -2.6699 -1.5801 -1.8096
 5598SOL    HW228257   4.131   0.027   6.334 -0.0461  2.5462  0.9405
 5599SOL     OW28258   1.705   1.503   7.425 -0.0154  0.2041  0.0565
 5599SOL    HW128259   1.649   1.514   7.502 -1.5508  1.3397 -1.2188
 5599SOL    HW228260   1.739   1.414   7.434  3.7550  1.6022 -0.1198
 5600SOL     OW28261   0.643   2.607   5.575  0.1549 -0.4030 -0.6291
 5600SOL    HW128262   0.623   2.521   5.539  2.5437 -1.4348  0.5236
 5600SOL    HW228263   0.587   2.672   5.531 -0.6661  1.0975  2.5873
 5601SOL     OW28264   4.320   2.651   3.151 -0.3659  0.3872 -0.4685
 5601SOL    HW128265   4.286   2.575   3.199 -3.6533  4.0655  3.0412
 5601SOL    HW228266   4.389   2.688   3.205 -0.3770 -1.1227  0.5746
 5602SOL     OW28267   3.720   3.331  13.209 -0.0311 -0.2399  0.5571
 5602SOL    HW128268   3.645   3.295  13.162  0.3007 -0.7217  0.4042
 5602SOL    HW228269   3.752   3.391  13.141  1.4721  0.1014  1.5865
 5603SOL     OW28270   4.197   0.344  16.804  0.4819 -0.0176  0.4656
 5603SOL    HW128271   4.211   0.263  16.753  0.4659  0.0857  0.2961
 5603SOL    HW228272   4.288   0.358  16.827  0.4304  2.0371 -0.6532
 5604SOL     OW28273   0.787   1.222   1.007  0.7872  0.0426  0.3911
 5604SOL    HW128274   0.863   1.277   0.991  1.3445 -0.5998  0.8100
 5604SOL    HW228275   0.730   1.282   1.053 -1.0388 -0.8251 -0.7352
 5605SOL     OW28276   0.376   0.850   9.498  0.8593 -0.1554 -0.5759
 5605SOL    HW128277   0.379   0.784   9.567 -1.3887  1.3768  0.9526
 5605SOL    HW228278   0.434   0.915   9.537  1.2916 -1.4394  0.9334
 5606SOL     OW28279   3.274   0.364   5.842 -0.1685  0.1989 -0.5631
 5606SOL    HW128280   3.246   0.415   5.918 -3.2365  1.0699 -2.2625
 5606SOL    HW228281   3.257   0.430   5.775 -0.1589  1.9252  1.1274
 5607SOL     OW28282   0.041   3.050   0.578  0.2434 -0.2873 -0.3761
 5607SOL    HW128283   0.066   3.020   0.490 -0.0130  0.1271 -0.5915
 5607SOL    HW228284   4.674   3.019   0.587 -0.2484  0.7284 -1.8358
 5608SOL     OW28285   2.705   1.980   3.370 -0.6899 -1.0256  0.3787
 5608SOL    HW128286   2.712   2.067   3.409  0.6420 -0.7285 -0.5277
 5608SOL    HW228287   2.659   1.991   3.287 -0.6030  1.2012  0.6158
 5609SOL     OW28288   0.215   3.385   1.118  0.1591 -0.3247 -0.1122
 5609SOL    HW128289   0.141   3.419   1.167 -0.4608 -0.8909 -0.6384
 5609SOL    HW228290   0.286   3.403   1.179  1.5415 -0.1802 -1.7654
 5610SOL     OW28291   2.161   3.357   6.730 -0.2541  0.3374 -0.1080
 5610SOL    HW128292   2.243   3.405   6.721 -0.1753  0.6227  2.0538
 5610SOL    HW228293   2.100   3.417   6.687 -1.3862  0.8067  2.1450
 5611SOL     OW28294   0.941   3.319   3.012 -0.1875 -0.1009 -0.2891
 5611SOL    HW128295   0.856   3.349   2.979  0.5856 -0.3740 -2.4850
 5611SOL    HW228296   1.000   3.364   2.951 -1.0616  1.8708  0.3111
 5612SOL     OW28297   1.122   2.001  12.596 -0.6066  0.5439 -0.5358
 5612SOL    HW128298   1.087   1.917  12.625 -1.3455  0.6660 -1.0951
 5612SOL    HW228299   1.134   2.055  12.674 -0.4101  1.0401 -0.9138
 5613SOL     OW28300   1.929   2.384   5.990  0.0114 -0.8455  0.0271
 5613SOL    HW128301   1.916   2.297   6.027  1.0686  0.4969  3.6487
 5613SOL    HW228302   1.859   2.389   5.926  0.7532  0.7040 -0.6617
 5614SOL     OW28303   3.858   2.519   4.944 -0.4135  0.2602  0.4185
 5614SOL    HW128304   3.928   2.558   4.996 -0.7305 -1.3105  1.9988
 5614SOL    HW228305   3.874   2.558   4.857 -0.1082 -0.7860  0.0100
 5615SOL     OW28306   4.026   2.010   7.025  0.0924 -0.2902 -0.5644
 5615SOL    HW128307   3.938   2.027   7.059  0.0335  0.8033 -1.2265
 5615SOL    HW228308   4.070   1.982   7.105 -1.5847 -0.0093  0.4605
 5616SOL     OW28309   2.248   1.266   6.129  0.0434 -0.4157 -0.5632
 5616SOL    HW128310   2.222   1.210   6.056 -2.0360  1.5384 -1.2893
 5616SOL    HW228311   2.294   1.204   6.186 -1.7025 -0.7397  0.5088
 5617SOL     OW28312   0.561   3.605   8.739  0.7418  0.0253  0.0408
 5617SOL    HW128313   0.647   3.646   8.742  0.2785  0.9039  1.0596
 5617SOL    HW228314   0.517   3.676   8.693  1.0129 -0.7694 -1.4407
 5618SOL     OW28315   1.145   0.558   3.236 -0.1473 -0.2636 -0.4333
 5618SOL    HW128316   1.129   0.574   3.143  0.8103  0.0345 -0.5450
 5618SOL    HW228317   1.082   0.490   3.259 -2.2699  0.9352 -2.7066
 5619SOL     OW28318   0.696   2.413  13.059  0.1196 -0.4873  0.3291
 5619SOL    HW128319   0.784   2.388  13.086  0.3077 -0.1121  0.0663
 5619SOL    HW228320   0.665   2.332  13.019  1.1314  0.0461 -1.5294
 5620SOL     OW28321   3.037   3.386  12.027 -0.7570  1.1791 -0.1531
 5620SOL    HW128322   3.073   3.315  12.081 -0.6967  1.5138  0.2492
 5620SOL    HW228323   3.062   3.344  11.945  0.2822  3.1029 -0.8225
 5621SOL     OW28324   4.325   4.175  12.820 -0.4673  0.7372 -0.2350
 5621SOL    HW128325   4.371   4.154  12.739 -0.3361 -2.0537  0.5689
 5621SOL    HW228326   4.233   4.180  12.796 -0.4017 -0.3323 -0.6842
 5622SOL     OW28327   1.635   0.164   8.682 -0.7897 -0.5187 -0.5039
 5622SOL    HW128328   1.580   0.242   8.677  0.4401  0.2927 -1.2371
 5622SOL    HW228329   1.724   0.194   8.702 -0.5337 -1.4068 -0.3067
 5623SOL     OW28330   4.493   3.733   5.855  0.6891 -0.4488  0.2345
 5623SOL    HW128331   4.433   3.700   5.788 -0.1611  0.3671  0.5849
 5623SOL    HW228332   4.462   3.691   5.935 -1.2479  0.0464 -0.2492
 5624SOL     OW28333   0.098   0.992   6.932  0.0795 -0.2058  0.0286
 5624SOL    HW128334   0.069   0.946   6.853  1.4387 -2.4198  0.8145
 5624SOL    HW228335   0.190   1.011   6.918  0.7260 -1.9816  1.8327
 5625SOL     OW28336   3.805   3.965   5.245 -0.1672 -0.3027  0.0714
 5625SOL    HW128337   3.752   3.918   5.180  1.3190 -0.3763 -1.0740
 5625SOL    HW228338   3.817   3.897   5.312  0.1353  0.3573  0.6867
 5626SOL     OW28339   3.934   2.069   5.563  0.0700 -0.0091 -0.2260
 5626SOL    HW128340   3.968   2.102   5.479  2.1302 -2.2251 -0.2794
 5626SOL    HW228341   3.976   2.125   5.628 -0.7072  0.0532  0.2203
 5627SOL     OW28342   0.084   1.982   4.893  0.1404  0.6510 -0.1427
 5627SOL    HW128343   0.099   2.024   4.808  1.2460 -0.0278 -0.2836
 5627SOL    HW228344   0.166   1.935   4.905 -0.1512  0.3496  0.6693
 5628SOL     OW28345   2.472   2.698   1.113 -0.4569 -0.6503 -0.0458
 5628SOL    HW128346   2.559   2.697   1.155 -0.8989 -0.8441  0.8798
 5628SOL    HW228347   2.465   2.635   1.042 -1.1195  0.8305 -1.2921
 5629SOL     OW28348   1.239   4.072   3.730  0.3464  0.2268  0.2588
 5629SOL    HW128349   1.281   4.074   3.644  0.0918 -1.1281  0.1049
 5629SOL    HW228350   1.289   4.016   3.790  0.7873  0.0980 -0.2281
 5630SOL     OW28351   1.797   0.910  14.092  0.0212  0.4353 -0.4522
 5630SOL    HW128352   1.802   0.963  14.172 -0.3128 -1.5831  0.8988
 5630SOL    HW228353   1.880   0.864  14.078  0.6701  1.9721 -1.7222
 5631SOL     OW28354   3.900   1.407   3.061  0.4233  0.1303 -0.6433
 5631SOL    HW128355   3.970   1.364   3.110  2.1968  0.8872 -2.5459
 5631SOL    HW228356   3.841   1.344   3.018  2.3268  0.1308 -3.2756
 5632SOL     OW28357   3.906   1.756  11.616  0.3019  0.0801  0.2651
 5632SOL    HW128358   3.972   1.823  11.597  1.6595 -0.4931  2.8936
 5632SOL    HW228359   3.860   1.797  11.689  0.5578 -0.0629  0.5088
 5633SOL     OW28360   4.410   2.099   4.081  0.1116 -0.6304 -0.3849
 5633SOL    HW128361   4.449   2.184   4.097  1.3421 -1.2900  0.0902
 5633SOL    HW228362   4.360   2.119   4.002 -1.9336  1.3582  1.4199
 5634SOL     OW28363   0.725   1.981  11.153 -0.1708  0.3264 -0.3752
 5634SOL    HW128364   0.770   2.046  11.099  1.3965  0.2755  0.8321
 5634SOL    HW228365   0.793   1.914  11.164 -0.8285 -0.1159  1.1010
 5635SOL     OW28366   2.056   0.838   4.487  0.2841 -0.2415  0.9574
 5635SOL    HW128367   2.088   0.927   4.477 -1.7193  0.1395 -2.0858
 5635SOL    HW228368   2.060   0.833   4.582  1.9584 -1.0408  0.8399
 5636SOL     OW28369   4.518   1.328   7.402  0.2950 -0.9332 -0.0359
 5636SOL    HW128370   4.441   1.329   7.345  0.5911  2.5689 -0.3934
 5636SOL    HW228371   4.585   1.316   7.335  0.9431 -0.2899  0.4899
 5637SOL     OW28372   4.633   0.715   7.657 -0.6113  0.4201 -0.6858
 5637SOL    HW128373   4.593   0.664   7.727  0.2798  1.6245  0.7226
 5637SOL    HW228374   4.558   0.762   7.621 -2.3545 -0.3392  1.9379
 5638SOL     OW28375   0.125   1.502  10.131  0.6191 -0.4410 -0.2062
 5638SOL    HW128376   0.051   1.528  10.186 -0.5393  1.0823 -2.5007
 5638SOL    HW228377   0.117   1.559  10.054 -0.6442  0.4577  0.6028
 5639SOL     OW28378   2.367   3.057  14.412  0.1028  0.4046  0.2972
 5639SOL    HW128379   2.452   3.099  14.426  1.2178 -1.1998 -1.6464
 5639SOL    HW228380   2.365   3.048  14.316  1.4607  1.3124  0.1784
 5640SOL     OW28381   2.519   2.715   5.045  0.0432 -0.1645  0.3154
 5640SOL    HW128382   2.499   2.781   4.979 -0.1061  0.4830  1.0047
 5640SOL    HW228383   2.586   2.756   5.101  0.7466  1.7595 -1.9525
 5641SOL     OW28384   3.823   4.032   8.133 -0.2470  0.4201  0.3766
 5641SOL    HW128385   3.883   4.082   8.077  0.6686 -0.6319  0.4279
 5641SOL    HW228386   3.804   4.100   8.198  3.6252  2.1349 -0.2618
 5642SOL     OW28387   3.125   0.638   1.436 -0.1037  0.4856  0.3106
 5642SOL    HW128388   3.078   0.591   1.504  0.4861  0.7361  0.8928
 5642SOL    HW228389   3.190   0.691   1.483  0.9476 -1.4631  1.0347
 5643SOL     OW28390   0.944   3.960  16.089 -0.2488  0.1118 -0.4949
 5643SOL    HW128391   0.861   3.992  16.124 -0.8570 -2.2576  0.2251
 5643SOL    HW228392   0.918   3.869  16.075 -2.3717  0.8377 -1.2757
 5644SOL     OW28393   1.044   0.881  10.154 -0.0150 -0.2131  0.0952
 5644SOL    HW128394   1.036   0.786  10.148  1.4277 -0.4812  2.4122
 5644SOL    HW228395   1.129   0.895  10.112 -0.0330  0.0407  0.1415
 5645SOL     OW28396   1.516   2.144  15.102 -0.3572  0.1630  0.0888
 5645SOL    HW128397   1.522   2.054  15.136  2.7836  0.4458  0.1994
 5645SOL    HW228398   1.609   2.163  15.093 -0.3522 -0.2709 -0.7333
 5646SOL     OW28399   3.209   1.845   4.949 -0.7157 -0.4226  0.6649
 5646SOL    HW128400   3.229   1.843   5.042  1.1274  0.5778  0.2873
 5646SOL    HW228401   3.132   1.789   4.936 -0.5601 -0.4449 -0.1685
 5647SOL     OW28402   3.291   3.987   6.115 -0.2746  0.1984  0.4633
 5647SOL    HW128403   3.344   4.044   6.059  1.3254 -0.4516  1.3184
 5647SOL    HW228404   3.279   3.905   6.066  2.6072  0.2116 -0.2794
 5648SOL     OW28405   1.881   4.344   3.257  0.2531 -0.4138  0.5600
 5648SOL    HW128406   1.936   4.421   3.274 -1.6257  1.2798 -1.1045
 5648SOL    HW228407   1.898   4.338   3.163 -0.9808 -0.1453  0.3230
 5649SOL     OW28408   1.911   3.956   3.020  0.1993  0.3700 -0.2957
 5649SOL    HW128409   1.981   3.966   3.084 -1.3716  2.9690  1.0003
 5649SOL    HW228410   1.941   3.877   2.975 -0.0647  0.4522 -0.6163
 5650SOL     OW28411   2.960   0.368   1.145 -0.1318 -0.9823 -0.2209
 5650SOL    HW128412   2.910   0.436   1.100 -0.3732 -0.2661  1.1369
 5650SOL    HW228413   2.934   0.354   1.235  0.4926  0.6727  0.2302
 5651SOL     OW28414   4.441   2.107   5.407 -0.5264  0.3153 -0.5414
 5651SOL    HW128415   4.486   2.109   5.323  1.3765 -0.4618  0.4602
 5651SOL    HW228416   4.443   2.202   5.416  0.0320 -0.0663  3.2904
 5652SOL     OW28417   0.983   2.642  14.111  0.5667  0.0095 -0.5616
 5652SOL    HW128418   0.995   2.735  14.093 -0.3675 -0.5318 -4.0324
 5652SOL    HW228419   0.987   2.613  14.019  2.1639 -1.2328 -0.0900
 5653SOL     OW28420   0.866   3.823   4.873 -0.3519 -0.1174  0.3397
 5653SOL    HW128421   0.791   3.815   4.813  0.0931  1.7580 -0.4789
 5653SOL    HW228422   0.918   3.749   4.842  0.2008 -1.0203  3.4314
 5654SOL     OW28423   3.273   3.065   3.751 -0.1052  0.1401 -0.0637
 5654SOL    HW128424   3.241   3.145   3.793 -0.5536 -0.2076  0.2659
 5654SOL    HW228425   3.186   3.031   3.731 -0.4382  1.9632 -1.6520
 5655SOL     OW28426   0.683   3.962  10.546 -0.1844 -0.1961 -0.0259
 5655SOL    HW128427   0.656   4.053  10.555 -0.4524 -0.6707  4.0525
 5655SOL    HW228428   0.691   3.934  10.638 -0.8029 -1.0937 -0.2430
 5656SOL     OW28429   3.874   4.111   4.538  0.4890  0.1084  0.1883
 5656SOL    HW128430   3.804   4.069   4.588 -0.7586  3.4591  1.2325
 5656SOL    HW228431   3.935   4.040   4.519  0.1793  0.5381 -2.3882
 5657SOL     OW28432   4.621   4.025  11.390  0.4892 -0.5321 -0.3247
 5657SOL    HW128433   4.625   3.996  11.299  2.1133  0.4291 -0.5566
 5657SOL    HW228434   4.716   4.031  11.404 -0.0662 -1.8935  4.3047
 5658SOL     OW28435   1.791   2.044   3.922  0.4090  0.4705  0.0702
 5658SOL    HW128436   1.729   2.054   3.850  1.5457  3.2660 -0.5012
 5658SOL    HW228437   1.868   2.014   3.875  0.7427 -1.7389  2.0187
 5659SOL     OW28438   3.810   1.606  12.038 -0.0531  0.5008  0.0879
 5659SOL    HW128439   3.810   1.701  12.039  3.1437  0.4926  0.0851
 5659SOL    HW228440   3.722   1.590  12.071 -0.4373  0.8929 -0.7408
 5660SOL     OW28441   0.503   3.463   2.455 -0.3047 -0.2708 -0.4536
 5660SOL    HW128442   0.459   3.380   2.476  1.9939 -1.5818 -0.8399
 5660SOL    HW228443   0.440   3.487   2.387 -1.2264  0.6101  0.7146
 5661SOL     OW28444   1.291   2.288   5.297 -0.6283 -0.1833  0.3199
 5661SOL    HW128445   1.377   2.256   5.322 -0.6487 -0.1460  0.4387
 5661SOL    HW228446   1.231   2.263   5.368  0.8546 -0.6051  1.4183
 5662SOL     OW28447   3.161   1.338  13.625  0.3394 -0.2435  0.4467
 5662SOL    HW128448   3.250   1.370  13.639  1.2515 -2.1815 -0.9645
 5662SOL    HW228449   3.110   1.413  13.593  0.3348  0.0662  1.1874
 5663SOL     OW28450   4.718   3.774  15.696  0.4568  0.0147 -0.0658
 5663SOL    HW128451   0.064   3.733  15.645  0.8796  0.3917  0.2182
 5663SOL    HW228452   0.000   3.725  15.778  2.5534 -1.3356 -1.0177
 5664SOL     OW28453   3.484   0.173   5.282 -0.9820 -0.2187 -0.0847
 5664SOL    HW128454   3.461   0.266   5.273  1.4204  0.3983  0.1077
 5664SOL    HW228455   3.475   0.174   5.377  0.5948  1.2132  0.0480
 5665SOL     OW28456   3.702   3.214   5.585 -0.2387 -0.0559 -0.2954
 5665SOL    HW128457   3.683   3.208   5.491 -0.0135  0.9953 -0.4119
 5665SOL    HW228458   3.625   3.256   5.622 -0.2125  0.1003 -0.4160
 5666SOL     OW28459   4.441   0.828   4.446 -0.4760  0.3176 -0.4629
 5666SOL    HW128460   4.427   0.914   4.406  0.0619  1.3865  1.6436
 5666SOL    HW228461   4.454   0.772   4.369  0.5896  0.2836 -0.2677
 5667SOL     OW28462   2.509   4.463   6.082  0.1958  0.3763 -0.6239
 5667SOL    HW128463   2.510   4.415   5.999  0.5629 -0.4344 -0.1449
 5667SOL    HW228464   2.420   4.448   6.112  0.8932 -2.2856  0.0948
 5668SOL     OW28465   1.980   1.854   3.156  0.0321 -0.0756  0.1777
 5668SOL    HW128466   2.003   1.795   3.084  0.6491  0.5084 -0.1033
 5668SOL    HW228467   2.023   1.937   3.137 -3.6094  1.6419 -0.5681
 5669SOL     OW28468   2.499   2.219   2.721 -0.7718  0.1957  0.6233
 5669SOL    HW128469   2.563   2.230   2.791  0.1512  1.0416 -0.3565
 5669SOL    HW228470   2.457   2.135   2.740 -0.0456 -0.1398  0.7386
 5670SOL     OW28471   2.250   0.287  17.283  0.0259  0.0040 -0.0471
 5670SOL    HW128472   2.344   0.300  17.296  0.5102 -2.9366 -0.7939
 5670SOL    HW228473   2.243   0.333  17.199  3.5664 -0.0255 -0.3602
 5671SOL     OW28474   1.151   3.512   2.953  0.0944  0.6636  0.1462
 5671SOL    HW128475   1.239   3.476   2.951 -0.5695 -0.9462 -0.3104
 5671SOL    HW228476   1.155   3.550   2.866  0.1616 -0.5316 -0.3646
 5672SOL     OW28477   0.747   3.225  16.772 -0.4550  0.5490 -0.1444
 5672SOL    HW128478   0.670   3.169  16.786 -1.0791  2.0534  2.5312
 5672SOL    HW228479   0.808   3.153  16.759 -2.4938 -0.4816 -4.0251
 5673SOL     OW28480   3.077   2.057   1.075 -0.0589  0.4481  0.4754
 5673SOL    HW128481   3.071   2.021   1.163  2.3299 -2.1504 -0.3998
 5673SOL    HW228482   3.059   2.146   1.102 -1.1883  1.0079 -2.0854
 5674SOL     OW28483   3.809   0.529   1.026  0.2894  0.7050  0.0744
 5674SOL    HW128484   3.800   0.483   0.943 -1.8629  1.0497  0.1036
 5674SOL    HW228485   3.899   0.559   1.020  0.1926  0.8815 -0.4526
 5675SOL     OW28486   3.089   2.456  12.625 -0.4137  0.4702  0.3169
 5675SOL    HW128487   3.022   2.463  12.692  0.2012  2.8751  0.6798
 5675SOL    HW228488   3.154   2.507  12.673 -0.1530 -0.4117  0.9002
 5676SOL     OW28489   1.119   2.125  16.289  0.0841  0.1182  0.0955
 5676SOL    HW128490   1.024   2.120  16.300  0.0896  0.2070  0.1852
 5676SOL    HW228491   1.122   2.149  16.197 -0.1628  0.5829  0.2107
 5677SOL     OW28492   3.357   1.166   3.811  0.4502 -0.2311  0.2356
 5677SOL    HW128493   3.445   1.147   3.778 -0.1709  1.5202 -2.4600
 5677SOL    HW228494   3.333   1.086   3.858  0.2454 -0.8981 -1.0068
 5678SOL     OW28495   1.051   1.931   5.345  0.3036  0.1837 -0.0794
 5678SOL    HW128496   1.102   1.852   5.361 -0.0099 -0.1852 -0.9344
 5678SOL    HW228497   0.961   1.901   5.357  0.8290 -1.9877 -1.5978
 5679SOL     OW28498   2.993   2.634   2.121 -1.1872  0.4447 -0.3614
 5679SOL    HW128499   2.974   2.553   2.170  0.9820 -0.7377 -1.4922
 5679SOL    HW228500   2.989   2.701   2.189  0.7353  0.2587 -0.0827
 5680SOL     OW28501   1.687   0.617  16.344  0.1215 -0.2121 -0.1695
 5680SOL    HW128502   1.720   0.555  16.409 -0.8386  1.5463  1.9668
 5680SOL    HW228503   1.756   0.683  16.339 -1.4252  1.2806 -1.9232
 5681SOL     OW28504   1.050   4.145   5.502 -0.1951  0.2222 -0.1720
 5681SOL    HW128505   1.047   4.124   5.409 -0.9094 -0.5475  0.0335
 5681SOL    HW228506   1.138   4.185   5.499  0.4427 -1.3045 -1.4552
 5682SOL     OW28507   3.495   3.507   1.483  0.2093 -0.3497  0.1367
 5682SOL    HW128508   3.468   3.474   1.398 -2.6455  0.2256  0.8267
 5682SOL    HW228509   3.582   3.467   1.492 -0.3615 -1.5228  0.4173
 5683SOL     OW28510   4.077   3.482   2.495 -0.3301  0.3740  0.1399
 5683SOL    HW128511   4.120   3.506   2.577 -1.0020  0.8222  0.3597
 5683SOL    HW228512   4.150   3.455   2.439 -0.2004 -1.6651  1.2999
 5684SOL     OW28513   3.769   0.334   0.817 -0.2828 -0.1982  0.0880
 5684SOL    HW128514   3.678   0.327   0.845  0.0761 -0.1113  1.2966
 5684SOL    HW228515   3.817   0.255   0.840  1.1987  0.3609 -1.0509
 5685SOL     OW28516   2.319   1.583   9.651 -0.4152 -1.2064  0.1967
 5685SOL    HW128517   2.293   1.666   9.691  1.0956 -0.4000 -0.4936
 5685SOL    HW228518   2.328   1.523   9.725 -0.0232 -0.8038  0.4786
 5686SOL     OW28519   4.584   1.645  12.671  0.7291  0.4272  0.3436
 5686SOL    HW128520   4.586   1.568  12.615  0.0282  0.7809 -0.1700
 5686SOL    HW228521   4.669   1.687  12.656  0.2803  1.4797  0.7366
 5687SOL     OW28522   0.217   0.565   5.736 -0.1688 -0.2937 -0.7659
 5687SOL    HW128523   0.167   0.593   5.813 -1.9759  1.1247 -2.4639
 5687SOL    HW228524   0.195   0.641   5.683 -4.5221  0.0543  1.5392
 5688SOL     OW28525   0.147   1.295   7.967  0.0193 -0.2037 -0.4538
 5688SOL    HW128526   0.102   1.211   7.972  0.2959 -0.1554  2.7345
 5688SOL    HW228527   0.087   1.352   7.918 -0.1470  1.0086  1.1468
 5689SOL     OW28528   3.954   2.638   0.637 -0.2991  0.2981  0.4669
 5689SOL    HW128529   3.974   2.548   0.663 -0.6005 -0.4743 -2.0373
 5689SOL    HW228530   4.036   2.674   0.602 -1.1538  0.3554 -1.4510
 5690SOL     OW28531   0.076   3.130   2.388 -0.2532 -0.2119 -0.2414
 5690SOL    HW128532   0.139   3.120   2.459  0.0440 -2.3144 -0.7890
 5690SOL    HW228533   0.101   3.047   2.346  2.3136  0.6091 -0.3128
 5691SOL     OW28534   1.152   1.815   8.756  0.2504  0.1873 -0.6009
 5691SOL    HW128535   1.199   1.891   8.792  1.0879  0.0780 -1.4695
 5691SOL    HW228536   1.071   1.858   8.730  1.2122  1.9253 -0.7099
 5692SOL     OW28537   3.160   2.519   7.395 -0.4886 -1.0741  0.0762
 5692SOL    HW128538   3.207   2.585   7.446 -0.2750 -2.6326  1.9074
 5692SOL    HW228539   3.220   2.445   7.385  0.6105 -0.5910  3.1326
 5693SOL     OW28540   4.012   3.918   6.222 -0.5533  0.8776 -0.5133
 5693SOL    HW128541   3.987   3.873   6.302 -0.7315 -0.4324 -1.3094
 5693SOL    HW228542   4.069   3.990   6.250  1.2257 -0.0793 -1.6489
 5694SOL     OW28543   4.492   3.070   5.617 -0.5621  0.1227 -0.4122
 5694SOL    HW128544   4.478   3.158   5.581  0.3941  0.5419  0.2365
 5694SOL    HW228545   4.402   3.044   5.638 -1.0872  1.3590 -1.1875
 5695SOL     OW28546   1.460   4.690   1.770  0.3156 -0.3226 -0.0726
 5695SOL    HW128547   1.550   4.667   1.795  0.3975 -1.9409 -1.8314
 5695SOL    HW228548   1.481   0.049   1.726 -0.3995 -0.3140 -0.3878
 5696SOL     OW28549   3.902   2.534   7.256 -0.1865 -0.2963  0.6831
 5696SOL    HW128550   3.963   2.578   7.316  0.9115 -2.1013  0.8897
 5696SOL    HW228551   3.873   2.459   7.308  1.7227  0.9394  3.5472
 5697SOL     OW28552   1.664   3.533   3.553  0.4104 -0.7404  0.3149
 5697SOL    HW128553   1.681   3.537   3.458 -1.2072  1.0527  0.1003
 5697SOL    HW228554   1.571   3.556   3.551  1.1971  2.3949 -0.0124
 5698SOL     OW28555   0.182   0.194   4.565 -0.5735  0.1261  0.0414
 5698SOL    HW128556   0.190   0.262   4.498  0.5827  0.7011  0.7783
 5698SOL    HW228557   0.204   0.248   4.641  2.2900 -1.6223  0.4273
 5699SOL     OW28558   3.548   0.821  10.091  0.1857 -0.4861 -0.1082
 5699SOL    HW128559   3.625   0.873  10.115 -0.3069  1.2320 -2.2600
 5699SOL    HW228560   3.567   0.739  10.135  1.3757  0.6664  1.5310
 5700SOL     OW28561   0.751   1.169   3.560 -0.1468 -0.0889 -0.0034
 5700SOL    HW128562   0.766   1.083   3.521 -2.2492 -0.9045  0.9763
 5700SOL    HW228563   0.663   1.197   3.534 -0.0893 -1.7837 -1.9744
 5701SOL     OW28564   3.699   2.401  14.855 -1.0046  0.1320  0.1828
 5701SOL    HW128565   3.653   2.451  14.787 -2.0643  0.0737  0.8638
 5701SOL    HW228566   3.766   2.359  14.800 -0.8546  0.6672 -0.0428
 5702SOL     OW28567   4.370   0.379   6.203  0.5173 -0.3663 -0.1768
 5702SOL    HW128568   4.315   0.367   6.126 -1.1030 -0.0080  0.9457
 5702SOL    HW228569   4.386   0.290   6.236 -0.2713 -0.2466  0.5213
 5703SOL     OW28570   1.653   1.873   5.590 -0.1794 -0.0958  0.4652
 5703SOL    HW128571   1.734   1.822   5.592 -0.0501  0.0010 -2.7306
 5703SOL    HW228572   1.601   1.824   5.526  0.8383 -0.4980 -0.0501
 5704SOL     OW28573   1.399   1.207   2.240  0.0966  0.1187  0.3927
 5704SOL    HW128574   1.388   1.118   2.205 -3.1817  0.5336  0.3843
 5704SOL    HW228575   1.454   1.242   2.170 -0.2144  3.5396  1.8863
 5705SOL     OW28576   3.302   2.820   5.310 -0.0029  0.8295  0.5488
 5705SOL    HW128577   3.354   2.739   5.315  0.5247  0.9493 -2.9440
 5705SOL    HW228578   3.211   2.792   5.303 -0.0829  1.3393 -0.4090
 5706SOL     OW28579   0.469   1.739   3.987  0.1267  0.0172 -0.8766
 5706SOL    HW128580   0.448   1.822   3.944  2.0393 -0.3682 -2.4973
 5706SOL    HW228581   0.470   1.673   3.918 -0.5625 -1.8510  0.8904
 5707SOL     OW28582   3.288   4.499  15.856  0.1824 -0.3235  0.1635
 5707SOL    HW128583   3.361   4.545  15.898 -1.0900  1.9718 -0.1109
 5707SOL    HW228584   3.251   4.445  15.926  2.9082 -1.8580  0.4323
 5708SOL     OW28585   4.333   4.096   7.712 -0.0754  0.6073  0.1455
 5708SOL    HW128586   4.420   4.131   7.692  1.0060 -0.8870  2.2217
 5708SOL    HW228587   4.314   4.135   7.797 -2.6879 -3.3807  1.3609
 5709SOL     OW28588   0.352   2.811   8.198  0.1791  0.0708 -0.4103
 5709SOL    HW128589   0.423   2.872   8.217 -0.6044 -0.0170  2.8202
 5709SOL    HW228590   0.294   2.798   8.273 -2.1503 -2.6153 -2.6862
 5710SOL     OW28591   3.788   4.614  14.814 -0.0498  0.1490  0.0023
 5710SOL    HW128592   3.789   4.519  14.822 -0.4299  0.1698  0.2748
 5710SOL    HW228593   3.694   4.623  14.797 -0.2240  1.6326  1.8136
 5711SOL     OW28594   4.422   1.337   9.570  0.2215 -0.5061 -0.6505
 5711SOL    HW128595   4.336   1.373   9.550  1.0175  1.4840 -0.4584
 5711SOL    HW228596   4.399   1.290   9.650 -1.0620  1.2559  0.0086
 5712SOL     OW28597   3.129   2.420   5.326 -0.4771 -0.0063 -0.4973
 5712SOL    HW128598   3.056   2.442   5.384  0.7875  1.5982  0.4716
 5712SOL    HW228599   3.204   2.452   5.375  0.3811 -2.7872  0.0145
 5713SOL     OW28600   0.482   3.735  14.833 -0.3763  0.4499  0.4608
 5713SOL    HW128601   0.501   3.686  14.753  1.8998  1.3657  0.4441
 5713SOL    HW228602   0.388   3.720  14.841 -0.0155 -1.3408  1.3120
 5714SOL     OW28603   3.620   1.430   6.991  0.5713  0.1731 -0.5117
 5714SOL    HW128604   3.652   1.494   6.927  0.9251 -0.4765 -0.9817
 5714SOL    HW228605   3.527   1.429   6.970  0.7147 -0.1670 -1.1422
 5715SOL     OW28606   2.535   2.493  10.935 -0.2138  0.6271 -0.6045
 5715SOL    HW128607   2.493   2.556  10.993  0.3784 -0.1773  0.6960
 5715SOL    HW228608   2.528   2.525  10.845 -1.3321  1.8875 -0.0573
 5716SOL     OW28609   2.174   2.529   6.038 -0.2284  0.2841  0.0798
 5716SOL    HW128610   2.173   2.555   6.131  2.1999  2.0923 -0.3987
 5716SOL    HW228611   2.104   2.463   6.039  2.7183 -2.8236 -0.2527
 5717SOL     OW28612   1.794   3.583   2.318 -0.6598  0.8264 -0.3359
 5717SOL    HW128613   1.729   3.640   2.360 -2.3691 -1.8901  0.6720
 5717SOL    HW228614   1.765   3.592   2.227  1.8854  0.1399 -1.1975
 5718SOL     OW28615   3.235   3.893  13.745  0.3861  0.3125  0.1012
 5718SOL    HW128616   3.307   3.873  13.806 -1.3287  0.5957  2.2094
 5718SOL    HW228617   3.268   3.852  13.665  1.8586  2.1099 -0.2158
 5719SOL     OW28618   2.105   4.654   6.071 -0.0964  0.1363 -0.1271
 5719SOL    HW128619   2.196   4.683   6.071  0.6688 -2.2589 -0.0813
 5719SOL    HW228620   2.123   4.560   6.082  3.4205  0.9653  1.1171
 5720SOL     OW28621   3.704   0.264   6.389 -0.0939  0.1939 -0.0876
 5720SOL    HW128622   3.718   0.203   6.317 -3.0151 -1.4655  0.7170
 5720SOL    HW228623   3.609   0.258   6.401  0.1866  1.6707  2.8138
 5721SOL     OW28624   1.782   1.010  13.684 -0.4800  0.1434  0.3132
 5721SOL    HW128625   1.722   1.065  13.733 -0.9731  0.4406 -0.6247
 5721SOL    HW228626   1.857   1.001  13.744  1.3984  1.5833 -1.8137
 5722SOL     OW28627   3.709   1.797   6.527  0.3139 -0.4200  0.1049
 5722SOL    HW128628   3.732   1.757   6.443  1.9126 -1.5920  1.1138
 5722SOL    HW228629   3.613   1.798   6.523  0.3877  1.9293 -1.0018
 5723SOL     OW28630   1.664   4.355  17.329 -0.0521 -0.6407 -0.1741
 5723SOL    HW128631   1.632   4.401  17.406  0.1418 -0.3361 -0.2784
 5723SOL    HW228632   1.743   4.307  17.356 -0.4338 -0.5067  1.1825
 5724SOL     OW28633   1.023   3.724   3.075  0.4726 -0.5604  0.2479
 5724SOL    HW128634   1.107   3.770   3.082  0.1063  0.0990  0.2981
 5724SOL    HW228635   1.052   3.642   3.035  0.4449 -1.2956  1.7309
 5725SOL     OW28636   2.343   3.910   7.039 -0.3250 -0.4562  0.8089
 5725SOL    HW128637   2.275   3.872   6.983 -0.0321 -1.5790  1.2036
 5725SOL    HW228638   2.322   4.001   7.061  1.0597 -0.5398  2.4527
 5726SOL     OW28639   0.821   3.698   8.689 -0.0520  0.3720  0.1398
 5726SOL    HW128640   0.891   3.636   8.671 -0.1395  0.1104  0.7121
 5726SOL    HW228641   0.806   3.724   8.598  2.1507  0.8395 -0.0845
 5727SOL     OW28642   2.311   4.526   2.776  0.7051  0.0611  0.0979
 5727SOL    HW128643   2.256   4.566   2.843 -0.8124 -0.5780 -0.7642
 5727SOL    HW228644   2.348   4.607   2.740  1.7087 -1.7084 -2.8794
 5728SOL     OW28645   1.933   0.819  16.577  0.4249  0.0922 -0.4701
 5728SOL    HW128646   1.843   0.806  16.605  1.3267 -0.7688  2.0824
 5728SOL    HW228647   1.923   0.839  16.484  0.2786 -1.0401 -0.6939
 5729SOL     OW28648   3.874   4.294  17.252  0.0591  0.1796 -0.4421
 5729SOL    HW128649   3.818   4.371  17.240  2.1612  1.7706  0.0196
 5729SOL    HW228650   3.878   4.281  17.347  1.3588 -0.2555 -0.5583
 5730SOL     OW28651   4.621   2.097   5.199 -0.0113 -0.0266  0.1697
 5730SOL    HW128652   4.596   2.178   5.155 -1.1963 -0.4364  0.1016
 5730SOL    HW228653   4.596   2.032   5.133 -0.0275 -0.3468  0.4902
 5731SOL     OW28654   0.937   4.481   8.812 -0.3341  0.0781 -0.1940
 5731SOL    HW128655   1.000   4.414   8.840  0.6881  1.2099  0.1974
 5731SOL    HW228656   0.901   4.516   8.893 -1.1875  1.8276 -1.3483
 5732SOL     OW28657   2.620   1.161   9.345 -0.1354  0.5418  0.4056
 5732SOL    HW128658   2.679   1.092   9.375 -0.0465 -0.1474 -1.3260
 5732SOL    HW228659   2.636   1.143   9.252 -3.2152 -0.5115  0.0834
 5733SOL     OW28660   0.972   2.410   7.942 -0.2417 -0.3702  0.2785
 5733SOL    HW128661   0.941   2.467   8.013  1.9397 -0.4265  1.2554
 5733SOL    HW228662   0.925   2.328   7.961  0.1605 -0.9886 -1.4153
 5734SOL     OW28663   3.606   1.060   5.383  0.1361  0.3146  0.1699
 5734SOL    HW128664   3.573   1.014   5.306  1.2078 -0.6062  0.2694
 5734SOL    HW228665   3.699   1.046   5.369  0.3394  2.0033 -0.1110
 5735SOL     OW28666   0.587   3.743   8.181  0.4807  0.1926  0.0461
 5735SOL    HW128667   0.569   3.829   8.142  0.0863  0.7924  1.5374
 5735SOL    HW228668   0.497   3.710   8.181  1.1141 -1.4889  2.6908
 5736SOL     OW28669   3.199   0.213   4.560 -0.1995  0.0312  0.1499
 5736SOL    HW128670   3.180   0.140   4.618 -0.2366 -0.5371 -0.5693
 5736SOL    HW228671   3.293   0.218   4.571 -0.1808 -2.2975  0.9057
 5737SOL     OW28672   2.280   0.046   0.634 -0.3753 -0.1783  0.2699
 5737SOL    HW128673   2.247   4.682   0.655 -0.6115 -1.0810 -3.7707
 5737SOL    HW228674   2.221   0.064   0.561 -0.3384  1.0220  0.5483
 5738SOL     OW28675   2.872   4.113   8.158  0.7136 -0.5590 -0.0730
 5738SOL    HW128676   2.794   4.100   8.213  1.1333  1.7734  1.0890
 5738SOL    HW228677   2.923   4.042   8.197  0.7318 -0.7558 -0.4587
 5739SOL     OW28678   2.525   4.094   0.970  0.6373 -0.0914 -0.0879
 5739SOL    HW128679   2.441   4.127   1.003  0.8685 -1.5376  1.9325
 5739SOL    HW228680   2.539   4.012   1.017  0.8846 -0.1272 -0.2252
 5740SOL     OW28681   3.208   1.700   8.409  0.6595 -0.1171 -0.4807
 5740SOL    HW128682   3.143   1.647   8.362  1.0475 -0.4570 -0.6334
 5740SOL    HW228683   3.286   1.648   8.425 -0.6213 -1.7176  0.5986
 5741SOL     OW28684   2.483   4.395   3.930  0.2296 -0.3443 -0.6882
 5741SOL    HW128685   2.404   4.356   3.891  0.2370 -2.0408  1.0047
 5741SOL    HW228686   2.537   4.389   3.851 -0.3684 -2.2401 -0.9418
 5742SOL     OW28687   1.535   2.226  11.945 -0.6052  0.3905  0.2836
 5742SOL    HW128688   1.529   2.168  12.022 -0.8211  1.2648  0.9237
 5742SOL    HW228689   1.629   2.238  11.933 -0.2488 -1.7643  0.8343
 5743SOL     OW28690   1.547   2.853   0.855  0.6248 -0.1064  0.2652
 5743SOL    HW128691   1.636   2.834   0.885  1.5509  2.7048 -0.6128
 5743SOL    HW228692   1.534   2.930   0.911  0.1732  0.3143 -0.4190
 5744SOL     OW28693   0.282   2.006   8.430 -0.1226 -0.1488 -0.4870
 5744SOL    HW128694   0.242   1.990   8.345 -2.3246 -0.0117  0.5389
 5744SOL    HW228695   0.208   2.038   8.481  2.5142  1.2455  2.4729
 5745SOL     OW28696   2.454   4.677   8.557  0.5979 -0.1371  0.0004
 5745SOL    HW128697   2.364   4.684   8.589  0.8458  0.1989  0.6269
 5745SOL    HW228698   2.491   0.010   8.625 -0.1438 -1.6646  1.7072
 5746SOL     OW28699   4.373   2.167   8.464  0.2719  0.2532  0.1903
 5746SOL    HW128700   4.400   2.142   8.552 -3.3600  2.9626  2.0542
 5746SOL    HW228701   4.382   2.262   8.466  0.9031  0.2591 -2.8881
 5747SOL     OW28702   3.462   1.005   2.574  0.5298 -0.3720  0.3717
 5747SOL    HW128703   3.538   1.054   2.539  0.5535 -1.1055 -0.6014
 5747SOL    HW228704   3.508   0.952   2.639 -1.1594  0.5396  2.2910
 5748SOL     OW28705   0.923   0.125   8.279 -0.0816  0.0640  0.3251
 5748SOL    HW128706   0.907   0.031   8.278 -0.0773  0.0148  2.7695
 5748SOL    HW228707   0.837   0.155   8.307  0.9014  1.2409  2.1298
 5749SOL     OW28708   0.880   0.512  15.695 -0.2099 -0.0307  0.1381
 5749SOL    HW128709   0.853   0.421  15.684 -0.2063  0.1362 -1.2860
 5749SOL    HW228710   0.908   0.540  15.608 -2.3401  2.3579  0.2044
 5750SOL     OW28711   1.531   0.074   6.003  0.1018 -0.5714 -0.0997
 5750SOL    HW128712   1.511   0.041   6.090 -1.6232 -0.7401 -0.5622
 5750SOL    HW228713   1.580   4.722   5.970  0.3570 -0.6538  0.4681
 5751SOL     OW28714   0.310   0.218   5.794  0.6362 -0.4624  0.0434
 5751SOL    HW128715   0.386   0.162   5.781  0.8358 -0.2381  0.2389
 5751SOL    HW228716   0.276   0.185   5.877 -0.3892 -0.1308 -0.2461
 5752SOL     OW28717   1.013   3.975  10.090 -0.3241 -0.2620  0.0534
 5752SOL    HW128718   0.983   3.887  10.114  0.2487 -0.9080 -1.6072
 5752SOL    HW228719   0.991   3.973   9.996 -0.8019 -0.7011  0.1765
 5753SOL     OW28720   4.087   0.758  11.860  0.3138  0.5589 -0.2334
 5753SOL    HW128721   4.135   0.744  11.778  0.7676  0.9463 -0.0368
 5753SOL    HW228722   4.033   0.680  11.873  1.3363 -0.4897 -2.3326
 5754SOL     OW28723   0.331   3.762   2.264  0.0511  0.0029  0.6218
 5754SOL    HW128724   0.280   3.697   2.312  0.7277  2.5789  4.8034
 5754SOL    HW228725   0.327   3.841   2.318 -1.7126  0.2090  0.1874
 5755SOL     OW28726   2.347   4.411   7.286 -0.0074 -0.3714 -0.8505
 5755SOL    HW128727   2.330   4.412   7.380  2.7367  2.4617 -0.3591
 5755SOL    HW228728   2.425   4.467   7.274 -0.6096  0.4190 -1.1037
 5756SOL     OW28729   4.022   0.968   8.092  0.3881  0.2838 -0.0711
 5756SOL    HW128730   4.052   1.037   8.151 -3.2124  1.8551 -0.0315
 5756SOL    HW228731   3.935   0.958   8.131  1.1616  0.3039  1.6371
 5757SOL     OW28732   1.455   0.651   6.106  0.4182 -0.6726  0.0171
 5757SOL    HW128733   1.483   0.742   6.099 -0.4320 -0.2877  1.6993
 5757SOL    HW228734   1.530   0.609   6.064 -0.7427 -2.1203 -0.6185
 5758SOL     OW28735   4.442   1.799  14.439 -0.0728  0.1573  0.0439
 5758SOL    HW128736   4.367   1.785  14.381 -0.9197 -1.3650  1.4895
 5758SOL    HW228737   4.465   1.711  14.469 -0.7469 -0.0415 -0.0060
 5759SOL     OW28738   0.774   0.127  12.877  0.3164  0.4298  0.3069
 5759SOL    HW128739   0.805   0.078  12.801  0.4089 -0.7691  1.1039
 5759SOL    HW228740   0.680   0.107  12.881  0.5915 -0.6540  1.4871
 5760SOL     OW28741   3.926   3.506   1.136 -0.1491 -0.3692  0.1473
 5760SOL    HW128742   3.953   3.467   1.220 -0.0616 -2.2528 -0.7685
 5760SOL    HW228743   3.879   3.582   1.171 -1.2802 -0.8576 -0.3165
 5761SOL     OW28744   4.121   1.648   4.457  0.0990  0.1591  0.5372
 5761SOL    HW128745   4.104   1.556   4.438  0.3242  0.2948 -0.3019
 5761SOL    HW228746   4.173   1.675   4.382 -2.3100 -0.3513 -1.3434
 5762SOL     OW28747   3.120   1.923   7.169  0.1236 -0.3132  0.4296
 5762SOL    HW128748   3.061   1.910   7.243  0.7355  1.3168  1.1969
 5762SOL    HW228749   3.188   1.977   7.211  1.1169 -0.8775 -0.4541
 5763SOL     OW28750   3.427   3.473   2.851 -0.5440  0.2885  0.2806
 5763SOL    HW128751   3.342   3.446   2.816 -0.4289 -0.6660  0.7199
 5763SOL    HW228752   3.387   3.509   2.930 -1.4998 -0.4097  0.1218
 5764SOL     OW28753   4.573   0.043   5.367 -0.2764 -0.7918  0.0363
 5764SOL    HW128754   4.516   0.100   5.419 -0.9219 -0.7023 -0.7722
 5764SOL    HW228755   4.602   0.098   5.294  0.7148  1.6364  2.2571
 5765SOL     OW28756   1.085   0.692  16.436  0.3470  0.0625 -0.5122
 5765SOL    HW128757   1.001   0.726  16.405 -0.3049 -0.9671  0.1215
 5765SOL    HW228758   1.083   0.742  16.517  0.7803 -1.7674  0.6300
 5766SOL     OW28759   4.397   1.445   5.017  0.1340  0.0122  0.7219
 5766SOL    HW128760   4.470   1.405   4.969 -0.0477 -0.0468  0.4950
 5766SOL    HW228761   4.370   1.522   4.966  1.0944 -0.8598 -1.1137
 5767SOL     OW28762   3.755   1.209  16.723  0.5173 -0.1208  0.0854
 5767SOL    HW128763   3.767   1.130  16.671 -1.6699  1.4330 -2.7682
 5767SOL    HW228764   3.662   1.193  16.738  0.6761  0.4269  1.7488
 5768SOL     OW28765   1.525   1.854   9.400 -0.7737 -0.7695 -0.1372
 5768SOL    HW128766   1.481   1.935   9.426 -2.0685 -0.9367 -1.8346
 5768SOL    HW228767   1.571   1.875   9.319 -2.9817  0.4952 -1.0570
 5769SOL     OW28768   1.905   4.187   0.042 -0.0495 -0.7559 -0.3210
 5769SOL    HW128769   1.908   4.110  17.683 -3.0369 -0.7777 -0.4644
 5769SOL    HW228770   1.997   4.200   0.065 -0.3207 -0.8479  0.8597
 5770SOL     OW28771   2.844   1.809   4.701 -0.1402  0.0427 -0.1079
 5770SOL    HW128772   2.793   1.779   4.625  0.5646 -2.6335  0.4464
 5770SOL    HW228773   2.810   1.895   4.722  1.1884  0.3222  0.9443
 5771SOL     OW28774   3.793   4.539   8.220  0.3561  0.8912  0.5741
 5771SOL    HW128775   3.740   4.617   8.236 -0.7576  0.5700 -1.5552
 5771SOL    HW228776   3.871   4.570   8.172  0.0215  0.1578 -0.4424
 5772SOL     OW28777   3.491   1.587  11.321  0.4386  0.2134 -0.5148
 5772SOL    HW128778   3.397   1.601  11.328  0.4481  0.1634 -0.2902
 5772SOL    HW228779   3.516   1.671  11.357 -0.0866 -0.8924  2.4221
 5773SOL     OW28780   1.445   4.509   6.192  0.0572 -0.2663 -0.5198
 5773SOL    HW128781   1.446   4.594   6.236 -1.1574 -0.1502 -0.7253
 5773SOL    HW228782   1.395   4.458   6.256  0.1882 -1.7935 -1.6332
 5774SOL     OW28783   4.158   3.671  15.263  0.2654  0.0660  0.3717
 5774SOL    HW128784   4.183   3.734  15.195  0.2249 -0.7210 -0.3868
 5774SOL    HW228785   4.064   3.676  15.246  0.0988  2.5424  2.1639
 5775SOL     OW28786   0.283   4.101  12.260  0.2051  0.0484 -0.4152
 5775SOL    HW128787   0.281   4.145  12.175 -0.2009  1.6905  0.4479
 5775SOL    HW228788   0.249   4.163  12.324  2.0428 -1.3512  1.9196
 5776SOL     OW28789   4.204   0.882   5.778 -0.2858 -0.5407  0.1628
 5776SOL    HW128790   4.181   0.973   5.760 -0.0057 -0.2905  1.0402
 5776SOL    HW228791   4.123   0.847   5.816 -0.0249 -0.7332  0.5440
 5777SOL     OW28792   2.258   2.557   0.813  0.5255  0.3942  0.3171
 5777SOL    HW128793   2.189   2.624   0.818  1.2609  1.0436  1.8733
 5777SOL    HW228794   2.264   2.543   0.719  0.2748  3.7703 -0.2043
 5778SOL     OW28795   4.583   1.029   5.314  0.0908 -0.0980  0.4124
 5778SOL    HW128796   4.509   1.043   5.255  0.0850  0.0109  0.4453
 5778SOL    HW228797   4.643   1.094   5.276  0.3942 -1.0878 -0.8106
 5779SOL     OW28798   3.255   1.136   0.782 -0.4436 -0.4257  0.1528
 5779SOL    HW128799   3.206   1.055   0.766  0.1660 -0.8059  0.2169
 5779SOL    HW228800   3.334   1.095   0.817 -0.8909 -2.6253 -1.3365
 5780SOL     OW28801   2.724   0.949   8.780 -0.2105  0.4190  0.3847
 5780SOL    HW128802   2.710   0.861   8.743 -1.3141  0.4152  0.8178
 5780SOL    HW228803   2.807   0.972   8.737  0.5905 -0.8763  1.2307
 5781SOL     OW28804   1.696   0.303  16.760 -0.2584 -0.9860  0.1924
 5781SOL    HW128805   1.605   0.291  16.789 -0.3014 -1.5882 -0.1959
 5781SOL    HW228806   1.709   0.241  16.689 -0.3156 -1.7376  0.8302
 5782SOL     OW28807   1.925   1.120   3.496 -0.0181  0.3341 -0.0727
 5782SOL    HW128808   1.954   1.200   3.540  0.7062 -1.3349  2.4562
 5782SOL    HW228809   1.868   1.163   3.432 -0.5234 -0.6232 -0.2646
 5783SOL     OW28810   0.116   2.277   2.773 -0.4996  0.6660  0.0576
 5783SOL    HW128811   0.076   2.289   2.687  0.1360  1.7825 -0.0852
 5783SOL    HW228812   0.040   2.283   2.831 -2.1605 -0.3901 -2.0273
 5784SOL     OW28813   1.692   4.143   5.961 -0.6834 -0.0901 -0.0115
 5784SOL    HW128814   1.690   4.151   6.057 -0.0129  1.5974 -0.1425
 5784SOL    HW228815   1.757   4.075   5.946 -2.0176 -0.4345 -4.2599
 5785SOL     OW28816   2.460   2.984   6.846  0.4594  0.5247 -0.4604
 5785SOL    HW128817   2.508   2.910   6.809  0.8687 -0.2255  1.5675
 5785SOL    HW228818   2.498   3.059   6.801 -0.1531 -0.0881 -1.9924
 5786SOL     OW28819   2.136   4.696   8.976  0.0153 -0.0320  0.2784
 5786SOL    HW128820   2.069   4.698   8.907 -0.0239  0.0697  0.3191
 5786SOL    HW228821   2.082   4.693   9.055  0.6859 -2.1544  0.6712
 5787SOL     OW28822   4.551   3.080   2.833 -0.2394  0.0052 -0.0137
 5787SOL    HW128823   4.548   2.985   2.822 -0.2986  0.1349 -1.1983
 5787SOL    HW228824   4.462   3.103   2.806 -0.4541  2.3625  2.7328
 5788SOL     OW28825   4.049   0.857  11.523  0.1784 -0.1342 -0.0163
 5788SOL    HW128826   4.133   0.832  11.486  0.2526 -0.8658  0.6550
 5788SOL    HW228827   4.016   0.925  11.463  1.8949 -0.2520 -1.0722
 5789SOL     OW28828   4.512   3.640   8.301  0.2456  0.7189 -0.1486
 5789SOL    HW128829   4.460   3.643   8.221  1.5608 -4.6606 -1.2354
 5789SOL    HW228830   4.472   3.558   8.331  0.2818  0.0402 -1.9695
 5790SOL     OW28831   0.258   1.708   0.920 -0.3050 -0.3491 -1.0144
 5790SOL    HW128832   0.337   1.656   0.907 -1.0323 -1.4133 -1.1218
 5790SOL    HW228833   0.293   1.797   0.912 -2.1822  0.3519 -1.3953
 5791SOL     OW28834   3.887   0.364   2.250  0.5811  0.5693 -0.3301
 5791SOL    HW128835   3.860   0.427   2.183  0.2617  0.2110 -0.5356
 5791SOL    HW228836   3.799   0.329   2.260  1.1747 -1.1405 -1.2544
 5792SOL     OW28837   3.099   3.130   6.907 -0.3525  0.3811 -0.0174
 5792SOL    HW128838   3.134   3.044   6.932  0.5757  0.7880  0.0446
 5792SOL    HW228839   3.091   3.160   6.997 -2.0462  0.2840 -0.1261
 5793SOL     OW28840   1.122   3.438  14.804  0.1776  0.1151  0.6850
 5793SOL    HW128841   1.187   3.484  14.751 -1.2685  0.6364 -0.6201
 5793SOL    HW228842   1.041   3.489  14.805 -0.4723 -0.8881 -0.3395
 5794SOL     OW28843   2.828   2.527   4.499 -0.0683 -0.0058  0.1926
 5794SOL    HW128844   2.888   2.546   4.426 -2.0760  3.2822 -0.5987
 5794SOL    HW228845   2.776   2.465   4.448 -0.5129  0.1864  0.4138
 5795SOL     OW28846   4.068   1.967  10.518  0.3121  0.1110  0.0053
 5795SOL    HW128847   4.097   1.885  10.478  0.1052 -0.5737  1.2414
 5795SOL    HW228848   4.134   1.966  10.587  0.7809 -1.1692 -0.4581
 5796SOL     OW28849   2.212   4.414   3.193 -0.4628 -0.2790  0.1203
 5796SOL    HW128850   2.173   4.491   3.152  0.0022  0.2588  0.6840
 5796SOL    HW228851   2.298   4.415   3.150  0.4535  1.6422  1.9742
 5797SOL     OW28852   1.386   4.314  17.554 -0.4071 -0.3742  0.4469
 5797SOL    HW128853   1.390   4.366  17.475  2.0681 -0.7849  0.2832
 5797SOL    HW228854   1.335   4.235  17.534  1.0552 -0.6438 -2.1419
 5798SOL     OW28855   1.250   2.313   4.008 -0.0579  0.2083  0.0042
 5798SOL    HW128856   1.313   2.270   4.066 -1.8743 -0.3034  1.5838
 5798SOL    HW228857   1.197   2.237   3.986 -1.2829  1.3395 -0.9194
 5799SOL     OW28858   4.210   1.720  11.613  0.9367  0.7982 -0.4497
 5799SOL    HW128859   4.188   1.674  11.532 -1.8036 -0.0357  0.7745
 5799SOL    HW228860   4.166   1.803  11.602 -0.6245  0.0313  0.0503
 5800SOL     OW28861   2.673   1.119  15.594 -0.3214 -0.7409  0.3228
 5800SOL    HW128862   2.715   1.155  15.672  0.0914  2.4690 -1.3917
 5800SOL    HW228863   2.733   1.155  15.529  2.0122 -1.8860  1.8352
 5801SOL     OW28864   2.101   0.271  15.315  0.3890 -0.6393  0.3377
 5801SOL    HW128865   2.094   0.176  15.315  2.4250 -0.7840  1.1103
 5801SOL    HW228866   2.095   0.295  15.408  0.4267 -0.6663  0.3473
 5802SOL     OW28867   2.389   2.253  11.012 -0.4679  0.1041 -0.5689
 5802SOL    HW128868   2.422   2.339  10.987 -1.6832  0.9182  0.6677
 5802SOL    HW228869   2.345   2.214  10.936 -0.3791  0.0353 -0.5853
 5803SOL     OW28870   3.205   3.781   4.565 -0.2990  0.0223  0.3788
 5803SOL    HW128871   3.147   3.799   4.491 -0.8615 -1.2474  0.5228
 5803SOL    HW228872   3.156   3.821   4.636  2.2426 -1.1014  2.7778
 5804SOL     OW28873   2.169   1.321   8.722  0.2665 -0.2604 -0.2011
 5804SOL    HW128874   2.139   1.359   8.805  1.0454 -0.5102  0.1987
 5804SOL    HW228875   2.242   1.380   8.703 -0.7763  0.8111 -0.8339
 5805SOL     OW28876   3.946   3.560   6.671  0.1241 -0.0183 -0.4092
 5805SOL    HW128877   3.954   3.554   6.766  0.1543  0.2766 -0.3944
 5805SOL    HW228878   4.031   3.598   6.649  0.8909 -1.5765 -0.1621
 5806SOL     OW28879   1.805   1.577   4.114 -0.3135  0.1623  0.5305
 5806SOL    HW128880   1.828   1.622   4.033 -0.1868 -0.1455  0.3965
 5806SOL    HW228881   1.801   1.651   4.175 -0.7107  0.4749  0.1252
 5807SOL     OW28882   0.997   1.740   8.973 -0.1727 -0.3364 -0.3382
 5807SOL    HW128883   1.061   1.777   8.912 -1.3512  0.5330 -1.0575
 5807SOL    HW228884   1.038   1.655   8.989  0.1974 -0.0960 -0.0021
 5808SOL     OW28885   3.514   4.166   8.932 -0.4342 -0.0066 -0.0281
 5808SOL    HW128886   3.561   4.207   9.005 -2.0879  0.2946  0.8714
 5808SOL    HW228887   3.578   4.191   8.865 -0.5207 -0.1777 -0.1744
 5809SOL     OW28888   1.937   0.902  10.024 -0.0383  1.0926 -0.3873
 5809SOL    HW128889   1.855   0.943  10.050  0.6008  1.5528  0.8891
 5809SOL    HW228890   1.963   0.858  10.105  0.7149 -0.6004 -1.5297
 5810SOL     OW28891   2.864   1.762   8.719  0.1176 -0.1108  0.2814
 5810SOL    HW128892   2.915   1.686   8.691 -1.0064 -0.4828 -0.7551
 5810SOL    HW228893   2.885   1.823   8.648  0.9229 -1.6054 -0.7515
 5811SOL     OW28894   4.045   0.854   7.510  0.2275 -0.5826 -0.0737
 5811SOL    HW128895   4.102   0.858   7.433 -0.2692 -0.4851 -0.4402
 5811SOL    HW228896   4.059   0.941   7.548  0.5191 -1.4049  1.6960
 5812SOL     OW28897   0.481   1.601  10.499 -0.5032 -0.1224  0.1688
 5812SOL    HW128898   0.523   1.551  10.569 -0.2166  0.9070  0.7364
 5812SOL    HW228899   0.540   1.676  10.503 -1.5934  0.7430 -0.0236
 5813SOL     OW28900   0.659   3.011   8.101  0.4437 -0.4133 -0.1766
 5813SOL    HW128901   0.742   3.053   8.122  0.3379 -0.3253  0.0715
 5813SOL    HW228902   0.607   3.091   8.098  1.4075  0.1525 -1.7640
 5814SOL     OW28903   2.106   4.111  11.042  0.1456 -0.2464  1.0943
 5814SOL    HW128904   2.173   4.101  10.974  0.6869  1.3874  1.3993
 5814SOL    HW228905   2.162   4.091  11.116  0.4362  0.0798  0.9631
 5815SOL     OW28906   0.368   0.152  10.535  0.3569 -0.8950 -0.2539
 5815SOL    HW128907   0.287   0.169  10.488 -0.5795 -1.0289  1.3039
 5815SOL    HW228908   0.380   0.237  10.577 -2.2712  0.0926 -1.4902
 5816SOL     OW28909   3.631   1.976   6.772 -0.2224  0.0612 -0.5730
 5816SOL    HW128910   3.596   2.033   6.703 -1.9233  0.4230  0.5925
 5816SOL    HW228911   3.560   1.981   6.836  0.3824  2.0053 -0.0583
 5817SOL     OW28912   2.679   3.039   5.066  0.5001 -0.0711  0.3039
 5817SOL    HW128913   2.745   3.099   5.099  0.8133 -0.8529  1.0929
 5817SOL    HW228914   2.600   3.071   5.109  0.4468  0.9137 -0.5282
 5818SOL     OW28915   3.003   3.502   3.779  0.3274 -0.5300 -0.8341
 5818SOL    HW128916   3.017   3.584   3.826 -1.1284 -1.3138  0.9880
 5818SOL    HW228917   3.031   3.522   3.690 -1.1845 -1.8488 -1.6104
 5819SOL     OW28918   4.628   3.127   4.760 -0.3783  0.8869  0.6461
 5819SOL    HW128919   4.722   3.133   4.744  0.4110 -0.1203  5.0129
 5819SOL    HW228920   4.609   3.196   4.824  0.0445  1.1777  0.4587
 5820SOL     OW28921   3.412   1.778   0.621  0.5624  0.6584 -0.2881
 5820SOL    HW128922   3.478   1.846   0.631  2.0877 -1.1460  2.0294
 5820SOL    HW228923   3.462   1.698   0.606  0.0921  0.1592  0.7738
 5821SOL     OW28924   0.967   4.545  15.055  0.2113 -0.3162  0.3529
 5821SOL    HW128925   0.893   4.603  15.074  1.2091  0.4871  1.7263
 5821SOL    HW228926   0.979   4.507  15.141 -3.6103 -2.4919 -0.0605
 5822SOL     OW28927   2.374   3.053   9.120 -0.7192 -0.3865  0.0812
 5822SOL    HW128928   2.375   2.961   9.146  0.9298 -1.2082 -2.9087
 5822SOL    HW228929   2.466   3.071   9.097 -0.8300  2.8136  2.1654
 5823SOL     OW28930   4.460   1.527  12.897  0.5184 -0.5762 -0.1338
 5823SOL    HW128931   4.500   1.555  12.815  0.5477  0.3172  0.1788
 5823SOL    HW228932   4.531   1.542  12.960 -1.2190 -2.1208  2.2024
 5824SOL     OW28933   3.442   2.831   7.055  0.1961  0.0209  0.3157
 5824SOL    HW128934   3.363   2.832   7.000 -0.9282  1.1841  1.9199
 5824SOL    HW228935   3.508   2.879   7.005 -0.5314 -1.9697 -2.5480
 5825SOL     OW28936   0.560   1.726   9.102  0.0222  0.4696 -0.0118
 5825SOL    HW128937   0.610   1.806   9.083  0.0062  0.5004  0.0785
 5825SOL    HW228938   0.525   1.754   9.186 -1.2787  0.1055 -0.4280
 5826SOL     OW28939   4.091   3.550  10.240 -0.1199 -0.0590  0.0578
 5826SOL    HW128940   4.065   3.458  10.234 -1.1130  0.2449 -0.2218
 5826SOL    HW228941   4.069   3.557  10.333 -1.0410  0.8609 -0.2246
 5827SOL     OW28942   3.318   3.608   6.053 -0.0989 -0.0709 -0.3518
 5827SOL    HW128943   3.382   3.649   6.112  0.3958 -2.2386  0.5874
 5827SOL    HW228944   3.262   3.556   6.110  0.7356  0.5334  1.0254
 5828SOL     OW28945   4.183   1.169   5.707  0.2513  0.2744  0.0659
 5828SOL    HW128946   4.181   1.264   5.713 -2.4371  0.1341  1.6427
 5828SOL    HW228947   4.276   1.151   5.690  0.3491  0.5444  0.3080
 5829SOL     OW28948   0.230   2.181   2.275  0.0053  0.7271 -0.1359
 5829SOL    HW128949   0.200   2.141   2.357  0.5235 -0.0632 -0.3262
 5829SOL    HW228950   0.274   2.109   2.228 -1.1779  0.3952 -0.7210
 5830SOL     OW28951   1.970   2.567  14.930 -0.3181 -0.2436  0.2115
 5830SOL    HW128952   1.896   2.594  14.984  1.2057  3.2042  0.5588
 5830SOL    HW228953   2.006   2.504  14.993 -1.9962  0.3521  1.7827
 5831SOL     OW28954   3.901   1.135   3.194 -0.3296  0.1296  0.2444
 5831SOL    HW128955   3.993   1.125   3.220 -0.0458 -1.7384 -1.4273
 5831SOL    HW228956   3.875   1.213   3.242  1.0236  0.5042  0.3590
 5832SOL     OW28957   2.838   3.842   6.747  0.0030  0.0788 -0.2756
 5832SOL    HW128958   2.844   3.808   6.836 -2.4681  1.0377  0.2571
 5832SOL    HW228959   2.930   3.847   6.719  0.4085 -0.2045  1.0007
 5833SOL     OW28960   4.542   0.080   0.912 -0.3627  0.0140  0.0116
 5833SOL    HW128961   4.510   0.126   0.990 -1.3713  1.6123 -1.3561
 5833SOL    HW228962   4.498   0.129   0.843 -0.3980 -0.7666 -0.5099
 5834SOL     OW28963   4.272   3.750  15.016 -0.0589 -0.0570 -0.2303
 5834SOL    HW128964   4.324   3.814  15.065  1.2908 -1.7551  0.5798
 5834SOL    HW228965   4.344   3.695  14.984 -0.8654 -1.9154  1.1261
 5835SOL     OW28966   0.441   1.905   1.051  0.0166 -0.6733  0.1221
 5835SOL    HW128967   0.528   1.918   1.090 -0.3903  0.2814  0.6952
 5835SOL    HW228968   0.408   1.850   1.122 -0.7345 -0.4524 -0.0628
 5836SOL     OW28969   2.388   2.915   3.377 -0.7064  0.7357 -0.0554
 5836SOL    HW128970   2.324   2.850   3.406 -0.2802  0.2365 -0.2351
 5836SOL    HW228971   2.401   2.979   3.447 -2.7520  1.6274 -0.5099
 5837SOL     OW28972   3.981   0.663   3.282 -0.1342  0.5398  0.0037
 5837SOL    HW128973   4.039   0.625   3.216  0.2954  1.8628 -0.3856
 5837SOL    HW228974   4.013   0.753   3.270  1.0965 -0.1074 -1.5114
 5838SOL     OW28975   3.935   4.660   7.655 -0.3994 -0.4812 -0.4927
 5838SOL    HW128976   3.861   4.607   7.682 -1.9608  1.7003 -0.4914
 5838SOL    HW228977   3.995   4.633   7.724 -0.2096  0.7293 -0.1872
 5839SOL     OW28978   2.237   4.604  13.185 -0.2796  0.0623 -0.3206
 5839SOL    HW128979   2.263   4.609  13.277 -0.4503 -0.1446 -0.2577
 5839SOL    HW228980   2.191   4.520  13.195 -1.3070  0.6216 -0.2701
 5840SOL     OW28981   0.333   0.914  13.116 -0.0337 -0.3145 -0.0308
 5840SOL    HW128982   0.354   0.981  13.181  2.1979 -1.0883  0.0540
 5840SOL    HW228983   0.328   0.962  13.033 -1.2008 -0.5385 -0.0847
 5841SOL     OW28984   3.086   1.345  12.062  0.4457  0.1836  0.2794
 5841SOL    HW128985   3.091   1.415  11.997 -0.4460  0.0629  0.0862
 5841SOL    HW228986   3.066   1.270  12.007  0.4518 -0.4636  1.1535
 5842SOL     OW28987   1.702   0.927   6.341 -0.5079  0.4468 -0.6304
 5842SOL    HW128988   1.655   0.980   6.405 -1.9733  0.5023 -1.7809
 5842SOL    HW228989   1.665   0.948   6.256 -0.1590  1.6902 -0.4681
 5843SOL     OW28990   1.113   3.509  10.830  0.1778 -0.1157  0.0292
 5843SOL    HW128991   1.044   3.445  10.847 -0.9338  1.4922  1.4986
 5843SOL    HW228992   1.178   3.445  10.802 -1.2379 -1.6751  0.2761
 5844SOL     OW28993   3.143   2.581   2.933  0.2560 -0.1797 -0.3454
 5844SOL    HW128994   3.190   2.514   2.884 -0.2273 -1.0896  0.4462
 5844SOL    HW228995   3.119   2.531   3.011 -1.2468  1.7916  0.4492
 5845SOL     OW28996   0.915   4.442   1.305 -0.2292 -0.0699 -0.1711
 5845SOL    HW128997   0.952   4.516   1.354 -0.6517 -0.4046  0.6469
 5845SOL    HW228998   0.935   4.374   1.369  1.3784 -0.0784 -0.6725
 5846SOL     OW28999   2.656   3.186   6.422  0.0450 -0.0643 -0.4573
 5846SOL    HW129000   2.604   3.219   6.495  0.7617 -3.5315  1.6198
 5846SOL    HW229001   2.591   3.126   6.385  1.4217 -0.9811 -1.4089
 5847SOL     OW29002   4.059   3.960   5.143  0.2912  0.5518  0.0141
 5847SOL    HW129003   4.031   3.992   5.057  2.6646 -1.9818 -1.6946
 5847SOL    HW229004   3.978   3.974   5.191 -1.3071 -2.5828 -1.7711
 5848SOL     OW29005   3.359   3.013   5.950 -0.2551  0.1037  0.7373
 5848SOL    HW129006   3.302   2.937   5.937 -3.0148  2.2761  0.1096
 5848SOL    HW229007   3.370   3.028   5.857  1.7046 -0.7927  0.8333
 5849SOL     OW29008   3.287   2.779  12.471 -0.3294 -0.5698 -0.5225
 5849SOL    HW129009   3.211   2.739  12.428 -0.4867  0.7756 -1.5017
 5849SOL    HW229010   3.239   2.809  12.548  1.1763  0.8868 -0.1661
 5850SOL     OW29011   0.454   3.912  11.501 -0.5026  0.3896  0.5865
 5850SOL    HW129012   0.423   3.905  11.411 -0.3720  2.3438  0.4019
 5850SOL    HW229013   0.549   3.914  11.485 -0.6094 -1.4341 -0.2371
 5851SOL     OW29014   0.957   0.879   1.010 -0.2325 -0.6749 -0.5523
 5851SOL    HW129015   0.877   0.921   0.979 -0.0492  1.5857  2.0414
 5851SOL    HW229016   1.018   0.951   0.999 -1.7670  0.1849 -3.2331
 5852SOL     OW29017   1.641   4.257   0.021 -0.4181 -0.5283  0.3034
 5852SOL    HW129018   1.616   4.174  17.678  0.7106 -1.0677  0.7233
 5852SOL    HW229019   1.735   4.242   0.027 -0.6812 -1.6483  1.5935
 5853SOL     OW29020   4.167   3.463  13.493  0.0473  0.0869 -0.3236
 5853SOL    HW129021   4.169   3.549  13.535 -1.5268  0.7491 -1.6365
 5853SOL    HW229022   4.146   3.479  13.402  1.6042 -1.8894 -1.0305
 5854SOL     OW29023   1.291   3.493   3.347  0.0496 -0.2100  0.7378
 5854SOL    HW129024   1.214   3.506   3.291  0.2808 -0.5024  0.3482
 5854SOL    HW229025   1.363   3.486   3.284 -0.4931  1.0363 -0.0131
 5855SOL     OW29026   3.069   0.133  15.458 -0.2498 -0.3190  0.2363
 5855SOL    HW129027   3.094   0.042  15.437  0.7337  0.1810 -0.7894
 5855SOL    HW229028   3.137   0.153  15.522  1.9854 -0.7721 -1.9792
 5856SOL     OW29029   3.996   1.266  17.396 -0.1554 -0.0068 -0.0741
 5856SOL    HW129030   4.012   1.273  17.302 -1.2357  0.4706 -0.2258
 5856SOL    HW229031   3.990   1.170  17.400 -0.9203  0.0558  0.4161
 5857SOL     OW29032   2.970   3.357  11.198  0.3121  0.4701 -0.4221
 5857SOL    HW129033   2.909   3.426  11.224  1.7713  1.4327  0.4263
 5857SOL    HW229034   3.039   3.404  11.150  1.4663  0.2152  0.9777
 5858SOL     OW29035   0.880   0.006   7.999 -0.1250  0.1028  0.3821
 5858SOL    HW129036   0.842   4.709   8.084  0.8898 -2.0046  0.3123
 5858SOL    HW229037   0.878   0.102   8.003 -0.5103  0.1107  0.0203
 5859SOL     OW29038   0.611   1.216   2.245  0.2472 -0.3304  0.7264
 5859SOL    HW129039   0.549   1.184   2.310 -1.5438 -0.7761 -1.1666
 5859SOL    HW229040   0.632   1.139   2.192 -1.7084  0.0369 -0.6088
 5860SOL     OW29041   3.581   1.955  11.110  0.1336  0.9216  0.2830
 5860SOL    HW129042   3.536   2.038  11.122 -1.2313  0.1082  0.7199
 5860SOL    HW229043   3.512   1.899  11.144 -0.9712  1.9240 -0.3168
 5861SOL     OW29044   3.285   4.651  16.830  0.3356  0.2901 -0.6714
 5861SOL    HW129045   3.346   0.001  16.819  0.9768  0.0751  1.5577
 5861SOL    HW229046   3.235   4.681  16.906  0.4896  0.8878 -0.8057
 5862SOL     OW29047   0.096   3.012   7.847  0.0909  0.2609  0.3113
 5862SOL    HW129048   0.178   3.027   7.895  1.2690  1.5241 -2.0964
 5862SOL    HW229049   0.114   3.016   7.753  0.3501  0.0662  0.3497
 5863SOL     OW29050   0.627   0.582  15.805  0.1024  0.0337  0.5733
 5863SOL    HW129051   0.647   0.554  15.894 -1.9918 -0.6293  0.8304
 5863SOL    HW229052   0.709   0.570  15.756  1.4416  2.0805  2.3630
 5864SOL     OW29053   4.393   0.975   6.586  0.4458  0.7337  0.0146
 5864SOL    HW129054   4.401   1.067   6.610  2.3156  0.6324 -0.2338
 5864SOL    HW229055   4.468   0.979   6.527  0.6103  1.4856  0.2784
 5865SOL     OW29056   3.587   4.633   0.504 -0.2169 -0.4214  0.5330
 5865SOL    HW129057   3.502   4.611   0.540 -0.5322  1.7280  1.1262
 5865SOL    HW229058   3.554   4.695   0.439 -2.4821 -1.4124  0.7635
 5866SOL     OW29059   3.899   1.835   2.506 -0.2509  0.0117  0.4309
 5866SOL    HW129060   3.819   1.844   2.557  0.5002  3.7187  0.9569
 5866SOL    HW229061   3.940   1.909   2.550 -0.3388 -0.8470  1.9542
 5867SOL     OW29062   4.535   1.278   4.772  0.5631  0.3458 -0.2856
 5867SOL    HW129063   4.561   1.187   4.757  1.0685  0.3926  0.2887
 5867SOL    HW229064   4.472   1.284   4.700  0.1319  3.3495  0.3648
 5868SOL     OW29065   0.388   3.580   1.335 -0.7654 -0.3379 -0.5441
 5868SOL    HW129066   0.477   3.590   1.369 -1.3124  0.7862  0.5472
 5868SOL    HW229067   0.344   3.577   1.420 -0.2044  0.4157 -0.2178
 5869SOL     OW29068   1.143   3.549   5.632 -0.4648  0.7155  0.0932
 5869SOL    HW129069   1.167   3.642   5.627  1.1700  0.5171  3.8721
 5869SOL    HW229070   1.047   3.552   5.630 -0.4883 -1.5740 -1.8389
 5870SOL     OW29071   2.013   3.565  10.380  0.0594 -0.0061 -0.1875
 5870SOL    HW129072   2.088   3.623  10.394  1.2344 -1.0749 -2.0658
 5870SOL    HW229073   1.946   3.591  10.443  0.3677  0.3704 -0.0200
 5871SOL     OW29074   1.061   3.320  12.783  0.5782  0.0693  0.4048
 5871SOL    HW129075   1.149   3.352  12.764  0.7309  0.3535  1.5644
 5871SOL    HW229076   1.057   3.295  12.876  2.4720  0.2236  0.5318
 5872SOL     OW29077   0.541   0.629   2.491  0.3874 -0.2814  0.0712
 5872SOL    HW129078   0.532   0.716   2.528  0.6108 -1.1252  2.1349
 5872SOL    HW229079   0.575   0.668   2.411  0.8194  0.6245  0.6999
 5873SOL     OW29080   2.663   0.707   8.633 -0.1192  0.5707 -0.0738
 5873SOL    HW129081   2.603   0.723   8.561 -0.0656  0.7405 -0.0803
 5873SOL    HW229082   2.744   0.729   8.589 -0.2433 -3.0012 -2.0711
 5874SOL     OW29083   2.736   2.752   3.713 -0.2272  0.2971  0.0227
 5874SOL    HW129084   2.678   2.829   3.718  0.9179  1.1864 -0.4415
 5874SOL    HW229085   2.740   2.759   3.618  0.2293 -0.2431  0.0054
 5875SOL     OW29086   3.704   0.406   7.592 -0.9893  0.3107 -0.0473
 5875SOL    HW129087   3.635   0.420   7.656 -2.2052 -3.1624 -0.6136
 5875SOL    HW229088   3.752   0.489   7.584 -1.7511  0.9445  2.2263
 5876SOL     OW29089   2.750   3.583   7.726  0.2144 -0.3149  0.2183
 5876SOL    HW129090   2.686   3.651   7.746  0.2345 -0.5876  1.1922
 5876SOL    HW229091   2.801   3.591   7.807 -0.1777  1.3258  0.2945
 5877SOL     OW29092   0.977   3.127  15.974 -0.1949  0.8061 -0.1305
 5877SOL    HW129093   1.053   3.079  15.939 -0.5768 -1.0572  1.6074
 5877SOL    HW229094   1.018   3.175  16.046 -1.1534  1.5776 -0.1059
 5878SOL     OW29095   1.079   0.244   5.942 -0.7749  0.2585  0.1501
 5878SOL    HW129096   1.168   0.274   5.960 -0.2049 -0.6963 -1.0937
 5878SOL    HW229097   1.088   0.149   5.954  1.1518  0.4896  0.4460
 5879SOL     OW29098   1.232   3.669  14.664  0.6360 -0.5674 -0.1658
 5879SOL    HW129099   1.312   3.667  14.718  0.4132 -0.2060  0.1804
 5879SOL    HW229100   1.249   3.735  14.597  1.3763 -0.6037 -0.0223
 5880SOL     OW29101   3.479   1.804   7.049  0.0997 -0.2328  0.3447
 5880SOL    HW129102   3.397   1.788   7.002  0.5010 -4.1908  1.0066
 5880SOL    HW229103   3.549   1.779   6.988  0.5473  3.3198 -0.5949
 5881SOL     OW29104   2.256   0.848   2.766  0.1794  0.0461  0.6758
 5881SOL    HW129105   2.345   0.815   2.756  0.4400  0.6235  1.0685
 5881SOL    HW229106   2.244   0.882   2.854 -4.5764  0.2287 -0.0461
 5882SOL     OW29107   0.350   1.781   8.893 -0.1573 -0.0765 -0.4469
 5882SOL    HW129108   0.334   1.823   8.978 -0.2048  0.1657 -0.5746
 5882SOL    HW229109   0.439   1.801   8.865 -0.0728  0.0537 -0.0887
 5883SOL     OW29110   4.145   1.767  10.909 -0.2065 -0.0409  0.2080
 5883SOL    HW129111   4.074   1.704  10.901  0.1956 -0.7869  2.4097
 5883SOL    HW229112   4.220   1.707  10.907  0.6607  1.1284 -1.7087
 5884SOL     OW29113   0.750   2.245   1.932 -0.0442 -0.1906 -0.6016
 5884SOL    HW129114   0.730   2.262   2.024  2.0772  2.4903 -0.6516
 5884SOL    HW229115   0.822   2.300   1.901 -0.8225  1.7753  1.0692
 5885SOL     OW29116   3.748   2.269   9.400 -0.0936  0.4931 -0.2703
 5885SOL    HW129117   3.793   2.192   9.436 -0.7313  0.1439 -0.2222
 5885SOL    HW229118   3.687   2.286   9.471 -0.6432  0.1761 -0.6635
 5886SOL     OW29119   3.341   4.551   2.177  0.3981  0.1072 -0.5626
 5886SOL    HW129120   3.411   4.486   2.173  0.8115  0.5602 -0.7555
 5886SOL    HW229121   3.395   4.630   2.167  0.5765 -0.2005 -1.9929
 5887SOL     OW29122   0.080   4.547   6.332 -0.1637  0.3196 -0.3861
 5887SOL    HW129123   0.172   4.546   6.304  0.4358 -0.8926  1.6802
 5887SOL    HW229124   0.032   4.515   6.256 -1.5211  1.3603  0.0260
 5888SOL     OW29125   2.683   0.123   9.871 -0.8026  0.3470 -0.3920
 5888SOL    HW129126   2.643   0.044   9.835 -1.4907  0.8169 -0.6811
 5888SOL    HW229127   2.673   0.190   9.803  1.1535  0.4199 -0.5911
 5889SOL     OW29128   1.478   3.109   4.295 -0.2205  0.1112 -0.0780
 5889SOL    HW129129   1.386   3.134   4.302 -0.3084 -0.3788  0.4519
 5889SOL    HW229130   1.471   3.014   4.290 -2.4639  0.2342  0.9465
 5890SOL     OW29131   4.290   2.446  15.992 -0.3561  0.0594 -0.4350
 5890SOL    HW129132   4.220   2.506  15.966  1.1196  2.3195  0.8262
 5890SOL    HW229133   4.350   2.505  16.038  0.0050 -0.9017  0.3191
 5891SOL     OW29134   4.041   1.449   3.658 -0.1721  0.0315  0.0873
 5891SOL    HW129135   4.122   1.483   3.695 -0.7481  2.7470 -1.1743
 5891SOL    HW229136   4.020   1.384   3.725  0.3812  0.0170  0.2497
 5892SOL     OW29137   0.997   2.637   5.004  0.1307  0.3816 -0.3183
 5892SOL    HW129138   0.908   2.603   5.011  0.5051 -0.1434  1.9093
 5892SOL    HW229139   1.047   2.592   5.071  2.0682  0.7468 -1.5356
 5893SOL     OW29140   4.035   3.822   0.850 -0.1527  0.5173 -0.0392
 5893SOL    HW129141   4.058   3.868   0.931 -0.2530  0.3873  0.0636
 5893SOL    HW229142   4.111   3.766   0.836  0.1326  0.6889  0.8026
 5894SOL     OW29143   1.392   2.383  14.980  0.0562 -0.4428 -0.5776
 5894SOL    HW129144   1.352   2.423  15.057 -1.8135 -2.4756 -0.4848
 5894SOL    HW229145   1.430   2.304  15.019 -0.7518  0.2249  1.5295
 5895SOL     OW29146   2.905   3.942   0.049 -0.1276 -0.2873 -0.2951
 5895SOL    HW129147   2.885   3.869  17.687 -0.6899  0.4061 -0.9899
 5895SOL    HW229148   2.988   3.925   0.092 -0.5314  0.2050  0.6679
 5896SOL     OW29149   1.161   1.238  10.787 -0.4005  0.3382 -0.4256
 5896SOL    HW129150   1.132   1.274  10.704  0.6816 -1.2646 -1.4845
 5896SOL    HW229151   1.204   1.315  10.826  0.4615 -1.0488  1.3577
 5897SOL     OW29152   0.403   4.723   1.799 -0.1695  0.2946  0.2846
 5897SOL    HW129153   0.349   4.673   1.737  0.7616  1.3817 -1.4025
 5897SOL    HW229154   0.488   0.015   1.757  0.5983  0.0516  1.7377
 5898SOL     OW29155   3.346   2.281  13.359 -0.6237  0.1515 -0.3648
 5898SOL    HW129156   3.348   2.358  13.416 -0.5900 -0.3951  0.3749
 5898SOL    HW229157   3.253   2.257  13.367 -1.0063  1.1654 -1.6165
 5899SOL     OW29158   2.483   4.121   3.352 -0.3910 -0.3754 -0.3703
 5899SOL    HW129159   2.544   4.062   3.307  1.6437  1.2892  0.2089
 5899SOL    HW229160   2.517   4.207   3.325 -0.8987 -0.5220 -1.4749
 5900SOL     OW29161   0.995   3.604   4.804 -0.5536  0.3537  0.2998
 5900SOL    HW129162   1.026   3.532   4.858 -3.8163 -0.8821  0.5047
 5900SOL    HW229163   1.074   3.629   4.755  0.8228  1.4109  3.0838
 5901SOL     OW29164   3.769   1.129   0.811  0.5545  0.0158  0.0523
 5901SOL    HW129165   3.787   1.125   0.717  0.1298 -2.2138  0.0791
 5901SOL    HW229166   3.674   1.132   0.811  0.5541 -0.3689  2.5169
 5902SOL     OW29167   0.841   1.411   0.113 -0.3686  0.4079  0.0192
 5902SOL    HW129168   0.932   1.418   0.087 -0.5494  2.4798 -0.0881
 5902SOL    HW229169   0.864   1.382   0.201  0.3987 -1.9436 -0.9834
 5903SOL     OW29170   1.223   3.804   5.513 -0.0093  0.1400 -0.3774
 5903SOL    HW129171   1.261   3.788   5.427 -1.0612  1.7283 -1.1331
 5903SOL    HW229172   1.293   3.851   5.559 -0.7849  0.6385  0.2938
 5904SOL     OW29173   4.703   1.940   6.298 -0.2715  0.1322 -0.0836
 5904SOL    HW129174   0.031   1.859   6.287 -0.5780  0.0684 -1.0619
 5904SOL    HW229175   4.633   1.906   6.354 -1.7031 -0.1103 -2.0044
 5905SOL     OW29176   0.815   2.074  16.740  0.0578  0.1466  0.5115
 5905SOL    HW129177   0.750   2.017  16.781 -0.8646  1.0746  0.3440
 5905SOL    HW229178   0.898   2.062  16.786  0.4592  1.7766  0.2087
 5906SOL     OW29179   1.675   1.605   1.383  0.1281 -0.2286  0.3833
 5906SOL    HW129180   1.753   1.550   1.373  0.9775  0.5284  2.7540
 5906SOL    HW229181   1.604   1.543   1.367  2.2741 -2.5659 -0.1533
 5907SOL     OW29182   3.942   0.184   5.651  0.3493  0.0405  0.8843
 5907SOL    HW129183   3.870   0.247   5.651  1.2482  1.0528 -0.5438
 5907SOL    HW229184   3.890   0.104   5.641 -0.9176  0.9791 -0.0112
 5908SOL     OW29185   3.175   2.547   7.952 -0.0992 -0.4090  0.4545
 5908SOL    HW129186   3.186   2.634   7.914  0.7969 -1.7547 -2.4303
 5908SOL    HW229187   3.262   2.532   7.989 -0.7817 -1.1310  1.7490
 5909SOL     OW29188   3.810   3.243   4.835 -0.4748 -0.1293  0.8182
 5909SOL    HW129189   3.905   3.259   4.833 -0.2366 -1.3437  1.8017
 5909SOL    HW229190   3.808   3.147   4.831  1.4218 -0.2642  3.0023
 5910SOL     OW29191   2.032   1.582   7.558 -0.2186 -0.5678 -0.4774
 5910SOL    HW129192   2.072   1.503   7.524  1.7244 -1.3812  3.6798
 5910SOL    HW229193   2.093   1.654   7.542  1.0282 -1.9605 -1.8658
 5911SOL     OW29194   2.065   4.390   5.582 -0.0432  0.5997  0.6859
 5911SOL    HW129195   2.118   4.378   5.661 -1.9402  1.1088  2.0357
 5911SOL    HW229196   2.064   4.486   5.580 -0.1286  0.5984  0.6786
 5912SOL     OW29197   3.212   0.737   3.300 -0.3636  0.0596 -0.0058
 5912SOL    HW129198   3.124   0.767   3.322  0.1638  1.8973 -0.4122
 5912SOL    HW229199   3.241   0.819   3.261 -0.1856  0.2499  0.5315
 5913SOL     OW29200   3.091   3.358   5.643 -0.1333  0.2490 -0.5464
 5913SOL    HW129201   3.012   3.316   5.608 -1.4373  1.2303  1.1827
 5913SOL    HW229202   3.056   3.444   5.666  0.9371  0.8126 -1.0166
 5914SOL     OW29203   3.555   2.154   4.738  0.1447  0.1893 -0.2637
 5914SOL    HW129204   3.488   2.139   4.804 -0.7119 -0.2570 -1.2345
 5914SOL    HW229205   3.639   2.150   4.785  1.2520 -0.3403 -2.2769
 5915SOL     OW29206   0.365   4.309  10.736  0.0420 -0.1721 -0.1520
 5915SOL    HW129207   0.411   4.388  10.763  0.7018 -1.1118  1.4503
 5915SOL    HW229208   0.272   4.332  10.732 -0.0626 -0.4550  0.6149
 5916SOL     OW29209   4.649   0.514   4.119 -0.3009 -0.7589  0.4736
 5916SOL    HW129210   4.689   0.435   4.155 -0.9331 -1.2872  0.0111
 5916SOL    HW229211   4.583   0.469   4.067 -0.7858  0.3530  0.1172
 5917SOL     OW29212   0.726   4.251  13.233  0.3013 -0.3477  0.0360
 5917SOL    HW129213   0.757   4.164  13.257  1.2243 -0.1007 -0.2365
 5917SOL    HW229214   0.762   4.303  13.305 -1.5426 -0.9259  1.3633
 5918SOL     OW29215   1.456   2.650   7.087 -0.3454  0.2686  0.2947
 5918SOL    HW129216   1.443   2.703   7.008 -2.0441 -1.6863 -0.7335
 5918SOL    HW229217   1.436   2.567   7.043  0.2819  0.1672  0.1936
 5919SOL     OW29218   1.435   2.704   5.147  0.1992  0.4130  0.4799
 5919SOL    HW129219   1.526   2.679   5.162  0.2305 -0.1231 -0.6308
 5919SOL    HW229220   1.399   2.713   5.236 -0.2067  0.6363  0.2936
 5920SOL     OW29221   2.913   0.590  10.785 -0.1180 -0.1230 -0.2999
 5920SOL    HW129222   2.819   0.573  10.795 -0.7078  2.8592 -0.9701
 5920SOL    HW229223   2.908   0.666  10.728 -0.3592 -0.5884 -0.8971
 5921SOL     OW29224   3.502   1.698  15.469 -0.4143  0.1916 -0.4000
 5921SOL    HW129225   3.476   1.615  15.507 -0.1326  0.6456  0.7926
 5921SOL    HW229226   3.582   1.719  15.517 -1.6002  0.9894  1.2336
 5922SOL     OW29227   3.945   1.555  10.961  0.0126 -0.2611  0.0729
 5922SOL    HW129228   3.853   1.582  10.967  0.3129  0.8761 -0.4355
 5922SOL    HW229229   3.945   1.461  10.939  1.6940 -0.2497  0.0376
 5923SOL     OW29230   2.898   1.561   5.982 -0.7516 -0.4559  0.0721
 5923SOL    HW129231   2.901   1.654   6.005  0.8856 -0.6740  0.7331
 5923SOL    HW229232   2.968   1.560   5.917 -1.2484  0.2066 -0.4741
 5924SOL     OW29233   1.812   3.707   7.364  0.1779 -0.8473 -0.0947
 5924SOL    HW129234   1.806   3.705   7.459 -0.2989 -0.2974 -0.1131
 5924SOL    HW229235   1.768   3.624   7.345 -1.6119 -0.2038  1.2548
 5925SOL     OW29236   2.438   2.794   0.724 -0.3743  0.0467 -0.2869
 5925SOL    HW129237   2.407   2.884   0.711  0.1176 -0.0349 -1.9783
 5925SOL    HW229238   2.374   2.762   0.788 -0.9069  0.4222 -0.6329
 5926SOL     OW29239   1.539   3.418   1.319 -0.1024 -0.5708  0.0342
 5926SOL    HW129240   1.630   3.397   1.297 -0.0406  0.9808 -1.1968
 5926SOL    HW229241   1.537   3.373   1.403 -1.0742 -0.1826  0.2160
 5927SOL     OW29242   1.984   1.189   8.581  0.1205  0.4040 -0.0589
 5927SOL    HW129243   1.995   1.141   8.663 -2.9292  1.7641  1.1534
 5927SOL    HW229244   2.058   1.249   8.593 -0.2947  0.4565  2.1683
 5928SOL     OW29245   0.900   3.275   2.223  0.4564  0.0101  0.3699
 5928SOL    HW129246   0.877   3.340   2.290  0.3308  1.6866 -1.2765
 5928SOL    HW229247   0.902   3.335   2.148  0.8042 -0.0762  0.3114
 5929SOL     OW29248   4.682   1.895  10.136 -0.0360 -0.0928  0.0164
 5929SOL    HW129249   4.689   1.989  10.150  0.5981 -0.1576  0.1375
 5929SOL    HW229250   4.622   1.895  10.062 -0.4604 -0.9871  0.3499
 5930SOL     OW29251   4.384   4.263   1.848  0.3891 -0.2726  0.2563
 5930SOL    HW129252   4.395   4.353   1.879  0.4417 -0.7314  1.5976
 5930SOL    HW229253   4.401   4.277   1.755 -2.4076 -2.6427 -0.6224
 5931SOL     OW29254   2.479   4.609   8.303  0.2201 -0.0197 -0.3922
 5931SOL    HW129255   2.387   4.591   8.282  0.0311  1.0435 -0.4697
 5931SOL    HW229256   2.475   4.626   8.397  3.1189 -2.0187  0.1060
 5932SOL     OW29257   4.235   1.113   1.071  0.2543  0.0660  0.3923
 5932SOL    HW129258   4.174   1.045   1.099  1.9972 -0.7616  2.1388
 5932SOL    HW229259   4.278   1.140   1.151  0.1076  1.0252  0.1550
 5933SOL     OW29260   1.969   1.180   1.997  0.0273  0.2131  0.0048
 5933SOL    HW129261   2.061   1.197   1.976 -0.1635  0.6044 -0.5015
 5933SOL    HW229262   1.977   1.085   2.007  0.3439  0.1820 -0.5430
 5934SOL     OW29263   3.648   2.370  16.933  0.0952 -0.0398 -0.7617
 5934SOL    HW129264   3.567   2.416  16.911 -0.5015 -1.3927 -1.3835
 5934SOL    HW229265   3.700   2.445  16.963  0.4623 -0.6228  0.0775
 5935SOL     OW29266   3.251   4.408   6.361 -0.2584  0.3577  0.0520
 5935SOL    HW129267   3.303   4.354   6.420 -1.2492  1.0916  1.5746
 5935SOL    HW229268   3.218   4.340   6.301 -0.9886 -0.3692  1.2836
 5936SOL     OW29269   3.952   2.770   7.823  0.0822  0.2139  0.2854
 5936SOL    HW129270   3.989   2.802   7.906  0.1764 -1.2346  0.7980
 5936SOL    HW229271   4.008   2.801   7.752 -0.1151 -0.8743 -0.3345
 5937SOL     OW29272   2.826   0.061  15.599 -0.4094  0.7013  0.1437
 5937SOL    HW129273   2.887   0.120  15.554  0.3917  0.3370  0.7335
 5937SOL    HW229274   2.886   0.018  15.660 -0.7352 -2.4214 -1.7636
 5938SOL     OW29275   3.523   3.982  16.935  0.1087  0.3150  0.5328
 5938SOL    HW129276   3.511   4.018  16.848 -0.1539 -0.8141  0.1031
 5938SOL    HW229277   3.572   3.902  16.915 -0.7380  0.1574 -0.8997
 5939SOL     OW29278   1.603   0.645   2.694  0.2474 -0.0464 -0.7780
 5939SOL    HW129279   1.553   0.571   2.660  1.1471 -1.1215  0.1976
 5939SOL    HW229280   1.682   0.633   2.640  0.6004 -1.1044 -0.0355
 5940SOL     OW29281   4.397   0.457   5.200 -0.4677 -0.0625 -0.6060
 5940SOL    HW129282   4.440   0.529   5.153  0.3963  0.2206  0.6293
 5940SOL    HW229283   4.344   0.505   5.264  2.2753 -0.0402  1.6323
 5941SOL     OW29284   2.118   2.655   8.043 -0.0340 -0.2558  0.2572
 5941SOL    HW129285   2.103   2.575   8.092  0.0532 -2.0311 -2.6109
 5941SOL    HW229286   2.196   2.639   7.990 -0.5336 -0.7966 -0.3117
 5942SOL     OW29287   3.381   0.180   4.179 -0.4610  0.1155 -0.3083
 5942SOL    HW129288   3.324   0.233   4.122 -1.2562  0.4732  0.8247
 5942SOL    HW229289   3.446   0.158   4.112 -0.3264  0.8472 -0.4276
 5943SOL     OW29290   1.937   0.851   1.784  0.4206 -0.2730 -0.4101
 5943SOL    HW129291   1.964   0.766   1.748 -0.4541 -0.8559  0.3305
 5943SOL    HW229292   1.961   0.852   1.876  0.9233  0.0048 -0.5406
 5944SOL     OW29293   4.435   1.705  10.560  0.5293 -0.3862 -0.4283
 5944SOL    HW129294   4.526   1.729  10.544  1.0523 -1.9099  0.3098
 5944SOL    HW229295   4.432   1.612  10.540  0.2503 -0.3197 -0.7057
 5945SOL     OW29296   2.217   0.426   8.451  0.2218 -0.5908 -0.4154
 5945SOL    HW129297   2.160   0.488   8.406 -0.5744 -0.5849  0.5996
 5945SOL    HW229298   2.199   0.342   8.408 -1.3062 -0.5158  0.0827
 5946SOL     OW29299   4.565   3.752   2.305  0.0583 -0.0585 -0.0871
 5946SOL    HW129300   4.495   3.786   2.249 -0.0749  0.9280  0.6795
 5946SOL    HW229301   4.609   3.836   2.317  0.5616 -0.3149 -0.1387
 5947SOL     OW29302   2.180   1.749   9.123  0.3424 -0.6228 -0.1177
 5947SOL    HW129303   2.111   1.784   9.068  0.9326 -0.4518 -0.7502
 5947SOL    HW229304   2.192   1.816   9.191  1.4064 -2.7378  1.8094
 5948SOL     OW29305   0.331   2.428  12.004  0.6171 -0.0782  0.2938
 5948SOL    HW129306   0.386   2.465  11.935  1.4372  0.3096  1.1700
 5948SOL    HW229307   0.332   2.334  11.989 -2.3850 -0.4024  1.9498
 5949SOL     OW29308   3.905   0.129  16.136  0.0207  0.3944  0.0571
 5949SOL    HW129309   3.998   0.109  16.135  0.0298  0.4118  0.9340
 5949SOL    HW229310   3.901   0.218  16.102  0.6704 -0.0683 -1.2212
 5950SOL     OW29311   1.639   3.745   7.816  0.4915  0.5139  0.2985
 5950SOL    HW129312   1.619   3.832   7.851  1.6795 -0.6257  3.8436
 5950SOL    HW229313   1.550   3.720   7.790 -0.0021  0.5380  1.9519
 5951SOL     OW29314   3.262   4.124  13.187  0.3297 -0.4496 -0.1924
 5951SOL    HW129315   3.205   4.048  13.169  1.2964 -1.3176  0.4001
 5951SOL    HW229316   3.300   4.136  13.100 -1.2109  0.2097 -0.7782
 5952SOL     OW29317   2.934   1.824   6.064 -0.6207  0.4831 -0.0305
 5952SOL    HW129318   2.942   1.916   6.037  2.4831  0.4411  0.7249
 5952SOL    HW229319   2.888   1.832   6.148 -0.1546 -0.3711  0.3023
 5953SOL     OW29320   4.099   2.880   8.048  0.1658 -0.2095  0.1179
 5953SOL    HW129321   4.057   2.965   8.041  1.1798  0.0390 -2.9132
 5953SOL    HW229322   4.193   2.893   8.035  0.2255 -2.1719 -1.4339
 5954SOL     OW29323   1.348   0.726   8.498  0.3073 -0.1625  0.1492
 5954SOL    HW129324   1.427   0.691   8.539 -0.0294  0.2424  1.1241
 5954SOL    HW229325   1.322   0.775   8.576 -1.8059 -0.3694 -0.4234
 5955SOL     OW29326   1.211   0.339   2.159 -0.5258 -0.2155  0.0444
 5955SOL    HW129327   1.183   0.270   2.100 -2.2557 -1.0843  1.8848
 5955SOL    HW229328   1.292   0.365   2.114 -1.2679 -0.4367 -1.3980
 5956SOL     OW29329   3.086   4.138   9.769  0.3857  0.5264  0.5092
 5956SOL    HW129330   3.070   4.111   9.860 -2.3906  0.0387 -0.1326
 5956SOL    HW229331   3.072   4.232   9.783  1.7243  0.9963 -1.2875
 5957SOL     OW29332   0.982   3.045  17.084 -0.1843 -0.1793 -0.3898
 5957SOL    HW129333   0.903   3.098  17.093 -0.2880 -0.6492  1.5601
 5957SOL    HW229334   0.960   2.968  17.137  0.2778 -0.6015 -0.8112
 5958SOL     OW29335   1.640   2.024   3.071  0.3292 -0.4004  0.4307
 5958SOL    HW129336   1.735   2.019   3.074  0.3570  0.6366  1.7812
 5958SOL    HW229337   1.626   1.943   3.120 -0.8806 -0.3322  0.1983
 5959SOL     OW29338   2.181   2.725  15.106  0.3706  0.6863  0.0428
 5959SOL    HW129339   2.252   2.784  15.078 -1.0262  2.3696  0.0606
 5959SOL    HW229340   2.224   2.705  15.189  0.7810 -0.6756 -0.4960
 5960SOL     OW29341   2.828   0.270   0.378 -0.6589 -0.4636 -0.0013
 5960SOL    HW129342   2.765   0.303   0.315 -3.2987  0.7472  3.2337
 5960SOL    HW229343   2.821   0.177   0.357 -0.0745 -0.6592  0.6474
 5961SOL     OW29344   0.065   0.587   7.934 -0.0818 -0.2821 -0.0391
 5961SOL    HW129345   0.135   0.582   7.869  0.1020  1.9763  0.0021
 5961SOL    HW229346   0.111   0.587   8.018 -1.8893 -2.8722  0.9571
 5962SOL     OW29347   1.578   3.242   8.440 -0.4097 -0.2169  0.4578
 5962SOL    HW129348   1.626   3.214   8.518  1.0271  0.7212 -0.0887
 5962SOL    HW229349   1.596   3.183   8.368 -0.3324  2.4641 -1.7259
 5963SOL     OW29350   0.837   2.162   3.253  0.0965  0.2851 -0.5702
 5963SOL    HW129351   0.931   2.147   3.265  0.0488  1.6859  1.5536
 5963SOL    HW229352   0.811   2.170   3.345  2.0874 -0.7592  0.0882
 5964SOL     OW29353   2.690   0.512  17.547  0.7638  0.6572 -0.0572
 5964SOL    HW129354   2.717   0.434  17.595 -2.3139  0.3729  1.2213
 5964SOL    HW229355   2.596   0.514  17.565  0.5639  0.6515 -1.1324
 5965SOL     OW29356   4.080   2.651   5.637  0.2410  0.2567 -0.3713
 5965SOL    HW129357   4.050   2.742   5.632 -0.1778  0.1866  0.7713
 5965SOL    HW229358   4.011   2.622   5.698  1.2826  1.9171  1.6013
 5966SOL     OW29359   1.646   1.560   2.899  0.1062 -0.0883  0.1991
 5966SOL    HW129360   1.615   1.479   2.857  2.2494 -1.6036  1.5036
 5966SOL    HW229361   1.589   1.629   2.866 -0.3833 -0.7259 -0.2904
 5967SOL     OW29362   0.946   1.627   6.681 -0.2138 -0.0760  0.4294
 5967SOL    HW129363   1.022   1.575   6.706  1.0880  1.7695  0.3532
 5967SOL    HW229364   0.947   1.667   6.768 -0.1661  0.2595  0.2753
 5968SOL     OW29365   2.859   4.432   1.695  0.6067  0.9397 -0.0851
 5968SOL    HW129366   2.806   4.431   1.615 -1.0752  2.5712  1.0129
 5968SOL    HW229367   2.919   4.493   1.652  1.4329  1.0040  1.1742
 5969SOL     OW29368   3.788   1.024  15.122 -0.2027  0.0090 -0.6493
 5969SOL    HW129369   3.830   1.100  15.081 -1.6991  1.5329  0.6413
 5969SOL    HW229370   3.749   0.980  15.047 -1.5119 -1.1073  0.6693
 5970SOL     OW29371   1.102   3.547  11.381  0.2907 -0.0020  0.0147
 5970SOL    HW129372   1.008   3.555  11.398  0.3951  0.3212  0.4352
 5970SOL    HW229373   1.111   3.551  11.286 -0.5592  1.1450 -0.0163
 5971SOL     OW29374   1.993   1.068   5.553  0.0395 -0.3592 -0.3132
 5971SOL    HW129375   2.044   0.998   5.593  2.5008  0.6969 -1.6149
 5971SOL    HW229376   1.973   1.121   5.630 -1.1329 -0.7832 -0.3204
 5972SOL     OW29377   0.963   3.608  15.701  0.1249  0.0969  0.3805
 5972SOL    HW129378   1.008   3.692  15.697  1.4657 -0.5941  1.0181
 5972SOL    HW229379   1.028   3.545  15.670  0.4312  0.9973 -0.7772
 5973SOL     OW29380   3.883   4.401  10.957  0.3420  0.1841 -0.5782
 5973SOL    HW129381   3.898   4.492  10.982 -1.0436  0.5851 -1.1957
 5973SOL    HW229382   3.973   4.367  10.965  0.2110 -0.2047 -0.7513
 5974SOL     OW29383   1.497   4.151   2.533 -0.1472  0.1643 -0.1412
 5974SOL    HW129384   1.562   4.187   2.473  0.9863 -0.8331  0.4819
 5974SOL    HW229385   1.429   4.115   2.477 -0.0213 -0.6634  0.2279
 5975SOL     OW29386   0.474   2.418   4.852  0.2604 -0.2174  0.0948
 5975SOL    HW129387   0.471   2.468   4.771 -0.1720  0.3237  0.4444
 5975SOL    HW229388   0.392   2.448   4.893 -0.8351 -2.2974 -0.5645
 5976SOL     OW29389   0.647   2.209   1.514 -0.3143 -0.2898  0.0439
 5976SOL    HW129390   0.618   2.255   1.435 -0.1330 -1.2691 -0.5822
 5976SOL    HW229391   0.696   2.132   1.485 -1.5317 -0.3056 -1.9648
 5977SOL     OW29392   3.891   2.514   3.042  0.3672  0.7391  0.2146
 5977SOL    HW129393   3.934   2.598   3.055  0.2528  1.1568 -1.9667
 5977SOL    HW229394   3.926   2.468   3.118  1.3716 -0.3575 -0.8956
 5978SOL     OW29395   1.010   1.948   1.260  0.1337  0.1914  0.2250
 5978SOL    HW129396   1.054   1.914   1.182  1.5642 -1.1073  1.6085
 5978SOL    HW229397   0.995   1.865   1.306 -0.7153 -0.5806 -1.4465
 5979SOL     OW29398   0.277   2.973   7.073 -0.1905 -0.3516 -0.8756
 5979SOL    HW129399   0.189   2.937   7.071 -0.1913 -0.3109 -1.9961
 5979SOL    HW229400   0.325   2.902   7.116  1.2595  0.2359 -1.5134
 5980SOL     OW29401   0.117   0.933  14.823  0.0141 -0.1650  0.0105
 5980SOL    HW129402   0.084   0.971  14.741  1.1868  1.6157  0.3636
 5980SOL    HW229403   0.198   0.984  14.820 -1.5278  2.3809  0.9150
 5981SOL     OW29404   2.544   1.341  14.789 -0.0088 -0.4815  0.3836
 5981SOL    HW129405   2.631   1.301  14.775 -0.3610 -0.5525 -1.6792
 5981SOL    HW229406   2.485   1.267  14.774 -0.8031  0.0022  1.1452
 5982SOL     OW29407   1.031   4.169   8.871  0.7219 -0.1762 -0.3041
 5982SOL    HW129408   0.984   4.148   8.952 -0.5429  0.8286 -0.7672
 5982SOL    HW229409   0.957   4.190   8.813  0.2154  0.8736  0.7294
 5983SOL     OW29410   0.736   3.551   4.131  0.1048 -0.3625 -0.1739
 5983SOL    HW129411   0.666   3.599   4.086  2.8466  1.1174 -2.8140
 5983SOL    HW229412   0.711   3.461   4.108  1.6177 -0.5641 -1.0526
 5984SOL     OW29413   3.601   3.916  15.745  0.0082 -0.1253  0.6601
 5984SOL    HW129414   3.654   3.958  15.812 -0.2207  0.4007  0.5158
 5984SOL    HW229415   3.547   3.987  15.709  0.6155  0.2029  0.3910
 5985SOL     OW29416   4.135   3.941  14.862 -0.1957 -0.2271  0.6047
 5985SOL    HW129417   4.154   3.885  14.787 -0.4335  1.7199 -0.9299
 5985SOL    HW229418   4.167   3.894  14.939 -1.0362  2.8221  2.8414
 5986SOL     OW29419   3.932   1.605   5.830  0.3074 -0.1473 -0.2188
 5986SOL    HW129420   3.840   1.632   5.829  0.0572 -0.9752  0.9624
 5986SOL    HW229421   3.920   1.522   5.876 -0.5208  0.4724  0.6598
 5987SOL     OW29422   2.339   3.901   3.005 -0.3300  0.3100 -0.0799
 5987SOL    HW129423   2.346   3.899   2.910 -1.2473 -0.4884 -0.1284
 5987SOL    HW229424   2.376   3.818   3.035 -1.7601 -0.7709 -1.3356
 5988SOL     OW29425   0.137   1.451   0.129 -0.4966  0.0667 -0.0222
 5988SOL    HW129426   0.232   1.451   0.139 -0.4909  0.6727 -0.0907
 5988SOL    HW229427   0.110   1.520   0.190  1.5697  0.4084  0.5076
 5989SOL     OW29428   1.264   3.646   4.067 -0.5048  0.5649 -0.1416
 5989SOL    HW129429   1.181   3.653   4.113 -1.6469 -0.0545 -2.1110
 5989SOL    HW229430   1.323   3.630   4.140 -0.6633  0.7379  0.0206
 5990SOL     OW29431   4.030   3.243  14.859 -0.0855 -0.1722 -0.4597
 5990SOL    HW129432   4.019   3.148  14.872  1.5476 -0.3375 -0.1723
 5990SOL    HW229433   4.106   3.241  14.800  0.8369 -0.6792  0.7371
 5991SOL     OW29434   0.210   3.975   5.509 -0.1051  0.0188  0.5457
 5991SOL    HW129435   0.153   4.051   5.500 -0.4548 -0.3331 -0.2157
 5991SOL    HW229436   0.270   3.981   5.434  0.0115 -0.7988  0.5682
 5992SOL     OW29437   1.265   2.762  17.042 -0.4016 -0.0279  0.0142
 5992SOL    HW129438   1.260   2.667  17.029  0.3981  0.1143 -1.4074
 5992SOL    HW229439   1.336   2.799  16.990 -0.8433  1.2185  0.2998
 5993SOL     OW29440   3.307   2.127  12.326 -0.5412  0.3332  0.2190
 5993SOL    HW129441   3.396   2.162  12.333 -0.8397  0.6678  2.3465
 5993SOL    HW229442   3.258   2.200  12.365  0.4423  0.2819  1.5451
 5994SOL     OW29443   4.012   1.025  16.392  0.3238 -0.5150 -0.2735
 5994SOL    HW129444   4.047   1.008  16.305 -1.3098 -4.0684 -0.2488
 5994SOL    HW229445   4.038   1.115  16.413  0.9809 -1.7161  4.1041
 5995SOL     OW29446   1.259   3.264   4.730  0.4058  0.0323 -0.1938
 5995SOL    HW129447   1.203   3.187   4.738 -2.6050  2.1943 -0.0841
 5995SOL    HW229448   1.216   3.309   4.656  1.3218 -0.4640 -1.0167
 5996SOL     OW29449   0.476   0.097  12.889  0.4575 -0.0691 -0.5845
 5996SOL    HW129450   0.437   0.093  12.802 -0.8335  1.8246 -0.0903
 5996SOL    HW229451   0.418   0.047  12.948 -0.1408  1.1236 -0.1483
 5997SOL     OW29452   1.608   2.662  13.294  0.6770  0.3482 -0.7625
 5997SOL    HW129453   1.533   2.718  13.313  1.5482  1.3845 -0.4064
 5997SOL    HW229454   1.665   2.685  13.368 -1.5912 -2.1638  1.7481
 5998SOL     OW29455   4.059   1.629   7.036 -0.1167  0.5030 -0.3815
 5998SOL    HW129456   4.052   1.566   7.107  1.7027 -0.7642 -1.3148
 5998SOL    HW229457   4.024   1.591   6.956  1.0307 -2.3482  0.4722
 5999SOL     OW29458   1.446   0.436  13.464  0.1734  0.3549 -0.8073
 5999SOL    HW129459   1.476   0.345  13.473  2.1484  0.8621 -2.2241
 5999SOL    HW229460   1.498   0.495  13.518  0.2290 -1.2585  0.8868
 6000SOL     OW29461   1.388   1.067  10.304  0.5975  0.8310 -0.2073
 6000SOL    HW129462   1.448   1.133  10.338  0.9574  0.5499 -0.2946
 6000SOL    HW229463   1.400   1.078  10.210 -1.5687  2.0560 -0.3396
 6001SOL     OW29464   2.706   0.022   1.694  0.0736 -0.4440  0.5971
 6001SOL    HW129465   2.708   4.662   1.739  2.0126 -1.8695 -2.1472
 6001SOL    HW229466   2.619   0.060   1.710  0.1493 -0.1273  0.2527
 6002SOL     OW29467   4.353   1.873  16.693  0.0819 -0.2286  0.3119
 6002SOL    HW129468   4.426   1.813  16.710  1.1036  0.5778 -1.2488
 6002SOL    HW229469   4.300   1.860  16.771 -2.5613 -1.2871 -1.6611
 6003SOL     OW29470   1.875   2.067   4.252 -0.0840  0.4279  0.6241
 6003SOL    HW129471   1.886   2.118   4.332  0.2065 -0.7839  1.3536
 6003SOL    HW229472   1.901   2.132   4.186 -2.8401 -0.2552 -1.1504
 6004SOL     OW29473   2.831   2.591   5.730 -0.0921 -1.4951  0.1534
 6004SOL    HW129474   2.865   2.632   5.809  0.6312 -1.7031 -0.0482
 6004SOL    HW229475   2.780   2.664   5.694  0.7705 -1.4270 -0.9293
 6005SOL     OW29476   4.045   2.044   1.749 -0.3896  0.1549  0.4456
 6005SOL    HW129477   4.107   2.058   1.820 -0.0372  1.8856 -0.1863
 6005SOL    HW229478   4.081   2.106   1.685 -0.4927  0.7666  0.9856
 6006SOL     OW29479   3.292   4.274  14.103 -0.0501  0.4111  0.3272
 6006SOL    HW129480   3.315   4.280  14.011  0.3800 -0.6703  0.3687
 6006SOL    HW229481   3.203   4.310  14.104 -0.2681 -0.1153 -2.4347
 6007SOL     OW29482   4.655   0.180   7.413  0.4215 -0.6762  0.2580
 6007SOL    HW129483   0.024   0.198   7.395  0.3371  2.1497  2.5993
 6007SOL    HW229484   4.641   0.086   7.414  0.6428 -0.7589 -3.4433
 6008SOL     OW29485   2.042   1.098   7.621 -0.5434 -0.2826  0.9126
 6008SOL    HW129486   2.130   1.066   7.640 -0.2251  0.7936  1.2410
 6008SOL    HW229487   2.010   1.087   7.710 -2.8980 -2.2274 -0.1765
 6009SOL     OW29488   3.743   2.337  11.571 -0.5003 -0.2041  0.3521
 6009SOL    HW129489   3.740   2.339  11.666 -0.9951 -2.4239  0.3775
 6009SOL    HW229490   3.787   2.418  11.545 -1.9004  0.1028 -1.0493
 6010SOL     OW29491   3.143   4.212   3.466 -0.1337  0.8165  0.4363
 6010SOL    HW129492   3.101   4.215   3.552  0.0805  1.6755  0.5180
 6010SOL    HW229493   3.063   4.204   3.415  0.7781 -1.6085 -0.5762
 6011SOL     OW29494   3.515   3.604  10.190  0.2117  0.0465 -0.0553
 6011SOL    HW129495   3.535   3.693  10.220 -1.9691 -0.2738  2.3250
 6011SOL    HW229496   3.421   3.595  10.209  0.6080 -2.1336  0.8014
 6012SOL     OW29497   3.733   0.391   6.992 -0.6769  0.4666  0.0642
 6012SOL    HW129498   3.741   0.443   7.072 -0.5075  1.3070 -0.5098
 6012SOL    HW229499   3.781   0.309   7.002  1.3938  1.6195 -0.6028
 6013SOL     OW29500   3.395   2.431   3.455 -0.6788  0.3289 -0.2357
 6013SOL    HW129501   3.419   2.520   3.430  0.6752  0.0865  0.2288
 6013SOL    HW229502   3.359   2.445   3.542 -1.4841 -2.2665 -0.1429
 6014SOL     OW29503   2.512   2.552  16.321  0.4345  0.0610  0.3253
 6014SOL    HW129504   2.477   2.566  16.233 -0.3325  3.1418  1.1190
 6014SOL    HW229505   2.533   2.459  16.319  1.4923  0.2881  0.9969
 6015SOL     OW29506   4.421   2.671   3.570 -0.1232  0.3745  0.0916
 6015SOL    HW129507   4.326   2.674   3.579 -0.3067  1.7650 -2.3332
 6015SOL    HW229508   4.435   2.702   3.481  0.9070 -0.7599 -0.1432
 6016SOL     OW29509   2.761   1.062   8.085 -0.1256  0.5696 -0.4297
 6016SOL    HW129510   2.851   1.082   8.108 -0.6693  1.1316  1.2134
 6016SOL    HW229511   2.715   1.082   8.167 -1.1311  0.1171 -0.8857
 6017SOL     OW29512   3.197   1.431   6.232 -0.2235 -0.0098 -0.7678
 6017SOL    HW129513   3.189   1.386   6.316  0.8743  1.6766  0.2379
 6017SOL    HW229514   3.164   1.518   6.251 -0.7292 -0.0311 -1.5261
 6018SOL     OW29515   2.786   2.843   3.434  0.1972  0.0400  0.4414
 6018SOL    HW129516   2.734   2.815   3.358  0.5071 -0.0802  0.2721
 6018SOL    HW229517   2.749   2.931   3.431  0.4717  0.1441  0.1335
 6019SOL     OW29518   1.522   0.412   8.710  0.3986  0.4020 -0.5407
 6019SOL    HW129519   1.437   0.422   8.754 -0.9817  0.2634 -3.2009
 6019SOL    HW229520   1.579   0.453   8.776 -0.3765  1.1622 -0.3352
 6020SOL     OW29521   2.396   1.150  13.524  0.2969  0.5217 -0.1575
 6020SOL    HW129522   2.424   1.115  13.439 -1.4624 -0.8421 -0.1708
 6020SOL    HW229523   2.464   1.217  13.527  0.7554  0.0959 -1.0872
 6021SOL     OW29524   2.085   2.412   8.162 -0.1149 -0.0950  0.1261
 6021SOL    HW129525   2.133   2.349   8.216  0.5033  1.5080  1.4560
 6021SOL    HW229526   2.005   2.361   8.151  0.4358 -0.8800 -0.2230
 6022SOL     OW29527   3.992   3.183  13.304  0.4348 -0.4382  0.0938
 6022SOL    HW129528   4.064   3.122  13.284  1.3783  0.2526  1.4200
 6022SOL    HW229529   3.922   3.118  13.298  0.5135 -0.5374  0.2426
 6023SOL     OW29530   3.010   1.019   6.193 -0.1057  0.5733  0.0374
 6023SOL    HW129531   2.963   1.065   6.123  3.3810  1.8449 -1.4601
 6023SOL    HW229532   2.994   1.084   6.262  1.4395  0.6847  0.2916
 6024SOL     OW29533   3.067   3.652   1.871  0.2737 -0.4041 -0.2617
 6024SOL    HW129534   2.991   3.703   1.841  0.1115 -1.1273 -1.0886
 6024SOL    HW229535   3.140   3.713   1.874  0.9155 -1.2023  0.2507
 6025SOL     OW29536   0.741   0.660   7.510 -0.1774 -0.8339 -0.1083
 6025SOL    HW129537   0.681   0.688   7.579  0.5704 -0.4767  0.3964
 6025SOL    HW229538   0.727   0.723   7.439  0.4304 -0.0422  0.4752
 6026SOL     OW29539   0.017   0.399   2.284 -0.3480  0.0914  0.2268
 6026SOL    HW129540   0.088   0.462   2.288 -0.3844  0.1533 -0.1487
 6026SOL    HW229541   4.702   0.398   2.372 -0.7118  0.0303  0.0684
 6027SOL     OW29542   0.198   2.721   8.469  0.9358  0.0405  0.5162
 6027SOL    HW129543   0.162   2.737   8.556  0.5671 -1.4264  0.6375
 6027SOL    HW229544   0.205   2.627   8.452  1.4818  0.3730 -1.0959
 6028SOL     OW29545   1.477   0.187   2.720 -0.0872 -0.4952  0.4412
 6028SOL    HW129546   1.569   0.164   2.727  0.2017  0.6842  0.4670
 6028SOL    HW229547   1.470   0.245   2.796  0.6668  0.5618 -0.2896
 6029SOL     OW29548   3.285   0.169   4.990 -0.4220  0.3462  0.6839
 6029SOL    HW129549   3.373   0.134   4.980 -1.3132 -1.8596  0.6239
 6029SOL    HW229550   3.229   0.092   4.999 -0.3415  0.0382 -1.4504
 6030SOL     OW29551   0.137   2.696   0.439 -0.3760 -0.0168 -0.7477
 6030SOL    HW129552   0.136   2.791   0.424 -2.3438 -0.1341 -1.3563
 6030SOL    HW229553   0.220   2.669   0.399 -0.1034 -1.7516  1.0258
 6031SOL     OW29554   0.886   3.433   1.983  0.0858  0.0219 -0.2109
 6031SOL    HW129555   0.890   3.511   1.927 -4.9797  0.2325 -0.2142
 6031SOL    HW229556   0.856   3.368   1.919 -1.3055  0.9574 -0.5152
 6032SOL     OW29557   1.680   0.901   1.165  0.0477  0.3469 -0.2387
 6032SOL    HW129558   1.729   0.941   1.093  1.7700 -1.0402  0.1390
 6032SOL    HW229559   1.755   0.865   1.212 -0.3171 -2.7008 -1.9973
 6033SOL     OW29560   1.392   4.153   8.679 -0.1824  0.0379 -0.7197
 6033SOL    HW129561   1.360   4.179   8.765 -1.0017 -0.9846 -0.7087
 6033SOL    HW229562   1.322   4.102   8.637 -0.5451 -0.3616  0.3813
 6034SOL     OW29563   3.091   0.395   6.229  0.0291 -0.6969 -0.5763
 6034SOL    HW129564   3.125   0.359   6.311  2.0514 -0.1770 -1.1894
 6034SOL    HW229565   3.030   0.326   6.204  1.1189 -2.0568  0.4963
 6035SOL     OW29566   0.143   3.558  16.901 -0.4941 -0.7201  0.3990
 6035SOL    HW129567   0.127   3.633  16.959  0.1777 -0.1254 -0.1838
 6035SOL    HW229568   0.210   3.592  16.842 -1.3745 -1.6934 -1.1514
 6036SOL     OW29569   4.476   1.929   2.482 -0.0319 -0.4805 -0.1297
 6036SOL    HW129570   4.394   1.919   2.529  0.8571  0.2281  1.5670
 6036SOL    HW229571   4.538   1.907   2.551  0.1109  1.5328  0.3893
 6037SOL     OW29572   0.233   0.532   0.858  0.3578  0.6558 -0.1225
 6037SOL    HW129573   0.316   0.501   0.821 -0.1406  0.8999 -1.4423
 6037SOL    HW229574   0.190   0.569   0.781 -0.8173  1.6836  1.0282
 6038SOL     OW29575   3.431   0.755   8.168  0.9758 -0.1184 -0.1965
 6038SOL    HW129576   3.389   0.758   8.254 -0.2559 -1.0883 -0.7536
 6038SOL    HW229577   3.460   0.845   8.156  0.2560  0.2735  1.0198
 6039SOL     OW29578   1.242   3.145   8.386  0.0696  0.5175 -0.3275
 6039SOL    HW129579   1.276   3.194   8.312  1.5220  0.4561  0.2985
 6039SOL    HW229580   1.326   3.118   8.425  0.6693  2.1867 -0.4433
 6040SOL     OW29581   0.811   0.589  13.363 -0.5543  0.3451  0.0423
 6040SOL    HW129582   0.874   0.529  13.324  0.2563  1.2804 -0.0794
 6040SOL    HW229583   0.849   0.595  13.451 -0.5460 -0.8200  0.1221
 6041SOL     OW29584   1.098   1.355   0.072  1.0501  0.1779 -0.1768
 6041SOL    HW129585   1.164   1.368   0.139 -1.4145  0.3873  2.1840
 6041SOL    HW229586   1.111   1.420   0.003 -2.3632  0.1399 -0.8916
 6042SOL     OW29587   4.043   1.450   8.294 -0.3562  0.3952  0.1645
 6042SOL    HW129588   4.126   1.476   8.253 -0.8263  1.8300  0.1393
 6042SOL    HW229589   4.051   1.488   8.381 -1.4125 -2.5994  1.5537
 6043SOL     OW29590   3.039   1.041   6.778  0.1925 -0.5173  0.1247
 6043SOL    HW129591   2.985   0.980   6.827 -1.7189  1.9638  1.1241
 6043SOL    HW229592   3.098   0.978   6.737  1.6139  0.5533  0.5245
 6044SOL     OW29593   2.236   0.680   7.003  0.5334  0.1453  0.1492
 6044SOL    HW129594   2.180   0.757   6.991 -1.1371 -0.7871  1.9676
 6044SOL    HW229595   2.175   0.607   6.995  0.4929  0.1966 -0.0237
 6045SOL     OW29596   4.656   4.276   2.152 -0.3215 -0.4578  0.8464
 6045SOL    HW129597   4.691   4.319   2.074 -0.8861  0.6403  1.1813
 6045SOL    HW229598   4.639   4.192   2.110 -0.5895 -0.9520  1.9434
 6046SOL     OW29599   4.266   4.148   5.167  0.1461 -0.3453  0.1890
 6046SOL    HW129600   4.187   4.099   5.187 -1.3963  1.7555 -0.7360
 6046SOL    HW229601   4.235   4.224   5.216  1.9364  0.2097  0.4498
 6047SOL     OW29602   3.908   0.745   6.693 -0.5075 -0.2065 -0.3742
 6047SOL    HW129603   3.966   0.752   6.617 -1.5082  0.1679 -1.1077
 6047SOL    HW229604   3.962   0.803   6.746 -1.1851  2.6217 -2.7744
 6048SOL     OW29605   0.696   0.074  11.849  0.1006 -0.0146 -0.2161
 6048SOL    HW129606   0.740   0.143  11.898  1.5507 -0.5547 -0.7729
 6048SOL    HW229607   0.620   0.118  11.810 -0.3399 -0.4369  0.1693
 6049SOL     OW29608   1.615   0.372   4.312 -0.1893 -0.7672 -0.9529
 6049SOL    HW129609   1.590   0.445   4.368 -2.6955 -1.0894 -1.6239
 6049SOL    HW229610   1.709   0.365   4.324  0.0005  2.3418 -0.6031
 6050SOL     OW29611   0.824   2.595   3.597  0.2031 -0.5525  0.8244
 6050SOL    HW129612   0.812   2.639   3.680  0.4471  2.4302 -0.7203
 6050SOL    HW229613   0.738   2.554   3.596  0.1177 -0.3661  0.5827
 6051SOL     OW29614   1.324   0.244   1.362  0.5315 -0.5323 -0.2659
 6051SOL    HW129615   1.276   0.319   1.327 -2.5822 -2.5164 -0.2547
 6051SOL    HW229616   1.410   0.284   1.372  1.0071 -1.7256  0.4766
 6052SOL     OW29617   2.920   0.191   1.672  0.6143  0.1072  0.0732
 6052SOL    HW129618   2.988   0.124   1.677  0.5039 -0.0281 -0.2219
 6052SOL    HW229619   2.843   0.133   1.675  1.0397 -0.4641  0.0306
 6053SOL     OW29620   4.420   3.949   3.011  0.0791  0.2237  0.2978
 6053SOL    HW129621   4.484   4.007   3.052  1.2252  0.5216 -1.9274
 6053SOL    HW229622   4.389   4.000   2.936 -0.4576  2.1164  1.8144
 6054SOL     OW29623   4.568   4.308  10.831 -0.0480  0.4872 -0.1141
 6054SOL    HW129624   4.662   4.323  10.820  0.2297 -0.7387  0.5703
 6054SOL    HW229625   4.559   4.250  10.755 -0.0851  0.5512 -0.1584
 6055SOL     OW29626   3.939   3.643   8.696  0.3256  0.1746  0.1698
 6055SOL    HW129627   3.921   3.550   8.684 -1.7534  0.8629 -1.9545
 6055SOL    HW229628   3.899   3.663   8.781  1.0610 -0.3790  0.6424
 6056SOL     OW29629   4.089   3.746   2.732  0.1079  0.2241  0.2406
 6056SOL    HW129630   4.169   3.790   2.703 -1.0540  0.3910 -2.6389
 6056SOL    HW229631   4.121   3.657   2.723  1.8316  1.0276 -1.4547
 6057SOL     OW29632   0.047   1.930   4.236  0.2193  0.3620  0.0102
 6057SOL    HW129633   0.067   1.979   4.316 -2.1643 -0.1901  0.9245
 6057SOL    HW229634   0.136   1.924   4.201  0.1748  0.0340 -0.0505
 6058SOL     OW29635   2.656   2.850   5.258  0.0685  0.0379  0.3306
 6058SOL    HW129636   2.585   2.875   5.318 -0.2223 -0.5427  0.2322
 6058SOL    HW229637   2.651   2.904   5.179  0.3887  1.2052  1.1206
 6059SOL     OW29638   1.309   2.193  11.770 -0.4986  0.1414  0.4002
 6059SOL    HW129639   1.290   2.130  11.840  1.2295 -1.4195 -0.5236
 6059SOL    HW229640   1.396   2.215  11.802  0.0306  0.9294 -1.6013
 6060SOL     OW29641   0.709   2.717   0.013 -0.1907  0.1402  0.2953
 6060SOL    HW129642   0.698   2.810   0.030  1.3605  0.0508  1.8056
 6060SOL    HW229643   0.676   2.684   0.096 -0.2773 -0.4151  0.0434
 6061SOL     OW29644   4.147   4.520   3.329 -0.1090 -0.8737  0.1780
 6061SOL    HW129645   4.065   4.569   3.335 -0.1204 -0.3982 -3.7890
 6061SOL    HW229646   4.217   4.571   3.371 -1.7363  1.3406  0.2224
 6062SOL     OW29647   3.355   1.735   1.245 -0.0796  0.1637 -1.0581
 6062SOL    HW129648   3.330   1.753   1.154 -0.8234  0.1449 -0.8527
 6062SOL    HW229649   3.381   1.817   1.286 -1.3978 -0.8014  1.7132
 6063SOL     OW29650   4.159   1.672   1.519  0.2191 -0.9584  0.2081
 6063SOL    HW129651   4.177   1.601   1.458 -2.1133 -1.1477 -0.2449
 6063SOL    HW229652   4.163   1.750   1.464 -0.0923 -0.2473  1.1800
 6064SOL     OW29653   0.863   3.514   5.655 -0.4645  0.2047 -0.6404
 6064SOL    HW129654   0.823   3.428   5.668 -1.3437  0.5417 -1.0973
 6064SOL    HW229655   0.818   3.574   5.715  0.4899  0.7632 -0.4852
 6065SOL     OW29656   3.640   1.393   8.481 -0.3276 -0.5408 -0.5475
 6065SOL    HW129657   3.670   1.390   8.390  1.8989  0.1432  0.1788
 6065SOL    HW229658   3.645   1.302   8.509 -2.8441 -0.4266  0.2852
 6066SOL     OW29659   3.348   1.896  14.751  0.4404  0.0347 -0.0406
 6066SOL    HW129660   3.356   1.858  14.663 -2.0085  0.7259 -0.5618
 6066SOL    HW229661   3.321   1.983  14.721 -1.1304 -0.5120 -0.2360
 6067SOL     OW29662   0.023   0.461  16.102  0.4366 -0.6270 -0.0741
 6067SOL    HW129663   4.658   0.491  16.082  0.2067 -1.0748  0.2687
 6067SOL    HW229664   0.013   0.471  16.197 -0.5464 -1.1234 -0.1280
 6068SOL     OW29665   3.937   1.156   8.304 -0.1870  0.1510 -0.0207
 6068SOL    HW129666   4.008   1.219   8.289  0.0873 -0.3797 -0.8906
 6068SOL    HW229667   3.983   1.112   8.375 -2.0501  0.5945  1.4699
 6069SOL     OW29668   3.026   4.347  10.164  0.3823  0.4995 -0.3456
 6069SOL    HW129669   3.114   4.311  10.173  0.8555  2.2123  2.1577
 6069SOL    HW229670   3.047   4.436  10.193 -0.9221  0.6970  0.0094
 6070SOL     OW29671   2.565   4.158   9.217  0.2335  0.7422  0.9941
 6070SOL    HW129672   2.549   4.073   9.259  0.5657  1.2185  2.0895
 6070SOL    HW229673   2.521   4.157   9.132  2.0867 -3.7112  0.1037
 6071SOL     OW29674   2.850   0.997   4.325 -0.5016  0.8019 -0.2621
 6071SOL    HW129675   2.903   1.060   4.374  1.1604 -1.3516  0.6996
 6071SOL    HW229676   2.804   0.966   4.403  0.6622 -0.3052 -0.0139
 6072SOL     OW29677   0.283   1.651   2.573 -0.3096  0.5792  0.4527
 6072SOL    HW129678   0.314   1.657   2.663 -0.8110 -0.3998  0.6934
 6072SOL    HW229679   0.321   1.730   2.536 -1.6043  0.2417 -1.6149
 6073SOL     OW29680   0.517   1.990   5.000  0.2184  0.2841  0.1995
 6073SOL    HW129681   0.609   2.014   5.009 -0.0080  1.5126 -0.7735
 6073SOL    HW229682   0.502   2.063   4.940 -0.6733 -1.7945 -2.1015
 6074SOL     OW29683   1.852   0.411   3.042  0.8572  0.0087  0.0695
 6074SOL    HW129684   1.897   0.326   3.046 -2.4800 -1.8084 -0.3027
 6074SOL    HW229685   1.841   0.409   2.947 -0.1564 -0.0093  0.1863
 6075SOL     OW29686   4.057   4.190   7.742  0.5711  0.2331 -0.2345
 6075SOL    HW129687   3.995   4.234   7.684  0.4781 -0.3201 -0.5521
 6075SOL    HW229688   4.140   4.195   7.693 -0.2029  1.5537 -1.4031
 6076SOL     OW29689   4.057   2.964   2.169  0.1064  0.9788  0.4097
 6076SOL    HW129690   4.090   3.044   2.211  2.7691 -0.5988  1.3292
 6076SOL    HW229691   4.121   2.950   2.098 -2.1451 -0.7241 -1.2880
 6077SOL     OW29692   1.218   4.363   2.537 -0.1382  0.1868 -0.2311
 6077SOL    HW129693   1.139   4.316   2.509  0.6238 -0.9299 -0.5186
 6077SOL    HW229694   1.242   4.289   2.593 -0.0776 -0.0135 -0.5169
 6078SOL     OW29695   3.081   0.088   6.652 -0.2399  0.0397  0.2539
 6078SOL    HW129696   3.090   0.003   6.610  1.4709  0.3894 -0.0729
 6078SOL    HW229697   2.986   0.088   6.667 -0.3025  0.9247 -0.1266
 6079SOL     OW29698   3.562   3.461   3.389  0.1836  0.0185  0.0172
 6079SOL    HW129699   3.577   3.369   3.408  0.9349  0.4607  1.5669
 6079SOL    HW229700   3.609   3.474   3.307 -1.2079 -0.4304 -0.8622
 6080SOL     OW29701   1.830   1.729  10.770 -0.5483  0.5172  0.0279
 6080SOL    HW129702   1.752   1.776  10.798  0.8725  1.2498  2.7848
 6080SOL    HW229703   1.847   1.758  10.681  0.3388  0.5875  0.2195
 6081SOL     OW29704   0.850   0.220   6.390  0.2577 -0.2614  0.0367
 6081SOL    HW129705   0.898   0.249   6.311  0.1511  1.5577  0.6508
 6081SOL    HW229706   0.906   0.148   6.421 -0.7742 -0.5530  1.2001
 6082SOL     OW29707   3.167   4.627   4.962  0.0481 -0.4816 -0.0003
 6082SOL    HW129708   3.204   4.579   5.036  2.0643  1.0204 -0.0543
 6082SOL    HW229709   3.098   4.561   4.952 -0.2494 -0.0916 -0.5229
 6083SOL     OW29710   2.291   1.057   6.782 -0.4928  0.0841  0.0610
 6083SOL    HW129711   2.247   1.088   6.861 -1.4547 -0.1224 -0.3851
 6083SOL    HW229712   2.245   0.973   6.769  0.0227 -0.3578  1.0678
 6084SOL     OW29713   3.794   3.475   5.008  0.3513  0.0376 -0.0991
 6084SOL    HW129714   3.791   3.403   4.945 -0.7458  0.9058 -1.0274
 6084SOL    HW229715   3.706   3.466   5.043  0.5363 -0.5859  0.2034
 6085SOL     OW29716   3.360   4.670   2.749 -0.3279  0.2234 -0.3936
 6085SOL    HW129717   3.280   4.633   2.713  0.1841 -0.5534 -0.7452
 6085SOL    HW229718   3.425   4.630   2.690 -1.1020  0.6367 -1.5353
 6086SOL     OW29719   4.041   0.351   5.161 -0.1949  0.3637  0.5589
 6086SOL    HW129720   4.118   0.362   5.218  1.2458 -2.0691 -0.9484
 6086SOL    HW229721   3.984   0.303   5.221 -0.8092  0.3230 -0.0675
 6087SOL     OW29722   4.111   3.528   8.934  0.3380 -0.0108  0.4581
 6087SOL    HW129723   4.081   3.614   8.963  1.1975  0.2868  0.4528
 6087SOL    HW229724   4.187   3.548   8.880  0.8195 -0.8048  0.8465
 6088SOL     OW29725   0.342   2.580  15.653  0.1288 -0.7406  0.0439
 6088SOL    HW129726   0.437   2.570  15.663  0.4830  2.5582 -0.2564
 6088SOL    HW229727   0.337   2.543  15.565 -2.2500 -0.2777 -0.0213
 6089SOL     OW29728   2.260   3.655   8.918 -0.0340 -0.0206 -0.1741
 6089SOL    HW129729   2.333   3.608   8.959 -0.7461 -0.3886  0.6521
 6089SOL    HW229730   2.204   3.685   8.989  1.6205 -0.0216  1.1501
 6090SOL     OW29731   4.644   1.688   5.614 -0.6495  0.7190 -0.3074
 6090SOL    HW129732   4.579   1.629   5.575 -0.4868 -0.1637  0.7442
 6090SOL    HW229733   4.662   1.752   5.545  3.3027 -0.1551 -0.0662
 6091SOL     OW29734   4.369   3.473   2.954  0.5004 -0.8123 -0.5213
 6091SOL    HW129735   4.459   3.455   2.928  0.4540  0.2259 -1.3821
 6091SOL    HW229736   4.372   3.566   2.933  2.0667 -0.3415  1.7596
 6092SOL     OW29737   3.863   1.096   3.690  0.2962  0.5726 -0.0562
 6092SOL    HW129738   3.790   1.066   3.745 -0.4088  3.1868  0.4338
 6092SOL    HW229739   3.876   1.024   3.628 -0.0714  0.3382  0.1357
 6093SOL     OW29740   2.622   2.509   9.609 -0.2134 -0.1429 -0.3107
 6093SOL    HW129741   2.679   2.447   9.563 -0.4676 -0.9916  0.5300
 6093SOL    HW229742   2.573   2.448   9.664 -1.1546  0.5714 -0.3580
 6094SOL     OW29743   2.575   2.961   3.682 -0.0772  0.0106 -0.1130
 6094SOL    HW129744   2.484   2.941   3.701  0.0932 -1.1557 -0.5175
 6094SOL    HW229745   2.559   3.016   3.605 -0.1837 -0.9107 -0.7568
 6095SOL     OW29746   3.757   0.358  17.030  0.4274 -0.3239  0.1287
 6095SOL    HW129747   3.743   0.417  16.955  1.6032 -0.2543 -0.0336
 6095SOL    HW229748   3.791   0.281  16.984  0.6077  0.9671 -1.9047
 6096SOL     OW29749   4.699   2.133   3.465  0.2203 -0.0595  0.2068
 6096SOL    HW129750   0.029   2.071   3.514 -0.3149  0.4346  1.4308
 6096SOL    HW229751   0.029   2.212   3.477  1.0242 -0.4557 -0.8040
 6097SOL     OW29752   1.740   2.346   3.314  0.3625  0.1258 -0.6974
 6097SOL    HW129753   1.658   2.345   3.265  0.0142  0.2199 -0.1138
 6097SOL    HW229754   1.781   2.417   3.265  0.8114  0.4061  0.0802
 6098SOL     OW29755   1.806   1.081   2.802 -0.0662 -0.5801 -0.0129
 6098SOL    HW129756   1.712   1.063   2.801 -0.2801  0.5805 -1.7127
 6098SOL    HW229757   1.830   1.083   2.710 -1.2469 -1.1576 -0.3343
 6099SOL     OW29758   2.139   3.750   7.522  0.0827  0.0446  0.1590
 6099SOL    HW129759   2.096   3.685   7.577 -2.3074  0.4635 -1.2311
 6099SOL    HW229760   2.163   3.698   7.446 -3.1570 -0.4483 -0.5044
 6100SOL     OW29761   0.190   0.223  12.079  0.3510  0.1899  0.4416
 6100SOL    HW129762   0.263   0.273  12.115 -0.7368  0.8548  1.7314
 6100SOL    HW229763   0.128   0.224  12.152 -1.1636  0.8420 -0.8531
 6101SOL     OW29764   0.500   2.724   7.634 -0.5668 -0.3259  0.5008
 6101SOL    HW129765   0.497   2.794   7.699  0.8476  0.1002  0.1189
 6101SOL    HW229766   0.581   2.747   7.587 -0.1181 -0.8657  1.0079
 6102SOL     OW29767   3.925   3.608   7.770 -0.4088 -0.1687 -0.7387
 6102SOL    HW129768   3.917   3.523   7.812  1.0598 -0.7286 -1.5948
 6102SOL    HW229769   3.986   3.586   7.700 -0.6165  0.5892 -1.1587
 6103SOL     OW29770   3.795   2.534   4.669  0.0723 -0.1627 -0.5112
 6103SOL    HW129771   3.720   2.591   4.656  2.2795  2.9324  0.3561
 6103SOL    HW229772   3.823   2.509   4.581  0.7181 -0.1621 -0.3119
 6104SOL     OW29773   0.348   2.719   6.111  0.4677 -1.2760 -0.7563
 6104SOL    HW129774   0.280   2.675   6.060 -1.3057  2.9575 -2.1249
 6104SOL    HW229775   0.398   2.752   6.037 -1.7319  0.8433 -1.3164
 6105SOL     OW29776   0.621   1.960   3.666 -0.2052 -0.0799 -0.0791
 6105SOL    HW129777   0.530   1.951   3.693 -0.1309  1.1497  0.5915
 6105SOL    HW229778   0.628   1.883   3.609 -0.3731  0.0095 -0.2200
 6106SOL     OW29779   0.357   1.239  12.117  0.0689 -0.0930 -0.0023
 6106SOL    HW129780   0.340   1.273  12.205 -1.8963  0.4981 -0.6243
 6106SOL    HW229781   0.272   1.250  12.073 -1.3914 -0.3800  2.7429
 6107SOL     OW29782   2.970   4.529  16.591  0.3651 -0.7385 -0.3395
 6107SOL    HW129783   2.975   4.548  16.497 -0.5161  2.0415  0.1705
 6107SOL    HW229784   3.001   4.612  16.628  2.0494 -0.9989 -1.1464
 6108SOL     OW29785   3.887   1.994  14.808  0.2136  0.6238 -0.2282
 6108SOL    HW129786   3.962   2.015  14.753 -1.3647 -1.9077 -3.3562
 6108SOL    HW229787   3.818   1.990  14.742  0.1327  1.8598 -0.2098
 6109SOL     OW29788   2.082   4.564   5.187 -0.3155 -0.2358 -0.5907
 6109SOL    HW129789   2.088   4.605   5.101 -0.1691 -1.5050 -1.1928
 6109SOL    HW229790   2.079   4.640   5.244 -1.8167  1.0372 -2.3639
 6110SOL     OW29791   4.095   2.929   5.089 -0.2545 -0.3657 -0.6283
 6110SOL    HW129792   4.178   2.929   5.137  0.8190  0.9180 -2.4765
 6110SOL    HW229793   4.109   3.010   5.039  0.4374  0.5497  1.0774
 6111SOL     OW29794   3.397   0.279  16.273 -0.2615  0.2538 -0.2291
 6111SOL    HW129795   3.392   0.245  16.184  2.1895 -0.7818  0.0433
 6111SOL    HW229796   3.355   0.203  16.312  0.2179  1.1751  2.1025
 6112SOL     OW29797   4.182   2.966  10.143  0.0634 -0.0159  0.1777
 6112SOL    HW129798   4.095   3.007  10.145  0.1727  0.1935  0.6811
 6112SOL    HW229799   4.163   2.882  10.101 -2.1541  0.6019 -0.0415
 6113SOL     OW29800   2.359   1.755   3.814  0.2444  0.9895 -0.0672
 6113SOL    HW129801   2.422   1.737   3.745  0.3670 -1.4076  0.6423
 6113SOL    HW229802   2.310   1.820   3.764 -0.0187  1.6120  0.9966
 6114SOL     OW29803   2.101   2.811   3.612  0.2270  0.4752  0.2638
 6114SOL    HW129804   2.111   2.772   3.525 -2.2671 -4.7595  2.3205
 6114SOL    HW229805   2.011   2.781   3.621  0.8134 -1.0489  1.0624
 6115SOL     OW29806   2.630   3.631   3.461 -0.2151  0.3062 -0.0617
 6115SOL    HW129807   2.607   3.696   3.395 -0.1160 -1.5309 -1.9060
 6115SOL    HW229808   2.589   3.671   3.538 -0.2908  0.6257 -0.2722
 6116SOL     OW29809   2.405   0.748   8.259  0.0451 -0.0211  0.2453
 6116SOL    HW129810   2.489   0.727   8.300  1.4976 -0.6267 -3.0286
 6116SOL    HW229811   2.390   0.671   8.204 -1.0502  2.0902 -2.3799
 6117SOL     OW29812   0.919   1.567   7.831 -0.1207 -0.2298 -0.5087
 6117SOL    HW129813   0.920   1.562   7.927 -1.5453 -1.0871 -0.5387
 6117SOL    HW229814   0.828   1.588   7.810 -0.8034 -0.6766  1.9667
 6118SOL     OW29815   2.451   2.212   6.513 -0.4841 -0.0690  0.5521
 6118SOL    HW129816   2.377   2.190   6.570 -1.5938 -0.6726 -1.1449
 6118SOL    HW229817   2.497   2.131   6.532  0.9859  0.5023 -0.5565
 6119SOL     OW29818   4.249   3.295   6.754 -0.3379  0.0589  0.5678
 6119SOL    HW129819   4.279   3.309   6.843 -0.0204 -1.5490  0.7198
 6119SOL    HW229820   4.325   3.318   6.701 -0.9437  0.2807 -0.2001
 6120SOL     OW29821   1.808   0.713  11.487  0.3409 -0.7146  0.1289
 6120SOL    HW129822   1.860   0.661  11.424  1.6171 -1.9076  2.1531
 6120SOL    HW229823   1.730   0.721  11.433 -0.2142 -2.1351  0.7297
 6121SOL     OW29824   1.221   0.371   7.625 -0.2691  0.3408 -0.5237
 6121SOL    HW129825   1.194   0.291   7.579 -2.6733  0.9380 -0.1692
 6121SOL    HW229826   1.297   0.375   7.567  0.8820 -0.0585  0.9432
 6122SOL     OW29827   4.502   0.264   5.039  0.3234  0.1326 -0.2029
 6122SOL    HW129828   4.472   0.342   5.086 -0.0200  0.1458 -0.4453
 6122SOL    HW229829   4.597   0.270   5.042  0.3740  0.4242 -2.2310
 6123SOL     OW29830   4.589   2.458   5.697  0.5198  0.2056 -0.0026
 6123SOL    HW129831   4.628   2.543   5.719 -0.6602  0.8491 -0.3953
 6123SOL    HW229832   4.631   2.403   5.763 -1.0961 -0.4918  0.4386
 6124SOL     OW29833   0.981   4.439  10.817 -0.5807 -0.2620  0.1837
 6124SOL    HW129834   0.969   4.350  10.849  3.5139 -0.3465  1.4327
 6124SOL    HW229835   0.971   4.412  10.725  2.3251  0.3738 -0.3105
 6125SOL     OW29836   0.205   1.191  13.999  0.2638  0.1512 -0.8802
 6125SOL    HW129837   0.130   1.250  14.004 -0.5695 -1.0465  0.5479
 6125SOL    HW229838   0.261   1.236  13.935  0.7606  0.6811 -0.0730
 6126SOL     OW29839   0.744   1.767   6.956  0.0411  0.2872  0.5011
 6126SOL    HW129840   0.749   1.813   7.040  0.3145 -0.2704  0.7928
 6126SOL    HW229841   0.683   1.820   6.906 -0.4339  0.5470  1.3589
 6127SOL     OW29842   2.582   0.090  12.125  0.2336 -0.1844 -0.1475
 6127SOL    HW129843   2.676   0.089  12.142  0.2371  0.1465 -0.1506
 6127SOL    HW229844   2.559   0.176  12.091  0.4888 -0.6471 -1.4804
 6128SOL     OW29845   1.422   4.037   3.252  0.1667  0.4624  0.7030
 6128SOL    HW129846   1.463   3.957   3.218 -0.9179  0.5152 -0.7344
 6128SOL    HW229847   1.332   4.029   3.219  0.6505  0.9082 -0.7443
 6129SOL     OW29848   2.930   1.279  10.871 -0.2659  0.2841  0.6255
 6129SOL    HW129849   2.942   1.259  10.964  0.2463 -2.1744  0.0390
 6129SOL    HW229850   2.989   1.354  10.875  1.6313 -1.2716  1.8744
 6130SOL     OW29851   0.028   2.254  15.012 -0.3001 -0.5834  0.0612
 6130SOL    HW129852   0.051   2.168  15.047  1.4077  0.1375  0.7154
 6130SOL    HW229853   0.108   2.307  15.010 -0.8698  0.2756 -0.3561
 6131SOL     OW29854   2.196   1.213   9.225 -0.1259 -0.7365 -0.1977
 6131SOL    HW129855   2.234   1.185   9.142  1.2207 -1.9413  0.8169
 6131SOL    HW229856   2.215   1.306   9.222 -2.2160 -0.3402 -1.1394
 6132SOL     OW29857   0.048   2.928   8.953 -0.2641 -0.2356 -0.6782
 6132SOL    HW129858   0.110   2.970   8.893 -1.6019  1.6133 -0.7421
 6132SOL    HW229859   0.067   2.968   9.037 -0.3151  1.0049 -1.2658
 6133SOL     OW29860   2.780   3.321   3.239  0.5074 -0.0331  0.1088
 6133SOL    HW129861   2.699   3.365   3.213  0.8247  0.1164 -0.6365
 6133SOL    HW229862   2.759   3.310   3.332  0.8754  1.3439  0.3497
 6134SOL     OW29863   0.603   2.632  12.610 -0.0792 -0.4285 -0.1407
 6134SOL    HW129864   0.649   2.561  12.566 -1.6866 -1.9245  0.6148
 6134SOL    HW229865   0.601   2.602  12.701  0.2945 -1.3559 -0.4382
 6135SOL     OW29866   4.181   3.197   8.233  0.3767  0.1139  0.0508
 6135SOL    HW129867   4.099   3.185   8.186  2.0035  2.7629 -3.4918
 6135SOL    HW229868   4.235   3.123   8.203 -1.0861 -0.0550 -2.2307
 6136SOL     OW29869   2.725   2.029   5.712 -0.6207  0.3689 -0.2594
 6136SOL    HW129870   2.711   2.124   5.709 -0.1756  0.4519  0.4069
 6136SOL    HW229871   2.636   2.000   5.730 -1.5344  3.7176  0.7193
 6137SOL     OW29872   3.491   4.576   9.058  0.3073 -0.2276  0.6738
 6137SOL    HW129873   3.446   4.565   8.974 -0.4534 -1.1427  1.1982
 6137SOL    HW229874   3.424   4.623   9.109 -1.3132 -1.4310 -0.3191
 6138SOL     OW29875   2.824   0.874   2.376  0.1533 -0.4227  0.3567
 6138SOL    HW129876   2.739   0.910   2.354  0.0339 -0.9702 -0.0861
 6138SOL    HW229877   2.850   0.930   2.449  0.1210  0.2979 -0.1964
 6139SOL     OW29878   0.155   4.323  12.039 -0.0222 -0.2379 -0.2672
 6139SOL    HW129879   0.225   4.357  11.984 -0.1936  1.8967  0.8475
 6139SOL    HW229880   0.148   4.399  12.096  3.8663  0.0675 -0.2013
 6140SOL     OW29881   4.155   2.833   3.020  0.1236  0.8561 -0.4501
 6140SOL    HW129882   4.207   2.834   2.939 -1.5585  1.1386 -1.5238
 6140SOL    HW229883   4.216   2.794   3.082 -0.8629 -3.4030 -2.1685
 6141SOL     OW29884   3.588   4.063   8.446 -0.1006 -0.0024 -0.6688
 6141SOL    HW129885   3.657   4.057   8.512 -0.7801  0.4184  0.0693
 6141SOL    HW229886   3.619   4.143   8.402  1.4283 -1.1716 -1.7313
 6142SOL     OW29887   4.059   1.160  13.576  0.3287 -0.2424  0.0523
 6142SOL    HW129888   4.063   1.072  13.614  2.3481  0.3729  1.2769
 6142SOL    HW229889   4.143   1.160  13.530  0.7488  0.3608  0.8047
 6143SOL     OW29890   3.788   1.343   3.319 -0.1967 -0.2684  0.0426
 6143SOL    HW129891   3.694   1.344   3.297 -0.4156  0.0731  0.9790
 6143SOL    HW229892   3.829   1.426   3.295 -1.5430  0.8369  1.5681
 6144SOL     OW29893   3.176   3.909   9.625 -0.5605  0.6860  0.5208
 6144SOL    HW129894   3.100   3.853   9.639  0.1871 -0.5540 -0.3854
 6144SOL    HW229895   3.146   3.984   9.676  0.2020  0.3199  1.5072
 6145SOL     OW29896   0.066   0.767   1.177  0.1271  0.3028  0.0863
 6145SOL    HW129897   0.017   0.725   1.105  0.7824 -1.9088  0.9148
 6145SOL    HW229898   0.150   0.780   1.134 -0.6860 -0.0382 -1.6193
 6146SOL     OW29899   3.314   2.237   2.756  0.0240  0.6118  0.3207
 6146SOL    HW129900   3.337   2.202   2.842  0.9202 -1.2538 -0.6884
 6146SOL    HW229901   3.380   2.193   2.703 -1.2402 -0.4540 -0.3701
 6147SOL     OW29902   2.543   0.617   9.001 -0.4596  0.1436  0.1123
 6147SOL    HW129903   2.459   0.663   8.994  0.3706  1.4082 -1.4977
 6147SOL    HW229904   2.593   0.693   9.031 -2.3038  0.4894  2.2997
 6148SOL     OW29905   0.343   2.627   6.832  0.5481  0.6169 -0.3562
 6148SOL    HW129906   0.257   2.665   6.850  0.2001 -0.0658 -0.5798
 6148SOL    HW229907   0.330   2.598   6.742 -2.4061  1.1809 -0.1162
 6149SOL     OW29908   0.491   4.251   5.248  0.4033  0.6366 -0.2477
 6149SOL    HW129909   0.508   4.310   5.321  1.1724  1.0543 -0.7687
 6149SOL    HW229910   0.556   4.269   5.181 -0.3129  0.4555 -0.9980
 6150SOL     OW29911   2.554   2.399   7.009 -0.3094 -0.7045 -0.0852
 6150SOL    HW129912   2.504   2.383   7.089  0.3184  0.2795  0.4975
 6150SOL    HW229913   2.503   2.347   6.947 -1.9562  1.7955 -0.8193
 6151SOL     OW29914   0.512   1.779   5.414 -0.1047 -0.2379  0.0138
 6151SOL    HW129915   0.508   1.762   5.320 -0.0943 -0.9863  0.1482
 6151SOL    HW229916   0.531   1.872   5.408  1.5250 -0.5859 -0.0590
 6152SOL     OW29917   0.459   1.775   9.385 -0.0097 -0.3519  0.0109
 6152SOL    HW129918   0.426   1.689   9.411 -0.9927 -0.1335 -0.4947
 6152SOL    HW229919   0.552   1.774   9.407 -0.1792  0.2139  0.7865
 6153SOL     OW29920   1.638   4.408   6.581  0.2817 -0.3206  0.0233
 6153SOL    HW129921   1.660   4.430   6.490 -1.7533 -1.5299 -0.7425
 6153SOL    HW229922   1.719   4.426   6.628 -0.6476 -0.1694  1.5562
 6154SOL     OW29923   1.634   4.079   8.759 -0.1405 -0.4668  0.2578
 6154SOL    HW129924   1.634   4.134   8.837  0.9541 -1.6871  1.1174
 6154SOL    HW229925   1.552   4.102   8.716  0.5215  0.6870 -0.3742
 6155SOL     OW29926   1.054   1.494  11.842  0.2558  0.2409 -0.1593
 6155SOL    HW129927   1.040   1.550  11.767  0.6475  1.3736  0.6116
 6155SOL    HW229928   0.971   1.446  11.840  0.2016  0.3245  0.0951
 6156SOL     OW29929   0.011   2.635   7.920  0.3347  0.4220 -0.1623
 6156SOL    HW129930   0.085   2.623   7.860 -0.0475  0.1286 -0.5751
 6156SOL    HW229931   0.048   2.703   7.976  1.9185 -1.6694  1.3213
 6157SOL     OW29932   4.062   4.105  12.011  0.1521 -0.3701 -0.1049
 6157SOL    HW129933   4.132   4.042  11.995 -1.2991 -2.3642  1.3767
 6157SOL    HW229934   4.034   4.084  12.101  0.1272 -0.4768 -0.1375
 6158SOL     OW29935   1.491   1.434  13.811 -0.7299  0.0075 -0.9644
 6158SOL    HW129936   1.532   1.486  13.880  1.2796  0.0523 -2.2163
 6158SOL    HW229937   1.559   1.415  13.746 -0.6770  1.9218 -1.4574
 6159SOL     OW29938   2.049   3.977  16.709 -0.8123 -0.0285  0.5770
 6159SOL    HW129939   2.135   4.016  16.724 -2.0053  2.4297  1.0077
 6159SOL    HW229940   2.057   3.914  16.780 -0.6824 -0.3946  0.2413
 6160SOL     OW29941   3.773   0.742   4.517 -0.3745  0.9931 -0.2753
 6160SOL    HW129942   3.766   0.792   4.599 -1.8075 -0.1629  0.3012
 6160SOL    HW229943   3.725   0.796   4.453 -0.2379  1.8610  0.3561
 6161SOL     OW29944   0.695   0.136   4.481  0.1907 -0.0331 -0.2400
 6161SOL    HW129945   0.643   0.179   4.549  2.4772  0.5315  1.1757
 6161SOL    HW229946   0.727   0.063   4.534 -1.7030 -0.6366  0.0838
 6162SOL     OW29947   0.115   4.449   0.682  0.6407 -0.0611 -0.1521
 6162SOL    HW129948   0.103   4.357   0.658 -1.5037  0.8451 -2.5178
 6162SOL    HW229949   0.119   4.481   0.592  2.5444  3.3283  1.1224
 6163SOL     OW29950   0.921   3.914  12.141 -0.3599  0.6232 -0.4750
 6163SOL    HW129951   0.829   3.888  12.150  0.1426 -0.1252  2.4508
 6163SOL    HW229952   0.974   3.836  12.160  0.3162  1.7419  2.2450
 6164SOL     OW29953   4.171   3.540   5.430 -0.5826 -0.3807  0.0082
 6164SOL    HW129954   4.104   3.474   5.443  0.2946 -1.1039  0.8555
 6164SOL    HW229955   4.137   3.582   5.351  1.2872 -4.1880 -2.7783
 6165SOL     OW29956   2.369   3.980   7.996 -0.6143  0.3647 -0.3199
 6165SOL    HW129957   2.411   3.899   8.024  0.5091  1.3458  0.8488
 6165SOL    HW229958   2.401   4.046   8.059 -1.9446  0.0023  0.7353
 6166SOL     OW29959   2.387   1.346   2.516 -0.2660 -0.4105  0.0366
 6166SOL    HW129960   2.462   1.404   2.503 -0.8967  0.2967 -0.4422
 6166SOL    HW229961   2.415   1.309   2.600  0.6348  0.6423  0.2084
 6167SOL     OW29962   3.253   3.559   3.096 -0.1540 -0.3119 -0.4904
 6167SOL    HW129963   3.160   3.557   3.073  0.3889  0.0645 -2.7015
 6167SOL    HW229964   3.252   3.513   3.180 -0.9169  0.2001 -0.2154
 6168SOL     OW29965   0.608   1.344   2.847  0.1339  0.1181 -0.2490
 6168SOL    HW129966   0.671   1.385   2.788  0.1465 -0.9144 -0.9625
 6168SOL    HW229967   0.662   1.344   2.925  2.0277  0.7536 -1.5749
 6169SOL     OW29968   3.393   4.486   7.675 -0.9277  0.3795  0.2967
 6169SOL    HW129969   3.406   4.459   7.767  0.3571  1.7123  0.5084
 6169SOL    HW229970   3.305   4.523   7.678 -0.6674  1.0521 -0.5137
 6170SOL     OW29971   1.415   2.010  17.616  0.4730 -0.5495 -0.1131
 6170SOL    HW129972   1.473   1.947  17.659 -0.0608  0.0400  1.4693
 6170SOL    HW229973   1.440   2.097  17.646 -1.1391  0.3709 -1.3950
 6171SOL     OW29974   3.555   0.587   4.853 -0.2047  0.2785 -0.8181
 6171SOL    HW129975   3.558   0.680   4.873  0.2727  0.1488 -0.2913
 6171SOL    HW229976   3.516   0.599   4.766 -0.3335  0.6367 -0.7089
 6172SOL     OW29977   3.542   3.996   3.808 -0.3851  0.5210  0.4527
 6172SOL    HW129978   3.519   3.944   3.732  0.7512  0.4708  0.1480
 6172SOL    HW229979   3.555   3.933   3.879 -1.3087 -1.1139 -0.8470
 6173SOL     OW29980   3.534   1.635   4.798 -0.0986 -0.1657  0.8863
 6173SOL    HW129981   3.568   1.565   4.854  0.7909  1.7361  2.7692
 6173SOL    HW229982   3.459   1.591   4.759 -0.0376  1.1254 -0.6510
 6174SOL     OW29983   0.241   0.563   2.411 -0.4733  0.2860 -0.5566
 6174SOL    HW129984   0.232   0.580   2.505  1.8997 -0.1309 -0.2567
 6174SOL    HW229985   0.330   0.528   2.413 -0.4612  0.4681  2.4554
 6175SOL     OW29986   0.334   4.377   8.460  0.6257 -0.7092 -1.1392
 6175SOL    HW129987   0.322   4.282   8.463 -1.7272 -0.4186 -0.9355
 6175SOL    HW229988   0.278   4.404   8.534  1.4610 -0.5337 -0.5703
 6176SOL     OW29989   1.726   2.909   6.171 -0.5337  0.3718  0.7103
 6176SOL    HW129990   1.778   2.851   6.116 -0.3750 -0.4641  1.7377
 6176SOL    HW229991   1.638   2.894   6.135  0.2288 -0.3402 -0.8383
 6177SOL     OW29992   1.257   1.356  16.431  0.5736  0.2058 -0.0121
 6177SOL    HW129993   1.305   1.420  16.484  0.6122  0.3318 -0.1965
 6177SOL    HW229994   1.197   1.418  16.388 -0.8065 -0.6021  0.7619
 6178SOL     OW29995   2.010   2.284   5.149  0.5961  0.2213  0.5769
 6178SOL    HW129996   2.049   2.330   5.223  0.8625  1.2112 -0.1723
 6178SOL    HW229997   2.043   2.340   5.079  0.3936  0.8988  1.0219
 6179SOL     OW29998   1.349   2.235  10.761  0.3633  0.6447  0.1726
 6179SOL    HW129999   1.383   2.317  10.724  3.3998 -1.1919 -1.1218
 6179SOL    HW230000   1.364   2.238  10.855 -0.3255 -2.5787  0.3833
 6180SOL     OW30001   1.983   2.036  14.444  0.5215  0.0528 -0.1011
 6180SOL    HW130002   1.901   2.072  14.411 -0.9712 -0.8039  2.6866
 6180SOL    HW230003   2.053   2.094  14.414  2.7301 -2.1365  0.8257
 6181SOL     OW30004   3.010   4.436  17.109 -0.0871 -0.2806  0.3323
 6181SOL    HW130005   3.050   4.491  17.177  0.9154  2.2569 -2.2781
 6181SOL    HW230006   3.077   4.371  17.089 -1.8999 -2.3102  0.9693
 6182SOL     OW30007   0.775   1.048   8.587  0.0116 -0.1227 -0.0497
 6182SOL    HW130008   0.728   1.051   8.503  0.1681 -1.2170 -0.1741
 6182SOL    HW230009   0.783   0.953   8.594 -1.8850 -0.2192  0.6361
 6183SOL     OW30010   3.606   2.135  14.922  0.8425 -0.0356  0.7086
 6183SOL    HW130011   3.549   2.198  14.966  0.5509  1.0404 -1.2118
 6183SOL    HW230012   3.688   2.185  14.933  0.1020  1.4828 -0.6498
 6184SOL     OW30013   0.982   3.655   4.152 -0.2020  0.2419 -0.2376
 6184SOL    HW130014   0.971   3.744   4.186  1.3740  0.0601  0.7684
 6184SOL    HW230015   0.895   3.628   4.125  0.7187 -2.4490 -0.4601
 6185SOL     OW30016   4.013   4.205   3.389  0.3090  0.0358 -0.0281
 6185SOL    HW130017   4.007   4.142   3.317 -5.2594  1.9657 -1.3093
 6185SOL    HW230018   3.972   4.274   3.336 -0.4116 -1.6446 -1.6281
 6186SOL     OW30019   1.645   3.663   2.132  0.4854  0.0700  0.6570
 6186SOL    HW130020   1.633   3.753   2.100  0.1867  0.0241  0.6407
 6186SOL    HW230021   1.561   3.630   2.100  1.1372 -1.2816  0.3490
 6187SOL     OW30022   1.714   3.842   2.415  0.4282  0.3101  0.0650
 6187SOL    HW130023   1.643   3.881   2.363  0.8553  0.3915 -0.4592
 6187SOL    HW230024   1.772   3.915   2.436 -2.2705  2.4035  0.1629
 6188SOL     OW30025   2.950   4.178   6.444  0.0255  0.0116 -0.3532
 6188SOL    HW130026   2.887   4.145   6.507 -0.0918  0.7850 -0.0587
 6188SOL    HW230027   3.015   4.212   6.505 -0.0334 -0.3686 -0.0790
 6189SOL     OW30028   4.697   2.194   2.167 -0.4780  0.2188  0.0234
 6189SOL    HW130029   4.647   2.195   2.248  1.3399 -0.7073  1.1774
 6189SOL    HW230030   0.062   2.198   2.202 -0.6051 -0.6419  0.4290
 6190SOL     OW30031   3.926   0.414   8.336 -0.0608  0.0527 -0.2181
 6190SOL    HW130032   3.973   0.405   8.253  1.5305 -0.0923  0.6975
 6190SOL    HW230033   3.901   0.506   8.339 -0.6636 -0.1395  0.7272
 6191SOL     OW30034   3.623   3.288   2.964  0.4056  0.2467 -0.0992
 6191SOL    HW130035   3.573   3.341   2.901 -0.5409 -0.5342 -0.0077
 6191SOL    HW230036   3.549   3.236   2.995 -1.3667  2.2748 -0.9322
 6192SOL     OW30037   3.536   1.751   8.513 -0.0042  0.2346  0.0985
 6192SOL    HW130038   3.466   1.746   8.578 -0.3663 -4.8418 -0.6345
 6192SOL    HW230039   3.573   1.837   8.528 -0.4875  0.2387  1.2530
 6193SOL     OW30040   1.063   3.543  17.485 -0.3265  0.0334  0.0392
 6193SOL    HW130041   0.982   3.533  17.434  0.8696 -0.1121 -1.8419
 6193SOL    HW230042   1.137   3.515  17.431 -0.0706  0.6855  0.0540
 6194SOL     OW30043   0.414   2.588   2.928  0.4728 -0.5106 -0.2613
 6194SOL    HW130044   0.499   2.546   2.936 -0.4794 -2.3933 -0.0984
 6194SOL    HW230045   0.388   2.560   2.841 -0.7662  3.8935 -1.3107
 6195SOL     OW30046   3.072   1.225   7.683 -0.2273 -0.6046 -0.7115
 6195SOL    HW130047   3.093   1.304   7.733  0.9873 -2.4330  1.6436
 6195SOL    HW230048   3.153   1.178   7.699 -0.0134  0.2858  0.8052
 6196SOL     OW30049   2.705   0.683  11.489 -0.3813 -0.2901 -0.5006
 6196SOL    HW130050   2.701   0.599  11.444  0.3172 -1.4678  1.6518
 6196SOL    HW230051   2.794   0.674  11.522 -0.8658  0.2410  0.9382
 6197SOL     OW30052   0.272   4.535   6.763 -0.2821 -0.2690  0.0375
 6197SOL    HW130053   0.313   4.467   6.816 -2.4708 -0.9902  0.8218
 6197SOL    HW230054   0.309   4.614   6.802 -3.1285  0.4933  1.2117
 6198SOL     OW30055   1.677   3.428   7.770 -0.2299  0.3681 -0.1096
 6198SOL    HW130056   1.588   3.395   7.759  0.7231 -2.3030  0.3687
 6198SOL    HW230057   1.666   3.520   7.795  0.0685  0.3271  0.1787
 6199SOL     OW30058   4.315   2.121  16.618 -0.3136 -0.1638 -0.0740
 6199SOL    HW130059   4.266   2.142  16.697  0.1858 -1.2127  0.5102
 6199SOL    HW230060   4.330   2.028  16.631  1.4768  0.4424  2.0694
 6200SOL     OW30061   4.656   2.082  13.947  0.0913 -0.5331  0.2436
 6200SOL    HW130062   4.652   2.123  14.033  0.5185  1.8701 -0.8906
 6200SOL    HW230063   4.564   2.058  13.938  0.2591 -1.0510 -0.1790
 6201SOL     OW30064   2.385   3.660   5.960  0.1592  0.5846  0.1623
 6201SOL    HW130065   2.422   3.603   6.027  1.3129  0.7341 -0.3607
 6201SOL    HW230066   2.422   3.743   5.991  0.3851 -0.3123  2.3053
 6202SOL     OW30067   4.597   3.296   9.608  0.2928 -0.0368  0.1199
 6202SOL    HW130068   4.605   3.229   9.540  1.2990  0.9991 -0.7911
 6202SOL    HW230069   4.610   3.233   9.678  0.2166  1.6234  1.6523
 6203SOL     OW30070   0.560   1.280   9.713  0.0191 -0.0288  0.1966
 6203SOL    HW130071   0.471   1.245   9.724 -1.0740  2.5738 -0.2976
 6203SOL    HW230072   0.613   1.229   9.775 -1.0103 -0.6853  0.5354
 6204SOL     OW30073   3.786   0.544   2.070  0.0298 -0.6550  0.1073
 6204SOL    HW130074   3.754   0.634   2.075 -0.5779 -0.7772 -1.6715
 6204SOL    HW230075   3.730   0.508   2.001 -0.6556  2.8438 -1.1325
 6205SOL     OW30076   3.971   3.121   8.088 -0.0875  0.7198  0.0042
 6205SOL    HW130077   3.966   3.191   8.022  2.0432  0.7084 -0.1682
 6205SOL    HW230078   3.881   3.088   8.090 -0.1669  0.9547  0.3882
 6206SOL     OW30079   4.284   1.512   8.199 -0.2041  0.1962 -0.2279
 6206SOL    HW130080   4.317   1.497   8.111 -0.1812 -1.1740  0.0072
 6206SOL    HW230081   4.337   1.587   8.228  0.7353 -0.7246  0.4283
 6207SOL     OW30082   2.045   2.031   2.069 -0.0007 -0.2481 -0.9765
 6207SOL    HW130083   2.051   1.964   2.001 -0.6433  2.0110 -3.2674
 6207SOL    HW230084   2.034   2.111   2.017  2.6560  0.9160  0.2495
 6208SOL     OW30085   1.168   2.539   7.253 -0.3536 -0.4652  0.2794
 6208SOL    HW130086   1.227   2.601   7.296  1.8368 -0.2977 -2.9285
 6208SOL    HW230087   1.128   2.496   7.329  0.0568 -2.3801 -0.5704
 6209SOL     OW30088   2.875   4.548  16.887 -0.3207  0.1447 -0.3287
 6209SOL    HW130089   2.934   4.513  16.954 -0.1919 -0.0979 -0.5684
 6209SOL    HW230090   2.899   4.640  16.897 -1.3630  0.4089 -0.3360
 6210SOL     OW30091   2.958   1.890   9.004 -0.2357  0.6142  0.7154
 6210SOL    HW130092   3.004   1.876   9.087  2.0789 -1.7440 -0.9877
 6210SOL    HW230093   2.992   1.975   8.977  4.1650 -0.2210  3.6535
 6211SOL     OW30094   4.563   2.075   1.794  0.6350  0.0837  0.0129
 6211SOL    HW130095   4.545   1.984   1.818  2.2939  0.1794  1.6074
 6211SOL    HW230096   4.658   2.069   1.783  0.6787  0.3647  0.2387
 6212SOL     OW30097   0.677   3.976   5.369 -0.3028  0.0646 -0.0065
 6212SOL    HW130098   0.660   4.070   5.372 -1.1597 -0.0155 -2.4249
 6212SOL    HW230099   0.636   3.954   5.285 -2.8898 -0.2847  1.3604
 6213SOL     OW30100   2.562   2.272   2.450 -0.4806 -0.0822 -0.2273
 6213SOL    HW130101   2.529   2.238   2.533  1.4680  0.1498  0.6431
 6213SOL    HW230102   2.558   2.367   2.466 -0.8531 -0.5289  2.2143
 6214SOL     OW30103   4.426   2.587   2.896 -0.5264  0.2947  0.8672
 6214SOL    HW130104   4.457   2.675   2.875  0.5555 -0.2612  0.1221
 6214SOL    HW230105   4.377   2.603   2.977 -1.0871  1.7376  0.2405
 6215SOL     OW30106   1.017   3.362   7.998  0.5400  0.3823 -0.2094
 6215SOL    HW130107   1.060   3.435   8.043  0.0505  0.6132 -0.1173
 6215SOL    HW230108   0.988   3.405   7.917 -0.3341 -1.5599 -0.9182
 6216SOL     OW30109   0.472   0.797  15.895  0.6131 -0.7024  0.4430
 6216SOL    HW130110   0.502   0.711  15.864  0.9181 -1.4336  2.8038
 6216SOL    HW230111   0.511   0.854  15.828 -1.5496 -0.7500 -0.8435
 6217SOL     OW30112   0.375   4.318  16.313  0.1178  0.3493  0.4610
 6217SOL    HW130113   0.470   4.308  16.326 -0.0049 -2.0574 -0.5480
 6217SOL    HW230114   0.341   4.353  16.395  0.0436  0.2264  0.4833
 6218SOL     OW30115   3.511   0.241   6.108 -0.5269 -0.2145  0.0502
 6218SOL    HW130116   3.465   0.202   6.181  2.4091 -1.4822  1.2384
 6218SOL    HW230117   3.467   0.326   6.101 -1.4082 -0.7276 -0.5636
 6219SOL     OW30118   3.724   4.260   8.283 -0.5536 -0.1475  0.1483
 6219SOL    HW130119   3.797   4.321   8.271  0.8735 -1.4516  2.1880
 6219SOL    HW230120   3.651   4.314   8.255 -0.2057  0.3949  0.2914
 6220SOL     OW30121   3.758   3.459   3.867  0.4766  0.1687 -0.3238
 6220SOL    HW130122   3.699   3.389   3.838  0.9106 -0.5263  0.4611
 6220SOL    HW230123   3.737   3.542   3.825  2.0780  1.0737  0.6694
 6221SOL     OW30124   0.156   2.739   2.433 -0.8136 -0.0537 -0.4075
 6221SOL    HW130125   0.191   2.798   2.366  1.3192  1.4593  2.0120
 6221SOL    HW230126   0.065   2.768   2.440  0.0357  2.2698  1.2154
 6222SOL     OW30127   2.350   0.467   8.672  0.9168  0.0184 -0.6984
 6222SOL    HW130128   2.313   0.402   8.732 -1.9297  1.0923 -1.2610
 6222SOL    HW230129   2.298   0.456   8.592  1.0180  0.5059 -0.8331
 6223SOL     OW30130   1.382   2.593  11.045 -0.0342 -0.0785 -0.7697
 6223SOL    HW130131   1.298   2.547  11.032  0.7414 -1.4221 -1.0475
 6223SOL    HW230132   1.436   2.543  10.984 -0.5021 -0.5526 -0.7979
 6224SOL     OW30133   1.754   2.998   5.165 -0.6070  0.5505 -0.0517
 6224SOL    HW130134   1.690   3.063   5.196  0.3371  3.1581 -3.5872
 6224SOL    HW230135   1.705   2.931   5.116 -0.0402  0.8641 -1.0502
 6225SOL     OW30136   4.218   1.211  12.711 -0.0366  0.3141 -0.0056
 6225SOL    HW130137   4.227   1.212  12.615  2.8276  0.6299  0.2667
 6225SOL    HW230138   4.161   1.135  12.724  3.4637 -2.0276  1.9004
 6226SOL     OW30139   4.125   0.343  15.971  0.4879  0.2490  0.2645
 6226SOL    HW130140   4.155   0.418  16.022  0.1545  1.7436 -1.7183
 6226SOL    HW230141   4.178   0.357  15.893 -0.6544 -0.7324 -0.6760
 6227SOL     OW30142   4.538   0.554   5.481  0.2267 -0.1214  0.2314
 6227SOL    HW130143   4.497   0.617   5.541  0.2347 -1.5362  1.7257
 6227SOL    HW230144   4.575   0.617   5.420 -0.6230  0.1876  0.0265
 6228SOL     OW30145   3.710   3.902  16.731 -0.2188  0.6145  0.0366
 6228SOL    HW130146   3.792   3.889  16.779 -2.0547  0.8145  3.1942
 6228SOL    HW230147   3.663   3.823  16.755  1.4040 -0.3209  0.1780
 6229SOL     OW30148   4.004   1.602  10.453 -0.2573  0.0426 -0.0548
 6229SOL    HW130149   4.048   1.667  10.398  0.4350 -1.2051 -0.9973
 6229SOL    HW230150   3.988   1.652  10.533 -1.1270 -0.3383  0.0051
 6230SOL     OW30151   2.219   0.185   8.152 -0.6933 -0.3868 -0.1317
 6230SOL    HW130152   2.186   0.194   8.241 -2.1012  0.4481 -0.7375
 6230SOL    HW230153   2.233   0.090   8.149 -4.7064 -1.0071  0.8069
 6231SOL     OW30154   2.931   4.332  11.602 -0.6305  0.7532  0.0103
 6231SOL    HW130155   2.884   4.364  11.525  0.8669 -0.1953 -1.2937
 6231SOL    HW230156   2.885   4.371  11.676 -1.0207 -0.1400  0.2374
 6232SOL     OW30157   3.966   4.221   8.001  0.3860  0.1506  0.4315
 6232SOL    HW130158   3.911   4.294   7.974 -0.2349  0.0839  1.5359
 6232SOL    HW230159   3.998   4.196   7.915 -1.8747 -1.4025  0.0488
 6233SOL     OW30160   4.484   0.820  15.915 -0.5810 -0.1769  0.1324
 6233SOL    HW130161   4.536   0.742  15.896  1.5901  1.0293  1.1989
 6233SOL    HW230162   4.509   0.876  15.842 -2.3219 -1.2178 -1.2930
 6234SOL     OW30163   3.752   2.117   8.349 -0.0668 -0.2687  0.5366
 6234SOL    HW130164   3.824   2.056   8.332 -0.1113  0.4284 -2.1821
 6234SOL    HW230165   3.686   2.051   8.370  0.0453 -0.5330  0.0726
 6235SOL     OW30166   3.083   0.793  15.646  0.0124 -0.2462  0.2249
 6235SOL    HW130167   3.071   0.888  15.635  0.2014 -0.1773  0.5866
 6235SOL    HW230168   3.020   0.769  15.714  0.5705  1.5447  1.3962
 6236SOL     OW30169   2.497   1.430   6.363  0.0262 -0.2273  0.1231
 6236SOL    HW130170   2.440   1.394   6.295  0.5630 -0.1373 -0.3722
 6236SOL    HW230171   2.457   1.382   6.436 -0.7614  1.2227  0.6534
 6237SOL     OW30172   4.470   1.167   5.990 -0.0970 -0.9265  0.4258
 6237SOL    HW130173   4.410   1.232   6.028 -0.9669 -1.2690 -0.3468
 6237SOL    HW230174   4.491   1.216   5.910 -1.3499  0.3512  0.8650
 6238SOL     OW30175   1.028   1.027   2.582 -0.2742 -0.4630 -0.2834
 6238SOL    HW130176   0.940   0.997   2.559 -0.4508  1.2963 -1.8772
 6238SOL    HW230177   1.070   1.049   2.500  0.9351  0.7486  0.6641
 6239SOL     OW30178   2.667   0.862   9.117 -0.4895 -0.2119 -0.6015
 6239SOL    HW130179   2.691   0.859   9.209  0.7611  0.2058 -0.9188
 6239SOL    HW230180   2.744   0.906   9.081 -0.5981  1.7704  1.6287
 6240SOL     OW30181   1.307   0.604   4.364 -0.0333 -0.6723 -0.3325
 6240SOL    HW130182   1.393   0.589   4.404  0.7481  0.6976 -1.5150
 6240SOL    HW230183   1.256   0.612   4.445 -2.4250  2.7455 -2.1738
 6241SOL     OW30184   1.592   0.189   1.641 -0.0077 -0.4057  0.3841
 6241SOL    HW130185   1.582   0.267   1.587  2.3203 -0.1556  0.3310
 6241SOL    HW230186   1.626   0.127   1.576  1.1588  0.6952 -0.0488
 6242SOL     OW30187   4.357   4.634   3.498  0.1368 -0.1166  0.2438
 6242SOL    HW130188   4.399   4.595   3.575 -0.3874 -2.4255 -0.6437
 6242SOL    HW230189   4.425   4.646   3.432  0.2893  0.4637  0.5086
 6243SOL     OW30190   4.443   2.816   3.873 -0.3053 -0.0392  0.5888
 6243SOL    HW130191   4.369   2.772   3.830  0.2127  0.5560 -0.8647
 6243SOL    HW230192   4.493   2.830   3.793  0.1594  0.9829  1.0572
 6244SOL     OW30193   1.170   3.800   7.121  0.5481 -0.0945 -0.1786
 6244SOL    HW130194   1.172   3.813   7.216 -1.9036  1.2802 -0.3066
 6244SOL    HW230195   1.079   3.823   7.102 -0.1072 -3.2299 -0.7971
 6245SOL     OW30196   2.720   0.413   6.991 -0.5004  0.0938  0.4365
 6245SOL    HW130197   2.642   0.411   6.936 -0.7366  2.6903  0.6742
 6245SOL    HW230198   2.681   0.401   7.077 -0.7295  0.5605  0.3969
 6246SOL     OW30199   2.649   3.858   7.727  0.0280 -0.0030  0.0221
 6246SOL    HW130200   2.555   3.871   7.715  0.4629  1.7254 -1.5074
 6246SOL    HW230201   2.674   3.948   7.706  0.8182 -0.0194  0.9025
 6247SOL     OW30202   1.773   4.004   0.733 -0.1478  0.0860  0.4530
 6247SOL    HW130203   1.783   4.061   0.809 -0.3327  2.4023 -1.2457
 6247SOL    HW230204   1.817   4.063   0.671  1.3547  0.7345  2.1451
 6248SOL     OW30205   0.549   2.750  14.894 -0.0392 -0.3082 -0.0056
 6248SOL    HW130206   0.556   2.736  14.989  2.2049  0.8126 -0.0246
 6248SOL    HW230207   0.536   2.660  14.862 -1.8640  0.1580 -0.5993
 6249SOL     OW30208   3.859   0.955  11.791  0.0285 -0.1104 -0.5466
 6249SOL    HW130209   3.787   0.932  11.732 -0.3444 -1.2064  0.3468
 6249SOL    HW230210   3.922   0.884  11.778 -0.8180 -0.3564 -3.3215
 6250SOL     OW30211   2.848   1.654   5.188 -0.4627  0.3315 -0.0778
 6250SOL    HW130212   2.780   1.601   5.146  2.3536 -2.2452 -1.3275
 6250SOL    HW230213   2.792   1.727   5.216  2.0840  2.6476 -0.9841
 6251SOL     OW30214   4.054   1.433  10.663  0.6148  0.5160 -0.0026
 6251SOL    HW130215   4.028   1.518  10.700 -1.9679 -0.9825  1.6607
 6251SOL    HW230216   4.122   1.464  10.603  0.8477  1.3062  0.6772
 6252SOL     OW30217   3.540   1.253   0.222 -0.1826 -0.0019 -0.1360
 6252SOL    HW130218   3.613   1.312   0.239 -0.1976 -0.8893  2.9490
 6252SOL    HW230219   3.538   1.242   0.127  2.6396 -1.1719 -0.0385
 6253SOL     OW30220   1.058   3.047  13.919 -0.1636  0.2209 -0.0684
 6253SOL    HW130221   1.134   3.001  13.954 -0.8547 -2.1062 -1.6577
 6253SOL    HW230222   1.046   2.999  13.837  0.8059 -0.3459  0.1286
 6254SOL     OW30223   3.898   0.339   2.990  0.2837 -0.2805 -0.5085
 6254SOL    HW130224   3.901   0.433   2.968 -1.8019  0.1108  0.8786
 6254SOL    HW230225   3.926   0.316   2.901 -0.9162  1.1786 -1.2808
 6255SOL     OW30226   3.385   3.120   6.500 -0.3692 -0.5609  0.3629
 6255SOL    HW130227   3.352   3.161   6.580  0.0012  1.1540 -0.3704
 6255SOL    HW230228   3.324   3.049   6.479 -0.5935 -0.0130 -0.8515
 6256SOL     OW30229   0.759   2.125   7.682 -0.4046  0.2948 -0.6400
 6256SOL    HW130230   0.738   2.153   7.593  1.8602 -2.2432 -1.9367
 6256SOL    HW230231   0.717   2.193   7.735  0.3124 -0.2369  0.6225
 6257SOL     OW30232   1.350   0.875   6.367 -0.2730  0.4947 -0.2455
 6257SOL    HW130233   1.266   0.837   6.343  0.4665 -2.3697  1.6328
 6257SOL    HW230234   1.392   0.798   6.406 -2.1913 -0.2890  0.2825
 6258SOL     OW30235   2.053   2.213  17.124 -0.4084  0.3309 -0.1692
 6258SOL    HW130236   2.057   2.214  17.028  0.4892  1.0196 -0.1218
 6258SOL    HW230237   2.009   2.130  17.144  1.1206 -0.2889  0.6310
 6259SOL     OW30238   0.252   0.912   8.501 -0.1405  0.0351 -0.3164
 6259SOL    HW130239   0.164   0.913   8.462 -0.3855  0.8598  0.2662
 6259SOL    HW230240   0.258   0.994   8.550  0.1534  0.1199 -0.4949
 6260SOL     OW30241   3.532   2.259  12.392  0.3245  0.6670  0.2960
 6260SOL    HW130242   3.541   2.354  12.394 -1.5491  0.8597 -0.5098
 6260SOL    HW230243   3.625   2.237  12.389  0.1000 -0.4482  1.7430
 6261SOL     OW30244   1.218   1.381   1.491 -0.1047  0.0427  0.1628
 6261SOL    HW130245   1.141   1.397   1.545 -1.0436  1.7014 -1.6745
 6261SOL    HW230246   1.187   1.356   1.404  0.3175 -1.4472  0.4335
 6262SOL     OW30247   1.148   3.026   8.094 -0.0277 -0.4325 -0.0079
 6262SOL    HW130248   1.203   3.099   8.122  3.8695 -3.0817 -0.8507
 6262SOL    HW230249   1.194   3.013   8.012 -1.3801  3.5549 -1.3962
 6263SOL     OW30250   3.646   2.372   3.890 -0.3748  0.3544 -0.1751
 6263SOL    HW130251   3.552   2.381   3.872 -0.2925  2.8690  0.6576
 6263SOL    HW230252   3.647   2.282   3.921  1.5680  0.1719 -0.7763
 6264SOL     OW30253   2.041   3.824   6.446  0.4177 -0.3867 -0.2761
 6264SOL    HW130254   2.060   3.917   6.460  2.6680 -0.7993 -0.5874
 6264SOL    HW230255   2.063   3.811   6.354 -3.3324  2.0656 -1.5114
 6265SOL     OW30256   0.509   1.302   5.523  0.3878 -0.0620  0.3900
 6265SOL    HW130257   0.416   1.306   5.504  1.1721  2.6206 -2.8137
 6265SOL    HW230258   0.543   1.216   5.499  0.0479  0.3013 -1.3565
 6266SOL     OW30259   0.036   2.298   8.011  0.1793  0.1370 -0.0338
 6266SOL    HW130260   0.019   2.384   8.049  1.4740  1.4389 -2.4116
 6266SOL    HW230261   4.712   2.237   8.068  0.4959 -2.8902 -3.0185
 6267SOL     OW30262   4.526   2.521   7.769 -0.4842  0.1684 -0.1144
 6267SOL    HW130263   4.537   2.597   7.712  0.0353  1.7710  2.1363
 6267SOL    HW230264   4.569   2.550   7.850 -1.8638  0.8420  0.3745
 6268SOL     OW30265   1.806   1.898   1.976 -0.4832  0.7171  0.1367
 6268SOL    HW130266   1.831   1.966   2.039  0.2612  0.6502 -0.0821
 6268SOL    HW230267   1.884   1.843   1.966 -0.1776  0.9751  1.1171
 6269SOL     OW30268   2.297   2.763   7.144  0.3310 -0.4611  0.4107
 6269SOL    HW130269   2.222   2.750   7.086  1.1724 -0.4582 -0.6596
 6269SOL    HW230270   2.370   2.742   7.086  2.5338  1.7480  2.3615
 6270SOL     OW30271   4.501   0.465   4.796  0.4113 -0.0199 -0.5188
 6270SOL    HW130272   4.568   0.412   4.752 -0.5968 -0.7414 -1.1954
 6270SOL    HW230273   4.538   0.550   4.817 -0.4580 -0.1303  1.4170
 6271SOL     OW30274   3.200   2.388   3.118  0.5377 -0.2319 -0.1359
 6271SOL    HW130275   3.154   2.325   3.174  0.6259  0.4664  0.7193
 6271SOL    HW230276   3.278   2.399   3.173  0.5733 -1.4136  0.0526
 6272SOL     OW30277   3.836   3.488   9.240 -0.2870  0.1554  0.3846
 6272SOL    HW130278   3.797   3.406   9.270 -1.1617  1.0263  1.5969
 6272SOL    HW230279   3.786   3.547   9.296  1.1872  0.3476  1.4824
 6273SOL     OW30280   1.316   1.974  14.877 -0.3978 -0.3559  0.1927
 6273SOL    HW130281   1.397   2.025  14.884 -1.0660  0.7587 -0.0779
 6273SOL    HW230282   1.337   1.891  14.919 -0.0974 -1.4111 -2.0314
 6274SOL     OW30283   3.886   3.708   4.879 -0.3129  0.2572 -0.8224
 6274SOL    HW130284   3.853   3.783   4.929  0.2075 -0.7310  0.9898
 6274SOL    HW230285   3.870   3.632   4.934 -1.5294 -0.0687 -1.6224
 6275SOL     OW30286   3.042   3.394   7.779  0.2087 -0.4023  0.5496
 6275SOL    HW130287   2.997   3.369   7.698  0.6379  0.8974 -0.0852
 6275SOL    HW230288   3.024   3.318   7.833  0.0267 -0.2369  0.7226
 6276SOL     OW30289   2.548   2.490   4.282 -0.2706  0.1339 -0.1666
 6276SOL    HW130290   2.544   2.461   4.373 -0.6550  1.0383  0.1076
 6276SOL    HW230291   2.502   2.573   4.297  2.3255  1.8356 -1.6403
 6277SOL     OW30292   0.850   4.429   7.407 -0.0653 -0.3140 -0.3516
 6277SOL    HW130293   0.847   4.450   7.501  0.2482  0.0789 -0.4329
 6277SOL    HW230294   0.803   4.346   7.418 -0.5631 -0.1623 -1.3508
 6278SOL     OW30295   3.771   1.306  12.100 -0.5080  0.1556  0.0091
 6278SOL    HW130296   3.835   1.242  12.128  0.0192  1.6177  2.1023
 6278SOL    HW230297   3.688   1.266  12.126  1.0600 -2.2409  1.2271
 6279SOL     OW30298   2.485   4.084   0.689  0.0945 -0.3660  0.4051
 6279SOL    HW130299   2.529   4.062   0.772 -0.8231 -3.0906  0.1804
 6279SOL    HW230300   2.536   4.024   0.634 -2.1358 -1.4723 -0.4654
 6280SOL     OW30301   3.609   0.709  14.106 -0.2034  0.3332 -0.1372
 6280SOL    HW130302   3.694   0.735  14.071  1.6299 -2.5263  2.1188
 6280SOL    HW230303   3.631   0.666  14.189 -1.0824 -0.4618 -0.3155
 6281SOL     OW30304   2.833   4.303   2.634 -0.0819 -0.0457  0.2482
 6281SOL    HW130305   2.919   4.274   2.664  0.4615  0.4658 -0.8412
 6281SOL    HW230306   2.814   4.229   2.576 -2.5805 -0.5961  1.7446
 6282SOL     OW30307   2.152   1.050   4.957 -0.3907  0.3484  0.3479
 6282SOL    HW130308   2.078   1.037   5.016  0.2037  1.1292  1.2626
 6282SOL    HW230309   2.200   1.124   4.994  0.6004 -0.4777  0.7330
 6283SOL     OW30310   1.868   1.089   6.566 -0.4181 -0.0474 -0.4247
 6283SOL    HW130311   1.903   1.139   6.640 -1.9060 -0.2808  0.4442
 6283SOL    HW230312   1.782   1.062   6.598 -0.3592 -1.6880 -1.6472
 6284SOL     OW30313   1.641   0.110  11.689 -0.1702 -0.4040 -0.1035
 6284SOL    HW130314   1.639   0.188  11.633  0.2773  0.4268  1.0361
 6284SOL    HW230315   1.669   0.042  11.628 -0.9362 -1.6994  1.0075
 6285SOL     OW30316   2.661   1.984   3.951 -0.1160 -0.4351 -0.0328
 6285SOL    HW130317   2.624   1.983   3.863  0.2317 -1.5672 -0.1648
 6285SOL    HW230318   2.687   2.076   3.954  0.8973 -0.7553  1.0018
 6286SOL     OW30319   2.910   4.415   2.379 -0.2445 -0.2562  0.2564
 6286SOL    HW130320   2.850   4.340   2.383  0.1192 -0.6043 -0.9470
 6286SOL    HW230321   2.895   4.452   2.466  0.2425  1.1859 -0.2846
 6287SOL     OW30322   1.940   2.232   3.477  0.0946 -0.1204 -0.0394
 6287SOL    HW130323   1.944   2.144   3.440  1.3269  0.1366 -0.5272
 6287SOL    HW230324   1.867   2.270   3.427  0.2065  1.1348  0.7430
 6288SOL     OW30325   0.408   3.293   7.421  0.0041 -0.1622  0.0050
 6288SOL    HW130326   0.445   3.222   7.472  0.6288  0.6694  0.7016
 6288SOL    HW230327   0.441   3.369   7.470 -0.3951  0.1061 -0.1365
 6289SOL     OW30328   1.605   3.056  11.080 -0.4525  0.0436  0.1373
 6289SOL    HW130329   1.673   3.025  11.140  0.4177  3.5846  0.9753
 6289SOL    HW230330   1.532   2.997  11.098 -0.1242 -0.0622  1.1446
 6290SOL     OW30331   2.809   2.284   5.713 -0.1821 -0.1143 -0.4902
 6290SOL    HW130332   2.901   2.280   5.687  0.2900 -2.0567  1.5285
 6290SOL    HW230333   2.806   2.372   5.750  0.3958 -0.4407  0.3382
 6291SOL     OW30334   2.525   1.349   3.204 -0.2388 -0.2472  0.1933
 6291SOL    HW130335   2.588   1.307   3.262 -2.4246 -1.5912  1.5722
 6291SOL    HW230336   2.446   1.331   3.254 -1.4343  1.9812 -0.8888
 6292SOL     OW30337   4.281   1.355   7.255 -0.1505  0.4310 -0.6548
 6292SOL    HW130338   4.189   1.355   7.231  0.0654 -0.3402 -1.4942
 6292SOL    HW230339   4.309   1.446   7.265 -0.2023  0.5271 -1.4413
 6293SOL     OW30340   1.016   3.826  12.471  0.9080 -0.3700  0.2157
 6293SOL    HW130341   1.067   3.755  12.512  1.5346  0.8341  1.5060
 6293SOL    HW230342   1.050   3.818  12.382  1.8899  0.9202  0.4817
 6294SOL     OW30343   4.311   4.133   3.732 -0.2621 -0.1318 -0.2072
 6294SOL    HW130344   4.335   4.214   3.687  1.4145  0.1359  1.1610
 6294SOL    HW230345   4.347   4.063   3.678 -0.2213 -0.5809  0.3943
 6295SOL     OW30346   3.348   1.394   2.851  0.1829  0.2854  0.0959
 6295SOL    HW130347   3.416   1.339   2.812 -0.6116  0.2928 -1.2901
 6295SOL    HW230348   3.281   1.389   2.783  0.1090 -1.0166  0.2689
 6296SOL     OW30349   1.764   4.484   5.623  0.3313 -0.3872 -0.1008
 6296SOL    HW130350   1.689   4.506   5.569 -0.9723 -2.4180  0.8993
 6296SOL    HW230351   1.831   4.452   5.563  0.9932  1.7504 -0.5113
 6297SOL     OW30352   0.390   0.650   3.274  0.5643  0.1708  0.5337
 6297SOL    HW130353   0.424   0.623   3.189  0.8695  0.1596  0.6570
 6297SOL    HW230354   0.352   0.567   3.305 -1.9899  2.5850  3.8913
 6298SOL     OW30355   2.481   4.687  16.129 -0.3567  0.3600 -0.4306
 6298SOL    HW130356   2.523   4.601  16.123 -0.0097  0.6367 -2.0287
 6298SOL    HW230357   2.525   4.720  16.050 -0.7818  1.2824 -0.2724
 6299SOL     OW30358   1.957   4.217  14.066  0.7214  0.0862 -0.5145
 6299SOL    HW130359   1.970   4.126  14.038  2.1845  0.4730 -1.1254
 6299SOL    HW230360   1.896   4.250  14.000  0.3854  0.9890  0.2547
 6300SOL     OW30361   2.331   4.548  11.059  0.0415 -0.0880 -0.7054
 6300SOL    HW130362   2.348   4.478  10.996  0.6029 -1.1280  0.5979
 6300SOL    HW230363   2.286   4.496  11.126  2.0714 -1.1045 -0.1329
 6301SOL     OW30364   2.632   4.413   8.986  0.2411  0.0317  0.0216
 6301SOL    HW130365   2.655   4.369   8.904  2.8143 -1.0826  1.3468
 6301SOL    HW230366   2.556   4.458   8.949  1.0885  1.8952  0.6009
 6302SOL     OW30367   3.682   4.370   6.827 -0.2500 -0.3030  0.1503
 6302SOL    HW130368   3.637   4.370   6.912 -0.6538  1.7491 -0.0610
 6302SOL    HW230369   3.620   4.427   6.781 -2.0409 -2.3410  0.0089
 6303SOL     OW30370   3.792   1.728   7.444 -0.3198  0.6758  0.2037
 6303SOL    HW130371   3.734   1.665   7.486  0.2402  0.9834  1.4306
 6303SOL    HW230372   3.802   1.692   7.355  0.8109  0.0271  0.5955
 6304SOL     OW30373   2.757   4.189  11.799  0.2626  0.5174  0.4357
 6304SOL    HW130374   2.695   4.260  11.814  0.3281 -0.0211  3.3783
 6304SOL    HW230375   2.834   4.245  11.811  0.0341  1.2088 -1.3583
 6305SOL     OW30376   1.497   0.282  14.365 -0.1723  0.3623 -0.0577
 6305SOL    HW130377   1.585   0.318  14.367  0.4588 -1.1807  0.0532
 6305SOL    HW230378   1.439   0.358  14.368 -2.6188 -1.4826 -0.9151
 6306SOL     OW30379   3.071   4.377  12.445 -0.1496  0.4381 -0.7323
 6306SOL    HW130380   2.989   4.402  12.403 -1.0994  0.4892  1.1256
 6306SOL    HW230381   3.123   4.408  12.371 -1.0171  1.8471 -0.7511
 6307SOL     OW30382   2.273   1.621   2.107  0.2220 -0.6932 -0.4532
 6307SOL    HW130383   2.366   1.598   2.111  0.3023 -0.3635 -0.4268
 6307SOL    HW230384   2.253   1.648   2.197 -0.1310 -2.3294 -0.0461
 6308SOL     OW30385   1.799   0.934   7.280  0.7197  0.0577 -0.0045
 6308SOL    HW130386   1.710   0.904   7.295  0.4651  1.0078  0.3848
 6308SOL    HW230387   1.782   1.025   7.255 -0.5886 -0.1538  0.1637
 6309SOL     OW30388   3.396   0.724   5.462 -0.7286 -0.1311 -0.9037
 6309SOL    HW130389   3.361   0.703   5.548  2.9631 -0.8832  0.4264
 6309SOL    HW230390   3.472   0.666   5.456  0.5968  1.2540  2.4635
 6310SOL     OW30391   3.002   0.886   0.773 -0.2368 -0.2559 -0.2455
 6310SOL    HW130392   3.055   0.820   0.817  0.0255  0.8898  1.1596
 6310SOL    HW230393   3.033   0.863   0.685  0.2217  0.0266 -0.1625
 6311SOL     OW30394   1.143   4.178   7.886 -0.0795  0.3500 -0.4296
 6311SOL    HW130395   1.110   4.251   7.835 -1.7054 -0.2489 -0.2291
 6311SOL    HW230396   1.130   4.105   7.825  1.2381 -1.3964  1.3979
 6312SOL     OW30397   2.129   3.897   6.184 -0.0725 -0.2248 -0.0213
 6312SOL    HW130398   2.169   3.931   6.264  0.0661  2.4812 -1.2569
 6312SOL    HW230399   2.117   3.971   6.126  1.0054 -1.3394 -1.6591
 6313SOL     OW30400   3.988   0.431  11.093 -0.1355  0.4423 -0.0610
 6313SOL    HW130401   3.996   0.494  11.165 -1.8515  0.8678 -0.2560
 6313SOL    HW230402   4.075   0.391  11.092 -0.5632 -0.5207  1.5732
 6314SOL     OW30403   1.339   0.979  11.362  0.1576  0.7790  0.1388
 6314SOL    HW130404   1.385   0.911  11.311 -3.0449  0.1564 -1.8980
 6314SOL    HW230405   1.305   1.049  11.306 -1.0008  1.4481  1.6900
 6315SOL     OW30406   2.073   1.762   1.978 -0.3821 -0.0922 -0.0636
 6315SOL    HW130407   2.150   1.722   2.018 -0.5828 -0.8927 -0.4856
 6315SOL    HW230408   2.065   1.703   1.903 -0.9318  0.4088 -0.4029
 6316SOL     OW30409   3.128   0.214   5.526  0.6979 -0.1488 -0.3276
 6316SOL    HW130410   3.052   0.171   5.566 -0.8620  0.6674 -2.3837
 6316SOL    HW230411   3.151   0.151   5.458  2.0909 -1.8065  1.7112
 6317SOL     OW30412   2.513   1.605   9.358  0.1500 -0.2078 -0.1755
 6317SOL    HW130413   2.562   1.656   9.423 -1.0709 -1.2078  1.5196
 6317SOL    HW230414   2.585   1.543   9.344 -0.1851 -0.7633  0.5737
 6318SOL     OW30415   2.063   0.168   4.635  0.1574  0.0029  0.5261
 6318SOL    HW130416   2.032   0.258   4.626  1.6526  0.6222  1.5164
 6318SOL    HW230417   2.155   0.172   4.610  0.3184  0.2489  1.1455
 6319SOL     OW30418   3.136   3.599   8.167 -0.3832 -0.7218  0.3273
 6319SOL    HW130419   3.106   3.624   8.254 -0.4041 -2.2278  0.7557
 6319SOL    HW230420   3.225   3.631   8.178 -0.5682  0.3279 -1.1854
 6320SOL     OW30421   4.540   1.559  17.575  0.1512  0.4175 -0.2574
 6320SOL    HW130422   4.584   1.476  17.556 -1.0450 -0.0667 -0.9250
 6320SOL    HW230423   4.612   1.622  17.567 -0.6016  1.1370 -1.2700
 6321SOL     OW30424   4.080   3.698   4.669  0.3988 -0.8862 -0.0747
 6321SOL    HW130425   4.013   3.728   4.730  0.5270 -0.0878 -0.3182
 6321SOL    HW230426   4.033   3.636   4.613 -3.1762  0.5758  1.3620
 6322SOL     OW30427   3.159   1.260   6.014  0.4478 -0.3298  0.3533
 6322SOL    HW130428   3.161   1.321   6.088  0.2818  1.9950 -1.5862
 6322SOL    HW230429   3.252   1.237   6.014  0.7241  0.8364 -2.3249
 6323SOL     OW30430   2.695   4.682  14.599  0.0344 -0.6896  0.4423
 6323SOL    HW130431   2.606   4.662  14.571  0.2211  1.0472 -1.4120
 6323SOL    HW230432   2.736   4.620  14.539  0.3202  0.8376 -0.9185
 6324SOL     OW30433   0.980   4.668   1.450 -0.5481  0.3304 -0.0360
 6324SOL    HW130434   0.983   0.032   1.412  2.3218 -0.5062 -1.7466
 6324SOL    HW230435   1.057   4.658   1.506  0.4019  2.5130 -0.9499
 6325SOL     OW30436   0.751   2.350   5.415  0.0597  0.3898  0.0073
 6325SOL    HW130437   0.796   2.289   5.472 -0.4195  0.1337  0.1129
 6325SOL    HW230438   0.800   2.431   5.429  1.7949 -0.9481  1.5810
 6326SOL     OW30439   2.524   1.657   5.797  0.1101  0.4179  0.0753
 6326SOL    HW130440   2.492   1.639   5.885  1.0364  0.2820  0.3850
 6326SOL    HW230441   2.559   1.743   5.819 -0.1283  0.5306  0.0096
 6327SOL     OW30442   1.863   4.368  17.512  0.4695 -0.2516  0.3047
 6327SOL    HW130443   1.848   4.462  17.526 -0.9811 -0.3039 -0.9364
 6327SOL    HW230444   1.865   4.334  17.601  2.1394 -2.6496 -0.6523
 6328SOL     OW30445   1.742   4.143   4.654  1.1001 -0.2025 -0.2103
 6328SOL    HW130446   1.750   4.223   4.602 -0.9994 -1.0653 -1.8429
 6328SOL    HW230447   1.822   4.100   4.623 -0.5527 -1.3712 -2.8625
 6329SOL     OW30448   1.685   2.936   7.991 -0.7579 -0.2033 -0.3261
 6329SOL    HW130449   1.729   2.853   8.008  0.3301  0.4659  0.1012
 6329SOL    HW230450   1.737   2.966   7.917 -0.3481  1.2096  0.5229
 6330SOL     OW30451   1.509   3.666  16.136 -0.4890  0.0471  0.6845
 6330SOL    HW130452   1.419   3.698  16.124 -1.0164 -1.2341  1.2475
 6330SOL    HW230453   1.560   3.744  16.158  0.1821  0.2952 -1.7557
 6331SOL     OW30454   4.553   0.680  14.911  0.6575  0.3321  0.3280
 6331SOL    HW130455   4.562   0.771  14.937 -0.9536  0.5204  0.2233
 6331SOL    HW230456   4.554   0.688  14.815  0.0780 -1.3561  0.1819
 6332SOL     OW30457   1.286   4.196   8.928 -0.1060  0.0921  0.0341
 6332SOL    HW130458   1.302   4.104   8.948  0.7078  0.0298 -0.8689
 6332SOL    HW230459   1.191   4.190   8.923 -0.0584 -0.9313  0.2792
 6333SOL     OW30460   1.664   2.059  11.360 -0.1998  0.1397  0.0181
 6333SOL    HW130461   1.570   2.065  11.374 -0.5048 -2.0894 -0.9869
 6333SOL    HW230462   1.678   1.965  11.369  3.1653  0.6125 -0.2994
 6334SOL     OW30463   2.248   1.463   2.739  0.5296  0.1256  0.1378
 6334SOL    HW130464   2.172   1.522   2.739  0.5755  0.1873  0.3253
 6334SOL    HW230465   2.262   1.452   2.645 -2.4723 -1.4072 -0.1711
 6335SOL     OW30466   2.088   0.925   8.155  0.5717 -0.0455  0.3644
 6335SOL    HW130467   2.089   0.994   8.221  1.8660 -0.8171  1.1498
 6335SOL    HW230468   2.000   0.947   8.123 -0.5314 -3.0989  1.3425
 6336SOL     OW30469   0.303   3.637  17.505 -0.0226  0.6606  0.5753
 6336SOL    HW130470   0.303   3.574  17.434  2.1353  1.1172  0.1913
 6336SOL    HW230471   0.395   3.658  17.520  0.0591  0.2897  0.6053
 6337SOL     OW30472   1.225   0.673  16.198  0.0709 -0.4666 -0.1773
 6337SOL    HW130473   1.140   0.664  16.156 -0.6805  1.6612  0.8326
 6337SOL    HW230474   1.207   0.698  16.289  1.9229  0.4769 -0.0505
 6338SOL     OW30475   0.508   2.076   4.041 -0.1425  0.7700 -0.3285
 6338SOL    HW130476   0.496   2.059   4.134  1.3232 -0.7684 -0.4259
 6338SOL    HW230477   0.601   2.099   4.033 -0.0618  1.1682  1.8771
 6339SOL     OW30478   1.006   4.562   6.828  1.2057 -0.7158 -0.2675
 6339SOL    HW130479   0.956   4.623   6.774  1.0454 -0.5912  0.0200
 6339SOL    HW230480   0.987   4.477   6.788 -1.2742 -0.8854  1.2661
 6340SOL     OW30481   1.286   2.955   3.382  0.2466 -0.3455 -0.1460
 6340SOL    HW130482   1.325   3.041   3.398  0.5889 -0.3838 -0.7418
 6340SOL    HW230483   1.360   2.894   3.385  0.2056 -0.3390  0.8504
 6341SOL     OW30484   2.292   3.688  10.346  0.3282 -0.3429 -0.6478
 6341SOL    HW130485   2.363   3.675  10.410 -0.2607  0.8652  0.2522
 6341SOL    HW230486   2.337   3.637  10.279 -0.4404 -0.5461 -1.0035
 6342SOL     OW30487   4.030   4.368   2.504 -0.1430  0.1893  0.2093
 6342SOL    HW130488   4.124   4.383   2.497 -0.2622  1.5102  1.2545
 6342SOL    HW230489   4.026   4.400   2.595 -2.3356  0.9322 -0.1478
 6343SOL     OW30490   3.851   2.010   7.244 -0.0612  0.6854  0.1603
 6343SOL    HW130491   3.920   2.003   7.310 -0.3177  0.9429  0.4603
 6343SOL    HW230492   3.854   1.921   7.207  2.0013  1.5941 -1.8197
 6344SOL     OW30493   0.780   0.620   3.077 -0.3316 -0.1935  0.1977
 6344SOL    HW130494   0.685   0.613   3.069 -0.1433 -2.5000 -0.0518
 6344SOL    HW230495   0.800   0.684   3.145  0.7918  0.9742 -1.2310
 6345SOL     OW30496   2.080   3.308  13.577 -0.3266 -0.3695 -0.3528
 6345SOL    HW130497   2.060   3.232  13.632  0.3973  0.9392  1.7400
 6345SOL    HW230498   2.163   3.285  13.536  0.5445  1.1655  0.5316
 6346SOL     OW30499   1.107   1.681   6.963 -0.2974  0.0220  0.2192
 6346SOL    HW130500   1.109   1.724   7.048 -0.1640 -0.8191  0.6323
 6346SOL    HW230501   1.196   1.693   6.929 -0.4296  0.0539 -0.1231
 6347SOL     OW30502   0.231   0.033   5.980 -0.0591  0.3920  0.2105
 6347SOL    HW130503   0.234   4.683   5.919  3.5018 -0.1710  1.0335
 6347SOL    HW230504   0.286   4.713   6.046  0.6129  2.5802  1.1050
 6348SOL     OW30505   0.431   3.504   7.571 -0.8748  0.1939 -0.3280
 6348SOL    HW130506   0.466   3.579   7.523 -1.1153  0.3843 -0.2062
 6348SOL    HW230507   0.352   3.544   7.608  0.2298  2.2679 -0.2474
 6349SOL     OW30508   4.623   0.801   7.286  0.7633  0.1020 -0.0540
 6349SOL    HW130509   4.690   0.820   7.220  1.1558 -3.1041 -0.6119
 6349SOL    HW230510   4.579   0.886   7.289  0.1563 -0.3456  3.0479
 6350SOL     OW30511   1.773   3.601  16.100  0.3971 -0.2256 -0.5803
 6350SOL    HW130512   1.686   3.637  16.080 -0.0627 -1.6799 -1.1678
 6350SOL    HW230513   1.804   3.579  16.012  0.2849  0.7672 -0.8784
 6351SOL     OW30514   1.977   3.716   2.882  0.0074 -0.1159 -0.4750
 6351SOL    HW130515   1.912   3.646   2.875 -2.4628  2.3576 -2.5048
 6351SOL    HW230516   2.036   3.684   2.950 -0.3031  1.3249  0.4798
 6352SOL     OW30517   1.503   1.913   0.165 -0.2559  0.8549  0.0969
 6352SOL    HW130518   1.438   1.981   0.184 -0.8345  0.0557  0.9652
 6352SOL    HW230519   1.531   1.893   0.254  1.4316  1.7244 -0.2288
 6353SOL     OW30520   3.150   1.900  12.528 -0.5384  0.1100  0.0759
 6353SOL    HW130521   3.062   1.889  12.493  0.1864 -1.2578 -1.2737
 6353SOL    HW230522   3.145   1.995  12.540 -1.3872 -0.0697  1.1670
 6354SOL     OW30523   1.956   1.757   4.394 -0.2374 -1.2023 -0.2412
 6354SOL    HW130524   1.913   1.723   4.473  1.2990 -0.2406  0.9981
 6354SOL    HW230525   2.009   1.831   4.421  1.9582 -2.5048 -0.9804
 6355SOL     OW30526   3.458   2.043   5.940  0.9574 -0.1852  0.5245
 6355SOL    HW130527   3.531   1.992   5.905 -0.2387 -1.4709 -0.1209
 6355SOL    HW230528   3.384   1.989   5.913 -0.0669  1.0078  0.9726
 6356SOL     OW30529   3.733   0.272   3.977 -0.4957  0.1358 -0.1666
 6356SOL    HW130530   3.767   0.182   3.977  0.1618  0.3894 -1.4423
 6356SOL    HW230531   3.763   0.307   4.061 -2.7091 -0.1553  0.7381
 6357SOL     OW30532   3.209   2.731   4.492  0.3280  0.1691  0.3186
 6357SOL    HW130533   3.265   2.724   4.415  0.4331 -0.2583  0.4317
 6357SOL    HW230534   3.174   2.642   4.500  2.0929 -0.2988  3.0236
 6358SOL     OW30535   0.402   1.087   7.768 -0.1728 -0.4304  0.0595
 6358SOL    HW130536   0.407   1.106   7.674  0.5090  0.4573  0.2758
 6358SOL    HW230537   0.335   1.019   7.772 -0.8604  0.1092 -1.8348
 6359SOL     OW30538   0.232   2.660   3.123 -0.2397  0.1921  0.0813
 6359SOL    HW130539   0.292   2.638   3.051  0.0022 -0.0646  0.3618
 6359SOL    HW230540   0.284   2.646   3.202 -0.5877 -0.5175  0.1866
 6360SOL     OW30541   0.456   3.966   2.716 -0.2659 -0.0059  0.4295
 6360SOL    HW130542   0.490   3.984   2.629  1.3727  0.6746  1.2254
 6360SOL    HW230543   0.528   3.907   2.739 -1.7750 -1.3350  1.8658
 6361SOL     OW30544   4.212   1.591   2.905 -0.5099  0.4898 -0.3057
 6361SOL    HW130545   4.185   1.675   2.943 -0.0542  0.3657  0.3056
 6361SOL    HW230546   4.174   1.535   2.973  1.3478 -2.8830 -2.0104
 6362SOL     OW30547   0.580   4.316   4.291  0.1701 -0.2803 -0.0064
 6362SOL    HW130548   0.520   4.353   4.356 -1.2754 -2.3084 -0.1609
 6362SOL    HW230549   0.529   4.238   4.265 -0.6620 -0.5325  2.3950
 6363SOL     OW30550   3.311   1.972   8.184 -0.0866 -0.2055 -0.4401
 6363SOL    HW130551   3.402   1.945   8.194  0.5530  2.2274  0.4354
 6363SOL    HW230552   3.280   1.985   8.274 -1.4951 -0.2874 -0.9152
 6364SOL     OW30553   3.176   1.151   1.649 -0.0043 -0.2175  0.1064
 6364SOL    HW130554   3.085   1.166   1.621 -0.4670 -1.9200  0.6675
 6364SOL    HW230555   3.216   1.219   1.595  1.7414 -1.2274  0.1234
 6365SOL     OW30556   1.585   3.285   5.112 -0.0810 -0.4775 -0.2276
 6365SOL    HW130557   1.496   3.266   5.082  0.1065  0.8027 -1.5684
 6365SOL    HW230558   1.563   3.313   5.201 -0.7130  0.1073 -0.5654
 6366SOL     OW30559   2.579   0.424   4.305  0.3333  0.3616 -0.1643
 6366SOL    HW130560   2.572   0.518   4.288  0.8108  0.5594  0.7381
 6366SOL    HW230561   2.675   0.420   4.305  0.4294  2.5590 -0.0845
 6367SOL     OW30562   3.785   1.921   3.901 -0.6128  0.1720 -0.1005
 6367SOL    HW130563   3.750   1.913   3.990  1.0595  0.3545  0.5835
 6367SOL    HW230564   3.873   1.884   3.911 -0.3703  0.6856 -0.3301
 6368SOL     OW30565   1.116   3.631  11.126 -0.3796  0.4005 -0.2001
 6368SOL    HW130566   1.210   3.645  11.138 -0.1744  0.9402 -2.3006
 6368SOL    HW230567   1.108   3.575  11.049 -2.9007  0.5225 -0.0013
 6369SOL     OW30568   0.348   3.774   9.091 -0.0250 -0.1248 -0.2704
 6369SOL    HW130569   0.338   3.681   9.072  1.0761  0.3382 -3.0569
 6369SOL    HW230570   0.440   3.776   9.118 -0.4250  0.9241  1.0139
 6370SOL     OW30571   4.530   3.071   6.529 -0.2080  0.0744 -0.1531
 6370SOL    HW130572   4.500   3.010   6.596  1.0857 -0.0182  0.3337
 6370SOL    HW230573   4.468   3.043   6.461 -1.8875  0.3818  1.2640
 6371SOL     OW30574   0.040   2.822   6.375 -0.4669  0.8733 -0.7511
 6371SOL    HW130575   4.709   2.744   6.384 -0.3991  0.7790 -1.1670
 6371SOL    HW230576   0.064   2.799   6.285  0.8782 -0.4843 -0.0526
 6372SOL     OW30577   1.296   2.582   3.673 -0.1670  0.1274  0.2339
 6372SOL    HW130578   1.226   2.517   3.667  0.7425 -1.0260  2.1614
 6372SOL    HW230579   1.242   2.661   3.683 -0.5003  0.2368 -2.4027
 6373SOL     OW30580   3.259   3.766   6.686 -0.1323 -0.5378  0.5842
 6373SOL    HW130581   3.208   3.847   6.676  1.4479  0.4684  0.5866
 6373SOL    HW230582   3.246   3.762   6.781  1.0464  1.1386  0.8218
 6374SOL     OW30583   0.257   1.322  15.638  0.2927  0.6540 -0.3012
 6374SOL    HW130584   0.285   1.293  15.725  0.9787  2.0759 -0.0630
 6374SOL    HW230585   0.320   1.393  15.629 -0.3507  1.3565  0.7546
 6375SOL     OW30586   2.213   1.388   4.270  0.3567 -0.8051  0.0546
 6375SOL    HW130587   2.168   1.446   4.208  0.1094 -0.1712  0.8196
 6375SOL    HW230588   2.295   1.370   4.225  1.7108  2.2617  1.2358
 6376SOL     OW30589   4.202   3.197   2.309 -0.5859  0.1247  0.3097
 6376SOL    HW130590   4.248   3.208   2.393  1.2795  1.9246 -0.9385
 6376SOL    HW230591   4.210   3.282   2.266 -0.8309 -0.1528 -0.2833
 6377SOL     OW30592   1.506   4.198   4.479  0.2414 -0.4094 -0.5732
 6377SOL    HW130593   1.582   4.146   4.504  0.2144  0.6138  1.5926
 6377SOL    HW230594   1.548   4.284   4.472  0.9580 -0.6838  0.3841
 6378SOL     OW30595   2.900   2.239   9.889  0.2260 -0.1243  0.1235
 6378SOL    HW130596   2.939   2.286   9.815  0.4228  0.5394  0.6512
 6378SOL    HW230597   2.851   2.306   9.936 -0.9625  0.0021 -1.3095
 6379SOL     OW30598   2.139   0.922   3.981  0.1301 -0.6690  0.3733
 6379SOL    HW130599   2.165   0.988   4.045  0.1921  1.6451 -2.0653
 6379SOL    HW230600   2.148   0.965   3.896 -0.7819 -1.2076  0.0074
 6380SOL     OW30601   1.598   2.271   2.293 -0.6996  0.0112 -0.0343
 6380SOL    HW130602   1.617   2.253   2.201 -3.2654 -0.3188 -0.4954
 6380SOL    HW230603   1.688   2.263   2.324  0.0430 -2.6088 -2.8032
 6381SOL     OW30604   0.052   1.040   7.420 -0.1583 -0.0172 -0.7508
 6381SOL    HW130605   0.102   1.061   7.341 -0.6238  1.8841 -0.5409
 6381SOL    HW230606   0.116   0.972   7.442  0.4805  0.9579  0.4021
 6382SOL     OW30607   3.608   2.608  12.212 -0.9583  0.4497 -0.4610
 6382SOL    HW130608   3.587   2.579  12.300  2.3256  1.6101  0.7228
 6382SOL    HW230609   3.679   2.553  12.179 -0.5582  1.6667 -1.6777
 6383SOL     OW30610   2.747   3.126   3.835  0.1610  0.2262  0.4093
 6383SOL    HW130611   2.690   3.057   3.800 -0.0009  1.2394 -1.3432
 6383SOL    HW230612   2.834   3.103   3.804 -0.3151  0.6981 -1.2916
 6384SOL     OW30613   0.761   0.243   6.990  0.0598  0.1469  0.2136
 6384SOL    HW130614   0.817   0.166   6.995  1.2023  0.8202 -2.2038
 6384SOL    HW230615   0.704   0.238   7.067  1.2228 -0.0635  1.0549
 6385SOL     OW30616   4.526   2.197   2.369 -0.2398 -0.3268 -0.3519
 6385SOL    HW130617   4.510   2.244   2.451 -0.6796 -2.3533  0.7471
 6385SOL    HW230618   4.520   2.103   2.390 -1.9988 -0.2508 -0.4905
 6386SOL     OW30619   3.263   1.702   9.382 -0.5471 -0.5780  1.1365
 6386SOL    HW130620   3.196   1.711   9.450 -0.2470 -0.7840  1.4595
 6386SOL    HW230621   3.333   1.745   9.431 -0.3082 -0.1022  0.3682
 6387SOL     OW30622   3.998   1.657  14.531  0.0605  0.0228 -0.1972
 6387SOL    HW130623   4.029   1.673  14.620  0.7133  1.1679 -0.6480
 6387SOL    HW230624   3.937   1.731  14.527 -1.3029 -1.0369  0.5730
 6388SOL     OW30625   2.750   0.655   4.613 -0.2396  0.4279 -0.6114
 6388SOL    HW130626   2.786   0.624   4.529 -2.0062 -0.1603 -1.1427
 6388SOL    HW230627   2.657   0.670   4.598 -0.3577  1.3604  1.0276
 6389SOL     OW30628   2.731   0.702   7.179 -0.5183  0.6762  0.1313
 6389SOL    HW130629   2.636   0.710   7.184 -0.7000 -2.1068  1.6321
 6389SOL    HW230630   2.759   0.747   7.259 -1.9837  1.1878  0.3462
 6390SOL     OW30631   2.103   0.586   6.242 -0.0778 -0.1203 -0.8427
 6390SOL    HW130632   2.165   0.658   6.251  1.2006 -1.5060  1.4939
 6390SOL    HW230633   2.026   0.640   6.224  0.3077  0.8418  0.3651
 6391SOL     OW30634   0.995   0.783  16.692  0.2194  0.4868 -0.4048
 6391SOL    HW130635   0.911   0.798  16.734 -0.8194  0.7762 -2.5869
 6391SOL    HW230636   1.036   0.724  16.755 -0.3532  1.6468  1.0519
 6392SOL     OW30637   3.576   0.495   8.186  0.3892 -0.3289 -0.2788
 6392SOL    HW130638   3.517   0.569   8.168 -2.4128 -1.9029  2.4074
 6392SOL    HW230639   3.578   0.461   8.097  0.6514 -1.7115  0.2602
 6393SOL     OW30640   4.467   3.325   1.743  0.4148 -0.2950 -0.6652
 6393SOL    HW130641   4.509   3.382   1.679  1.1642  0.1756  0.2420
 6393SOL    HW230642   4.546   3.300   1.790  0.0108 -0.1759  0.0765
 6394SOL     OW30643   3.381   2.038  10.096  0.0191 -0.2378  0.0853
 6394SOL    HW130644   3.323   2.102  10.055 -1.7479 -1.3302  0.8674
 6394SOL    HW230645   3.455   2.038  10.036  2.4584 -1.0329  3.1321
 6395SOL     OW30646   1.847   1.244   6.345 -0.1543  0.4068 -0.3549
 6395SOL    HW130647   1.854   1.227   6.439  1.2432 -0.1178 -0.5525
 6395SOL    HW230648   1.919   1.306   6.334  0.8318 -0.5389  0.8106
 6396SOL     OW30649   4.230   4.058   5.491 -0.0864  0.1004  0.4027
 6396SOL    HW130650   4.241   4.014   5.575  0.0459  0.5908  0.6390
 6396SOL    HW230651   4.180   4.135   5.519 -0.0839  0.5132 -0.6979
 6397SOL     OW30652   1.792   1.285   1.283  0.8209 -0.2638  0.1614
 6397SOL    HW130653   1.864   1.248   1.231  0.8429 -0.5660  0.4064
 6397SOL    HW230654   1.739   1.305   1.206  0.6756 -0.2641  0.2627
 6398SOL     OW30655   1.358   4.076   0.199 -0.9546  0.2381 -0.0248
 6398SOL    HW130656   1.265   4.070   0.178 -0.6744 -1.0222 -0.9108
 6398SOL    HW230657   1.383   4.127   0.121 -1.6765  0.0481 -0.3856
 6399SOL     OW30658   2.665   3.916   2.861 -0.4586  0.3669  0.3806
 6399SOL    HW130659   2.621   3.834   2.838 -1.5440  1.9495 -3.1921
 6399SOL    HW230660   2.717   3.924   2.781  0.1438 -0.3877  0.6989
 6400SOL     OW30661   1.449   0.783  11.211 -0.2971 -0.2257  0.5087
 6400SOL    HW130662   1.456   0.774  11.115 -0.6514  1.4195  0.3277
 6400SOL    HW230663   1.541   0.792  11.235  0.6646 -0.2723 -3.1417
 6401SOL     OW30664   0.929   0.576   6.563  0.6229 -0.2150  0.2172
 6401SOL    HW130665   0.941   0.492   6.519 -2.5384 -0.8670  0.5651
 6401SOL    HW230666   0.853   0.613   6.516  0.6508  1.6613  1.6622
 6402SOL     OW30667   4.135   2.500  16.982  0.5758 -0.2186 -0.1799
 6402SOL    HW130668   4.201   2.526  17.047 -1.7992 -0.7022  2.4070
 6402SOL    HW230669   4.100   2.584  16.954 -0.0318 -0.4736 -0.1924
 6403SOL     OW30670   3.785   1.830   0.306 -0.0252  0.3788  0.7384
 6403SOL    HW130671   3.788   1.924   0.288  0.3265  0.1372 -0.4646
 6403SOL    HW230672   3.845   1.833   0.381  0.2083  0.5782  0.5428
 6404SOL     OW30673   2.919   2.630   3.534 -0.1520  0.5631  0.2373
 6404SOL    HW130674   3.008   2.665   3.528 -0.3018  1.0239  0.6148
 6404SOL    HW230675   2.870   2.712   3.533 -0.5943  0.2936 -0.1352
 6405SOL     OW30676   2.356   2.217   1.343  0.1415 -0.4492 -0.0192
 6405SOL    HW130677   2.299   2.197   1.269  0.1615  2.8415 -0.9350
 6405SOL    HW230678   2.403   2.298   1.320 -0.5977 -0.5520 -1.8777
 6406SOL     OW30679   3.925   0.448   7.352  0.2352 -0.3482  0.0938
 6406SOL    HW130680   3.924   0.495   7.435  1.9910  1.1272 -0.7177
 6406SOL    HW230681   3.846   0.489   7.317 -0.0499  1.3309  2.7346
 6407SOL     OW30682   1.007   0.623   7.904 -0.3680  0.1090 -0.1167
 6407SOL    HW130683   1.034   0.551   7.961 -2.0937  0.4249  1.0920
 6407SOL    HW230684   1.081   0.681   7.922 -1.3659  1.0186  1.0295
 6408SOL     OW30685   1.110   1.966  16.833 -0.4427  0.6502 -0.0572
 6408SOL    HW130686   1.072   1.883  16.863 -0.3441  0.2120 -1.1555
 6408SOL    HW230687   1.077   2.021  16.904  0.7461  1.5242 -0.1919
 6409SOL     OW30688   3.204   3.701   4.870  0.3786 -0.6948 -0.4524
 6409SOL    HW130689   3.140   3.747   4.816  1.1187  1.0394  0.1724
 6409SOL    HW230690   3.151   3.703   4.950 -1.5858  2.6219 -1.8165
 6410SOL     OW30691   2.655   0.936   7.615 -0.3048  1.2232  0.2223
 6410SOL    HW130692   2.594   1.007   7.635  0.4756  2.4487 -1.7689
 6410SOL    HW230693   2.733   0.954   7.668  0.8416 -1.4152 -0.5935
 6411SOL     OW30694   3.949   3.485   2.251 -0.0222 -0.6837  0.2230
 6411SOL    HW130695   3.994   3.498   2.334 -0.9404  2.0982  0.2758
 6411SOL    HW230696   3.860   3.503   2.281 -1.0212 -0.0144 -3.0652
 6412SOL     OW30697   4.110   1.114   5.976 -0.2147 -0.6442  0.2050
 6412SOL    HW130698   4.158   1.191   6.008  0.1351 -0.7952  0.0351
 6412SOL    HW230699   4.092   1.139   5.886  0.7496  0.1397  0.2319
 6413SOL     OW30700   3.888   3.073  10.129 -0.3567  0.7019  0.5430
 6413SOL    HW130701   3.808   3.124  10.138 -1.1727 -0.5723  0.4443
 6413SOL    HW230702   3.883   3.026  10.047 -0.8664 -2.4435  2.3917
 6414SOL     OW30703   3.632   0.126   7.155  0.4907  0.5192  0.1864
 6414SOL    HW130704   3.692   0.112   7.083 -0.5556 -1.4590 -0.2878
 6414SOL    HW230705   3.681   0.132   7.237 -0.1258 -0.0748  0.5983
 6415SOL     OW30706   2.232   0.259   2.302  0.2431 -0.3924 -0.1258
 6415SOL    HW130707   2.245   0.213   2.219  1.3111  1.0440 -0.7571
 6415SOL    HW230708   2.138   0.259   2.319  0.5782 -0.6811  1.8080
 6416SOL     OW30709   2.430   4.030  16.388 -0.3095  0.9493  0.2563
 6416SOL    HW130710   2.466   4.008  16.302  1.3997  1.8821  0.7260
 6416SOL    HW230711   2.336   4.027  16.372 -0.3411  1.8982  0.2695
 6417SOL     OW30712   4.470   1.707  11.748 -0.0488  0.0413 -0.7403
 6417SOL    HW130713   4.495   1.764  11.821 -1.2745 -0.5687  0.1707
 6417SOL    HW230714   4.374   1.703  11.747 -0.1514  2.3487 -0.7371
 6418SOL     OW30715   2.650   3.282   5.260 -0.5441  0.0287 -0.0328
 6418SOL    HW130716   2.627   3.368   5.296  0.2817  0.1173  0.2748
 6418SOL    HW230717   2.580   3.232   5.302 -2.2221  2.7735  0.4473
 6419SOL     OW30718   0.836   1.051   9.195  0.5362 -0.6790 -0.5590
 6419SOL    HW130719   0.889   1.119   9.235 -0.7425  0.6824 -1.1817
 6419SOL    HW230720   0.887   0.970   9.193  0.4912 -0.7424  1.1112
 6420SOL     OW30721   3.852   3.451  14.806  0.1156 -0.1453  0.2808
 6420SOL    HW130722   3.922   3.481  14.864  0.8753  0.0130 -0.7029
 6420SOL    HW230723   3.885   3.368  14.771  0.4737  1.3888 -3.0395
 6421SOL     OW30724   4.246   3.232  13.857 -0.1254 -0.6348  0.2331
 6421SOL    HW130725   4.190   3.208  13.783  0.7936  0.1775 -0.7292
 6421SOL    HW230726   4.186   3.278  13.916  1.8719  1.4533  0.6167
 6422SOL     OW30727   2.021   3.444  17.435  0.0399  0.5268 -0.5055
 6422SOL    HW130728   2.066   3.380  17.381  1.3109  1.5483 -0.6640
 6422SOL    HW230729   1.933   3.408  17.441  0.5654 -0.6193  0.2185
 6423SOL     OW30730   3.246   3.741   2.765  0.3873 -0.4839  0.0198
 6423SOL    HW130731   3.296   3.771   2.841 -1.7699  2.6856  0.1726
 6423SOL    HW230732   3.176   3.687   2.801 -0.2004 -0.2385 -0.7557
 6424SOL     OW30733   1.840   4.247   0.616 -0.6528 -0.5768 -0.2636
 6424SOL    HW130734   1.846   4.281   0.526  1.0397  0.0754  0.1065
 6424SOL    HW230735   1.872   4.322   0.667 -0.3568  0.1471 -1.4971
 6425SOL     OW30736   2.114   4.161   4.604 -0.1637  0.2208 -0.0273
 6425SOL    HW130737   2.128   4.143   4.511  1.6132  0.7830  0.1313
 6425SOL    HW230738   2.080   4.250   4.597 -2.1267 -0.3688  1.9595
 6426SOL     OW30739   2.388   1.238  16.273  0.2162 -0.2427  0.8841
 6426SOL    HW130740   2.468   1.251  16.223 -1.2380  0.2767 -1.3151
 6426SOL    HW230741   2.353   1.324  16.296  1.1421  0.3426  0.0754
 6427SOL     OW30742   3.040   0.485  13.091 -0.3460 -0.0192  0.2681
 6427SOL    HW130743   2.970   0.525  13.144 -0.3117  0.5566 -0.1237
 6427SOL    HW230744   3.063   0.553  13.028  0.1171 -1.9041 -1.5789
 6428SOL     OW30745   2.505   3.760   3.676 -0.2093  0.0842  0.8032
 6428SOL    HW130746   2.429   3.711   3.709 -0.1241 -0.8242 -0.3626
 6428SOL    HW230747   2.472   3.830   3.620 -1.9608 -2.1771 -0.9791
 6429SOL     OW30748   0.495   4.633   8.427  0.0159 -0.1300  0.2468
 6429SOL    HW130749   0.503   4.539   8.441 -1.5797 -0.5505 -1.7539
 6429SOL    HW230750   0.436   4.662   8.496  0.9845  0.2872  0.9113
 6430SOL     OW30751   2.999   1.922  11.000  0.1311  0.1661 -0.0125
 6430SOL    HW130752   3.073   1.868  11.025 -1.4990 -2.5320 -1.0012
 6430SOL    HW230753   3.025   2.014  10.991  3.1984 -0.6578  0.5289
 6431SOL     OW30754   0.412   1.126   7.479  0.2787 -0.6602  0.0166
 6431SOL    HW130755   0.506   1.114   7.471  0.3856  0.0114  0.3333
 6431SOL    HW230756   0.390   1.190   7.412 -2.2728  0.2077  1.6839
 6432SOL     OW30757   1.677   2.575   6.393  0.2170 -0.0911  0.6306
 6432SOL    HW130758   1.730   2.590   6.471  2.1800 -0.0359 -0.7171
 6432SOL    HW230759   1.753   2.543   6.344  0.0899 -1.6368  1.4185
 6433SOL     OW30760   2.154   2.703   3.355 -0.4663  0.1116  0.8604
 6433SOL    HW130761   2.070   2.663   3.332 -0.0207  1.0598 -2.4821
 6433SOL    HW230762   2.188   2.743   3.274 -2.3711 -1.9317 -0.9502
 6434SOL     OW30763   3.194   1.999  10.288  0.3802  0.4783 -0.1901
 6434SOL    HW130764   3.115   2.017  10.238  0.5462  0.1376 -0.5761
 6434SOL    HW230765   3.262   2.012  10.222  2.1804  0.4301  1.6309
 6435SOL     OW30766   1.662   4.202  13.105  0.3155  0.2345  0.2323
 6435SOL    HW130767   1.610   4.200  13.024 -0.2550  0.4409  0.5864
 6435SOL    HW230768   1.589   4.193  13.166  0.3431 -0.8473  0.1037
 6436SOL     OW30769   2.613   0.386   9.175  0.3128 -0.1191 -0.3267
 6436SOL    HW130770   2.575   0.467   9.140 -0.1071 -0.2112 -0.0831
 6436SOL    HW230771   2.695   0.376   9.127  0.0020 -1.2514 -0.6111
 6437SOL     OW30772   0.721   3.486   9.083  0.2863 -0.0630  0.4686
 6437SOL    HW130773   0.702   3.418   9.147  0.9292 -1.5062 -0.8605
 6437SOL    HW230774   0.703   3.443   8.999  1.8011  0.9172 -0.3600
 6438SOL     OW30775   0.481   4.007  10.957 -0.4062 -0.4599 -0.0253
 6438SOL    HW130776   0.428   4.085  10.974 -0.4414 -0.0251 -2.0173
 6438SOL    HW230777   0.520   3.975  11.038 -0.3930  0.1600  0.2199
 6439SOL     OW30778   3.568   1.055   2.970 -0.6192  0.1063  0.2673
 6439SOL    HW130779   3.662   1.042   2.958 -0.8547 -2.9181  1.7298
 6439SOL    HW230780   3.555   1.149   2.957  0.9661  0.1586 -0.9005
 6440SOL     OW30781   2.709   4.262  14.620 -0.6020 -0.0221 -0.0344
 6440SOL    HW130782   2.669   4.187  14.576  1.5633 -0.4062 -1.3560
 6440SOL    HW230783   2.643   4.326  14.591 -0.9987 -0.7446 -0.7365
 6441SOL     OW30784   2.810   1.907   2.914  0.5643  0.5709 -0.0746
 6441SOL    HW130785   2.837   1.997   2.895 -2.0334  1.0976 -1.2833
 6441SOL    HW230786   2.752   1.917   2.990  0.0979 -0.7352 -0.2604
 6442SOL     OW30787   2.204   1.103  15.532 -0.1289 -0.2545 -0.5426
 6442SOL    HW130788   2.179   1.181  15.583  1.5068  0.3694 -0.7078
 6442SOL    HW230789   2.119   1.059  15.534 -0.2006 -0.0584  0.5168
 6443SOL     OW30790   1.590   0.534   5.820 -0.0566 -0.1588 -0.2485
 6443SOL    HW130791   1.649   0.501   5.752 -2.6546 -2.4213 -1.4414
 6443SOL    HW230792   1.637   0.507   5.898 -0.3695  0.7239  0.2453
 6444SOL     OW30793   0.934   2.610  11.603  0.7921 -0.1058 -0.1278
 6444SOL    HW130794   0.919   2.675  11.534 -0.3646  0.1489  0.3534
 6444SOL    HW230795   0.998   2.554  11.559  1.8491 -0.0504  1.3591
 6445SOL     OW30796   4.167   0.197  14.376 -0.0792 -0.3500  0.3819
 6445SOL    HW130797   4.251   0.225  14.411  1.1354 -1.6220 -1.5376
 6445SOL    HW230798   4.112   0.264  14.417  3.4792  2.1044  1.1444
 6446SOL     OW30799   3.359   1.440   6.939  0.8559 -0.0187 -0.2044
 6446SOL    HW130800   3.284   1.491   6.969  1.1378 -0.4714  1.2428
 6446SOL    HW230801   3.380   1.497   6.865 -1.3114  0.7553 -0.2379
 6447SOL     OW30802   2.660   4.631  11.923  1.2989 -0.2652 -0.3123
 6447SOL    HW130803   2.569   4.647  11.898  1.1324 -0.0043  0.4688
 6447SOL    HW230804   2.670   4.694  11.994 -1.9663 -0.5893  0.4214
 6448SOL     OW30805   4.562   1.177   1.107 -0.5056  0.2187  0.2381
 6448SOL    HW130806   4.471   1.196   1.130 -0.6978 -0.5832  0.1456
 6448SOL    HW230807   4.558   1.081   1.106 -0.8826  0.2299  0.6839
 6449SOL     OW30808   2.732   0.584   5.312  0.6651 -0.5625 -0.4159
 6449SOL    HW130809   2.784   0.656   5.348  0.6926 -0.4415 -0.6928
 6449SOL    HW230810   2.712   0.613   5.223 -1.8334  0.3759  0.4527
 6450SOL     OW30811   2.836   3.485   4.227  0.3241  0.4209 -0.0360
 6450SOL    HW130812   2.850   3.572   4.190  0.6341  0.1160 -0.6268
 6450SOL    HW230813   2.927   3.456   4.240  0.4291  0.7305 -0.0839
 6451SOL     OW30814   0.743   3.848   8.925  0.3737  0.0649  0.4727
 6451SOL    HW130815   0.718   3.794   9.001 -0.1629  0.3502  0.5016
 6451SOL    HW230816   0.772   3.781   8.863  0.1123  0.3809  0.0118
 6452SOL     OW30817   0.764   3.244   0.557 -0.0077  0.4877  0.1993
 6452SOL    HW130818   0.742   3.190   0.481  0.9397  3.2454 -2.0264
 6452SOL    HW230819   0.847   3.200   0.572 -1.3102 -1.9880  0.1611
 6453SOL     OW30820   3.964   2.109   2.338  0.1795  0.5597 -0.1721
 6453SOL    HW130821   3.869   2.107   2.327  0.0357 -0.3776  1.2351
 6453SOL    HW230822   3.974   2.075   2.250 -1.9280 -1.2200  0.2784
 6454SOL     OW30823   2.342   4.438   7.656  0.0251 -0.1213 -0.0728
 6454SOL    HW130824   2.374   4.387   7.730 -2.3167 -2.5934 -0.7689
 6454SOL    HW230825   2.284   4.378   7.609  1.9569 -2.3530  0.3786
 6455SOL     OW30826   1.513   4.310   9.040  0.1578 -0.1949 -0.3665
 6455SOL    HW130827   1.437   4.258   9.014 -0.6058  2.0950 -2.7533
 6455SOL    HW230828   1.474   4.371   9.103  0.9563  0.1452 -0.2077
 6456SOL     OW30829   0.550   2.480  10.475  0.1319 -0.1599 -0.0229
 6456SOL    HW130830   0.638   2.508  10.497 -0.6505  0.8687  1.7703
 6456SOL    HW230831   0.516   2.446  10.558 -0.3834  1.1013  0.2877
 6457SOL     OW30832   4.402   0.418  13.116 -0.1327  0.3808 -0.2560
 6457SOL    HW130833   4.445   0.490  13.163  0.7756  0.2924 -0.9443
 6457SOL    HW230834   4.329   0.406  13.177  0.0054  0.1744 -0.1322
 6458SOL     OW30835   0.799   2.793  13.615 -0.1172  0.3299  0.4511
 6458SOL    HW130836   0.802   2.727  13.546 -0.9034  0.4089  0.3513
 6458SOL    HW230837   0.823   2.877  13.576  3.1400 -0.1407  1.4171
 6459SOL     OW30838   1.277   3.103   0.423 -0.2285 -0.2919 -0.4120
 6459SOL    HW130839   1.307   3.075   0.509 -0.6311  2.9216  0.7696
 6459SOL    HW230840   1.313   3.192   0.425 -0.0996 -0.3630  0.6000
 6460SOL     OW30841   4.284   1.636   6.818 -0.0768 -0.0823  0.3423
 6460SOL    HW130842   4.207   1.592   6.854 -1.0142  0.3904 -1.1000
 6460SOL    HW230843   4.252   1.713   6.772  0.3570  0.5587  1.1080
 6461SOL     OW30844   3.054   1.651   1.425  0.7006  0.0771 -0.4633
 6461SOL    HW130845   3.068   1.648   1.330  0.3206  1.8232 -0.5805
 6461SOL    HW230846   3.070   1.745   1.433 -3.7447  0.6908  1.1723
 6462SOL     OW30847   3.337   2.421   4.751 -0.9152 -0.0819 -0.0633
 6462SOL    HW130848   3.266   2.467   4.706 -1.2056  0.8100  1.3250
 6462SOL    HW230849   3.303   2.332   4.747  0.1344 -0.3964 -2.1930
 6463SOL     OW30850   4.349   2.437  12.015 -0.0919  0.2859  0.1713
 6463SOL    HW130851   4.396   2.515  12.045 -1.8406  1.3580  0.1607
 6463SOL    HW230852   4.415   2.404  11.954  0.4723  0.2681  0.7865
 6464SOL     OW30853   3.821   2.585  16.986  0.0297  0.0349 -0.4843
 6464SOL    HW130854   3.801   2.677  17.003  0.8124  0.4648 -1.8151
 6464SOL    HW230855   3.888   2.611  16.922  2.2208 -0.8416  1.4563
 6465SOL     OW30856   4.537   0.999   5.569 -0.0452  0.3157 -0.2177
 6465SOL    HW130857   4.579   1.023   5.486  1.0730 -5.2577 -1.2864
 6465SOL    HW230858   4.488   1.080   5.579  1.2168  0.5636  3.6888
 6466SOL     OW30859   3.911   1.347   5.277 -0.2423 -0.0137  0.0025
 6466SOL    HW130860   3.959   1.286   5.333 -0.7104 -0.3394  0.0408
 6466SOL    HW230861   3.831   1.297   5.265 -0.7778  1.3103 -1.9789
 6467SOL     OW30862   3.666   3.782   1.772  0.5716  0.1548  0.0687
 6467SOL    HW130863   3.709   3.864   1.749 -0.4791  0.9046  0.8050
 6467SOL    HW230864   3.609   3.779   1.695 -0.0764  1.9480  0.4820
 6468SOL     OW30865   1.977   2.353   6.808 -0.0501 -0.0729 -0.0238
 6468SOL    HW130866   1.947   2.335   6.718  1.3036 -0.7461 -0.3304
 6468SOL    HW230867   1.888   2.379   6.833 -0.3672 -1.1624 -0.0229
 6469SOL     OW30868   2.721   3.754   3.863  0.2975  0.2970 -0.0821
 6469SOL    HW130869   2.674   3.766   3.780 -0.1287  2.5612  0.4937
 6469SOL    HW230870   2.663   3.686   3.899 -0.4037  0.5729 -0.6805
 6470SOL     OW30871   4.077   0.805  11.182 -0.4976  0.7262  0.1466
 6470SOL    HW130872   3.998   0.752  11.193 -0.3869  0.7704  1.1521
 6470SOL    HW230873   4.134   0.761  11.245 -0.9840  1.3489  1.0263
 6471SOL     OW30874   3.056   3.374   7.483 -0.2262 -0.0132  0.6510
 6471SOL    HW130875   2.969   3.360   7.446 -0.7933 -1.0704  2.3976
 6471SOL    HW230876   3.085   3.432   7.413  0.2798 -1.9893 -0.7662
 6472SOL     OW30877   2.324   2.391   2.824 -0.3605  0.3275  0.2153
 6472SOL    HW130878   2.374   2.321   2.782  2.0061  0.9203  2.0306
 6472SOL    HW230879   2.378   2.465   2.796 -0.1264  0.6407  1.4650
 6473SOL     OW30880   0.664   0.072   3.166 -0.7428 -0.2063  0.2566
 6473SOL    HW130881   0.663   4.720   3.226 -3.1189 -1.8591 -1.8777
 6473SOL    HW230882   0.723   0.046   3.095  0.2887 -0.0284  1.0430
 6474SOL     OW30883   1.264   2.632   3.100 -0.3854  0.0463  0.1425
 6474SOL    HW130884   1.239   2.654   3.010  1.1989  0.4177 -0.1891
 6474SOL    HW230885   1.189   2.575   3.119  1.4302 -2.0320  1.0762
 6475SOL     OW30886   1.901   1.647   1.745  0.3346 -0.4944 -0.3002
 6475SOL    HW130887   1.980   1.593   1.753  0.9826  0.7333  1.6765
 6475SOL    HW230888   1.840   1.581   1.713 -0.0432 -0.7313  0.9343
 6476SOL     OW30889   2.460   0.945   5.943 -0.7413  0.0124  0.2687
 6476SOL    HW130890   2.498   0.870   5.898  0.9180  0.2073  1.3475
 6476SOL    HW230891   2.483   0.936   6.035  0.7159 -0.7029 -0.1709
 6477SOL     OW30892   1.822   0.479  12.548 -0.4725  0.4006  0.0475
 6477SOL    HW130893   1.784   0.422  12.481  0.2174  1.8675 -1.6171
 6477SOL    HW230894   1.747   0.537  12.562 -1.0945 -0.3435 -0.2090
 6478SOL     OW30895   3.527   1.584  12.879 -0.2250 -0.0821  0.2156
 6478SOL    HW130896   3.496   1.501  12.843  0.0036 -1.0450  2.2835
 6478SOL    HW230897   3.564   1.622  12.799  2.3855 -0.5423  1.2031
 6479SOL     OW30898   1.012   2.774  16.867  0.4299  0.1209 -0.0175
 6479SOL    HW130899   1.042   2.698  16.818  0.3770 -0.3092  0.6127
 6479SOL    HW230900   1.068   2.766  16.945  0.9973  0.9568 -0.3372
 6480SOL     OW30901   0.978   0.778  17.038 -0.4081  0.1105 -0.1231
 6480SOL    HW130902   1.019   0.712  17.094 -3.2016 -0.2731  1.4577
 6480SOL    HW230903   0.996   0.854  17.093 -1.1539 -0.2136  0.5725
 6481SOL     OW30904   0.358   0.631   5.176  0.1458 -0.3468  0.5343
 6481SOL    HW130905   0.361   0.568   5.104 -1.9663 -0.0583  0.1986
 6481SOL    HW230906   0.361   0.571   5.250 -1.0378 -0.2432  0.6699
 6482SOL     OW30907   4.696   4.099  10.637  0.5153  0.3493 -0.7978
 6482SOL    HW130908   4.618   4.068  10.590  0.4627 -2.0963  0.8985
 6482SOL    HW230909   0.033   4.082  10.566  0.8950  1.0223 -0.6311
 6483SOL     OW30910   3.187   0.443  12.443 -0.0770  0.5854 -0.0474
 6483SOL    HW130911   3.232   0.490  12.513  0.0454  0.2259  0.1133
 6483SOL    HW230912   3.262   0.395  12.407 -0.8903  0.2099 -1.2642
 6484SOL     OW30913   0.602   2.090   3.123  0.1348  0.5205 -0.0047
 6484SOL    HW130914   0.572   2.180   3.112  2.2057  0.9541 -2.0384
 6484SOL    HW230915   0.690   2.104   3.159  0.0476 -0.3586  0.5648
 6485SOL     OW30916   1.983   0.771   2.466  0.1389  0.1643 -0.1800
 6485SOL    HW130917   2.049   0.715   2.506 -0.4926 -0.9418 -0.6944
 6485SOL    HW230918   2.018   0.856   2.491 -2.3053  1.0857  0.1386
 6486SOL     OW30919   4.277   2.166   6.988 -0.2164 -0.3116 -0.6009
 6486SOL    HW130920   4.289   2.261   6.991  0.6983 -0.4996  2.2264
 6486SOL    HW230921   4.193   2.149   7.029  0.1409  0.2429  0.3627
 6487SOL     OW30922   4.363   3.353   5.599 -0.0618  0.2085  0.1069
 6487SOL    HW130923   4.434   3.409   5.631 -0.7851  1.5963 -0.7056
 6487SOL    HW230924   4.341   3.391   5.514  0.4670 -0.7044 -0.4343
 6488SOL     OW30925   4.406   0.435  13.661  0.1779 -0.1874  0.0325
 6488SOL    HW130926   4.472   0.373  13.692  0.1564 -0.6912 -0.9291
 6488SOL    HW230927   4.466   0.504  13.634  0.4538 -0.6132 -0.4532
 6489SOL     OW30928   0.439   1.495  10.009  0.3738 -0.2389 -0.2443
 6489SOL    HW130929   0.351   1.464   9.989  0.3292  0.9349 -1.7708
 6489SOL    HW230930   0.493   1.498   9.930 -0.2897  1.1406 -0.6459
 6490SOL     OW30931   4.389   3.543   4.291  0.3560 -0.8139 -0.0154
 6490SOL    HW130932   4.315   3.541   4.352  1.3497 -0.5017  1.2069
 6490SOL    HW230933   4.453   3.483   4.331  0.5908  0.8038  2.0391
 6491SOL     OW30934   4.093   2.764   6.007 -0.3018 -0.0654 -0.4186
 6491SOL    HW130935   4.018   2.822   6.016  1.2838  1.6287  1.7424
 6491SOL    HW230936   4.129   2.761   6.096  0.5471  0.1878 -0.7453
 6492SOL     OW30937   2.210   3.129   6.344 -0.0247 -0.3678  0.3016
 6492SOL    HW130938   2.153   3.161   6.413  1.6437  2.7689  0.2544
 6492SOL    HW230939   2.200   3.204   6.285 -0.2556 -0.0745  0.7166
 6493SOL     OW30940   1.401   3.414   3.093  0.2154 -0.1045  0.4248
 6493SOL    HW130941   1.436   3.336   3.050 -0.5158  0.3953 -1.0555
 6493SOL    HW230942   1.464   3.481   3.066 -1.1192  0.8490 -0.2818
 6494SOL     OW30943   4.585   1.845   1.589 -0.0443 -0.3351 -0.2878
 6494SOL    HW130944   4.509   1.821   1.643  2.2245 -0.7171  2.7249
 6494SOL    HW230945   4.590   1.771   1.528  1.6878 -0.0602 -0.4837
 6495SOL     OW30946   1.867   0.055   5.086  0.1382 -0.7132 -0.0164
 6495SOL    HW130947   1.926   0.019   5.020  1.4173  0.3212  0.5477
 6495SOL    HW230948   1.783   0.059   5.040  0.0652 -2.0796  0.0183
 6496SOL     OW30949   3.201   1.754   6.956  0.1070  0.0040  0.0304
 6496SOL    HW130950   3.180   1.817   7.025 -1.8797 -0.9352  0.2837
 6496SOL    HW230951   3.155   1.676   6.989  0.4424  0.1557  0.8512
 6497SOL     OW30952   1.945   1.929   4.958  0.2222  0.2895  0.0487
 6497SOL    HW130953   1.867   1.876   4.974 -0.9939  2.5412  1.7098
 6497SOL    HW230954   1.972   1.890   4.875  1.8999  1.6972 -0.0598
 6498SOL     OW30955   0.164   4.364  17.531 -0.0221  0.5441 -0.5982
 6498SOL    HW130956   0.209   4.447  17.516  0.3414  0.7924  1.8484
 6498SOL    HW230957   0.224   4.326  17.595 -0.5696  0.9741  0.1794
 6499SOL     OW30958   2.719   3.847   4.620  0.2216 -0.5387 -0.2681
 6499SOL    HW130959   2.698   3.890   4.537  1.0775 -0.9401 -0.6957
 6499SOL    HW230960   2.763   3.765   4.597 -0.3541 -0.4795 -1.5864
 6500SOL     OW30961   0.031   4.034   9.093  0.0421  0.3214  0.3300
 6500SOL    HW130962   4.710   4.048   9.176  0.3673 -0.3416  0.6155
 6500SOL    HW230963   4.674   4.022   9.043  1.9480 -0.7369 -2.5100
 6501SOL     OW30964   2.532   4.391  14.451 -0.0889  0.0774  0.0957
 6501SOL    HW130965   2.488   4.318  14.407 -1.3311  1.5231 -1.0774
 6501SOL    HW230966   2.461   4.454  14.440  0.4766  0.7069  0.0842
 6502SOL     OW30967   0.499   4.368   2.650  0.7319 -0.3726  0.5931
 6502SOL    HW130968   0.418   4.327   2.680  1.2307 -0.6396  1.5740
 6502SOL    HW230969   0.483   4.457   2.619 -0.0296 -0.4557  0.7496
 6503SOL     OW30970   4.693   0.154   5.900  0.7847 -0.5539 -0.0371
 6503SOL    HW130971   4.656   0.077   5.944  0.9485 -2.3319 -3.0110
 6503SOL    HW230972   0.052   0.154   5.948  1.1292 -3.5970 -0.5835
 6504SOL     OW30973   0.591   4.259   4.719  0.2260  0.3829  0.7128
 6504SOL    HW130974   0.666   4.232   4.666 -0.2070  3.8599 -1.7342
 6504SOL    HW230975   0.592   4.351   4.690  0.6696  0.6687  1.6531
 6505SOL     OW30976   0.763   4.628  12.679 -0.3591 -0.1159  0.3953
 6505SOL    HW130977   0.783   4.585  12.762 -0.5743  1.3169  1.1749
 6505SOL    HW230978   0.763   4.552  12.620 -3.5038  0.3517 -0.2256
 6506SOL     OW30979   3.631   0.373   5.043  0.0660 -0.5233 -0.3445
 6506SOL    HW130980   3.549   0.379   5.091  0.3660 -2.2619  0.3880
 6506SOL    HW230981   3.628   0.450   4.986  0.8047  0.7851  1.3748
 6507SOL     OW30982   4.469   2.662   4.605  0.0339  0.1285  0.2789
 6507SOL    HW130983   4.495   2.753   4.594  0.5005 -0.3720 -2.6866
 6507SOL    HW230984   4.374   2.667   4.614 -0.0071 -0.5974  0.2712
 6508SOL     OW30985   0.384   1.889  13.970  0.1634 -0.0656  0.4921
 6508SOL    HW130986   0.319   1.919  13.906 -1.1370 -0.3750  1.6757
 6508SOL    HW230987   0.337   1.845  14.040  1.9173 -1.2706  0.9050
 6509SOL     OW30988   0.162   4.202   4.249 -0.3804 -0.1396  0.2711
 6509SOL    HW130989   0.212   4.147   4.310  0.6236 -0.3930 -0.7742
 6509SOL    HW230990   0.105   4.143   4.200  1.5246 -1.5014 -0.3104
 6510SOL     OW30991   3.142   4.711  17.043 -0.7719 -0.4343  0.0691
 6510SOL    HW130992   3.158   4.675  17.130 -0.7599  0.6892  0.5346
 6510SOL    HW230993   3.071   0.050  17.061 -1.0623 -0.8151  0.2469
 6511SOL     OW30994   1.463   2.852   6.126  0.7437 -0.5670 -0.2971
 6511SOL    HW130995   1.445   2.829   6.034  1.2470  0.3033 -0.6095
 6511SOL    HW230996   1.392   2.803   6.168  0.7712 -0.0270  0.3743
 6512SOL     OW30997   0.413   2.887  10.896  0.2906  0.5360 -0.2117
 6512SOL    HW130998   0.486   2.873  10.835  0.1046 -0.3415 -0.2433
 6512SOL    HW230999   0.373   2.958  10.847  0.9887  1.4294  0.5150
 6513SOL     OW31000   3.611   3.190  11.062  0.4241  0.5368  0.2610
 6513SOL    HW131001   3.659   3.188  11.145  1.0212  1.9174 -0.0579
 6513SOL    HW231002   3.615   3.103  11.022  2.2072  0.9600 -0.4696
 6514SOL     OW31003   1.142   1.067   1.201 -0.3712 -0.6874  0.5555
 6514SOL    HW131004   1.101   1.145   1.239  2.2578  0.7726  0.4109
 6514SOL    HW231005   1.127   1.094   1.111 -3.9744 -2.7328  0.5646
 6515SOL     OW31006   4.550   0.786   2.548 -0.2401  0.4761 -0.0939
 6515SOL    HW131007   4.633   0.811   2.507 -0.1787 -2.0625 -1.5001
 6515SOL    HW231008   4.500   0.749   2.475 -1.6578 -0.1449  1.1959
 6516SOL     OW31009   2.090   4.434   4.534 -0.3139  0.4246  0.1966
 6516SOL    HW131010   2.166   4.445   4.590  1.0456 -0.8524 -1.3781
 6516SOL    HW231011   2.036   4.502   4.574 -2.0639 -0.6814 -0.2495
 6517SOL     OW31012   0.952   1.636  12.942  0.1083  0.5875  0.4773
 6517SOL    HW131013   1.000   1.568  12.989 -2.9913 -1.0211  1.2988
 6517SOL    HW231014   0.871   1.586  12.927 -0.5198  1.7692 -0.1189
 6518SOL     OW31015   3.638   4.126  15.046  0.7198 -0.8324  0.5341
 6518SOL    HW131016   3.655   4.143  14.954 -2.3956  0.3022  0.1681
 6518SOL    HW231017   3.683   4.043  15.060 -0.1328 -1.3320  0.2482
 6519SOL     OW31018   2.407   3.377   7.705  0.5190 -0.0823 -0.3100
 6519SOL    HW131019   2.369   3.290   7.690 -2.5910  1.2838 -0.1857
 6519SOL    HW231020   2.351   3.400   7.779 -0.8400  1.2931 -1.7709
 6520SOL     OW31021   2.485   3.291   9.652 -0.3480  0.4565 -0.2348
 6520SOL    HW131022   2.520   3.219   9.601  0.8884  0.1187  1.1022
 6520SOL    HW231023   2.563   3.345   9.666  1.5705 -0.8945 -5.9226
 6521SOL     OW31024   3.887   4.003   1.236  0.1930  0.6024 -0.1987
 6521SOL    HW131025   3.971   3.979   1.276  0.2591 -0.4401 -0.9822
 6521SOL    HW231026   3.925   4.038   1.155 -2.9146  1.0191 -1.4515
 6522SOL     OW31027   0.180   0.244   7.167 -0.1768 -0.1415 -0.1090
 6522SOL    HW131028   0.174   0.301   7.244 -1.4287 -1.4246  0.7381
 6522SOL    HW231029   0.194   0.164   7.218 -0.3402 -0.0243  0.1204
 6523SOL     OW31030   1.004   3.136   0.594  0.3007 -0.3025 -0.4168
 6523SOL    HW131031   1.096   3.157   0.579 -0.1576  0.2252 -2.4461
 6523SOL    HW231032   1.005   3.086   0.675  1.4091 -1.0606 -0.9026
 6524SOL     OW31033   4.471   0.586   3.903 -0.0302  0.3023  0.2040
 6524SOL    HW131034   4.434   0.674   3.896 -1.6302 -0.2695  1.4089
 6524SOL    HW231035   4.388   0.540   3.912  0.6416 -0.6622  1.4705
 6525SOL     OW31036   2.578   3.086   4.816  0.6430  0.3182 -0.1639
 6525SOL    HW131037   2.514   3.018   4.839 -1.0070  0.9638 -2.7908
 6525SOL    HW231038   2.635   3.072   4.891 -1.0016  0.3323  1.0768
 6526SOL     OW31039   4.105   3.206   7.547 -0.5367  0.0542 -0.1931
 6526SOL    HW131040   4.095   3.290   7.503 -3.2287 -2.0481 -3.5247
 6526SOL    HW231041   4.180   3.162   7.507 -1.9057 -0.1481 -2.5186
 6527SOL     OW31042   2.644   0.638   8.343  0.0471  0.0340 -0.3197
 6527SOL    HW131043   2.698   0.664   8.269 -0.5042  1.4190 -0.2302
 6527SOL    HW231044   2.683   0.552   8.360  0.7498  0.4069 -0.0691
 6528SOL     OW31045   3.739   0.065  12.761 -0.0417 -0.6962 -0.3221
 6528SOL    HW131046   3.745   0.109  12.846  1.3801 -1.4563 -0.0215
 6528SOL    HW231047   3.658   0.015  12.768 -0.1223 -0.2484  1.7282
 6529SOL     OW31048   3.009   1.965   3.990  0.3742  0.3572  0.5837
 6529SOL    HW131049   3.093   2.000   3.961 -0.8310  1.9138 -1.0089
 6529SOL    HW231050   2.970   2.003   3.911  1.2985  1.9339  0.8908
 6530SOL     OW31051   3.996   2.714  17.565  0.4486 -0.0720  0.0185
 6530SOL    HW131052   3.902   2.706  17.576  0.5162  0.2369  0.8198
 6530SOL    HW231053   4.017   2.724  17.658 -1.3485 -0.4848  0.4627
 6531SOL     OW31054   3.468   1.042  15.005 -0.3052  0.2791 -0.2719
 6531SOL    HW131055   3.472   1.064  15.098 -0.9037  1.9458 -0.6452
 6531SOL    HW231056   3.384   0.996  15.008 -0.6667  0.8932 -1.0438
 6532SOL     OW31057   2.517   0.907   7.029  0.3147 -0.2576 -0.0717
 6532SOL    HW131058   2.488   0.825   7.069 -0.5189  0.1068  0.0672
 6532SOL    HW231059   2.453   0.970   7.063 -0.9318 -1.0341 -1.0148
 6533SOL     OW31060   4.217   2.642   4.891 -0.1278  0.3831  0.0819
 6533SOL    HW131061   4.242   2.623   4.982 -0.8328 -2.3236 -0.3094
 6533SOL    HW231062   4.281   2.710   4.872  1.0873 -0.5269  0.9042
 6534SOL     OW31063   2.562   0.066   4.057  0.1803 -0.0085 -0.5303
 6534SOL    HW131064   2.504   0.141   4.044  0.5580 -0.2148 -3.5078
 6534SOL    HW231065   2.646   0.106   4.033 -0.1735  0.6377 -0.6818
 6535SOL     OW31066   2.533   1.489   8.209  0.3466  0.7193  0.0442
 6535SOL    HW131067   2.453   1.474   8.259  0.2262 -1.0608 -0.6811
 6535SOL    HW231068   2.495   1.519   8.127  0.9383 -0.4675 -0.6664
 6536SOL     OW31069   3.064   4.449  10.972  0.0961 -0.3610  0.5126
 6536SOL    HW131070   3.069   4.471  11.065  1.2727 -0.6807  0.5224
 6536SOL    HW231071   3.056   4.532  10.926  2.0501  0.4688  1.7008
 6537SOL     OW31072   0.123   1.719   3.987 -0.0067  0.4434  0.6026
 6537SOL    HW131073   0.092   1.809   3.987 -1.0009  0.1138 -1.0730
 6537SOL    HW231074   0.068   1.679   4.054 -2.5824  2.1500 -0.4780
 6538SOL     OW31075   3.710   2.569   5.179 -0.1233 -0.1442  0.8949
 6538SOL    HW131076   3.774   2.633   5.147 -0.9237 -1.3408 -3.1711
 6538SOL    HW231077   3.721   2.521   5.097  0.2943 -0.8025  1.3333
 6539SOL     OW31078   0.537   3.132   1.867 -0.2064 -0.2410 -0.5855
 6539SOL    HW131079   0.454   3.170   1.841  0.8023  1.3224 -1.5481
 6539SOL    HW231080   0.585   3.138   1.784  2.5430 -2.3016  0.8330
 6540SOL     OW31081   4.402   1.823  14.721  0.4402 -0.0078 -0.1538
 6540SOL    HW131082   4.406   1.855  14.811  1.3080  0.7163 -0.4522
 6540SOL    HW231083   4.328   1.764  14.733 -0.3994  1.1045  0.2248
 6541SOL     OW31084   2.856   4.343   3.543 -0.1656 -0.2907  0.5947
 6541SOL    HW131085   2.903   4.352   3.460  0.6931  0.1183  1.1263
 6541SOL    HW231086   2.832   4.433   3.564  1.8889  0.8148 -1.7924
 6542SOL     OW31087   4.164   4.337   6.788 -0.2749  0.4091 -0.0957
 6542SOL    HW131088   4.207   4.405   6.840  1.6789 -0.3863 -0.6574
 6542SOL    HW231089   4.079   4.320   6.828 -0.2549  1.7188  0.4878
 6543SOL     OW31090   2.640   2.502   3.390 -0.4325 -0.1870  0.0149
 6543SOL    HW131091   2.685   2.442   3.329 -0.6440  0.7979 -1.1067
 6543SOL    HW231092   2.637   2.583   3.340  1.4715 -0.1147 -0.0032
 6544SOL     OW31093   4.074   1.365  12.052  0.3116 -0.4353 -0.4747
 6544SOL    HW131094   4.082   1.271  12.036  1.6782 -0.1702 -1.3134
 6544SOL    HW231095   4.162   1.400  12.063  0.8633 -1.9943 -0.0731
 6545SOL     OW31096   2.610   4.301  15.204  0.3717 -0.3441 -0.6639
 6545SOL    HW131097   2.521   4.268  15.212  0.2595  0.1844  0.3144
 6545SOL    HW231098   2.655   4.217  15.198 -1.6492 -1.4322 -0.2498
 6546SOL     OW31099   0.468   0.782   0.367  0.0181  0.0151 -0.2738
 6546SOL    HW131100   0.460   0.851   0.302 -3.5274  0.8220  1.0496
 6546SOL    HW231101   0.381   0.759   0.400 -0.1048  2.0407  0.7624
 6547SOL     OW31102   1.700   3.593   3.301 -0.2420  0.2257  0.1092
 6547SOL    HW131103   1.677   3.634   3.218 -0.6124 -0.2563 -0.0299
 6547SOL    HW231104   1.750   3.666   3.337  1.1665 -0.0471 -1.2930
 6548SOL     OW31105   0.180   4.332   3.665 -0.1118 -0.1714 -0.0628
 6548SOL    HW131106   0.126   4.411   3.667 -1.4368 -0.9921 -2.7647
 6548SOL    HW231107   0.252   4.367   3.716 -1.2006  0.7628  0.8375
 6549SOL     OW31108   1.127   0.198   3.592 -0.7214 -0.5326  0.1352
 6549SOL    HW131109   1.172   0.243   3.664 -4.4023 -0.6698  2.5404
 6549SOL    HW231110   1.198   0.140   3.566 -0.3038 -0.7314  1.7559
 6550SOL     OW31111   3.881   3.980  15.022  0.0559  0.5934  0.1078
 6550SOL    HW131112   3.881   3.888  15.045  0.2919  0.5037 -0.2434
 6550SOL    HW231113   3.972   4.008  15.037 -0.3455  1.4088  1.0031
 6551SOL     OW31114   1.500   4.512   4.673  0.4942  0.4975  0.0861
 6551SOL    HW131115   1.566   4.511   4.742 -1.8047 -0.1219  2.2410
 6551SOL    HW231116   1.505   4.607   4.663  1.0198  0.4111 -0.4704
 6552SOL     OW31117   2.876   3.291   5.854 -0.0332  0.2220  0.1931
 6552SOL    HW131118   2.910   3.378   5.875 -0.6402  0.0002  2.1271
 6552SOL    HW231119   2.944   3.259   5.796  0.3377 -0.2420  0.8807
 6553SOL     OW31120   1.289   4.465   7.316 -0.4619 -0.2325 -0.6066
 6553SOL    HW131121   1.213   4.520   7.299  0.0239  0.1390 -1.5551
 6553SOL    HW231122   1.333   4.519   7.382  1.4844 -1.2472 -1.0768
 6554SOL     OW31123   2.174   1.316  12.280  0.5994  0.8098  0.4149
 6554SOL    HW131124   2.089   1.273  12.278 -0.0772  2.3240 -3.5605
 6554SOL    HW231125   2.232   1.252  12.237  1.5935  1.0684  1.3587
 6555SOL     OW31126   4.056   4.001  15.931 -0.1899 -0.2766  0.9209
 6555SOL    HW131127   4.111   4.039  15.864 -3.0207  0.1730 -1.1408
 6555SOL    HW231128   4.119   3.940  15.969 -0.8405 -0.1684  2.1887
 6556SOL     OW31129   2.338   0.127   4.562 -0.1974 -0.0608 -0.3293
 6556SOL    HW131130   2.351   0.059   4.496  0.5108  0.4026 -0.6831
 6556SOL    HW231131   2.335   0.203   4.504  1.2547 -0.1777 -0.5647
 6557SOL     OW31132   3.814   0.957   5.817 -0.2481  0.1077  0.3892
 6557SOL    HW131133   3.735   0.930   5.769  1.0220 -2.3881 -0.3034
 6557SOL    HW231134   3.860   0.958   5.733 -2.4990 -0.1579 -0.8562
 6558SOL     OW31135   2.300   2.340   3.172 -0.3882  0.5005  0.0913
 6558SOL    HW131136   2.237   2.345   3.100 -0.6177 -0.0591  0.2565
 6558SOL    HW231137   2.270   2.415   3.223  0.9930  0.0427  1.5692
 6559SOL     OW31138   2.063   4.696  16.077 -0.4675  0.1538 -0.2363
 6559SOL    HW131139   2.086   4.603  16.082 -2.6660 -0.4033 -0.6157
 6559SOL    HW231140   2.109   0.009  16.153 -0.0205  3.0155 -1.8961
 6560SOL     OW31141   1.292   1.314   4.665 -0.0292  0.6030 -0.3550
 6560SOL    HW131142   1.249   1.387   4.711  0.3396  0.2884  0.4856
 6560SOL    HW231143   1.303   1.343   4.574  0.4630 -1.2431 -0.8850
 6561SOL     OW31144   3.900   2.702  11.013 -0.2123  0.5177 -0.9108
 6561SOL    HW131145   3.963   2.698  11.085 -2.0761 -0.9961  0.6351
 6561SOL    HW231146   3.864   2.790  11.026 -2.5092 -0.2491 -2.1107
 6562SOL     OW31147   0.562   4.460   3.294 -0.9161 -0.3742  0.0619
 6562SOL    HW131148   0.467   4.454   3.289 -1.1591  3.1220  0.4989
 6562SOL    HW231149   0.579   4.437   3.386 -1.7557 -0.8661  0.0905
 6563SOL     OW31150   2.546   4.703   0.689  0.1701  0.2437 -0.0920
 6563SOL    HW131151   2.562   4.719   0.596 -0.9598  0.7906 -0.1879
 6563SOL    HW231152   2.455   0.004   0.702  0.4933  1.4993 -0.2209
 6564SOL     OW31153   4.107   1.240   4.981  0.2379  0.1006  0.3338
 6564SOL    HW131154   4.012   1.243   4.992  0.5009  0.5648  2.4428
 6564SOL    HW231155   4.121   1.306   4.912 -1.2215 -0.9644 -0.9809
 6565SOL     OW31156   3.904   4.527   5.552 -0.1502  0.5545 -0.3504
 6565SOL    HW131157   3.839   4.459   5.531  0.4094 -0.0150 -0.2602
 6565SOL    HW231158   3.890   4.584   5.477  1.4617 -1.6454 -2.3317
 6566SOL     OW31159   4.033   3.912   7.791  0.0896 -0.3747  0.3304
 6566SOL    HW131160   4.104   3.851   7.770  1.6532  1.6749 -0.3479
 6566SOL    HW231161   4.068   4.000   7.775 -1.2367 -0.1220 -1.0983
 6567SOL     OW31162   2.625   2.535   3.844  0.5283 -0.4467 -0.4732
 6567SOL    HW131163   2.547   2.549   3.790 -0.4306 -1.1234  0.7353
 6567SOL    HW231164   2.670   2.619   3.835 -0.4781  0.1979  0.3500
 6568SOL     OW31165   3.248   2.762   1.823  0.2741  0.4488 -0.7032
 6568SOL    HW131166   3.171   2.728   1.778  0.7054  0.6548 -1.5957
 6568SOL    HW231167   3.314   2.694   1.811  1.0350  1.2581 -1.1602
 6569SOL     OW31168   2.130   4.383   5.994 -0.2889 -0.4698  0.1079
 6569SOL    HW131169   2.038   4.378   5.968 -0.7799 -3.2087  2.3664
 6569SOL    HW231170   2.180   4.395   5.914 -1.0950  1.0437 -0.1569
 6570SOL     OW31171   2.329   4.507   6.344  0.1433  0.6991  0.3231
 6570SOL    HW131172   2.393   4.497   6.414  0.4167 -0.3388 -0.0884
 6570SOL    HW231173   2.311   4.601   6.350  0.8953  0.9855 -1.6958
 6571SOL     OW31174   0.891   1.130  13.040  0.2716 -0.1955  0.1113
 6571SOL    HW131175   0.852   1.053  13.081 -1.5882  0.8408  0.2908
 6571SOL    HW231176   0.880   1.116  12.946 -0.7056 -0.7061  0.2999
 6572SOL     OW31177   0.767   3.533  15.538 -0.0620 -0.6267  0.1882
 6572SOL    HW131178   0.814   3.566  15.615 -1.3521 -1.0038  1.1566
 6572SOL    HW231179   0.775   3.438  15.552 -1.5535 -0.7314  0.4033
 6573SOL     OW31180   3.520   0.204   5.813  0.2215 -0.2979 -0.1328
 6573SOL    HW131181   3.557   0.211   5.901  0.3451 -1.0392 -0.1270
 6573SOL    HW231182   3.435   0.246   5.829 -0.7271 -1.9147 -0.9662
 6574SOL     OW31183   0.716   4.515   6.105 -0.0945  0.1602 -0.3212
 6574SOL    HW131184   0.725   4.563   6.023  1.9637  0.1545 -0.1168
 6574SOL    HW231185   0.795   4.461   6.094 -0.7807 -0.9540  0.2630
 6575SOL     OW31186   4.696   2.916   5.738  0.1415 -0.4218 -0.4495
 6575SOL    HW131187   4.618   2.972   5.736  0.5913  0.3595  2.7827
 6575SOL    HW231188   0.002   2.941   5.651  0.1582  2.5280  0.3731
 6576SOL     OW31189   2.997   2.969   0.196 -0.4715 -0.0627  0.0878
 6576SOL    HW131190   3.041   3.053   0.182  0.2944 -0.5684 -0.5297
 6576SOL    HW231191   2.932   2.982   0.127 -0.0205  2.9939  0.2141
 6577SOL     OW31192   2.830   0.403   8.489  0.1182 -0.2465 -0.0572
 6577SOL    HW131193   2.768   0.443   8.550 -2.0297  0.8756 -2.9638
 6577SOL    HW231194   2.914   0.421   8.533  0.5193 -0.9061 -0.5554
 6578SOL     OW31195   0.438   3.514   6.506  0.2969 -0.2280  0.4138
 6578SOL    HW131196   0.401   3.430   6.479 -0.8883  1.0114 -1.8589
 6578SOL    HW231197   0.438   3.566   6.425 -1.0837 -0.9565 -0.0657
 6579SOL     OW31198   4.382   1.753   3.898 -0.3998  0.4701  0.2565
 6579SOL    HW131199   4.449   1.802   3.946 -0.4055  1.7095 -1.0133
 6579SOL    HW231200   4.334   1.720   3.974 -2.9703  0.5070 -1.3802
 6580SOL     OW31201   2.628   3.950  11.348  0.0351 -0.2380 -0.6569
 6580SOL    HW131202   2.588   4.030  11.315 -0.8894 -0.0499  0.9147
 6580SOL    HW231203   2.571   3.877  11.323 -1.1320  0.6807 -0.6561
 6581SOL     OW31204   2.858   1.494  15.912  0.2668 -0.6123  0.5222
 6581SOL    HW131205   2.798   1.543  15.968 -0.4015 -0.9093  0.0554
 6581SOL    HW231206   2.916   1.569  15.897 -1.1560  0.7293  1.7302
 6582SOL     OW31207   0.075   4.213   5.516 -0.0180 -0.0391  0.0914
 6582SOL    HW131208   0.118   4.298   5.506  2.3698 -1.4091 -1.3978
 6582SOL    HW231209   4.706   4.231   5.528 -0.0149  0.4075 -0.5594
 6583SOL     OW31210   0.843   0.834   2.881 -0.1336  0.0483 -0.2370
 6583SOL    HW131211   0.761   0.796   2.912  0.2068 -0.6124 -0.1566
 6583SOL    HW231212   0.848   0.904   2.947  1.0724  0.1494 -0.4386
 6584SOL     OW31213   4.499   2.079  17.516 -0.7134  0.8507  0.1754
 6584SOL    HW131214   4.493   2.001  17.570 -0.3331  0.2280 -0.6858
 6584SOL    HW231215   4.571   2.054  17.457  0.9465 -0.1958  2.6296
 6585SOL     OW31216   4.057   0.198   3.480 -0.0244  0.1403 -0.2875
 6585SOL    HW131217   3.990   0.177   3.545 -3.0379  2.9130 -2.5375
 6585SOL    HW231218   4.117   0.254   3.530 -0.6307 -1.1439  1.9078
 6586SOL     OW31219   3.550   1.345   4.856  0.1043  0.6477 -0.0882
 6586SOL    HW131220   3.495   1.344   4.935  1.4677  0.1934  0.8536
 6586SOL    HW231221   3.582   1.255   4.862 -2.7417 -0.3177  0.5956
 6587SOL     OW31222   1.971   3.351  16.548  0.9067 -0.1214  0.3491
 6587SOL    HW131223   1.912   3.276  16.560 -1.2253  1.4836 -0.1209
 6587SOL    HW231224   1.994   3.341  16.456  1.0352  1.3273  0.2317
 6588SOL     OW31225   3.479   1.173   9.272  0.0258 -0.3881 -0.0093
 6588SOL    HW131226   3.532   1.103   9.234 -0.6550 -1.3231  0.7368
 6588SOL    HW231227   3.548   1.221   9.316  0.7656 -1.5973  0.1484
 6589SOL     OW31228   0.391   4.705   4.536 -0.1160 -0.0558 -0.4291
 6589SOL    HW131229   0.344   0.053   4.578  0.9311 -0.0584  0.7368
 6589SOL    HW231230   0.418   0.028   4.457 -1.2534  0.0963 -0.7254
 6590SOL     OW31231   3.093   2.315   0.398 -0.5971 -0.5293 -0.4629
 6590SOL    HW131232   3.112   2.254   0.469 -0.7250 -0.7065 -0.5840
 6590SOL    HW231233   3.147   2.394   0.409  0.8519 -1.3045 -1.9952
 6591SOL     OW31234   2.067   2.640   6.703  0.7118 -0.2755 -0.0776
 6591SOL    HW131235   2.146   2.587   6.697 -0.8275 -2.7824  1.4787
 6591SOL    HW231236   2.114   2.719   6.675 -0.3438  0.8173  1.2249
 6592SOL     OW31237   0.961   2.346  13.089  0.4217  0.0374  0.2463
 6592SOL    HW131238   1.054   2.365  13.093  0.1850  1.1548  0.3888
 6592SOL    HW231239   0.946   2.273  13.149 -1.7048  1.2733  1.2639
 6593SOL     OW31240   4.171   2.657  14.063  0.0834 -0.0800  0.4239
 6593SOL    HW131241   4.078   2.676  14.057  0.4204  1.8853  1.4235
 6593SOL    HW231242   4.174   2.568  14.030 -1.1721  0.2730 -0.6259
 6594SOL     OW31243   4.143   0.223   3.069 -0.8637  0.4998 -0.4145
 6594SOL    HW131244   4.184   0.273   2.999  1.3753  0.3160  0.7738
 6594SOL    HW231245   4.054   0.257   3.079 -1.3751 -0.4754 -1.6641
 6595SOL     OW31246   3.543   0.203  17.075  0.1394  0.0212 -0.2803
 6595SOL    HW131247   3.615   0.266  17.082  0.6390 -0.4002 -1.6153
 6595SOL    HW231248   3.487   0.251  17.013  2.0231  1.9110 -0.5356
 6596SOL     OW31249   3.822   3.006   8.463  0.4182  0.2198 -0.6123
 6596SOL    HW131250   3.821   3.098   8.436  0.3115  0.0760 -1.0934
 6596SOL    HW231251   3.739   3.009   8.510  1.5891 -1.3425  1.5147
 6597SOL     OW31252   3.901   0.172   7.096 -0.3253 -0.5173 -0.0458
 6597SOL    HW131253   3.917   0.175   7.191 -0.8836 -0.6442  0.0521
 6597SOL    HW231254   3.945   0.090   7.079  0.3099 -0.3237  0.6515
 6598SOL     OW31255   3.526   3.148   3.886  0.0794  0.3017  0.0878
 6598SOL    HW131256   3.486   3.190   3.962 -0.2832  1.4081 -0.7116
 6598SOL    HW231257   3.450   3.096   3.861  1.0502  0.0468 -2.2903
 6599SOL     OW31258   2.751   3.939   6.308  0.2718 -0.4826 -0.4963
 6599SOL    HW131259   2.716   3.851   6.301 -0.5397 -0.2443  0.5275
 6599SOL    HW231260   2.845   3.927   6.320  0.2706 -0.6552 -0.6782
 6600SOL     OW31261   0.583   1.671   4.681  0.0245 -0.2932  0.0962
 6600SOL    HW131262   0.498   1.643   4.715 -0.6741 -0.2050 -1.5568
 6600SOL    HW231263   0.568   1.699   4.590 -2.2610 -0.9088  0.2667
 6601SOL     OW31264   4.550   1.979   2.875  0.0768 -0.2082  0.3120
 6601SOL    HW131265   4.464   2.019   2.861  0.2262  0.1640  0.4675
 6601SOL    HW231266   4.559   1.993   2.970  1.8612 -0.8155  0.2372
 6602SOL     OW31267   4.135   2.099   4.934 -0.0787 -0.4008  0.3252
 6602SOL    HW131268   4.147   2.188   4.902 -2.2490  0.2749  1.3580
 6602SOL    HW231269   4.173   2.091   5.022 -0.9195 -0.1370  0.7138
 6603SOL     OW31270   3.263   0.699   8.820  0.0154  0.1698 -0.0520
 6603SOL    HW131271   3.217   0.736   8.894 -1.8940  1.2825 -1.8013
 6603SOL    HW231272   3.297   0.616   8.854  2.3705  1.3507  0.4617
 6604SOL     OW31273   2.842   4.263  15.816  0.4207  1.0308 -0.3346
 6604SOL    HW131274   2.927   4.218  15.811 -0.3187 -0.3590 -0.6429
 6604SOL    HW231275   2.827   4.232  15.905  2.0045  1.2111  0.0084
 6605SOL     OW31276   0.435   0.225   5.203 -0.0004 -0.0642  0.7344
 6605SOL    HW131277   0.393   0.304   5.238  0.4426  0.2918  0.4604
 6605SOL    HW231278   0.487   0.196   5.278  0.5163  0.7300  0.6795
 6606SOL     OW31279   4.609   2.361   2.913  1.2416 -0.2255  0.0015
 6606SOL    HW131280   4.548   2.433   2.896  2.7206  1.1293  0.5155
 6606SOL    HW231281   4.566   2.330   2.993  0.5402  0.1698 -0.2166
 6607SOL     OW31282   0.981   0.625  11.610  0.1129  0.3319  0.1923
 6607SOL    HW131283   1.067   0.602  11.575  0.9527  1.2104  1.6510
 6607SOL    HW231284   0.950   0.678  11.537  1.3250  1.5391  0.5510
 6608SOL     OW31285   1.965   0.297  15.088  0.5432  0.7253 -0.2119
 6608SOL    HW131286   1.882   0.337  15.116  1.4289  0.9061  2.1957
 6608SOL    HW231287   2.011   0.294  15.172 -0.0892 -1.2846  0.0739
 6609SOL     OW31288   3.327   2.713   7.457 -0.0849 -0.0151  0.4440
 6609SOL    HW131289   3.269   2.737   7.530 -2.1584  1.6488 -1.7780
 6609SOL    HW231290   3.302   2.774   7.388  0.9709  3.3484  3.0561
 6610SOL     OW31291   3.897   4.564   9.939  0.0469  0.4337 -0.0220
 6610SOL    HW131292   3.825   4.550   9.878  1.5104  0.1812 -1.7084
 6610SOL    HW231293   3.864   4.549  10.027  1.1950  0.9282  0.4939
 6611SOL     OW31294   0.051   2.726   3.786 -0.3723  0.1227  0.2581
 6611SOL    HW131295   0.054   2.799   3.847 -2.4321 -2.2142  3.1457
 6611SOL    HW231296   0.136   2.719   3.743  0.5743 -0.2149  2.2246
 6612SOL     OW31297   1.120   2.018   1.636  0.0490  0.4112 -0.2540
 6612SOL    HW131298   1.215   2.017   1.626 -0.0403  2.8341 -1.3317
 6612SOL    HW231299   1.084   2.051   1.554 -0.8418 -0.0224 -0.0435
 6613SOL     OW31300   3.705   1.841   2.130  0.1644 -0.3870 -0.2185
 6613SOL    HW131301   3.743   1.773   2.186  1.5287  0.3901 -0.2113
 6613SOL    HW231302   3.703   1.908   2.198  1.4589 -0.6248  0.0387
 6614SOL     OW31303   1.831   1.057   0.975 -0.3871  0.0745 -0.1126
 6614SOL    HW131304   1.894   1.117   1.016  0.7573 -1.0088 -0.2819
 6614SOL    HW231305   1.858   1.060   0.883  0.8007 -0.2511  0.2154
 6615SOL     OW31306   4.582   3.923   4.515  0.0618  0.0681 -0.4012
 6615SOL    HW131307   4.675   3.943   4.519 -0.0246  0.7752 -1.7249
 6615SOL    HW231308   4.552   3.996   4.569  0.5621 -0.0869  0.0856
 6616SOL     OW31309   0.940   4.697   7.061 -0.3215  0.2226 -0.3928
 6616SOL    HW131310   0.975   4.629   7.003  1.2097  0.8524 -0.2045
 6616SOL    HW231311   1.003   0.042   7.041 -0.2734  0.5251  0.8577
 6617SOL     OW31312   1.727   0.733   8.364  0.6158  0.2995  0.1936
 6617SOL    HW131313   1.728   0.827   8.382  1.1090  0.5577 -1.1790
 6617SOL    HW231314   1.770   0.725   8.279  1.2344 -1.4211  0.6697
 6618SOL     OW31315   2.772   2.055   0.478  0.0118  0.1304  0.1602
 6618SOL    HW131316   2.840   2.013   0.426  0.6492 -0.4819  1.4879
 6618SOL    HW231317   2.700   1.994   0.467  0.6900 -0.9912  1.9392
 6619SOL     OW31318   2.907   0.375   1.877  0.6207 -0.6204  0.1942
 6619SOL    HW131319   2.891   0.304   1.939 -1.1887  0.5128  1.0478
 6619SOL    HW231320   2.889   0.325   1.798  0.5802 -0.6084  0.1957
 6620SOL     OW31321   4.585   1.908   9.498 -0.5329  0.0859 -0.1665
 6620SOL    HW131322   4.528   1.832   9.507 -1.3138  0.5804 -0.9385
 6620SOL    HW231323   4.630   1.884   9.417  1.0324  1.0556  0.4151
 6621SOL     OW31324   1.488   0.117   7.232 -0.0662 -0.0265 -0.1632
 6621SOL    HW131325   1.537   0.050   7.184 -0.2682  1.3280 -2.2726
 6621SOL    HW231326   1.444   0.170   7.165 -1.7461 -0.9241  0.2194
 6622SOL     OW31327   1.829   3.684   7.643  0.5249 -0.2838 -0.0333
 6622SOL    HW131328   1.879   3.719   7.717 -0.4484 -1.7958  1.3285
 6622SOL    HW231329   1.745   3.708   7.683 -0.4152 -1.9457 -0.9917
 6623SOL     OW31330   1.166   4.619   4.598  0.0270 -0.0758 -0.0792
 6623SOL    HW131331   1.200   4.620   4.509  1.8848  0.3472  0.6291
 6623SOL    HW231332   1.196   4.535   4.633  0.3483  0.7736  1.6886
 6624SOL     OW31333   2.104   1.696   2.980  0.2925  0.2717  0.2247
 6624SOL    HW131334   2.088   1.615   3.028  0.5585  0.5120  0.7165
 6624SOL    HW231335   2.061   1.672   2.898  1.9415 -1.0899 -0.2243
 6625SOL     OW31336   2.424   4.717   3.806 -0.1036 -0.3736  0.2164
 6625SOL    HW131337   2.340   4.718   3.852  1.1714  0.0757  2.5326
 6625SOL    HW231338   2.480   4.711   3.883 -0.9703  2.0414  1.0287
 6626SOL     OW31339   1.729   0.533   8.865 -0.2932  0.2467 -0.1673
 6626SOL    HW131340   1.808   0.574   8.899 -0.7665  0.0075  1.2046
 6626SOL    HW231341   1.662   0.588   8.906 -0.6862 -0.9328  0.7619
 6627SOL     OW31342   0.411   0.468   1.331  0.1021 -0.2153  0.7846
 6627SOL    HW131343   0.357   0.539   1.365  1.8244  1.7078 -0.5275
 6627SOL    HW231344   0.348   0.418   1.278  2.1192 -0.0292 -1.8120
 6628SOL     OW31345   3.402   3.470   1.959 -0.1174  0.1033 -0.2223
 6628SOL    HW131346   3.429   3.430   1.876 -1.7849  1.0232 -1.2129
 6628SOL    HW231347   3.348   3.537   1.918  0.1733 -0.7971 -2.0888
 6629SOL     OW31348   1.623   1.710  14.333 -0.0462  0.2878  0.8094
 6629SOL    HW131349   1.564   1.772  14.290 -0.6767 -0.7776  0.1564
 6629SOL    HW231350   1.578   1.634  14.298  0.3883  0.5952 -0.4486
 6630SOL     OW31351   1.182   0.606   1.084 -0.4870 -0.4144 -0.7122
 6630SOL    HW131352   1.219   0.686   1.045 -0.7401  0.6458  1.2284
 6630SOL    HW231353   1.168   0.556   1.004  0.8073 -0.9312 -0.6224
 6631SOL     OW31354   1.941   4.502   0.769  0.0580  0.1229 -0.0256
 6631SOL    HW131355   2.033   4.519   0.749 -0.0793 -2.8789 -3.2236
 6631SOL    HW231356   1.946   4.442   0.842 -1.4433  2.5679  2.0759
 6632SOL     OW31357   4.366   0.412   2.328  0.3819 -0.6671  0.1933
 6632SOL    HW131358   4.272   0.396   2.319  0.1142 -1.0813  3.8800
 6632SOL    HW231359   4.379   0.502   2.298 -1.4864 -0.4791 -0.0632
 6633SOL     OW31360   2.272   3.430   7.936  0.0392  0.3093 -0.6310
 6633SOL    HW131361   2.247   3.361   7.998 -1.0779  0.9053 -0.4224
 6633SOL    HW231362   2.313   3.496   7.993 -3.6374  0.8769  1.3626
 6634SOL     OW31363   1.976   1.325   8.134 -0.7850  0.2590 -0.3661
 6634SOL    HW131364   1.984   1.417   8.157 -1.9160  0.6039 -1.3696
 6634SOL    HW231365   1.882   1.313   8.147 -0.3744  0.5580  2.9539
 6635SOL     OW31366   4.578   1.400   0.286 -0.2485  0.7378  0.2161
 6635SOL    HW131367   4.641   1.470   0.301 -0.5660  0.8637  0.9474
 6635SOL    HW231368   4.630   1.342   0.231  0.3630  3.1708 -1.7549
 6636SOL     OW31369   2.058   1.310   7.437  0.0301  0.5680 -0.0595
 6636SOL    HW131370   2.150   1.304   7.411 -0.0681 -0.4022 -0.1704
 6636SOL    HW231371   2.058   1.240   7.502  1.7784  0.1089 -0.5591
 6637SOL     OW31372   4.284   0.130   3.280 -0.1727 -0.0886 -0.4045
 6637SOL    HW131373   4.246   0.152   3.365  1.9399 -0.4654  0.6575
 6637SOL    HW231374   4.224   0.176   3.221 -0.2330  0.8918  0.4121
 6638SOL     OW31375   1.057   3.688  17.189 -0.8426  0.0810 -0.5442
 6638SOL    HW131376   0.972   3.710  17.153 -2.3145 -1.8267  1.7471
 6638SOL    HW231377   1.060   3.593  17.179  0.4477  0.0419  0.2364
 6639SOL     OW31378   3.000   4.608  16.287  0.8219 -0.0115  0.2151
 6639SOL    HW131379   2.930   4.650  16.337  0.6034 -0.4954  0.3178
 6639SOL    HW231380   2.942   4.558  16.230  1.5798 -1.9378  1.1179
 6640SOL     OW31381   3.682   1.415  11.244 -0.0029 -0.7767  0.2455
 6640SOL    HW131382   3.619   1.482  11.274 -0.0595 -1.2574  1.1884
 6640SOL    HW231383   3.749   1.435  11.308 -3.4724  0.5242  3.4802
 6641SOL     OW31384   1.957   2.017  16.785  0.1653 -0.5122  0.3930
 6641SOL    HW131385   1.916   2.085  16.730  1.0264 -0.9438 -0.7709
 6641SOL    HW231386   1.905   2.017  16.865 -2.3805  3.8457 -1.2249
 6642SOL     OW31387   4.023   0.026  11.704  0.3970  0.6195  0.2152
 6642SOL    HW131388   4.066   4.674  11.664  0.2005  0.3162  0.5818
 6642SOL    HW231389   3.937   0.013  11.665  0.6656 -0.5347  0.0029
 6643SOL     OW31390   1.856   3.819   4.817  0.0075  0.4254 -0.2260
 6643SOL    HW131391   1.764   3.818   4.844  0.1883 -0.5522  0.3432
 6643SOL    HW231392   1.850   3.901   4.768  0.0220  0.2245 -0.5632
 6644SOL     OW31393   3.675   3.083   5.954 -0.8655  0.5961 -0.5259
 6644SOL    HW131394   3.663   3.166   6.000 -0.0069  0.9054 -0.8509
 6644SOL    HW231395   3.588   3.044   5.964 -0.8341  0.6744  0.0789
 6645SOL     OW31396   1.914   3.539   6.026 -0.0652 -0.3119  0.3395
 6645SOL    HW131397   1.958   3.599   5.965 -1.2787 -1.2704 -1.4674
 6645SOL    HW231398   1.943   3.454   5.992  0.9110  1.0148 -2.1700
 6646SOL     OW31399   3.507   1.815   3.804  0.5747  0.2052  0.1947
 6646SOL    HW131400   3.585   1.864   3.828  0.6746 -0.3454  1.0120
 6646SOL    HW231401   3.529   1.728   3.838 -2.2377 -1.5287 -2.4525
 6647SOL     OW31402   1.223   4.002   1.986  0.0035 -0.5676 -0.2818
 6647SOL    HW131403   1.190   4.003   2.076 -0.0976 -1.1855 -0.3177
 6647SOL    HW231404   1.316   4.000   2.009 -0.1604  1.9198  0.6666
 6648SOL     OW31405   0.974   1.549   7.563 -0.2012 -0.6340 -0.2986
 6648SOL    HW131406   0.925   1.599   7.499 -2.1114 -0.7517  1.0499
 6648SOL    HW231407   0.954   1.596   7.644 -0.3285 -1.2298  0.0156
 6649SOL     OW31408   0.789   2.882   8.532 -0.5089  0.1564 -0.4070
 6649SOL    HW131409   0.767   2.898   8.624  0.4370  0.3016 -0.2141
 6649SOL    HW231410   0.840   2.962   8.524  0.2371 -0.1195  1.5621
 6650SOL     OW31411   1.438   1.933  13.026 -1.5809  0.6505  0.4105
 6650SOL    HW131412   1.518   1.965  13.067 -1.0397  0.7184 -0.6780
 6650SOL    HW231413   1.453   1.940  12.931  0.2544  2.7022  0.8621
 6651SOL     OW31414   1.739   4.106   6.469  0.2829 -0.0610  0.1417
 6651SOL    HW131415   1.768   4.191   6.501  1.4001 -0.0768 -0.8465
 6651SOL    HW231416   1.702   4.060   6.545  0.8300 -0.6658  0.0479
 6652SOL     OW31417   1.485   0.328   3.556  0.0086  0.4510 -0.0175
 6652SOL    HW131418   1.441   0.378   3.486  0.6067 -0.0621 -0.7488
 6652SOL    HW231419   1.422   0.257   3.541 -1.9671  1.5659  2.8508
 6653SOL     OW31420   4.456   3.398  13.831  0.5462 -0.0286 -0.1224
 6653SOL    HW131421   4.465   3.394  13.736  0.8637  1.8449 -0.1812
 6653SOL    HW231422   4.385   3.337  13.851 -0.7199  0.5973 -2.7488
 6654SOL     OW31423   1.502   2.478   7.387  0.4088  0.3346 -0.1286
 6654SOL    HW131424   1.447   2.554   7.405  0.5888  0.2914  0.5860
 6654SOL    HW231425   1.573   2.517   7.336 -1.5555  2.2905 -1.3097
 6655SOL     OW31426   0.758   3.647  10.878  0.1562  0.1577  0.2089
 6655SOL    HW131427   0.736   3.735  10.846  0.5745  0.3350  0.4109
 6655SOL    HW231428   0.786   3.670  10.967  1.3262  1.3768 -0.4734
 6656SOL     OW31429   2.480   2.683   6.960  0.1306  0.3827  0.4280
 6656SOL    HW131430   2.554   2.737   6.931  0.6767  0.4356  1.9568
 6656SOL    HW231431   2.523   2.598   6.951 -0.5313 -0.0436  1.3502
 6657SOL     OW31432   0.596   4.585   6.803  0.1866 -0.0083 -0.0435
 6657SOL    HW131433   0.637   4.547   6.881 -2.1946 -0.2287  1.0851
 6657SOL    HW231434   0.533   4.638   6.852  1.7459  1.3140  0.5386
 6658SOL     OW31435   4.024   2.344  11.307 -0.1291 -0.3925 -0.2165
 6658SOL    HW131436   4.114   2.357  11.338 -0.5401 -2.5427  1.8564
 6658SOL    HW231437   4.006   2.263  11.355 -1.1663 -1.0203 -1.6752
 6659SOL     OW31438   4.292   2.386   2.437  0.2979  0.6398  0.1274
 6659SOL    HW131439   4.273   2.346   2.351  0.6155  0.4301  0.1548
 6659SOL    HW231440   4.277   2.315   2.500  0.8544 -0.0388 -0.4991
 6660SOL     OW31441   4.205   3.820  16.074 -0.1542 -0.8563 -0.0607
 6660SOL    HW131442   4.299   3.830  16.058  0.4156  0.3837  4.0002
 6660SOL    HW231443   4.195   3.883  16.145 -1.4713 -0.7108 -0.3801
 6661SOL     OW31444   0.626   0.091   7.517  0.0944  0.1312  0.9045
 6661SOL    HW131445   0.689   0.159   7.542  2.6708 -1.8459 -0.1527
 6661SOL    HW231446   0.548   0.127   7.558 -2.5454  0.3181 -4.1881
 6662SOL     OW31447   2.856   0.635   3.194 -0.4485  0.0448 -0.1309
 6662SOL    HW131448   2.900   0.560   3.154 -0.2754 -0.1950  0.4993
 6662SOL    HW231449   2.927   0.699   3.196  0.2459 -0.6914 -1.2997
 6663SOL     OW31450   0.319   3.615  16.197  0.0934 -0.2156  0.0494
 6663SOL    HW131451   0.258   3.558  16.243  2.4719 -2.3533  0.5603
 6663SOL    HW231452   0.397   3.562  16.212 -0.0935 -0.2348  0.9409
 6664SOL     OW31453   3.488   1.173  11.443  0.0794 -0.0416  0.2498
 6664SOL    HW131454   3.505   1.086  11.406 -1.5543  0.0721 -0.7517
 6664SOL    HW231455   3.427   1.157  11.515  0.2651 -2.9079 -0.2137
 6665SOL     OW31456   3.238   2.023   3.863 -0.1767  0.1760 -0.0465
 6665SOL    HW131457   3.230   1.998   3.771 -0.4584  1.5000 -0.3744
 6665SOL    HW231458   3.331   2.001   3.868 -0.2806  0.2958  2.2527
 6666SOL     OW31459   1.133   2.361   4.768  0.3805 -0.5243  0.7047
 6666SOL    HW131460   1.148   2.366   4.862  0.0417  0.7558  0.6944
 6666SOL    HW231461   1.044   2.396   4.768  0.7512  0.4748 -1.8032
 6667SOL     OW31462   3.654   0.014  11.228  0.1152  0.1488 -0.1801
 6667SOL    HW131463   3.703   4.659  11.251  1.3347  1.0102  0.1470
 6667SOL    HW231464   3.718   0.075  11.192  0.3713  0.9122  1.5740
 6668SOL     OW31465   4.486   0.456   3.513  0.8621 -0.2646  0.3400
 6668SOL    HW131466   4.530   0.461   3.428 -0.5596  1.5148 -0.2886
 6668SOL    HW231467   4.478   0.549   3.535 -2.6004 -0.3115 -0.7310
 6669SOL     OW31468   4.365   4.311   2.760  0.1123  0.6836  0.1663
 6669SOL    HW131469   4.309   4.250   2.808 -0.9988  0.3198 -1.6262
 6669SOL    HW231470   4.311   4.333   2.685 -1.6641  0.7804  1.4772
 6670SOL     OW31471   4.375   1.968  13.185  0.3082  0.3346  0.5370
 6670SOL    HW131472   4.384   1.893  13.126 -2.0163  1.9514 -1.9083
 6670SOL    HW231473   4.376   1.925  13.270  0.1540  0.4057  0.5747
 6671SOL     OW31474   1.322   2.474  16.541  0.1245 -0.1654  0.2604
 6671SOL    HW131475   1.259   2.434  16.482 -1.7252 -1.4174  3.0491
 6671SOL    HW231476   1.402   2.426  16.522 -1.3202 -2.6562  0.4408
 6672SOL     OW31477   4.606   1.177   0.105 -0.5576  0.5223  0.3350
 6672SOL    HW131478   4.602   1.172   0.010  0.1439 -1.1942  0.3974
 6672SOL    HW231479   4.515   1.197   0.127 -0.2141  0.7417  1.5552
 6673SOL     OW31480   2.891   3.917  10.796  0.5158  0.0995  0.2777
 6673SOL    HW131481   2.809   3.957  10.766  1.1294  0.6773 -0.6219
 6673SOL    HW231482   2.928   3.907  10.708 -1.2368 -0.5463 -0.3854
 6674SOL     OW31483   4.294   2.314   3.282 -0.4836 -0.3379 -0.1896
 6674SOL    HW131484   4.355   2.388   3.283 -0.8200 -0.1254  2.7851
 6674SOL    HW231485   4.352   2.245   3.314 -0.2978  1.6759  3.7757
 6675SOL     OW31486   2.441   0.665   7.160  0.2239 -0.3221 -0.1421
 6675SOL    HW131487   2.399   0.657   7.074  0.1503 -1.2631 -0.0151
 6675SOL    HW231488   2.374   0.697   7.219 -0.2061 -1.8000  0.1759
 6676SOL     OW31489   3.117   4.722   4.713  0.1681  0.6897  0.5274
 6676SOL    HW131490   3.145   4.700   4.802 -0.8420  0.5975  0.8161
 6676SOL    HW231491   3.055   4.654   4.689  1.3425  0.0400 -0.6680
 6677SOL     OW31492   0.738   1.616  12.027 -0.2344  0.0249  0.4440
 6677SOL    HW131493   0.758   1.682  12.093  0.1357  0.4343 -0.0700
 6677SOL    HW231494   0.779   1.538  12.065 -1.2184 -0.4410  0.5466
 6678SOL     OW31495   2.347   1.061   1.562 -0.0060  0.8118 -0.1690
 6678SOL    HW131496   2.414   1.035   1.499 -1.6460 -1.3068 -1.0317
 6678SOL    HW231497   2.325   0.978   1.606 -1.3041  1.3639  0.2209
 6679SOL     OW31498   3.633   1.863  15.696 -0.3662  0.3745  0.0003
 6679SOL    HW131499   3.623   1.957  15.687 -1.2283  0.5268  2.5634
 6679SOL    HW231500   3.723   1.850  15.724 -0.7941 -1.3296  0.6151
 6680SOL     OW31501   4.073   1.430   5.695 -0.5835  0.5428 -0.6597
 6680SOL    HW131502   4.094   1.463   5.607  0.6798 -1.7847 -1.2352
 6680SOL    HW231503   4.031   1.510   5.726  0.8440  1.5725 -1.3658
 6681SOL     OW31504   2.485   0.160  13.587 -0.7860 -0.1900 -0.4123
 6681SOL    HW131505   2.455   0.209  13.510  0.9407  0.3409 -0.7442
 6681SOL    HW231506   2.533   0.226  13.638  1.4220 -2.8820  0.9637
 6682SOL     OW31507   0.227   3.706   7.420 -0.2690  0.0041  0.0654
 6682SOL    HW131508   0.294   3.771   7.440  0.4968 -0.9911  0.7291
 6682SOL    HW231509   0.150   3.750   7.457 -0.0613  0.9303 -0.5962
 6683SOL     OW31510   2.902   3.197   5.132  0.0123 -0.0241 -0.0406
 6683SOL    HW131511   2.824   3.247   5.158  0.1568  0.2425 -0.1214
 6683SOL    HW231512   2.966   3.266   5.145  2.0783 -2.2665  1.4956
 6684SOL     OW31513   3.617   4.301   1.063  0.4979  0.6948  0.1540
 6684SOL    HW131514   3.613   4.205   1.064 -0.6304  0.7554  0.9772
 6684SOL    HW231515   3.526   4.320   1.084  0.0006 -0.9513 -0.4941
 6685SOL     OW31516   4.291   2.299  16.299 -0.3073  0.1960  0.3638
 6685SOL    HW131517   4.222   2.334  16.244 -2.0181 -1.5904  1.3813
 6685SOL    HW231518   4.367   2.274  16.245  0.8752 -1.9640  3.0204
 6686SOL     OW31519   3.583   1.150   7.283  0.1407  0.3792 -0.3159
 6686SOL    HW131520   3.647   1.146   7.354  0.9077 -0.7380 -1.0636
 6686SOL    HW231521   3.634   1.104   7.217  0.2163  0.4509 -0.3068
 6687SOL     OW31522   0.601   2.744  13.779  0.7902  0.0941 -1.0302
 6687SOL    HW131523   0.671   2.761  13.716  1.2479  2.9690  0.2396
 6687SOL    HW231524   0.653   2.731  13.859  0.9351 -0.7932 -1.2703
 6688SOL     OW31525   4.292   1.975   7.884  0.5920 -0.5140  0.4795
 6688SOL    HW131526   4.319   2.065   7.905  0.1589  0.6061 -3.7618
 6688SOL    HW231527   4.199   1.978   7.907  0.2561 -0.5378 -0.8973
 6689SOL     OW31528   3.047   1.245  12.373  0.1400 -0.1870 -0.4517
 6689SOL    HW131529   3.032   1.256  12.467 -3.0570 -0.6738 -0.9294
 6689SOL    HW231530   3.029   1.152  12.368  1.6659 -0.5353  0.5163
 6690SOL     OW31531   0.887   3.690   7.638  0.1351 -0.1104  0.1994
 6690SOL    HW131532   0.811   3.672   7.694 -0.7152 -1.0830 -1.2791
 6690SOL    HW231533   0.905   3.782   7.657 -0.4596 -0.0095  0.2925
 6691SOL     OW31534   1.184   2.913   2.128 -0.4307  0.7371 -0.2539
 6691SOL    HW131535   1.220   2.942   2.044  0.9358  0.1341  0.1288
 6691SOL    HW231536   1.101   2.875   2.098  1.1749 -1.0194 -2.4419
 6692SOL     OW31537   0.485   3.882   7.104  0.1998  0.4538  0.3053
 6692SOL    HW131538   0.423   3.839   7.045  3.6988 -1.6786 -1.8422
 6692SOL    HW231539   0.437   3.965   7.109  0.1995  0.3565  1.8112
 6693SOL     OW31540   2.576   2.008   6.882 -0.4156 -0.2902  0.1573
 6693SOL    HW131541   2.661   2.050   6.870 -0.2183 -0.9123 -0.6077
 6693SOL    HW231542   2.570   1.945   6.810 -0.7256 -0.6398  0.4890
 6694SOL     OW31543   0.072   2.003   7.100 -0.0577  0.0963 -0.4336
 6694SOL    HW131544   4.706   2.009   7.066 -0.4578  0.1927  0.6133
 6694SOL    HW231545   0.075   2.088   7.145  2.0585 -0.0854 -0.2222
 6695SOL     OW31546   3.851   3.812  10.219  0.2072 -0.2250  0.7295
 6695SOL    HW131547   3.787   3.795  10.289 -1.8459  1.1819 -0.8102
 6695SOL    HW231548   3.915   3.865  10.265  0.6091 -1.5333  1.6981
 6696SOL     OW31549   2.052   4.121   5.730 -0.5587 -0.1191  0.5673
 6696SOL    HW131550   1.980   4.173   5.695 -0.4584 -0.8979 -0.8267
 6696SOL    HW231551   2.058   4.149   5.821 -2.3749 -0.4671  0.7990
 6697SOL     OW31552   1.130   3.255   6.166  0.4287 -0.3884 -0.1131
 6697SOL    HW131553   1.140   3.296   6.252  2.4202 -0.1783 -0.4271
 6697SOL    HW231554   1.036   3.257   6.154  0.5199 -0.2976 -0.7702
 6698SOL     OW31555   1.779   1.484   8.396 -0.0592  0.3235  0.4456
 6698SOL    HW131556   1.777   1.434   8.315  0.8650 -0.1061  0.6876
 6698SOL    HW231557   1.751   1.415   8.457  0.6434  0.3100  0.7537
 6699SOL     OW31558   2.475   2.699   4.053  0.1489  0.7851 -0.0609
 6699SOL    HW131559   2.450   2.730   3.966  1.9648 -0.5540 -1.0894
 6699SOL    HW231560   2.462   2.605   4.042 -1.8440  1.3058 -2.0881
 6700SOL     OW31561   4.630   2.768   2.498  0.0361  0.3346  0.7656
 6700SOL    HW131562   4.568   2.727   2.437  0.4119  1.5414 -0.4434
 6700SOL    HW231563   4.601   2.859   2.493 -0.1724  0.3253  1.8125
 6701SOL     OW31564   0.116   0.994   1.310  0.3638  0.4689 -0.0838
 6701SOL    HW131565   0.090   0.905   1.285 -0.7605  1.3546 -2.0895
 6701SOL    HW231566   0.141   1.008   1.218  0.6312 -1.6164 -0.3280
 6702SOL     OW31567   1.316   2.225   7.024  0.8157  0.5196 -0.4558
 6702SOL    HW131568   1.387   2.164   7.045  0.3839  0.4808  0.9352
 6702SOL    HW231569   1.304   2.274   7.105 -1.1555 -0.2594 -0.2745
 6703SOL     OW31570   0.021   3.650   5.839 -0.6143 -0.0894  0.1750
 6703SOL    HW131571   0.023   3.702   5.758 -0.5785  0.2632  0.4063
 6703SOL    HW231572   4.667   3.687   5.882 -0.8198  3.4757 -3.3009
 6704SOL     OW31573   3.256   0.704   2.002  0.1151  0.1124  0.1827
 6704SOL    HW131574   3.322   0.766   2.032  0.1189  0.3203 -0.2610
 6704SOL    HW231575   3.218   0.685   2.088  0.0210  1.3707  0.4144
 6705SOL     OW31576   0.152   2.593   0.682  0.2297  0.2932  0.0647
 6705SOL    HW131577   0.155   2.629   0.593  1.1506  1.5981  0.6195
 6705SOL    HW231578   0.125   2.503   0.664  0.3398 -0.0220  1.5104
 6706SOL     OW31579   0.480   0.747   8.426  0.0231  0.2231  0.3518
 6706SOL    HW131580   0.419   0.817   8.450 -0.7573 -1.1044  2.2357
 6706SOL    HW231581   0.483   0.751   8.330  0.0993  2.6376  0.4567
 6707SOL     OW31582   1.700   2.648  13.036 -0.0393 -0.3160 -0.1282
 6707SOL    HW131583   1.671   2.654  13.127 -0.8654 -2.0233 -0.2667
 6707SOL    HW231584   1.613   2.643  12.995 -0.3931  0.7754  0.4911
 6708SOL     OW31585   3.656   1.591  10.574 -0.8081  0.0477  0.1843
 6708SOL    HW131586   3.580   1.567  10.521 -1.2438 -1.0465  1.3024
 6708SOL    HW231587   3.679   1.678  10.542  1.4804 -0.1815  1.2709
 6709SOL     OW31588   1.288   2.928  10.850  0.8722 -0.1063  0.2310
 6709SOL    HW131589   1.302   2.924  10.945 -1.2865 -5.1678  0.3132
 6709SOL    HW231590   1.214   2.989  10.844  0.2540 -0.6476  2.3229
 6710SOL     OW31591   2.535   3.524   7.324 -0.0539 -0.2882 -0.4429
 6710SOL    HW131592   2.460   3.465   7.329  0.4832 -0.7776  1.4690
 6710SOL    HW231593   2.530   3.566   7.410  1.6511  1.8341 -1.3786
 6711SOL     OW31594   0.468   1.642   7.638 -0.2470  0.1545 -0.2505
 6711SOL    HW131595   0.405   1.572   7.655  0.8375 -0.8173 -0.1649
 6711SOL    HW231596   0.408   1.713   7.617  0.6367  0.9881  0.0513
 6712SOL     OW31597   0.738   1.461  12.918  0.1101  0.0889 -0.5445
 6712SOL    HW131598   0.650   1.481  12.887  0.2750 -1.1196 -1.8141
 6712SOL    HW231599   0.721   1.424  13.004  0.8760  0.7319 -0.1143
 6713SOL     OW31600   3.726   3.408  15.201 -0.3557  0.2774 -0.6521
 6713SOL    HW131601   3.709   3.461  15.124 -2.3568  1.9910  0.9496
 6713SOL    HW231602   3.662   3.453  15.257  1.1782  0.5251  0.8753
 6714SOL     OW31603   3.413   1.604   6.724 -0.5086 -0.4013 -0.0161
 6714SOL    HW131604   3.486   1.561   6.680 -0.4462 -1.3034  0.9717
 6714SOL    HW231605   3.406   1.684   6.672 -1.8469 -0.2397  0.3901
 6715SOL     OW31606   1.495   2.401  13.311 -0.2985  0.3584 -1.0626
 6715SOL    HW131607   1.562   2.467  13.326 -0.3135  0.1748 -0.1754
 6715SOL    HW231608   1.531   2.360  13.233 -0.6383 -0.4313 -0.8025
 6716SOL     OW31609   4.557   4.462   0.492  0.1486 -0.5757 -0.5207
 6716SOL    HW131610   4.559   4.510   0.575 -0.9842 -1.3348 -0.0527
 6716SOL    HW231611   4.475   4.414   0.501 -0.4240  0.5562  0.3656
 6717SOL     OW31612   2.219   2.309   0.914 -0.3318  0.3668  0.0807
 6717SOL    HW131613   2.250   2.306   0.824 -0.8257  0.0307 -0.0789
 6717SOL    HW231614   2.195   2.401   0.903  1.1596  0.9308  1.5815
 6718SOL     OW31615   2.205   3.147  14.950  0.1248 -0.0502  0.0781
 6718SOL    HW131616   2.146   3.203  15.001 -1.3408  1.9526 -3.8094
 6718SOL    HW231617   2.163   3.123  14.868 -0.5258 -0.0097  0.3959
 6719SOL     OW31618   2.350   3.979   3.565  0.5909  0.3826 -0.1749
 6719SOL    HW131619   2.262   4.005   3.591  0.2445 -0.9255 -0.0129
 6719SOL    HW231620   2.367   4.038   3.492  1.1967  0.4060 -0.0175
 6720SOL     OW31621   3.100   4.266   6.692 -0.1980 -0.0047 -0.1251
 6720SOL    HW131622   3.081   4.320   6.769  0.4395  0.5819 -0.3767
 6720SOL    HW231623   3.195   4.257   6.699 -0.0588  0.9225 -0.8497
 6721SOL     OW31624   0.080   0.130   4.973 -0.1223 -0.1274  0.4839
 6721SOL    HW131625   0.067   0.054   5.029 -0.2141 -0.8394 -0.5154
 6721SOL    HW231626   0.091   0.094   4.886 -1.6178 -2.6896  1.3409
 6722SOL     OW31627   4.433   0.734   8.941  0.1493 -0.2720 -0.4948
 6722SOL    HW131628   4.517   0.688   8.941  0.3915  0.1859 -2.9100
 6722SOL    HW231629   4.401   0.713   8.854  0.7987 -1.4868 -0.4465
 6723SOL     OW31630   3.183   0.348   2.026  0.4681 -0.2803 -0.4776
 6723SOL    HW131631   3.110   0.404   1.999  0.2273 -0.5374 -0.3587
 6723SOL    HW231632   3.135   0.267   2.040 -1.1479  1.0709  1.7332
 6724SOL     OW31633   2.566   2.555   5.500  0.8971  0.1727  0.5634
 6724SOL    HW131634   2.566   2.464   5.529  1.7256  0.4922  1.5750
 6724SOL    HW231635   2.528   2.556   5.412 -0.8832  1.5961  1.3358
 6725SOL     OW31636   1.722   0.249   5.944  0.0827  0.7288  0.1995
 6725SOL    HW131637   1.665   0.173   5.960  0.3798  0.7814  1.5703
 6725SOL    HW231638   1.724   0.267   6.038  1.9107  0.2165  0.2608
 6726SOL     OW31639   3.944   1.845   7.713  0.0501  0.4186 -0.4053
 6726SOL    HW131640   3.892   1.895   7.651 -0.8975 -1.4209 -1.0992
 6726SOL    HW231641   4.030   1.869   7.678  0.4874  0.7784  0.9076
 6727SOL     OW31642   3.615   1.212  10.302  0.0801  0.0162 -0.2828
 6727SOL    HW131643   3.652   1.271  10.367 -1.9160  2.1393 -1.0686
 6727SOL    HW231644   3.691   1.213  10.243  1.4425 -2.5374  1.4649
 6728SOL     OW31645   0.821   3.437   5.346 -0.2060  0.1429  0.3554
 6728SOL    HW131646   0.891   3.375   5.364 -0.2233  0.4890  1.6740
 6728SOL    HW231647   0.863   3.515   5.382 -2.2327  1.0186  0.8671
 6729SOL     OW31648   4.335   4.097  12.555  0.1318  0.2160  0.5968
 6729SOL    HW131649   4.295   4.171  12.509  0.5324  0.2612  0.3200
 6729SOL    HW231650   4.252   4.049  12.568  0.2781  0.2837  1.8165
 6730SOL     OW31651   2.281   0.772   7.354 -0.1902 -0.3953  0.6076
 6730SOL    HW131652   2.293   0.753   7.447  0.7725 -0.9779  0.3675
 6730SOL    HW231653   2.198   0.819   7.356  0.2452  0.3309  2.1785
 6731SOL     OW31654   2.570   1.872   0.448 -0.8589 -0.1809 -0.3105
 6731SOL    HW131655   2.533   1.816   0.379 -0.3501 -0.3884 -0.4114
 6731SOL    HW231656   2.507   1.887   0.519 -0.5744 -1.6675  0.2548
 6732SOL     OW31657   0.649   2.101  14.116  0.5164 -0.2597  0.8331
 6732SOL    HW131658   0.573   2.051  14.088  0.7039  0.6852 -1.3781
 6732SOL    HW231659   0.639   2.096  14.211  0.2590  1.0596  0.8767
 6733SOL     OW31660   0.820   3.956   3.919 -0.5467 -0.0726  0.1329
 6733SOL    HW131661   0.762   4.029   3.941 -0.7989 -0.6877  1.5501
 6733SOL    HW231662   0.776   3.929   3.838 -0.6174 -0.2951  0.2429
 6734SOL     OW31663   1.102   0.339   7.268  0.3108 -0.0680  0.0245
 6734SOL    HW131664   1.170   0.395   7.229 -1.4303 -0.9186 -4.1742
 6734SOL    HW231665   1.041   0.402   7.306 -1.0667 -0.7928 -1.0123
 6735SOL     OW31666   3.359   2.791   4.736 -0.3735 -0.5995 -0.5732
 6735SOL    HW131667   3.285   2.737   4.764 -0.7354 -0.1772 -0.7081
 6735SOL    HW231668   3.326   2.792   4.646 -0.9566 -1.0489 -0.3657
 6736SOL     OW31669   3.492   1.994   1.957  0.0253  0.2951 -0.4161
 6736SOL    HW131670   3.550   1.949   1.895  0.2304 -0.4633  0.3199
 6736SOL    HW231671   3.527   1.952   2.036 -0.8498 -0.9719 -0.6943
 6737SOL     OW31672   3.474   1.379  12.691 -0.0003 -0.3380 -0.1087
 6737SOL    HW131673   3.559   1.340  12.670  0.1031 -0.4590  0.5459
 6737SOL    HW231674   3.451   1.437  12.618  1.8574 -1.4916 -1.5884
 6738SOL     OW31675   2.677   0.335  13.715 -0.0478 -0.3758 -0.2578
 6738SOL    HW131676   2.705   0.258  13.764 -1.9293 -1.7627 -1.3713
 6738SOL    HW231677   2.610   0.373  13.772 -1.0855  1.0311 -2.4355
 6739SOL     OW31678   1.319   2.154   8.081 -0.4789 -0.3443  0.4346
 6739SOL    HW131679   1.325   2.183   7.989 -1.0249  2.2102  1.2129
 6739SOL    HW231680   1.410   2.163   8.110 -0.5173  0.4487  0.3132
 6740SOL     OW31681   1.884   2.731   3.018 -0.2356 -0.4962  0.0871
 6740SOL    HW131682   1.897   2.816   3.061 -0.8332 -0.5849  0.4428
 6740SOL    HW231683   1.866   2.752   2.927 -0.4884 -0.3392  0.1729
 6741SOL     OW31684   3.157   2.814  10.122  0.1893 -0.2547  0.3625
 6741SOL    HW131685   3.192   2.902  10.106 -0.6114  0.1570  0.9193
 6741SOL    HW231686   3.074   2.821  10.075  0.4651  0.0085 -0.0834
 6742SOL     OW31687   0.928   1.837   6.491  0.4802  0.7188  0.5882
 6742SOL    HW131688   1.022   1.834   6.479  0.2632 -1.3621 -0.4976
 6742SOL    HW231689   0.911   1.769   6.557 -0.8433  0.9116  0.4584
 6743SOL     OW31690   1.450   3.197   7.303 -0.5315 -0.0015 -0.2846
 6743SOL    HW131691   1.493   3.121   7.265  0.1415 -0.2369  0.9233
 6743SOL    HW231692   1.427   3.243   7.222  1.6941 -0.3028 -1.0927
 6744SOL     OW31693   4.190   4.331   8.824 -0.2035  0.0700  0.3476
 6744SOL    HW131694   4.142   4.333   8.742  1.0724 -0.9312 -0.4184
 6744SOL    HW231695   4.270   4.287   8.793  1.1953  1.0489  2.5415
 6745SOL     OW31696   4.390   4.341   3.561  0.0684 -0.5175 -0.1807
 6745SOL    HW131697   4.468   4.293   3.535  0.4845 -0.6091  1.2362
 6745SOL    HW231698   4.352   4.361   3.476  4.0441  1.3609 -1.5033
 6746SOL     OW31699   0.920   4.082   4.953  0.0092  0.3375 -0.2803
 6746SOL    HW131700   0.915   4.001   4.901  2.4021 -0.7277  1.0945
 6746SOL    HW231701   0.975   4.132   4.894  0.2390  2.6100  1.8823
 6747SOL     OW31702   1.839   3.579  17.688  0.4955 -0.1001 -0.1714
 6747SOL    HW131703   1.875   3.496   0.025  1.1980 -0.0105 -0.6996
 6747SOL    HW231704   1.800   3.619   0.069 -0.3849  0.7050 -1.0293
 6748SOL     OW31705   1.114   0.762   8.213  0.5357 -0.0653 -0.1744
 6748SOL    HW131706   1.098   0.825   8.143 -3.0911  0.8171  1.4541
 6748SOL    HW231707   1.021   0.744   8.228  1.2427 -2.8468  0.8652
 6749SOL     OW31708   2.244   0.886   8.491  0.7625  0.5861 -0.8776
 6749SOL    HW131709   2.195   0.933   8.423  0.0113  0.4964 -0.3862
 6749SOL    HW231710   2.320   0.861   8.438  0.6396 -0.1580 -0.6960
 6750SOL     OW31711   2.618   4.297   5.459 -0.3604 -0.0423  0.2838
 6750SOL    HW131712   2.597   4.237   5.531  1.7673  0.5295  1.3867
 6750SOL    HW231713   2.711   4.279   5.445 -0.0981  1.5840  0.0133
 6751SOL     OW31714   0.263   0.426   2.844  0.3410 -0.0797  0.4848
 6751SOL    HW131715   0.251   0.352   2.903  1.9253 -0.6271  0.1341
 6751SOL    HW231716   0.250   0.373   2.765 -0.2191 -1.0890  1.2572
 6752SOL     OW31717   0.975   3.641   1.597 -0.2448 -0.5862 -0.1857
 6752SOL    HW131718   0.881   3.657   1.603  0.0054  0.3430  1.2521
 6752SOL    HW231719   1.018   3.715   1.640 -1.3916 -0.1452  0.1908
 6753SOL     OW31720   1.709   0.570   6.507 -0.0752 -0.0794 -0.8357
 6753SOL    HW131721   1.617   0.598   6.508 -0.3984 -1.0227 -3.3297
 6753SOL    HW231722   1.702   0.475   6.505  0.5021 -0.1250 -0.7047
 6754SOL     OW31723   1.524   2.534   0.968 -0.3541  0.0660 -0.4391
 6754SOL    HW131724   1.584   2.468   0.932  1.1015  0.0895  1.9919
 6754SOL    HW231725   1.556   2.547   1.057 -0.7084 -0.7999 -0.1848
 6755SOL     OW31726   2.218   0.288   8.865  0.3888 -0.4936 -0.3265
 6755SOL    HW131727   2.140   0.313   8.816 -0.0773 -3.2025 -0.9544
 6755SOL    HW231728   2.170   0.219   8.911  1.5145 -2.6816 -2.4490
 6756SOL     OW31729   1.412   1.506  17.010 -0.3842  0.4498  0.4677
 6756SOL    HW131730   1.454   1.463  17.085 -1.4067 -1.8441 -0.2893
 6756SOL    HW231731   1.467   1.585  17.010 -0.3230  0.4123 -0.7628
 6757SOL     OW31732   4.425   3.059   5.199 -0.3327 -0.3861  0.3335
 6757SOL    HW131733   4.360   3.035   5.266 -0.7337 -1.2869 -0.3723
 6757SOL    HW231734   4.389   3.144   5.171  2.0869  0.2370 -0.8384
 6758SOL     OW31735   3.683   3.865   3.427 -0.0089  0.2394 -0.0650
 6758SOL    HW131736   3.674   3.790   3.485  2.0261  0.7284  0.8733
 6758SOL    HW231737   3.736   3.917   3.487  1.8473  2.2258 -3.4237
 6759SOL     OW31738   2.121   2.064   0.183  0.2915  0.2277 -0.3769
 6759SOL    HW131739   2.061   2.000   0.221  0.8724 -0.7706 -1.1354
 6759SOL    HW231740   2.186   2.058   0.252  0.3720 -1.5993 -0.6144
 6760SOL     OW31741   0.791   1.413   2.368 -0.2232 -0.1644 -0.8732
 6760SOL    HW131742   0.753   1.328   2.344 -1.2478  0.8782 -2.9519
 6760SOL    HW231743   0.736   1.477   2.322 -0.2291  1.5190  1.5145
 6761SOL     OW31744   1.290   2.639   4.470  0.0070  0.1878  0.3920
 6761SOL    HW131745   1.237   2.615   4.394 -0.1102  1.8210 -0.0316
 6761SOL    HW231746   1.264   2.582   4.542 -1.2985 -0.6310 -0.7175
 6762SOL     OW31747   0.799   0.587   6.249 -0.4984  0.2553  0.3156
 6762SOL    HW131748   0.773   0.647   6.319 -1.3369 -1.7627  1.7360
 6762SOL    HW231749   0.722   0.599   6.194  0.9673 -0.9268 -2.0070
 6763SOL     OW31750   1.021   4.487   1.050 -0.4804 -0.1804  0.1494
 6763SOL    HW131751   0.995   4.463   1.139 -0.2225 -2.1185 -0.2808
 6763SOL    HW231752   1.031   4.398   1.015  3.7374 -0.2528  1.5288
 6764SOL     OW31753   0.559   3.962  13.627 -0.1399 -0.2203  0.3593
 6764SOL    HW131754   0.534   3.870  13.626 -0.3896 -0.1678  3.1416
 6764SOL    HW231755   0.490   3.995  13.568  0.2025  0.5781  0.4045
 6765SOL     OW31756   3.585   3.752   5.953  0.0819  0.3286  0.0757
 6765SOL    HW131757   3.646   3.695   6.000 -0.2731 -0.5626 -0.5535
 6765SOL    HW231758   3.645   3.823   5.933 -2.0383  1.6657 -1.5205
 6766SOL     OW31759   0.344   3.102   0.069  0.1343 -0.5020 -0.1282
 6766SOL    HW131760   0.273   3.047   0.036  1.3220 -1.7563 -0.5686
 6766SOL    HW231761   0.302   3.136   0.149  0.5380 -0.6605  0.1517
 6767SOL     OW31762   3.174   2.489   3.867 -0.1057 -0.1201  0.3385
 6767SOL    HW131763   3.241   2.539   3.914  2.9610 -2.5635 -1.4373
 6767SOL    HW231764   3.108   2.557   3.855 -0.8105 -0.9690 -0.5143
 6768SOL     OW31765   2.805   3.110   9.817 -0.0669 -0.0313 -0.1373
 6768SOL    HW131766   2.765   3.101   9.904 -3.2709 -0.6090 -1.6752
 6768SOL    HW231767   2.899   3.120   9.829  0.2043 -0.3460 -2.0265
 6769SOL     OW31768   3.166   4.252  11.807 -0.3035  0.3101  0.0369
 6769SOL    HW131769   3.164   4.173  11.753 -0.4652  1.4375 -1.6003
 6769SOL    HW231770   3.120   4.318  11.755 -1.7500 -1.4606 -0.9750
 6770SOL     OW31771   1.876   4.570  13.381 -0.2813 -0.0448  0.7629
 6770SOL    HW131772   1.958   4.521  13.381  0.7101  1.6462  2.9148
 6770SOL    HW231773   1.831   4.521  13.313 -0.1289  0.0939  0.5614
 6771SOL     OW31774   1.941   2.162   4.752  0.3812 -0.4218  0.0644
 6771SOL    HW131775   2.001   2.237   4.758 -1.8939  1.6738 -2.9623
 6771SOL    HW231776   1.983   2.095   4.805  0.4982  0.7897  1.5101
 6772SOL     OW31777   0.530   1.626  13.683  0.0736  0.5243  0.5676
 6772SOL    HW131778   0.493   1.673  13.608 -0.0993  0.8769  0.8729
 6772SOL    HW231779   0.449   1.581  13.710  0.7681 -0.1485  1.5592
 6773SOL     OW31780   3.102   2.059   7.470  0.1945 -0.2146  0.1211
 6773SOL    HW131781   3.074   2.117   7.540 -2.4276  1.6421 -2.4500
 6773SOL    HW231782   3.017   2.032   7.435 -0.0821 -1.1450  1.5094
 6774SOL     OW31783   3.510   3.492  14.681  0.0237 -0.0449  0.1880
 6774SOL    HW131784   3.539   3.421  14.737 -1.1166 -2.0947 -1.8039
 6774SOL    HW231785   3.583   3.495  14.619 -0.8275  1.3570 -0.7587
 6775SOL     OW31786   1.432   4.718   8.818 -0.1122 -0.5097 -0.4520
 6775SOL    HW131787   1.487   0.044   8.758 -0.5847  0.6965  0.1080
 6775SOL    HW231788   1.490   4.648   8.846 -0.5995 -0.7999 -0.1592
 6776SOL     OW31789   2.161   4.415   7.947 -0.2958  0.0610 -0.2592
 6776SOL    HW131790   2.110   4.368   8.012  0.0485 -1.1447 -0.8472
 6776SOL    HW231791   2.229   4.351   7.925 -0.7932  0.2260 -2.2872
 6777SOL     OW31792   3.070   3.020  11.404  0.0714  0.0356  0.4735
 6777SOL    HW131793   3.027   3.004  11.488 -0.5408 -0.4473  0.0678
 6777SOL    HW231794   3.109   3.103  11.431 -0.9626  0.5186  0.5116
 6778SOL     OW31795   1.565   0.150   5.635  0.5597  0.2879  0.7206
 6778SOL    HW131796   1.503   0.106   5.577  0.6024 -2.5368  2.8242
 6778SOL    HW231797   1.603   0.090   5.700 -1.3737 -1.1617  0.5097
 6779SOL     OW31798   4.067   3.107   2.948  0.4674  0.8056  0.1865
 6779SOL    HW131799   3.991   3.108   2.889 -0.1664 -0.0930  0.9919
 6779SOL    HW231800   4.081   3.017   2.976  0.5247  0.9433  0.5984
 6780SOL     OW31801   0.944   4.591   3.187 -0.1495 -0.6810 -0.2799
 6780SOL    HW131802   1.039   4.598   3.199 -0.3339 -1.2265  1.5390
 6780SOL    HW231803   0.911   4.594   3.277  0.0853 -0.4483 -0.1999
 6781SOL     OW31804   0.103   4.274   4.728 -0.6685 -0.3093  0.2982
 6781SOL    HW131805   0.192   4.247   4.705 -1.6709 -0.9148 -2.8236
 6781SOL    HW231806   0.047   4.223   4.670 -1.1519 -1.1683  1.5233
 6782SOL     OW31807   0.711   3.427   2.952  0.0199 -0.4499  0.0133
 6782SOL    HW131808   0.685   3.505   3.000 -0.4473  0.1218 -1.1611
 6782SOL    HW231809   0.633   3.397   2.905  0.9375 -1.1483 -1.0692
 6783SOL     OW31810   2.349   0.824   9.091  0.2032 -0.3261  0.8772
 6783SOL    HW131811   2.416   0.889   9.112 -0.5830  0.7633 -0.0139
 6783SOL    HW231812   2.295   0.813   9.169 -2.3509  1.4458 -0.6413
 6784SOL     OW31813   1.944   0.386   3.859  0.3338  0.3105  0.6060
 6784SOL    HW131814   2.008   0.430   3.915  1.7596 -0.0752 -0.7151
 6784SOL    HW231815   1.959   0.294   3.881 -0.6981  0.3008  1.2809
 6785SOL     OW31816   2.147   1.879  10.789 -0.2771 -0.0670  0.5905
 6785SOL    HW131817   2.226   1.841  10.749  0.3093  1.5836  0.1625
 6785SOL    HW231818   2.192   1.956  10.823 -0.7691  0.6864 -0.4594
 6786SOL     OW31819   2.695   3.847  13.341  1.1501 -0.6123  0.1413
 6786SOL    HW131820   2.602   3.870  13.333  0.5889 -3.2982 -0.8997
 6786SOL    HW231821   2.733   3.913  13.399 -1.3564  2.8934 -2.1672
 6787SOL     OW31822   0.929   2.812   7.921 -0.4413 -0.0398  0.1299
 6787SOL    HW131823   1.002   2.770   7.966  1.0259  0.6493 -1.5704
 6787SOL    HW231824   0.849   2.781   7.962 -0.6687  1.7739  1.0492
 6788SOL     OW31825   0.756   2.525   5.007 -0.2422  0.2950 -0.2444
 6788SOL    HW131826   0.717   2.444   5.042  0.0538  0.1467 -0.2641
 6788SOL    HW231827   0.773   2.493   4.919  0.1462 -0.3960  0.0805
 6789SOL     OW31828   3.267   2.155   4.283  0.2751  0.0201 -0.1262
 6789SOL    HW131829   3.222   2.210   4.218  1.3512  2.5359  1.2458
 6789SOL    HW231830   3.358   2.183   4.271  0.7415 -1.5800 -0.2582
 6790SOL     OW31831   2.060   0.336   6.204 -0.0999 -0.1959 -0.0586
 6790SOL    HW131832   2.079   0.429   6.196  0.0436 -0.2374 -0.2095
 6790SOL    HW231833   2.004   0.322   6.128 -1.6067  0.2062  0.9739
 6791SOL     OW31834   1.125   3.932  10.808 -0.4421  0.2369  0.1834
 6791SOL    HW131835   1.118   3.976  10.724  1.6061 -1.5534 -0.9098
 6791SOL    HW231836   1.104   4.007  10.864  0.6238  2.2352 -2.1235
 6792SOL     OW31837   0.560   3.144  11.611  0.4375 -0.1046  0.4294
 6792SOL    HW131838   0.542   3.168  11.520 -2.1371 -2.1460  0.3890
 6792SOL    HW231839   0.474   3.107  11.632 -0.1449  0.8023 -0.3498
 6793SOL     OW31840   0.646   2.867  14.658 -0.3240 -0.1710 -0.0441
 6793SOL    HW131841   0.696   2.945  14.679  0.8038 -0.8824 -0.0826
 6793SOL    HW231842   0.637   2.836  14.748 -0.1222  0.7149  0.2800
 6794SOL     OW31843   3.723   1.146   8.604  0.5889  0.1444  0.3336
 6794SOL    HW131844   3.660   1.087   8.646 -1.7490 -0.1556 -3.6732
 6794SOL    HW231845   3.798   1.119   8.658  0.1264 -1.7361  0.0508
 6795SOL     OW31846   4.021   3.521  10.506 -0.1720 -0.3863  0.3401
 6795SOL    HW131847   4.064   3.557  10.583  1.9024  0.2737 -1.1261
 6795SOL    HW231848   3.933   3.503  10.539 -0.0284 -0.0255  0.9170
 6796SOL     OW31849   1.279   3.483   6.174 -0.5747  0.6248  0.2027
 6796SOL    HW131850   1.243   3.398   6.148 -0.6026  0.5167  0.5951
 6796SOL    HW231851   1.298   3.458   6.264 -3.0235 -0.7949  0.3195
 6797SOL     OW31852   1.095   2.161  11.986 -0.1765 -0.1859 -0.0410
 6797SOL    HW131853   1.173   2.196  12.029 -0.5287 -0.1681  0.5879
 6797SOL    HW231854   1.086   2.211  11.905  0.2949 -1.4718 -0.8828
 6798SOL     OW31855   3.938   0.329   7.715  0.3238 -0.4064  0.0958
 6798SOL    HW131856   3.913   0.419   7.737  3.3312  0.2128  0.9678
 6798SOL    HW231857   3.851   0.296   7.695  0.8733 -0.9269 -1.4468
 6799SOL     OW31858   1.023   0.653   5.398  0.4433 -0.1571  0.4230
 6799SOL    HW131859   1.055   0.725   5.344 -0.2303 -0.7540 -0.7763
 6799SOL    HW231860   1.007   0.587   5.331 -0.0818  1.0401 -0.6175
 6800SOL     OW31861   4.373   3.730   2.871 -0.5473 -0.0005  0.5682
 6800SOL    HW131862   4.417   3.732   2.786 -2.8376  0.2785 -0.6035
 6800SOL    HW231863   4.389   3.817   2.909  0.6719  0.8474 -1.8448
 6801SOL     OW31864   2.386   3.168   1.387  0.2648  0.4964 -0.2031
 6801SOL    HW131865   2.344   3.251   1.408  2.2302  1.3443  0.3749
 6801SOL    HW231866   2.419   3.202   1.304 -1.1628 -0.0769 -1.0115
 6802SOL     OW31867   0.182   1.022   1.035 -0.1289  1.0878  0.3636
 6802SOL    HW131868   0.185   1.089   0.966  1.1282  0.5940 -0.0653
 6802SOL    HW231869   0.197   0.942   0.984  3.1974  0.8206  1.7838
 6803SOL     OW31870   0.114   2.049   5.985 -0.2017  0.4587  0.0948
 6803SOL    HW131871   0.174   1.982   5.954  1.3076  1.7227  0.3058
 6803SOL    HW231872   0.144   2.058   6.076 -1.1770 -1.1402  0.5701
 6804SOL     OW31873   4.369   0.456   8.678  0.3784 -0.0613 -0.2432
 6804SOL    HW131874   4.275   0.450   8.694  0.2411 -1.9589 -1.7867
 6804SOL    HW231875   4.382   0.547   8.651 -1.4651 -0.3585 -2.1034
 6805SOL     OW31876   4.721   3.593   7.311  0.7141 -0.7380 -0.1725
 6805SOL    HW131877   4.690   3.672   7.267  1.7233 -0.7718 -0.9604
 6805SOL    HW231878   0.086   3.626   7.324  0.9101 -2.8242  3.6108
 6806SOL     OW31879   0.975   2.808   2.385  0.3681 -0.3746  0.3362
 6806SOL    HW131880   1.047   2.769   2.336  0.8239  2.2777 -1.0757
 6806SOL    HW231881   0.954   2.890   2.340  1.4729 -0.0400  0.4378
 6807SOL     OW31882   0.696   0.940   8.190 -0.0693 -0.2971  0.2563
 6807SOL    HW131883   0.637   0.971   8.121 -0.2612 -0.7243  0.2275
 6807SOL    HW231884   0.691   1.018   8.246  2.2928 -0.1325  0.2445
 6808SOL     OW31885   3.900   0.200  11.380 -0.0379  0.2286 -0.3327
 6808SOL    HW131886   3.867   0.128  11.434 -0.7004  0.2551 -0.7059
 6808SOL    HW231887   3.844   0.274  11.401 -0.6061  0.1121 -1.4162
 6809SOL     OW31888   3.180   3.882   2.425 -0.3409 -0.1773  0.0125
 6809SOL    HW131889   3.214   3.909   2.340  0.0312  0.2585  0.3022
 6809SOL    HW231890   3.260   3.885   2.478  0.6465  1.8373 -1.6046
 6810SOL     OW31891   0.308   4.021  10.701  0.1507  0.5630  0.2298
 6810SOL    HW131892   0.278   4.015  10.610  0.9551  0.6669 -0.0498
 6810SOL    HW231893   0.310   4.116  10.709 -3.8902  0.5147  1.6504
 6811SOL     OW31894   3.168   1.218   2.386  0.1144 -0.2290  0.2227
 6811SOL    HW131895   3.192   1.301   2.428 -1.5040 -0.9181  2.5245
 6811SOL    HW231896   3.142   1.246   2.298  0.7117 -1.4547 -0.3347
 6812SOL     OW31897   4.368   3.187   7.450  0.2619  0.3971  0.6431
 6812SOL    HW131898   4.364   3.184   7.546 -1.4270 -0.1336  0.5477
 6812SOL    HW231899   4.440   3.250   7.447  0.0624  0.5765 -0.1686
 6813SOL     OW31900   1.457   3.359   7.512 -0.4949  0.0124  0.3643
 6813SOL    HW131901   1.451   3.291   7.445  1.4470 -2.0288  2.2301
 6813SOL    HW231902   1.479   3.309   7.591 -0.2263  0.9688  0.8915
 6814SOL     OW31903   0.763   0.847  16.821  0.2135  0.4760 -0.2594
 6814SOL    HW131904   0.829   0.836  16.890  0.6514  0.6696 -0.6438
 6814SOL    HW231905   0.697   0.905  16.857  1.0478  0.4798  1.2434
 6815SOL     OW31906   3.964   1.707  10.703 -0.1631  0.3977  0.0231
 6815SOL    HW131907   4.015   1.784  10.726 -1.3441  1.3076 -0.4293
 6815SOL    HW231908   3.877   1.726  10.740 -1.1746 -0.6314 -1.8305
 6816SOL     OW31909   2.072   3.992   3.624 -0.0751  0.5563 -0.0622
 6816SOL    HW131910   2.102   3.943   3.701  0.3842 -0.0784 -0.6490
 6816SOL    HW231911   2.022   4.058   3.673 -1.2963 -0.3383 -0.1125
 6817SOL     OW31912   0.554   3.262   2.715  0.8267 -0.2315 -0.6122
 6817SOL    HW131913   0.544   3.228   2.626 -1.6607  0.5327 -0.6081
 6817SOL    HW231914   0.571   3.181   2.764  2.1134 -0.8567 -2.0848
 6818SOL     OW31915   0.076   0.353  15.231  0.5286 -0.0030 -0.3193
 6818SOL    HW131916   0.153   0.338  15.178  0.3985 -1.1697 -0.1687
 6818SOL    HW231917   0.019   0.288  15.190 -0.6963  1.5146 -1.0332
 6819SOL     OW31918   4.260   4.505   5.851 -0.0241  1.0704 -0.0863
 6819SOL    HW131919   4.324   4.463   5.909  0.4074  1.5223 -0.2249
 6819SOL    HW231920   4.263   4.589   5.897  0.4318  1.5873 -1.0655
 6820SOL     OW31921   3.060   0.188  15.921 -0.2717 -0.5081 -0.4900
 6820SOL    HW131922   3.137   0.136  15.947  0.0780 -0.8011 -2.0948
 6820SOL    HW231923   2.987   0.146  15.968 -0.4375  0.5352  0.1884
 6821SOL     OW31924   4.372   1.814   5.690  0.0885 -0.1748 -0.2513
 6821SOL    HW131925   4.406   1.743   5.635 -2.6369 -1.1739 -0.6551
 6821SOL    HW231926   4.451   1.857   5.721  0.2659  0.2229 -1.2452
 6822SOL     OW31927   0.007   4.556   1.852 -0.1154 -0.1786  0.0703
 6822SOL    HW131928   0.013   4.585   1.943 -1.8474 -0.1673  0.1680
 6822SOL    HW231929   4.709   4.463   1.862  2.7415 -0.8395  0.2032
 6823SOL     OW31930   0.787   2.137   3.525 -0.0073  0.2403 -0.3800
 6823SOL    HW131931   0.732   2.086   3.583 -0.6334  1.1263 -0.1919
 6823SOL    HW231932   0.868   2.106   3.566 -0.4015  3.0248  2.4841
 6824SOL     OW31933   4.604   0.737   5.277 -0.1953  0.1791 -0.5205
 6824SOL    HW131934   4.621   0.831   5.274  0.3837  0.0827 -0.2684
 6824SOL    HW231935   4.681   0.706   5.230 -0.9031 -1.3666 -0.6629
 6825SOL     OW31936   3.643   1.749  12.698 -0.2139 -0.1210 -0.1637
 6825SOL    HW131937   3.734   1.781  12.698 -0.3270  0.2263 -3.4195
 6825SOL    HW231938   3.605   1.821  12.748 -0.0433  1.5195 -2.3800
 6826SOL     OW31939   0.288   1.936   9.106 -0.3740 -0.0893 -0.3344
 6826SOL    HW131940   0.270   1.927   9.200 -1.4060 -2.7580 -0.7762
 6826SOL    HW231941   0.275   2.030   9.092 -1.1232 -0.4903 -2.2805
 6827SOL     OW31942   3.826   2.258  10.510 -0.3130 -0.0731 -0.2287
 6827SOL    HW131943   3.886   2.237  10.439 -0.0666  1.7807 -0.5652
 6827SOL    HW231944   3.880   2.232  10.585  0.0386 -0.2992 -0.5620
 6828SOL     OW31945   0.644   0.387   4.328 -0.1050 -0.6171 -0.1668
 6828SOL    HW131946   0.725   0.335   4.327  0.6516  0.5594  0.4316
 6828SOL    HW231947   0.588   0.339   4.266 -0.5231 -1.3998  0.8272
 6829SOL     OW31948   4.722   1.728   0.796 -0.3094 -0.4983 -0.4798
 6829SOL    HW131949   0.024   1.814   0.763  0.0222 -0.6912 -0.7226
 6829SOL    HW231950   0.074   1.706   0.851 -0.6213  2.2071  0.9881
 6830SOL     OW31951   2.578   2.046   3.701 -0.1556  0.2161  0.9798
 6830SOL    HW131952   2.489   2.068   3.676 -0.5295 -2.3404  0.0601
 6830SOL    HW231953   2.629   2.111   3.652 -0.1383  2.0939  3.5329
 6831SOL     OW31954   0.044   1.828   7.666  0.0360  0.2010  0.0112
 6831SOL    HW131955   0.032   1.746   7.618 -2.9153  0.0495  0.9998
 6831SOL    HW231956   4.678   1.837   7.698  0.0174  1.8405 -0.5023
 6832SOL     OW31957   1.324   3.347  16.007  0.5424 -0.3703 -0.0501
 6832SOL    HW131958   1.314   3.434  16.045 -1.0964 -1.3666  1.8738
 6832SOL    HW231959   1.274   3.293  16.069 -1.6357 -0.9011 -2.2790
 6833SOL     OW31960   0.328   3.389   5.235 -0.2495  0.0654 -0.2430
 6833SOL    HW131961   0.255   3.350   5.284  2.0128 -2.1689  1.3480
 6833SOL    HW231962   0.399   3.334   5.268  0.9582  1.2847 -0.8101
 6834SOL     OW31963   1.874   1.577  11.024 -0.9509  0.0770 -0.1060
 6834SOL    HW131964   1.815   1.501  11.016  0.3472 -1.0612  1.0735
 6834SOL    HW231965   1.818   1.625  11.085  0.5730 -2.2423  3.1293
 6835SOL     OW31966   0.335   2.554   0.286  0.0966  0.3032 -0.6488
 6835SOL    HW131967   0.430   2.550   0.280 -0.0349  1.4312 -3.2142
 6835SOL    HW231968   0.316   2.560   0.193 -1.1190  0.6250 -0.3906
 6836SOL     OW31969   2.440   0.041   2.699 -0.3497  0.1442  0.5435
 6836SOL    HW131970   2.415   0.119   2.749  0.2427 -0.4064  1.6848
 6836SOL    HW231971   2.533   0.050   2.719  0.0414  0.3336 -1.3612
 6837SOL     OW31972   1.423   2.047   9.565  0.2822  0.0647  0.0732
 6837SOL    HW131973   1.445   1.998   9.644  0.1277 -1.2300 -0.7012
 6837SOL    HW231974   1.451   2.134   9.595 -3.5079  1.1912  0.4124
 6838SOL     OW31975   3.727   1.988   5.738 -0.5519  0.2273 -0.4853
 6838SOL    HW131976   3.702   2.073   5.776  0.5517  0.1184  0.5026
 6838SOL    HW231977   3.809   2.011   5.694 -0.5247  0.9933 -0.0534
 6839SOL     OW31978   0.686   2.671   3.336  0.4392 -0.1047  0.0526
 6839SOL    HW131979   0.748   2.731   3.295  0.3424 -1.4875 -2.1350
 6839SOL    HW231980   0.724   2.659   3.422 -2.4263 -0.6490  1.2614
 6840SOL     OW31981   1.465   2.683  12.453 -0.2573 -0.2178 -0.2707
 6840SOL    HW131982   1.378   2.652  12.477  0.2058 -0.7554  0.7151
 6840SOL    HW231983   1.508   2.598  12.443  3.0760  1.7106 -2.3747
 6841SOL     OW31984   1.476   1.150   1.917  0.0939  0.3118 -0.3172
 6841SOL    HW131985   1.506   1.205   1.990  0.6422 -1.2379  0.6324
 6841SOL    HW231986   1.480   1.228   1.862 -0.0504  1.6887  1.6181
 6842SOL     OW31987   2.811   1.318   6.965  0.1532 -0.6321  0.5126
 6842SOL    HW131988   2.794   1.228   6.993  1.7576 -0.6665  1.3319
 6842SOL    HW231989   2.904   1.307   6.949  0.2999  0.7229  0.4635
 6843SOL     OW31990   4.693   0.687   6.491  0.0544  0.3286 -0.5218
 6843SOL    HW131991   4.709   0.598   6.523 -0.4196 -0.0285 -1.3087
 6843SOL    HW231992   4.614   0.669   6.441  1.2146 -1.9294 -1.5531
 6844SOL     OW31993   1.848   3.938   5.923 -0.4606  0.0499  0.0392
 6844SOL    HW131994   1.793   3.905   5.994 -2.6030  0.4321 -1.4458
 6844SOL    HW231995   1.935   3.906   5.944  1.1878  2.5013 -3.0559
 6845SOL     OW31996   0.150   0.390   7.369 -0.0890 -0.0921  0.5519
 6845SOL    HW131997   0.100   0.470   7.387 -0.9159 -0.9439  2.0345
 6845SOL    HW231998   0.162   0.385   7.464 -2.2614 -3.5385  0.6361
 6846SOL     OW31999   0.518   0.252   4.673 -0.1167 -0.3425 -0.1148
 6846SOL    HW132000   0.468   0.333   4.681 -0.3081 -0.2532 -2.3178
 6846SOL    HW232001   0.522   0.210   4.759 -1.4809  0.3654  0.2958
 6847SOL     OW32002   1.932   1.201   9.372 -0.1031 -0.4539  0.5054
 6847SOL    HW132003   1.989   1.125   9.373  0.3773 -0.1384 -3.0153
 6847SOL    HW232004   1.999   1.263   9.399  0.1649 -0.4754 -0.1055
 6848SOL     OW32005   2.538   3.566   9.885  0.0731  0.0516  0.0430
 6848SOL    HW132006   2.585   3.649   9.885  1.4376 -0.7072  0.2965
 6848SOL    HW232007   2.546   3.545   9.792  1.3480  1.1329 -0.0991
 6849SOL     OW32008   3.978   3.798   5.757  0.0469 -0.2213 -0.2500
 6849SOL    HW132009   4.001   3.800   5.664 -0.2673  0.3448 -0.3155
 6849SOL    HW232010   4.057   3.828   5.802 -1.2895  3.3419 -0.2742
 6850SOL     OW32011   3.883   3.974   4.090 -0.0050 -0.0353  0.2473
 6850SOL    HW132012   3.962   3.923   4.075  0.2648 -0.2164  2.2172
 6850SOL    HW232013   3.832   3.904   4.131 -1.7149  0.7154 -0.6252
 6851SOL     OW32014   3.208   1.966   8.446  0.3535 -0.5900  0.0411
 6851SOL    HW132015   3.126   1.978   8.493  1.0595  3.1856  0.2562
 6851SOL    HW232016   3.213   1.870   8.442  3.1198 -0.3625 -2.0877
 6852SOL     OW32017   1.856   4.722   6.177 -0.4930  0.4896  0.1063
 6852SOL    HW132018   1.818   4.646   6.132  0.2161  0.0551  0.2373
 6852SOL    HW232019   1.945   0.001   6.142  1.1914 -1.2155  4.3082
 6853SOL     OW32020   3.538   3.395   7.915  1.1260  1.1600  0.1206
 6853SOL    HW132021   3.622   3.373   7.875  1.2956  0.6503  0.7645
 6853SOL    HW232022   3.480   3.346   7.858  1.0899 -0.1704  1.3059
 6854SOL     OW32023   4.413   0.236   5.952  0.4194 -0.1045  0.0609
 6854SOL    HW132024   4.371   0.313   5.912  2.0566  0.6752 -0.1362
 6854SOL    HW232025   4.505   0.257   5.941  0.8664 -2.7366 -0.9647
 6855SOL     OW32026   0.763   3.892   4.223 -0.5420 -0.2658 -0.3481
 6855SOL    HW132027   0.770   3.903   4.128  0.0767  0.8594 -0.1689
 6855SOL    HW232028   0.851   3.915   4.251 -1.6470  1.8862  1.3416
 6856SOL     OW32029   1.690   2.647   5.191 -0.2014  0.1296  0.1966
 6856SOL    HW132030   1.704   2.556   5.166 -0.3214 -0.3699  1.9645
 6856SOL    HW232031   1.752   2.685   5.128 -0.9621  0.0663 -0.5870
 6857SOL     OW32032   0.498   0.047   5.676 -0.2009  0.1930 -0.4633
 6857SOL    HW132033   0.449   0.018   5.599 -0.3910 -3.2536  0.9188
 6857SOL    HW232034   0.571   4.711   5.658  0.8046  1.6615 -1.2370
 6858SOL     OW32035   3.458   2.431   6.050 -0.0521  0.1401  0.1886
 6858SOL    HW132036   3.414   2.516   6.061  0.4212  0.4145 -0.0687
 6858SOL    HW232037   3.433   2.385   6.130  3.8196 -1.5467  0.4272
 6859SOL     OW32038   2.286   0.520  13.411 -0.1984 -0.1270 -0.1261
 6859SOL    HW132039   2.196   0.516  13.378  0.2037 -0.1152 -1.2375
 6859SOL    HW232040   2.331   0.443  13.375 -0.5240 -0.1730 -0.4287
 6860SOL     OW32041   0.007   4.198   7.959  0.2469  0.1613  0.0524
 6860SOL    HW132042   4.681   4.274   7.987 -0.3658  0.2189 -1.2026
 6860SOL    HW232043   0.018   4.202   7.864 -0.4723 -0.8284 -0.0762
 6861SOL     OW32044   1.837   1.835   6.602  0.9004 -0.5343 -0.0617
 6861SOL    HW132045   1.823   1.816   6.510 -2.7237  2.0509 -0.0207
 6861SOL    HW232046   1.841   1.748   6.642  0.3018 -1.3628 -1.8217
 6862SOL     OW32047   2.132   1.792  14.943 -0.0448  0.5486  0.6498
 6862SOL    HW132048   2.115   1.824  15.032 -1.5911 -0.3333  0.6730
 6862SOL    HW232049   2.062   1.727  14.938 -0.4623  1.1495 -1.1605
 6863SOL     OW32050   1.772   1.611   8.887 -0.2527 -0.4592 -0.0858
 6863SOL    HW132051   1.745   1.692   8.928 -0.0282  0.6827 -2.1717
 6863SOL    HW232052   1.727   1.616   8.802 -1.5026  2.0752  0.7234
 6864SOL     OW32053   2.854   3.771   3.157  0.0775 -0.1761  0.2614
 6864SOL    HW132054   2.766   3.808   3.170  0.7570  1.0028  1.5357
 6864SOL    HW232055   2.887   3.784   3.246 -1.0177 -2.5833  1.0351
 6865SOL     OW32056   2.639   1.669   9.022  0.8499  0.2275  0.1453
 6865SOL    HW132057   2.545   1.688   9.013  0.4914 -2.2289 -1.3801
 6865SOL    HW232058   2.649   1.575   9.034 -0.5557  0.2100  1.2397
 6866SOL     OW32059   1.991   2.658   7.444 -0.1573  0.0511 -0.3811
 6866SOL    HW132060   2.005   2.745   7.406  0.6145  0.2541  0.3668
 6866SOL    HW232061   1.979   2.603   7.366 -0.4451 -0.8775  0.3248
 6867SOL     OW32062   1.039   4.107  15.886  0.0623 -0.2987 -0.5126
 6867SOL    HW132063   1.013   4.070  15.971 -1.5508  0.2469 -0.7592
 6867SOL    HW232064   0.988   4.188  15.890  0.1340 -0.3429  1.5224
 6868SOL     OW32065   4.682   0.328   8.014  0.0145 -0.3429  1.0037
 6868SOL    HW132066   4.712   0.303   7.927  1.1304  0.3594  1.1952
 6868SOL    HW232067   4.617   0.397   8.001 -0.8862 -0.6805  3.6550
 6869SOL     OW32068   1.415   1.256   2.494 -0.6140 -0.0093  0.3481
 6869SOL    HW132069   1.421   1.231   2.401  0.7419 -3.7756  1.4523
 6869SOL    HW232070   1.353   1.329   2.484 -2.1581 -1.6422 -2.0558
 6870SOL     OW32071   2.924   4.478   1.976  0.0236 -0.0834 -0.4775
 6870SOL    HW132072   2.883   4.462   1.891 -0.1391  1.1335 -0.6165
 6870SOL    HW232073   2.997   4.534   1.948  0.8789 -1.5688 -1.2600
 6871SOL     OW32074   1.846   0.008   7.372  0.2888 -0.4084  0.0239
 6871SOL    HW132075   1.790   4.658   7.349 -0.1818  0.1821 -0.7186
 6871SOL    HW232076   1.912   4.682   7.419  0.7810  1.2029  1.0544
 6872SOL     OW32077   3.709   0.524  16.795  0.5377 -0.4191 -0.4683
 6872SOL    HW132078   3.783   0.534  16.736  0.9236  1.4505  0.3607
 6872SOL    HW232079   3.667   0.610  16.792  1.9487  0.3435  1.4699
 6873SOL     OW32080   1.977   3.422   4.676 -0.2440  0.0777 -0.2932
 6873SOL    HW132081   2.061   3.376   4.674  0.0288  0.5160  1.2080
 6873SOL    HW232082   1.998   3.493   4.737  3.5128 -1.0211 -0.3350
 6874SOL     OW32083   3.721   1.836   8.867  0.0100 -0.0132 -0.5694
 6874SOL    HW132084   3.641   1.815   8.915  0.3189 -0.0024 -0.0545
 6874SOL    HW232085   3.767   1.752   8.879 -0.5620 -0.3181 -0.5181
 6875SOL     OW32086   4.295   3.045   9.868 -0.4982 -0.0084 -0.4189
 6875SOL    HW132087   4.330   3.018   9.783  0.7124 -1.7995  0.6671
 6875SOL    HW232088   4.231   2.976   9.884 -0.2457 -0.4599 -1.3945
 6876SOL     OW32089   3.863   1.263  14.975 -0.3878  0.7608 -0.6844
 6876SOL    HW132090   3.883   1.356  14.964  1.6201  0.5040  0.7065
 6876SOL    HW232091   3.793   1.251  14.912 -0.5562  0.6039 -0.4668
 6877SOL     OW32092   2.566   2.262   0.511  0.2872 -0.4045 -0.0028
 6877SOL    HW132093   2.656   2.247   0.481  0.3026 -0.5686  0.1285
 6877SOL    HW232094   2.561   2.357   0.509 -3.0870 -0.5947 -0.2551
 6878SOL     OW32095   0.911   2.589  16.098 -0.6453  0.3460 -0.6637
 6878SOL    HW132096   0.890   2.656  16.033 -1.7990 -0.0362 -0.6894
 6878SOL    HW232097   0.983   2.540  16.058 -0.7214 -0.9765  0.7809
 6879SOL     OW32098   3.993   1.795   5.463 -0.1060 -0.0980  0.1779
 6879SOL    HW132099   3.941   1.872   5.484  0.4921  0.6382 -1.0769
 6879SOL    HW232100   3.922   1.731   5.455  1.2312 -1.2981 -2.1753
 6880SOL     OW32101   2.974   0.543   0.220 -0.3539 -0.2318 -0.7591
 6880SOL    HW132102   2.903   0.480   0.233 -1.6868  1.7246  1.6168
 6880SOL    HW232103   2.985   0.548   0.125 -1.6914  0.8872 -0.8589
 6881SOL     OW32104   4.563   3.066  11.661 -0.4637 -0.1776  0.1966
 6881SOL    HW132105   4.473   3.039  11.641 -0.9222  1.6154 -0.1590
 6881SOL    HW232106   4.571   3.020  11.745  1.7629 -1.9972 -1.0338
 6882SOL     OW32107   1.185   2.324  15.683  0.3911  0.4519 -0.4675
 6882SOL    HW132108   1.180   2.359  15.594 -1.4851 -1.8146 -1.2278
 6882SOL    HW232109   1.274   2.289  15.682  0.0063 -0.5708  4.0567
 6883SOL     OW32110   4.018   3.378   2.000 -0.2909  0.1041 -0.0147
 6883SOL    HW132111   4.056   3.453   1.955 -1.0843  1.4155  1.5259
 6883SOL    HW232112   3.975   3.425   2.071  1.5775 -0.8651  1.7594
 6884SOL     OW32113   0.667   4.408   8.431 -0.0937  0.5802  0.0299
 6884SOL    HW132114   0.662   4.467   8.506  2.6464  0.8195  0.0560
 6884SOL    HW232115   0.626   4.331   8.468 -0.7260  0.8543 -0.0937
 6885SOL     OW32116   1.561   1.819   2.560  0.1196  0.1798 -0.3453
 6885SOL    HW132117   1.478   1.835   2.604 -0.0538 -1.2637 -0.1566
 6885SOL    HW232118   1.540   1.850   2.472 -2.0503  1.5585  0.6678
 6886SOL     OW32119   0.978   2.108   8.479  0.3697  0.0445  0.3701
 6886SOL    HW132120   1.057   2.085   8.431 -0.1501  1.5414 -1.2073
 6886SOL    HW232121   0.948   2.186   8.431 -0.1386 -1.0642 -1.1238
 6887SOL     OW32122   0.360   1.133   2.985 -0.2367  0.7483 -0.4643
 6887SOL    HW132123   0.376   1.178   2.902  1.6221 -1.8800 -1.5211
 6887SOL    HW232124   0.449   1.123   3.018 -1.8312 -0.0986  3.5038
 6888SOL     OW32125   2.523   2.501   0.885 -0.2721  0.1823  0.3099
 6888SOL    HW132126   2.526   2.407   0.871  0.4664  0.0150  1.6045
 6888SOL    HW232127   2.438   2.526   0.847  1.0084  1.6840 -1.5360
 6889SOL     OW32128   0.265   4.117   8.474  0.2692  0.5378 -0.2432
 6889SOL    HW132129   0.232   4.041   8.426  0.2178  0.4874 -0.1293
 6889SOL    HW232130   0.201   4.136   8.543  0.1316 -1.2836  0.1352
 6890SOL     OW32131   3.499   1.311  14.892 -0.2310 -0.1511 -0.1576
 6890SOL    HW132132   3.468   1.227  14.927 -0.5643  0.1144  0.1790
 6890SOL    HW232133   3.547   1.289  14.812 -1.2823  2.3901 -1.4629
 6891SOL     OW32134   1.363   4.553   1.460  0.4422 -0.0994 -0.5841
 6891SOL    HW132135   1.331   4.554   1.369  1.7172 -0.1877 -1.0274
 6891SOL    HW232136   1.303   4.483   1.489  0.7174  0.3954  1.1593
 6892SOL     OW32137   3.069   0.938   3.610 -0.4036  0.3834 -0.1510
 6892SOL    HW132138   3.140   0.994   3.578 -0.7262  1.4296  0.9819
 6892SOL    HW232139   3.119   0.870   3.655 -0.7955 -0.5413 -1.1141
 6893SOL     OW32140   3.517   3.617   5.707 -0.3346 -0.5369 -0.2183
 6893SOL    HW132141   3.521   3.653   5.796 -0.7774 -0.1533 -0.3547
 6893SOL    HW232142   3.496   3.694   5.655 -1.2493 -0.2493  0.5672
 6894SOL     OW32143   1.898   3.046   4.490  0.4377 -0.3942  0.3398
 6894SOL    HW132144   1.837   3.064   4.561 -0.7663 -0.4834 -0.6794
 6894SOL    HW232145   1.952   3.125   4.499  0.6535 -0.3049 -1.5715
 6895SOL     OW32146   0.055   1.759   5.048  0.4498  0.0105 -0.4688
 6895SOL    HW132147   0.148   1.762   5.027  0.4491 -0.2576 -0.5121
 6895SOL    HW232148   0.021   1.832   4.996 -1.1210 -0.0189  0.5219
 6896SOL     OW32149   0.015   4.149   8.368  0.3640  0.0773 -0.3886
 6896SOL    HW132150   4.700   4.062   8.376 -0.1513  0.3322 -0.1111
 6896SOL    HW232151   0.055   4.140   8.282  1.4645  0.3681  0.0862
 6897SOL     OW32152   1.235   4.584   4.358  0.1794  0.0663  0.1534
 6897SOL    HW132153   1.286   4.570   4.278 -2.2515 -4.3357 -0.6152
 6897SOL    HW232154   1.182   4.661   4.335  1.4697  0.4817 -1.4304
 6898SOL     OW32155   2.752   1.050   3.223 -0.1152  0.2175 -0.4956
 6898SOL    HW132156   2.674   1.022   3.270  0.8708 -3.3242 -0.9557
 6898SOL    HW232157   2.800   1.092   3.293 -0.5627 -1.4184  0.7825
 6899SOL     OW32158   2.330   3.358   1.157 -0.4332  0.2292  0.1064
 6899SOL    HW132159   2.280   3.342   1.078 -2.0412  1.2959  0.9143
 6899SOL    HW232160   2.408   3.406   1.128 -0.7674  0.2301 -0.7637
 6900SOL     OW32161   2.454   1.959   0.836 -0.2677  0.1496  0.3241
 6900SOL    HW132162   2.400   1.904   0.892 -0.9919 -2.9495 -3.4452
 6900SOL    HW232163   2.420   1.933   0.750 -1.1338 -1.4572  1.1506
 6901SOL     OW32164   3.463   1.442  15.610  0.7393  0.0685  0.6551
 6901SOL    HW132165   3.408   1.469  15.684 -0.2119 -1.9134  0.6672
 6901SOL    HW232166   3.433   1.358  15.575  0.4027 -0.2137  1.6126
 6902SOL     OW32167   4.700   2.618   3.124 -0.3608  0.1752  0.2092
 6902SOL    HW132168   0.072   2.625   3.124 -0.3402 -0.1030 -0.6120
 6902SOL    HW232169   4.693   2.607   3.029 -0.0180 -0.1459  0.2213
 6903SOL     OW32170   1.008   3.407  13.097  0.0368 -0.1792 -0.0276
 6903SOL    HW132171   1.091   3.376  13.060 -0.5451 -0.2520 -1.2580
 6903SOL    HW232172   1.026   3.501  13.092 -0.4027 -0.0089  1.5373
 6904SOL     OW32173   2.657   3.761   5.179  0.3120  0.2154 -0.5484
 6904SOL    HW132174   2.676   3.783   5.088  0.3001 -0.2783 -0.6681
 6904SOL    HW232175   2.600   3.834   5.203  0.3522  0.2193 -0.4650
 6905SOL     OW32176   1.834   3.282   5.019 -0.7110 -0.8543 -0.1809
 6905SOL    HW132177   1.851   3.376   5.014  0.1523 -1.1303 -2.4198
 6905SOL    HW232178   1.742   3.293   5.042 -0.2233 -0.7160  1.7380
 6906SOL     OW32179   0.272   4.284   3.411 -0.8168  0.2040  0.0729
 6906SOL    HW132180   0.269   4.303   3.505 -0.0675  0.8434 -0.0376
 6906SOL    HW232181   0.188   4.316   3.379  0.0748  4.7497  2.3096
 6907SOL     OW32182   1.165   1.473   3.401 -0.0196  0.2113  0.6402
 6907SOL    HW132183   1.172   1.476   3.305 -3.4104  1.7181  0.4425
 6907SOL    HW232184   1.082   1.425   3.410 -1.6672  3.6464  3.5091
 6908SOL     OW32185   1.535   0.830   7.284 -0.5491 -0.2065 -0.1267
 6908SOL    HW132186   1.441   0.835   7.302 -0.5627  0.3312 -0.3571
 6908SOL    HW232187   1.543   0.742   7.249  1.2791  0.2857 -0.9465
 6909SOL     OW32188   1.601   1.720   4.293  0.0832  0.4270 -0.4850
 6909SOL    HW132189   1.543   1.671   4.233  2.9867 -1.0884 -2.0426
 6909SOL    HW232190   1.642   1.778   4.229  0.0521 -1.9724 -2.6965
 6910SOL     OW32191   3.669   0.302   8.379 -0.4897  0.1788  0.1053
 6910SOL    HW132192   3.755   0.333   8.352  0.2961 -0.3029  2.0774
 6910SOL    HW232193   3.620   0.352   8.313 -0.1708 -2.2408 -2.0057
 6911SOL     OW32194   0.901   3.785   7.072 -0.3964  0.4577 -0.0891
 6911SOL    HW132195   0.901   3.741   7.157  0.7246  1.3742  0.4020
 6911SOL    HW232196   0.806   3.784   7.062 -0.3748 -0.6553 -0.1715
 6912SOL     OW32197   3.405   4.131   3.513 -0.0454  0.5466  0.3974
 6912SOL    HW132198   3.325   4.171   3.479  0.8794  0.3349 -2.0519
 6912SOL    HW232199   3.366   4.048   3.543  0.9833  0.4086  1.3373
 6913SOL     OW32200   1.442   2.647  13.005 -1.1020  0.4273  0.0937
 6913SOL    HW132201   1.357   2.656  13.048 -0.8279 -0.9005  0.9130
 6913SOL    HW232202   1.418   2.697  12.926 -2.9262 -0.4803  0.0711
 6914SOL     OW32203   0.713   4.254   2.310 -0.0088 -0.0380  0.0185
 6914SOL    HW132204   0.721   4.265   2.215  1.6338 -1.2178  0.0093
 6914SOL    HW232205   0.655   4.179   2.317  0.6520 -0.3716  1.9518
 6915SOL     OW32206   1.236   3.429   0.195  0.0379  0.3362  0.6163
 6915SOL    HW132207   1.267   3.394   0.279  4.3624  0.7332 -0.8287
 6915SOL    HW232208   1.269   3.359   0.140  0.8721 -0.0722  1.6348
 6916SOL     OW32209   0.558   4.542   4.692 -0.0485 -0.2947  0.5774
 6916SOL    HW132210   0.516   4.558   4.776 -2.4685 -2.2165 -0.2823
 6916SOL    HW232211   0.518   4.610   4.637 -1.4181 -1.7280 -0.2164
 6917SOL     OW32212   1.971   1.371   3.570 -0.5764 -0.5010  0.0459
 6917SOL    HW132213   1.950   1.428   3.497  2.3023 -2.0378 -2.0127
 6917SOL    HW232214   2.049   1.411   3.608 -1.2682  0.7097  0.1819
 6918SOL     OW32215   1.066   0.134   1.183  0.0990  0.6768  0.3270
 6918SOL    HW132216   1.017   0.174   1.255  4.5106 -0.9143  4.2277
 6918SOL    HW232217   1.129   0.082   1.233 -2.2808 -1.4852  1.0581
 6919SOL     OW32218   3.642   2.652   3.140  0.2635 -0.6760  0.5294
 6919SOL    HW132219   3.587   2.585   3.099 -0.1588 -0.3815  0.6116
 6919SOL    HW232220   3.727   2.609   3.132 -0.2515 -1.8416  1.3536
 6920SOL     OW32221   0.491   0.138   3.937 -0.0142 -0.0450  0.0781
 6920SOL    HW132222   0.584   0.122   3.949  0.3669  0.2927 -2.2681
 6920SOL    HW232223   0.496   0.150   3.842 -2.8933 -1.3057 -0.2370
 6921SOL     OW32224   0.905   4.241   7.011  0.4971  0.0243 -0.1064
 6921SOL    HW132225   0.831   4.283   6.967  1.9948 -1.1842 -3.7047
 6921SOL    HW232226   0.917   4.160   6.962 -0.3563 -0.1526 -0.0275
 6922SOL     OW32227   4.335   0.922   2.726  0.3050  0.5838 -0.3997
 6922SOL    HW132228   4.314   0.940   2.634  1.8290  1.1804 -0.6211
 6922SOL    HW232229   4.336   1.013   2.758 -2.3064  1.1365 -1.9265
 6923SOL     OW32230   3.551   1.759  11.993  0.7102  0.6011 -0.1356
 6923SOL    HW132231   3.499   1.716  12.061 -0.7160 -1.0172 -2.2391
 6923SOL    HW232232   3.521   1.714  11.914  0.0806 -0.2776  0.5993
 6924SOL     OW32233   3.692   2.862   7.905 -0.1345  0.6183 -0.1489
 6924SOL    HW132234   3.732   2.811   7.835 -1.0093  0.5540 -0.6054
 6924SOL    HW232235   3.631   2.799   7.944  0.2880 -0.0852 -0.6119
 6925SOL     OW32236   2.505   0.862  16.595  0.1100  0.0925  0.1648
 6925SOL    HW132237   2.447   0.934  16.617 -0.5816  0.0808 -1.7147
 6925SOL    HW232238   2.571   0.893  16.658 -0.0803 -1.3670  1.0905
 6926SOL     OW32239   4.439   4.665  16.781 -0.1912 -0.0334 -0.7414
 6926SOL    HW132240   4.396   0.025  16.764 -0.9620 -0.2098  0.3284
 6926SOL    HW232241   4.368   4.602  16.779  1.3653 -1.8402  0.7901
 6927SOL     OW32242   0.269   4.427  13.130 -0.2718  0.4000 -0.1895
 6927SOL    HW132243   0.328   4.386  13.067 -0.7723  0.8004 -0.9275
 6927SOL    HW232244   0.275   4.518  13.101  0.3993  0.5552  0.4360
 6928SOL     OW32245   2.019   4.313   9.007 -0.5757 -0.0763  0.0124
 6928SOL    HW132246   2.062   4.230   8.986  0.7360  0.1397  1.9110
 6928SOL    HW232247   2.066   4.342   9.084  0.9810 -1.9120 -0.2491
 6929SOL     OW32248   4.323   3.495   8.756  0.2688  0.0959 -0.1080
 6929SOL    HW132249   4.272   3.474   8.678  0.7529  0.4000 -0.5116
 6929SOL    HW232250   4.385   3.423   8.766  1.3636  0.5793 -3.2963
 6930SOL     OW32251   2.331   2.158   5.042 -0.2922  0.2611 -0.3783
 6930SOL    HW132252   2.337   2.067   5.072  1.2548 -0.0082 -1.4856
 6930SOL    HW232253   2.380   2.213   5.104 -2.0787  0.4748  0.8456
 6931SOL     OW32254   0.397   0.411   5.610 -0.0665 -0.0055 -0.3283
 6931SOL    HW132255   0.335   0.475   5.644 -2.0834 -3.0727  1.8072
 6931SOL    HW232256   0.388   0.347   5.681 -5.5730  1.0144 -0.1113
 6932SOL     OW32257   4.135   0.600   3.061 -0.4565  0.4136 -0.6255
 6932SOL    HW132258   4.058   0.602   3.006 -1.9635  0.5376  1.4725
 6932SOL    HW232259   4.201   0.573   2.997  0.5466  0.7132  0.2744
 6933SOL     OW32260   0.443   1.135   1.158  0.6112 -0.1068  0.0751
 6933SOL    HW132261   0.423   1.136   1.252 -3.1468  1.8391 -0.7515
 6933SOL    HW232262   0.360   1.116   1.114  0.6544 -0.1666  0.0199
 6934SOL     OW32263   1.940   3.047   8.204 -0.0290 -0.2589  0.4103
 6934SOL    HW132264   1.911   2.980   8.142  0.0858  0.4587 -0.4162
 6934SOL    HW232265   2.017   3.073   8.154 -0.1601  1.4434  1.0792
 6935SOL     OW32266   0.015   1.967  10.856  0.3431 -0.5627 -0.6577
 6935SOL    HW132267   0.097   2.015  10.844  0.2987 -0.3523 -0.1042
 6935SOL    HW232268   0.049   1.890  10.902 -1.8496 -1.0157  0.2140
 6936SOL     OW32269   3.248   2.878   7.249  0.1575  0.1132  0.2929
 6936SOL    HW132270   3.320   2.856   7.190 -0.8914  0.9374 -1.2838
 6936SOL    HW232271   3.179   2.823   7.212 -1.0742  1.1629  1.0603
 6937SOL     OW32272   4.376   2.874  13.759  0.5292 -0.1634  0.4720
 6937SOL    HW132273   4.373   2.965  13.730 -0.1591  0.0505  1.1906
 6937SOL    HW232274   4.465   2.845  13.738  0.7363 -0.3915  1.6541
 6938SOL     OW32275   2.470   1.156   0.846  0.1362  0.0055  0.0767
 6938SOL    HW132276   2.511   1.219   0.786 -0.3316  1.0486  0.8495
 6938SOL    HW232277   2.448   1.086   0.784  2.2320 -0.5220 -0.0737
 6939SOL     OW32278   3.536   2.160   5.106 -0.3700  0.5205  0.4150
 6939SOL    HW132279   3.478   2.191   5.037 -2.1143  0.6371  1.9337
 6939SOL    HW232280   3.618   2.177   5.061  0.1974 -0.4567  1.0686
 6940SOL     OW32281   2.977   4.165   7.871  0.2286  0.2888 -0.4725
 6940SOL    HW132282   2.920   4.176   7.946 -0.3205  0.6512 -0.9397
 6940SOL    HW232283   3.012   4.076   7.880 -0.9029 -0.3199 -2.1596
 6941SOL     OW32284   4.010   3.494  15.567 -0.4846 -0.2162  0.0717
 6941SOL    HW132285   3.932   3.439  15.559  0.1488 -1.4981  2.5039
 6941SOL    HW232286   4.066   3.443  15.509 -1.6159 -1.9925  0.5518
 6942SOL     OW32287   4.216   4.639   6.615  0.3521  0.6453 -0.1601
 6942SOL    HW132288   4.253   4.658   6.529 -0.6283 -1.0253 -0.9639
 6942SOL    HW232289   4.125   4.647   6.587 -0.2895  1.0651  2.0553
 6943SOL     OW32290   3.265   1.323   4.244 -0.3056  0.5019 -0.3460
 6943SOL    HW132291   3.338   1.262   4.240  1.3485  2.4229  0.9503
 6943SOL    HW232292   3.237   1.323   4.335 -0.3886 -0.0857 -0.3707
 6944SOL     OW32293   1.441   3.863   1.384 -0.2584  0.6226 -0.5502
 6944SOL    HW132294   1.408   3.774   1.381  0.6137  0.2935 -0.4474
 6944SOL    HW232295   1.419   3.890   1.473  0.6004 -0.4251 -0.0196
 6945SOL     OW32296   1.633   1.874   6.812  0.0125  0.2573  0.0223
 6945SOL    HW132297   1.683   1.875   6.894 -3.7202  2.4808  2.2636
 6945SOL    HW232298   1.708   1.873   6.752 -1.3400 -1.3192 -1.6471
 6946SOL     OW32299   2.976   1.185   5.807 -0.0849  0.0753  0.4057
 6946SOL    HW132300   3.021   1.120   5.753 -1.9601 -0.4755 -0.4940
 6946SOL    HW232301   3.045   1.194   5.873  0.6020 -0.9979 -0.1744
 6947SOL     OW32302   3.628   2.624  15.765 -0.6696 -0.4798  0.1190
 6947SOL    HW132303   3.602   2.533  15.748 -0.0406 -0.4504 -1.0119
 6947SOL    HW232304   3.651   2.612  15.857  0.3459 -1.0675 -0.2180
 6948SOL     OW32305   0.035   1.269   5.919 -0.4527 -0.3432  0.3121
 6948SOL    HW132306   0.079   1.349   5.947 -0.2331 -0.7564  1.1556
 6948SOL    HW232307   4.672   1.305   5.903 -0.5572 -1.0196 -0.7013
 6949SOL     OW32308   0.664   3.531  13.344 -0.3698 -0.1196  0.1924
 6949SOL    HW132309   0.580   3.520  13.389 -0.1125 -1.5203  0.3351
 6949SOL    HW232310   0.637   3.595  13.278 -1.8251 -0.0974  0.7956
 6950SOL     OW32311   4.329   3.333   0.190  0.1531  0.2893 -0.1493
 6950SOL    HW132312   4.335   3.386   0.270  1.6425 -2.0791  1.3217
 6950SOL    HW232313   4.378   3.255   0.216 -0.1839 -0.6701 -2.3753
 6951SOL     OW32314   4.307   0.838   5.126  0.1780  0.0379  0.4030
 6951SOL    HW132315   4.332   0.928   5.148  0.3152  0.2655 -0.7314
 6951SOL    HW232316   4.381   0.821   5.068  0.8440 -0.6004  1.4386
 6952SOL     OW32317   4.245   1.900   2.668 -0.1290  0.9474  0.3076
 6952SOL    HW132318   4.154   1.924   2.653  0.1331  0.7923 -1.4302
 6952SOL    HW232319   4.265   1.957   2.742  1.4546 -0.1352  0.7110
 6953SOL     OW32320   2.074   0.924   2.009  0.3866 -0.0260  0.8570
 6953SOL    HW132321   2.139   0.916   1.940 -0.0328  0.9791  0.3360
 6953SOL    HW232322   2.125   0.945   2.087 -0.2030 -0.7442  1.4420
 6954SOL     OW32323   0.505   0.660   1.154  0.3527 -0.2402  0.3592
 6954SOL    HW132324   0.537   0.630   1.069  0.2530  2.0058 -0.4747
 6954SOL    HW232325   0.488   0.573   1.189 -0.1225  0.5818  2.1939
 6955SOL     OW32326   0.552   3.287  13.765  0.4646  0.0726 -0.0418
 6955SOL    HW132327   0.556   3.194  13.789  1.3806 -0.0551 -0.6695
 6955SOL    HW232328   0.460   3.304  13.749  0.3649  0.0090  0.4429
 6956SOL     OW32329   4.565   4.193   6.067 -0.5934  0.2680 -0.0599
 6956SOL    HW132330   4.626   4.125   6.039 -0.3566  0.1659  0.7147
 6956SOL    HW232331   4.571   4.162   6.157 -2.9251  2.4509  0.8834
 6957SOL     OW32332   3.177   0.194   1.446 -0.2297  0.4082  0.0105
 6957SOL    HW132333   3.180   0.115   1.392 -2.7930  0.2988  0.0245
 6957SOL    HW232334   3.244   0.253   1.412 -0.2701  0.1075 -0.5846
 6958SOL     OW32335   0.142   4.603  17.693  0.0635 -0.3038  0.4359
 6958SOL    HW132336   0.094   4.684   0.014  0.3506 -0.2456  0.9525
 6958SOL    HW232337   0.136   4.551   0.077  2.9031  0.1086  0.9197
 6959SOL     OW32338   0.449   4.380  15.472 -0.2580  0.5337  0.1907
 6959SOL    HW132339   0.460   4.289  15.445 -2.9850  0.3348 -0.2655
 6959SOL    HW232340   0.359   4.394  15.442 -0.6077 -3.3142 -0.4683
 6960SOL     OW32341   1.893   4.425   8.473 -0.1146  0.4005  0.2285
 6960SOL    HW132342   1.848   4.363   8.416 -0.6544  0.6643  0.3571
 6960SOL    HW232343   1.906   4.365   8.547 -0.9050  1.2079  1.0305
 6961SOL     OW32344   3.443   3.840   7.642  0.1049  0.3026 -0.1063
 6961SOL    HW132345   3.511   3.804   7.699 -0.1992 -0.0154  0.0570
 6961SOL    HW232346   3.425   3.923   7.685 -0.6688  1.0968 -1.9724
 6962SOL     OW32347   0.062   1.226   2.767 -0.0796 -0.6440 -0.4003
 6962SOL    HW132348   4.721   1.157   2.784 -0.2972 -0.1043  0.9972
 6962SOL    HW232349   0.141   1.173   2.765  1.3188  1.1975  4.5099
 6963SOL     OW32350   4.275   4.639   5.353 -0.0360  0.6487 -0.0373
 6963SOL    HW132351   4.246   0.000   5.320  1.7902  1.5315  0.6160
 6963SOL    HW232352   4.251   4.646   5.446 -1.9375 -2.6549 -0.3000
 6964SOL     OW32353   2.585   3.229  10.460  0.1870  0.5722  0.2331
 6964SOL    HW132354   2.673   3.202  10.484  0.0156  0.5332  0.8040
 6964SOL    HW232355   2.536   3.176  10.523  0.0204 -0.3373 -0.6454
 6965SOL     OW32356   3.960   2.495   1.921  0.2471  0.5259 -0.3631
 6965SOL    HW132357   4.034   2.497   1.860 -1.1681 -0.4322 -2.1052
 6965SOL    HW232358   3.920   2.412   1.897  0.4269  0.8136 -1.6654
 6966SOL     OW32359   1.219   1.691  16.606 -0.3150  0.8946 -0.0345
 6966SOL    HW132360   1.302   1.645  16.593 -1.4534 -1.1422 -0.0792
 6966SOL    HW232361   1.201   1.659  16.694  3.1423 -0.7957  0.0519
 6967SOL     OW32362   3.694   3.583  14.990  0.4569 -0.2307 -0.0358
 6967SOL    HW132363   3.603   3.563  14.968  0.0763 -0.5706  1.8914
 6967SOL    HW232364   3.744   3.571  14.909 -1.0810 -2.7102 -0.6208
 6968SOL     OW32365   0.384   0.085   1.252  0.5745  0.5923  0.4922
 6968SOL    HW132366   0.469   0.050   1.279 -0.0706 -1.2716  0.0987
 6968SOL    HW232367   0.397   0.132   1.170 -1.1710 -0.7392 -0.5382
 6969SOL     OW32368   1.846   1.783  15.711  0.7195 -0.2279  0.0950
 6969SOL    HW132369   1.868   1.856  15.769 -0.5253  1.6280 -1.7808
 6969SOL    HW232370   1.837   1.705  15.766 -2.0116 -1.5660 -2.2460
 6970SOL     OW32371   1.994   0.792   1.128 -0.0745 -0.1730 -0.3964
 6970SOL    HW132372   1.961   0.856   1.192  0.1167 -0.9103  0.4272
 6970SOL    HW232373   2.035   0.853   1.067  1.1064  0.1391  0.7053
 6971SOL     OW32374   2.820   2.253   6.581  0.0294  0.2998 -0.2345
 6971SOL    HW132375   2.780   2.173   6.547  1.6264 -1.3101  1.6453
 6971SOL    HW232376   2.806   2.229   6.673  0.3661 -2.1134 -0.8125
 6972SOL     OW32377   4.523   2.426   0.454 -0.5786 -0.1693 -0.6683
 6972SOL    HW132378   4.613   2.395   0.437 -0.0203  0.9347  0.2637
 6972SOL    HW232379   4.534   2.521   0.461 -1.0258 -0.1663 -0.0208
 6973SOL     OW32380   2.786   0.222   4.034 -0.2574  0.4286 -0.1586
 6973SOL    HW132381   2.796   0.211   3.939 -0.4845  1.1394 -0.2648
 6973SOL    HW232382   2.814   0.313   4.042 -1.4279  0.6198  1.7765
 6974SOL     OW32383   2.164   2.790   3.925 -0.7516 -0.6062  0.1380
 6974SOL    HW132384   2.225   2.750   3.863 -0.5413  0.1982 -0.1739
 6974SOL    HW232385   2.188   2.883   3.916  2.1760 -1.6395 -2.6148
 6975SOL     OW32386   2.154   0.898   9.789  0.1832 -0.3416 -0.1114
 6975SOL    HW132387   2.209   0.849   9.850 -0.8605 -1.3879 -0.0241
 6975SOL    HW232388   2.080   0.916   9.847  0.6278  0.1222  0.3120
 6976SOL     OW32389   1.687   1.424  13.367 -0.0238 -1.0594  0.2385
 6976SOL    HW132390   1.667   1.365  13.294  0.2561  0.5638 -1.1452
 6976SOL    HW232391   1.607   1.476  13.366  0.5736 -0.1391  1.8542
 6977SOL     OW32392   2.690   3.689  16.465  0.5499  0.4281  0.4468
 6977SOL    HW132393   2.717   3.768  16.420 -0.3157 -0.6057 -1.8760
 6977SOL    HW232394   2.631   3.731  16.528  0.9898  3.0827 -0.9614
 6978SOL     OW32395   3.850   3.115   2.783 -0.0617 -0.9976 -0.0374
 6978SOL    HW132396   3.860   3.148   2.693  0.8468 -1.8083 -0.2360
 6978SOL    HW232397   3.771   3.062   2.784  0.7145 -2.1917 -0.7312
 6979SOL     OW32398   2.815   3.600  11.198  0.2430 -0.1881 -0.5033
 6979SOL    HW132399   2.839   3.658  11.271 -1.3144  1.3635 -1.2205
 6979SOL    HW232400   2.823   3.659  11.122  3.9508 -1.4501 -1.1210
 6980SOL     OW32401   1.800   0.567   2.533 -0.5096 -0.2336  0.1084
 6980SOL    HW132402   1.779   0.501   2.466  0.0315 -0.4384  0.1415
 6980SOL    HW232403   1.884   0.597   2.500 -0.3422  0.5020  1.2136
 6981SOL     OW32404   4.397   4.015   8.754  0.4718 -0.6650  0.3973
 6981SOL    HW132405   4.390   4.025   8.659 -0.0810  1.1377  0.6349
 6981SOL    HW232406   4.353   3.932   8.771 -1.9041  1.0818  2.7588
 6982SOL     OW32407   2.459   3.057   6.296  0.8651  0.1127  0.2710
 6982SOL    HW132408   2.449   3.042   6.202  0.3512  1.2561  0.1443
 6982SOL    HW232409   2.372   3.086   6.322 -0.8110 -1.7839 -3.2363
 6983SOL     OW32410   0.403   0.331   6.114  0.3722  0.4728 -0.5612
 6983SOL    HW132411   0.464   0.337   6.187  0.4777 -3.8451 -0.3251
 6983SOL    HW232412   0.453   0.280   6.050  0.9470  1.8869 -1.2585
 6984SOL     OW32413   2.424   2.658  16.558  0.5396 -0.5692  0.3015
 6984SOL    HW132414   2.487   2.588  16.577  2.0250  0.8349  0.5223
 6984SOL    HW232415   2.421   2.657  16.462 -1.7766 -1.5865  0.3871
 6985SOL     OW32416   3.527   0.427   6.593  0.4141 -0.0105  0.5153
 6985SOL    HW132417   3.621   0.424   6.579  0.2409  0.4265 -0.6952
 6985SOL    HW232418   3.524   0.373   6.672 -1.2361 -0.0300  0.4406
 6986SOL     OW32419   1.579   2.267   7.561 -0.1375  0.2467  0.3469
 6986SOL    HW132420   1.548   2.316   7.485 -0.4940 -1.5668 -0.6750
 6986SOL    HW232421   1.659   2.223   7.531 -1.8225 -2.1642 -0.5290
 6987SOL     OW32422   2.771   2.309  10.349  0.3797 -0.1628  0.0944
 6987SOL    HW132423   2.781   2.377  10.416 -1.3100 -0.5456  0.7456
 6987SOL    HW232424   2.687   2.342  10.316  0.2496  1.0574  1.6315
 6988SOL     OW32425   0.515   2.427  14.521 -0.3135  0.6528 -0.8950
 6988SOL    HW132426   0.423   2.424  14.547  0.3498 -0.4925  1.3293
 6988SOL    HW232427   0.552   2.378  14.594 -1.0828 -1.3892 -1.8884
 6989SOL     OW32428   2.675   4.007   3.139 -0.6768  0.0985 -0.5280
 6989SOL    HW132429   2.682   3.964   3.054 -0.2817 -1.5228  0.3208
 6989SOL    HW232430   2.646   4.095   3.112 -0.5702  1.0252  2.4032
 6990SOL     OW32431   1.015   0.351  13.269  0.2602  0.6165 -0.1077
 6990SOL    HW132432   0.974   0.293  13.333 -1.5258  1.8858 -0.0973
 6990SOL    HW232433   0.995   0.296  13.194 -1.0011 -0.5807  1.0838
 6991SOL     OW32434   3.370   0.053   7.203  0.1912 -0.2856  0.8967
 6991SOL    HW132435   3.460   0.080   7.186 -0.2890  1.4953  1.2498
 6991SOL    HW232436   3.366   4.699   7.147  0.7539 -0.5980  1.2923
 6992SOL     OW32437   1.327   3.752   9.467 -0.1552  0.1076 -0.6401
 6992SOL    HW132438   1.246   3.731   9.420 -1.2708  1.2550  0.7934
 6992SOL    HW232439   1.381   3.763   9.389  0.3736  0.3040 -0.2421
 6993SOL     OW32440   4.480   2.645  12.151  0.2001 -0.4911 -0.4914
 6993SOL    HW132441   4.560   2.595  12.134  1.2961  0.1605  2.6910
 6993SOL    HW232442   4.455   2.620  12.240 -1.6767  0.0491 -0.8584
 6994SOL     OW32443   4.238   1.439   9.305  0.3343 -0.0561  0.0179
 6994SOL    HW132444   4.244   1.445   9.400  1.6241  0.5982 -0.1034
 6994SOL    HW232445   4.260   1.348   9.287 -0.3764 -0.3276  0.5437
 6995SOL     OW32446   3.855   2.265   1.839  0.4510  0.0601 -0.0044
 6995SOL    HW132447   3.769   2.252   1.799  0.8071  0.2473 -0.8502
 6995SOL    HW232448   3.901   2.201   1.784 -0.0129  0.5941 -1.0197
 6996SOL     OW32449   1.782   2.419   5.453  0.0967 -0.2514  0.3230
 6996SOL    HW132450   1.751   2.435   5.363  0.7279  0.6929  0.2662
 6996SOL    HW232451   1.738   2.492   5.496  0.5965 -1.7356  3.2978
 6997SOL     OW32452   3.798   3.726   1.260 -0.3238 -0.0084  0.5640
 6997SOL    HW132453   3.845   3.807   1.241 -0.1420 -0.5820 -1.4520
 6997SOL    HW232454   3.728   3.732   1.196  0.8806  1.9611 -0.5398
 6998SOL     OW32455   2.843   0.824  12.965 -0.7617 -0.1348  0.1530
 6998SOL    HW132456   2.814   0.800  13.053 -0.2397  0.0307  0.3682
 6998SOL    HW232457   2.829   0.919  12.966  1.4463  0.2294 -1.6513
 6999SOL     OW32458   1.755   1.085   5.411  0.1782  0.1230 -0.0661
 6999SOL    HW132459   1.773   1.020   5.344  0.7383  0.0950  0.1116
 6999SOL    HW232460   1.836   1.077   5.462  0.6871 -1.9566 -1.2304
 7000SOL     OW32461   3.533   1.461  11.024 -0.2550 -0.4662 -0.6626
 7000SOL    HW132462   3.569   1.382  10.983 -0.2546 -2.1652  2.5411
 7000SOL    HW232463   3.591   1.470  11.099  0.2107 -3.3565 -0.6633
 7001SOL     OW32464   3.839   3.020   3.138  0.7506  0.2983  0.7176
 7001SOL    HW132465   3.842   3.107   3.179 -3.8815  0.9761 -0.3174
 7001SOL    HW232466   3.860   3.040   3.047  0.1052 -0.3075  0.4337
 7002SOL     OW32467   4.247   3.395   3.837 -0.2997 -0.4261 -0.2851
 7002SOL    HW132468   4.260   3.486   3.864  0.6716 -1.3226  2.2990
 7002SOL    HW232469   4.318   3.352   3.884  1.5375  0.3918 -2.3426
 7003SOL     OW32470   3.140   3.931   7.896 -0.2460  0.1856 -0.2125
 7003SOL    HW132471   3.200   3.860   7.920 -0.9907 -0.5175 -0.4415
 7003SOL    HW232472   3.187   3.999   7.944  0.2747 -0.2360 -0.1313
 7004SOL     OW32473   4.340   1.529   9.791  0.5682 -0.0989 -0.2522
 7004SOL    HW132474   4.308   1.512   9.702  0.7839 -1.8137 -0.0068
 7004SOL    HW232475   4.257   1.524   9.840 -0.1511 -0.7377 -1.5375
 7005SOL     OW32476   1.193   1.746   6.463 -0.4557 -0.1676 -0.1259
 7005SOL    HW132477   1.263   1.788   6.512 -0.4546  1.5144 -1.5515
 7005SOL    HW232478   1.154   1.688   6.528  1.0714 -2.7244 -1.4860
 7006SOL     OW32479   1.465   4.663  17.132 -0.5518 -0.1528 -0.3074
 7006SOL    HW132480   1.526   4.589  17.129  0.7604  0.8843  0.8179
 7006SOL    HW232481   1.437   4.660  17.041  1.4683  1.4615 -0.9693
 7007SOL     OW32482   1.469   2.375   6.202 -0.3182  0.0314 -0.2736
 7007SOL    HW132483   1.449   2.284   6.180  2.1719 -0.2949 -1.1722
 7007SOL    HW232484   1.378   2.399   6.218  0.4253  1.5626  1.7162
 7008SOL     OW32485   1.827   0.764   2.958  0.8399  0.4297  0.3018
 7008SOL    HW132486   1.750   0.708   2.948 -0.2698  1.8837  0.6484
 7008SOL    HW232487   1.828   0.824   2.884 -2.7749 -2.3509 -2.0333
 7009SOL     OW32488   3.186   1.549  13.989  0.2543  0.2933 -0.3704
 7009SOL    HW132489   3.258   1.608  14.013 -0.5116  0.7572  0.8129
 7009SOL    HW232490   3.176   1.574  13.897 -1.1864 -0.9621 -0.5530
 7010SOL     OW32491   1.218   2.614  12.597 -0.2199  0.1563  0.0228
 7010SOL    HW132492   1.187   2.638  12.510  0.1617  1.2145  0.1774
 7010SOL    HW232493   1.158   2.660  12.656  0.8927 -0.2258  1.4762
 7011SOL     OW32494   0.761   0.980   0.201  0.2132 -0.4802 -0.0423
 7011SOL    HW132495   0.845   0.935   0.209  1.1934  1.4232  0.3871
 7011SOL    HW232496   0.735   0.975   0.293  0.7633 -0.8259  0.0891
 7012SOL     OW32497   4.256   4.519   2.549  0.0915 -0.2866 -0.0289
 7012SOL    HW132498   4.256   4.607   2.587  0.5668 -0.5786  0.6585
 7012SOL    HW232499   4.345   4.511   2.515 -0.3135  1.0281 -1.4326
 7013SOL     OW32500   1.251   0.171  15.666  0.3595  0.1051 -0.0228
 7013SOL    HW132501   1.228   0.131  15.750 -2.9581  2.4240  0.1457
 7013SOL    HW232502   1.168   0.148  15.624  0.7521  0.7089 -1.1389
 7014SOL     OW32503   3.578   2.109  10.314  0.1385  0.1318  0.4457
 7014SOL    HW132504   3.553   2.201  10.310  0.2451  0.0699 -2.1247
 7014SOL    HW232505   3.494   2.068  10.292  0.6820 -1.3148  1.0849
 7015SOL     OW32506   1.523   4.379   7.039  0.3817  0.0550  0.7877
 7015SOL    HW132507   1.519   4.314   7.109  1.4146 -1.9638 -1.0453
 7015SOL    HW232508   1.429   4.387   7.023  0.1719 -1.4224  1.3362
 7016SOL     OW32509   4.292   4.183   1.535 -0.0662 -0.5314  0.0241
 7016SOL    HW132510   4.272   4.196   1.442 -1.2040  1.1667  0.4964
 7016SOL    HW232511   4.372   4.233   1.548 -1.0983  1.2527 -0.3786
 7017SOL     OW32512   2.846   1.232  11.752  0.4872  0.2449 -0.0785
 7017SOL    HW132513   2.780   1.300  11.746  0.9093  0.6890  0.3611
 7017SOL    HW232514   2.796   1.155  11.723 -0.8217  1.4267 -0.9066
 7018SOL     OW32515   0.282   4.394   8.184  0.2108  0.1525  0.2653
 7018SOL    HW132516   0.321   4.313   8.217  1.3168 -0.0262 -1.5372
 7018SOL    HW232517   0.284   4.444   8.266  2.3496  0.9370 -0.2658
 7019SOL     OW32518   4.246   4.142   7.187  0.5168  0.4780 -0.0850
 7019SOL    HW132519   4.202   4.073   7.137  1.7246 -0.0255 -0.4323
 7019SOL    HW232520   4.173   4.204   7.189  0.2311  0.1797 -1.4909
 7020SOL     OW32521   0.030   1.102   6.545 -0.3810  0.3634 -0.0987
 7020SOL    HW132522   4.677   1.158   6.558 -0.8249  0.1860 -1.9548
 7020SOL    HW232523   0.011   1.060   6.461  0.3279 -1.0610  0.4475
 7021SOL     OW32524   0.700   3.371   0.025  0.4878  0.0383  0.3488
 7021SOL    HW132525   0.673   3.396   0.113  1.0447  0.9992  0.2483
 7021SOL    HW232526   0.618   3.339  17.684  1.9685  0.4685 -3.2972
 7022SOL     OW32527   3.119   4.204   6.209  0.4690 -0.3617  0.2416
 7022SOL    HW132528   3.168   4.123   6.220  2.0574  0.4182 -0.9864
 7022SOL    HW232529   3.052   4.205   6.277 -0.1811 -2.9586 -0.3769
 7023SOL     OW32530   1.121   2.700   7.585  0.1576 -0.1010  0.0769
 7023SOL    HW132531   1.197   2.710   7.529  0.7009 -2.2196  0.4529
 7023SOL    HW232532   1.167   2.668   7.663  0.5886  0.0693 -0.1063
 7024SOL     OW32533   2.199   2.045  12.877 -0.0002 -0.2807 -0.1792
 7024SOL    HW132534   2.161   2.007  12.956 -1.3946  0.3474 -0.5435
 7024SOL    HW232535   2.165   1.995  12.802  1.8584 -1.9882  0.1102
 7025SOL     OW32536   1.911   0.619   5.192 -0.3026  0.7467 -0.1072
 7025SOL    HW132537   1.884   0.530   5.215 -2.2987  1.4510  0.2605
 7025SOL    HW232538   2.004   0.603   5.204 -0.1719  2.4266  1.0920
 7026SOL     OW32539   1.036   3.080  10.848 -0.6943 -0.1073 -0.6969
 7026SOL    HW132540   0.958   3.046  10.890  0.0464 -1.8093 -0.7002
 7026SOL    HW232541   1.035   3.174  10.867  2.0674 -0.5516  1.6534
 7027SOL     OW32542   0.340   1.718  11.548  0.1422  0.8667  0.1593
 7027SOL    HW132543   0.412   1.682  11.497  0.1963  1.4212 -0.1477
 7027SOL    HW232544   0.386   1.783  11.600  1.1914  0.1039  0.1742
 7028SOL     OW32545   1.451   1.557   1.808  0.3008  0.2689 -0.2797
 7028SOL    HW132546   1.463   1.470   1.768  2.9610  0.3746  0.2302
 7028SOL    HW232547   1.515   1.616   1.767 -1.3902  2.0984 -0.2418
 7029SOL     OW32548   3.453   3.783   1.554  0.1100 -0.0422  0.5208
 7029SOL    HW132549   3.468   3.694   1.522 -0.5146 -0.2850  0.8883
 7029SOL    HW232550   3.458   3.844   1.481  1.0522 -1.0193 -0.2240
 7030SOL     OW32551   0.487   3.080   7.561 -0.2453  0.1154 -0.3242
 7030SOL    HW132552   0.570   3.037   7.541 -1.1394 -1.3815 -0.8455
 7030SOL    HW232553   0.430   3.005   7.579  0.0843 -0.1230 -0.2846
 7031SOL     OW32554   1.384   0.015   7.482 -0.0859 -0.4008  0.0905
 7031SOL    HW132555   1.296   0.052   7.488  0.6254  0.9281  2.6469
 7031SOL    HW232556   1.423   0.057   7.406  0.9223 -0.9410  0.3123
 7032SOL     OW32557   4.606   3.624   3.272  0.1863 -0.2491 -0.1615
 7032SOL    HW132558   4.517   3.659   3.267 -0.0070 -0.9498 -1.6677
 7032SOL    HW232559   4.580   3.532   3.269 -0.5861 -0.0255 -0.3008
 7033SOL     OW32560   0.859   1.535  10.751 -0.1968 -0.0918 -0.6815
 7033SOL    HW132561   0.827   1.605  10.694 -0.1268 -0.9296 -1.7623
 7033SOL    HW232562   0.934   1.508  10.698 -0.3028 -0.8805 -0.4310
 7034SOL     OW32563   0.387   0.103   3.227 -0.3094 -0.2962 -0.5361
 7034SOL    HW132564   0.372   0.009   3.235 -0.9032 -0.0747  0.9965
 7034SOL    HW232565   0.479   0.124   3.216 -0.3420  0.1421  0.0385
 7035SOL     OW32566   1.884   3.669   3.644 -0.3471 -1.1003  0.1031
 7035SOL    HW132567   1.807   3.628   3.606 -0.3185 -0.4146 -0.6843
 7035SOL    HW232568   1.903   3.726   3.570  0.2416 -0.1827  0.9512
 7036SOL     OW32569   0.593   3.957  11.195 -0.0811  0.3043 -0.4890
 7036SOL    HW132570   0.561   3.868  11.210  0.1013 -0.0256 -2.0989
 7036SOL    HW232571   0.578   3.996  11.281  1.4555 -1.5254  0.6268
 7037SOL     OW32572   4.271   3.295   5.228  0.1232 -0.2755  0.5062
 7037SOL    HW132573   4.331   3.365   5.200  0.0785  0.4786  2.3080
 7037SOL    HW232574   4.185   3.332   5.206  0.7853  0.3344 -1.0496
 7038SOL     OW32575   3.464   4.048   7.823  0.2678 -0.4787 -0.3192
 7038SOL    HW132576   3.409   4.108   7.872 -1.2432 -1.8308 -0.3509
 7038SOL    HW232577   3.451   3.958   7.855 -0.0434  1.5299  5.1203
 7039SOL     OW32578   1.022   3.907   5.670 -0.1484 -0.3716  0.4940
 7039SOL    HW132579   1.079   3.859   5.611  0.4405  0.9318 -0.0100
 7039SOL    HW232580   1.038   3.994   5.632  0.8217 -1.0750 -0.7104
 7040SOL     OW32581   4.674   4.508   4.170  0.2025 -0.6305  0.1687
 7040SOL    HW132582   4.614   4.463   4.230  1.7492 -0.0136  2.1542
 7040SOL    HW232583   4.678   4.594   4.213 -0.0122 -0.4253 -0.2233
 7041SOL     OW32584   1.006   2.208   2.343  0.0695  0.0587  0.4475
 7041SOL    HW132585   1.062   2.192   2.267 -0.1462  2.4249 -0.2028
 7041SOL    HW232586   0.993   2.302   2.332 -0.0130  0.0408  0.3914
 7042SOL     OW32587   0.416   2.180   9.571  0.3243 -0.2904  0.1321
 7042SOL    HW132588   0.466   2.246   9.620  2.4365 -1.0944 -0.9808
 7042SOL    HW232589   0.378   2.131   9.644 -0.7276  1.5013  0.8136
 7043SOL     OW32590   0.391   0.840   7.072 -0.3094 -0.1311 -0.1218
 7043SOL    HW132591   0.485   0.855   7.067 -0.1461 -0.7604  1.1761
 7043SOL    HW232592   0.379   0.798   6.986  0.6384 -1.1046  0.2236
 7044SOL     OW32593   3.548   2.343   4.226 -0.1153  0.0992  0.8765
 7044SOL    HW132594   3.621   2.405   4.219  1.3490 -1.8583 -1.3588
 7044SOL    HW232595   3.493   2.373   4.298 -2.2454  0.4863 -0.8772
 7045SOL     OW32596   4.171   1.438   3.132 -0.6437  0.4326  0.4195
 7045SOL    HW132597   4.248   1.396   3.170 -0.9508  0.0871  0.6642
 7045SOL    HW232598   4.167   1.521   3.180  0.8186  0.5794  0.2752
 7046SOL     OW32599   3.386   1.282  10.512  1.1795  0.4808  0.1678
 7046SOL    HW132600   3.411   1.208  10.567 -1.7981  0.2947  1.2487
 7046SOL    HW232601   3.449   1.274  10.440  1.3955 -0.2509  0.4408
 7047SOL     OW32602   1.671   0.791  14.975  0.4689  0.6421 -0.3447
 7047SOL    HW132603   1.750   0.748  14.944  1.7169  0.9323  2.4841
 7047SOL    HW232604   1.619   0.715  15.000 -0.0430  1.0535 -0.1353
 7048SOL     OW32605   2.453   1.263  14.259  0.3442  0.1606  0.0671
 7048SOL    HW132606   2.377   1.222  14.298  0.1879 -0.3672 -0.7936
 7048SOL    HW232607   2.423   1.302  14.177 -1.5154 -1.7789 -0.1713
 7049SOL     OW32608   0.344   2.118   2.928 -0.4256 -0.7354 -0.3269
 7049SOL    HW132609   0.263   2.164   2.908 -0.6304  0.3056  2.9548
 7049SOL    HW232610   0.394   2.197   2.952  0.5871 -0.8304 -2.1008
 7050SOL     OW32611   0.705   3.755   6.854  0.3903  0.2508  0.1940
 7050SOL    HW132612   0.691   3.789   6.766 -0.7385 -0.9404 -0.0966
 7050SOL    HW232613   0.631   3.694   6.864  0.0856  0.5614 -0.1939
 7051SOL     OW32614   3.898   2.247  16.875 -0.2609  0.1029 -0.3833
 7051SOL    HW132615   3.852   2.313  16.927  0.2481 -0.4273  0.7437
 7051SOL    HW232616   3.834   2.176  16.866 -0.4690  0.2162  0.1506
 7052SOL     OW32617   3.743   3.163  14.589 -0.2964 -0.3468  0.4152
 7052SOL    HW132618   3.696   3.082  14.566 -1.0182  0.1274  0.2210
 7052SOL    HW232619   3.685   3.193  14.659 -0.2381  1.5484 -0.3586
 7053SOL     OW32620   3.791   3.272   8.374  0.4474  0.7321  0.1512
 7053SOL    HW132621   3.739   3.264   8.294  0.9457 -2.5723  0.1440
 7053SOL    HW232622   3.763   3.359   8.402  0.4726  1.4777 -2.1006
 7054SOL     OW32623   2.842   4.712   7.356 -0.7697  0.4434 -0.2449
 7054SOL    HW132624   2.864   0.056   7.291  1.4504 -0.6019 -0.5812
 7054SOL    HW232625   2.921   4.720   7.409  0.0694  1.4180 -1.6010
 7055SOL     OW32626   2.445   1.515  12.542 -0.2858  0.1319 -0.0380
 7055SOL    HW132627   2.455   1.429  12.501 -1.0691 -0.0971  0.2509
 7055SOL    HW232628   2.534   1.549  12.532 -0.6985  1.2932  0.2727
 7056SOL     OW32629   3.557   1.864  14.926 -0.0079  0.5209  0.0365
 7056SOL    HW132630   3.466   1.848  14.901 -0.3359 -0.2014  1.7055
 7056SOL    HW232631   3.566   1.959  14.917 -0.9563  0.7178  1.1006
 7057SOL     OW32632   1.294   3.506   4.352 -0.1779  0.1091 -0.2832
 7057SOL    HW132633   1.209   3.465   4.362 -0.1760  0.5983  1.6998
 7057SOL    HW232634   1.318   3.518   4.444 -0.0007 -1.3958 -0.1339
 7058SOL     OW32635   1.854   3.606   9.108 -0.3227 -0.4881  0.1335
 7058SOL    HW132636   1.793   3.590   9.036 -0.9636 -0.6736  0.7251
 7058SOL    HW232637   1.841   3.526   9.159  0.1458  0.1673  1.2864
 7059SOL     OW32638   3.310   4.245   2.192  0.1127  0.1306 -0.1620
 7059SOL    HW132639   3.270   4.253   2.279 -2.6449 -0.0448 -1.4211
 7059SOL    HW232640   3.231   4.249   2.139  0.1563  0.6089 -0.1914
 7060SOL     OW32641   4.328   1.837  16.393  0.3356 -0.1491  0.2107
 7060SOL    HW132642   4.308   1.864  16.483 -1.2304 -1.6364  0.3119
 7060SOL    HW232643   4.423   1.826  16.394  0.1090 -2.1194  0.4909
 7061SOL     OW32644   3.628   0.485   9.602  0.0995 -0.2500  0.3014
 7061SOL    HW132645   3.679   0.532   9.668 -0.6293  1.3110 -0.2562
 7061SOL    HW232646   3.655   0.395   9.619 -1.7804 -1.0415 -0.8522
 7062SOL     OW32647   2.875   2.821   4.988  0.1370 -0.2840 -0.4552
 7062SOL    HW132648   2.804   2.885   4.995 -0.7151 -1.1509 -1.3523
 7062SOL    HW232649   2.930   2.833   5.066  0.4933  3.5075 -1.2973
 7063SOL     OW32650   4.038   3.342  13.973 -0.4704  0.1089  0.1834
 7063SOL    HW132651   3.986   3.336  13.892  0.9635  1.5306 -0.8608
 7063SOL    HW232652   3.970   3.344  14.040 -0.7672  0.6886 -0.1294
 7064SOL     OW32653   2.701   3.365   3.536  0.2170  0.2104  0.0662
 7064SOL    HW132654   2.691   3.410   3.620 -2.0391  1.9090 -1.1290
 7064SOL    HW232655   2.665   3.436   3.484  2.3180  1.8841  0.9007
 7065SOL     OW32656   0.762   1.292   4.296  0.1504 -0.2342 -0.2565
 7065SOL    HW132657   0.767   1.379   4.337  0.6013 -0.4559  0.1538
 7065SOL    HW232658   0.747   1.312   4.204  1.3630  0.0865 -0.3872
 7066SOL     OW32659   3.961   3.170  16.740 -0.0813 -0.2767 -0.2512
 7066SOL    HW132660   3.915   3.192  16.659 -1.1282  2.0693  0.9787
 7066SOL    HW232661   4.020   3.242  16.764  0.0720  0.1691 -1.9721
 7067SOL     OW32662   2.241   1.415   3.008 -0.0934 -0.0374 -0.0842
 7067SOL    HW132663   2.278   1.328   3.020  0.0007  0.0695  0.4081
 7067SOL    HW232664   2.256   1.421   2.913  0.7946 -0.1358  0.0463
 7068SOL     OW32665   0.758   3.252   5.149  0.0953 -0.5138  0.5315
 7068SOL    HW132666   0.843   3.210   5.158 -0.9927 -2.1768  2.9491
 7068SOL    HW232667   0.753   3.311   5.223 -1.4088 -0.6680  0.5559
 7069SOL     OW32668   2.969   4.057  13.920 -0.7821 -0.7656 -0.1154
 7069SOL    HW132669   3.035   4.123  13.900  2.4647 -3.2255  2.3984
 7069SOL    HW232670   3.009   4.022  13.999  0.0739  2.2661  0.7964
 7070SOL     OW32671   3.300   1.397  11.797 -0.6866 -0.1727  0.8242
 7070SOL    HW132672   3.231   1.458  11.822  0.5782  1.2738  0.7510
 7070SOL    HW232673   3.255   1.342  11.733 -1.7403  1.2104  0.3919
 7071SOL     OW32674   0.822   0.446   5.449  0.0025  0.3119 -0.2309
 7071SOL    HW132675   0.841   0.369   5.395  0.4832 -0.4150  0.9819
 7071SOL    HW232676   0.909   0.484   5.445  0.7485 -1.2291  1.3967
 7072SOL     OW32677   1.912   1.036   0.503  0.4262  0.6832  0.5717
 7072SOL    HW132678   1.817   1.051   0.501  0.1621 -0.9790  0.4955
 7072SOL    HW232679   1.919   0.944   0.481  2.0096  1.1423 -0.8278
 7073SOL     OW32680   1.425   0.621   5.562  0.4791 -0.1035 -0.2574
 7073SOL    HW132681   1.344   0.581   5.594  1.1351 -1.3420 -0.1639
 7073SOL    HW232682   1.465   0.630   5.649  0.3136 -0.3683 -0.1507
 7074SOL     OW32683   2.171   2.470   1.925  0.3270  0.7327 -0.0972
 7074SOL    HW132684   2.252   2.516   1.947  1.6038 -0.6465 -1.8512
 7074SOL    HW232685   2.101   2.532   1.943  0.1024  0.0291  1.4259
 7075SOL     OW32686   0.123   3.840   0.989 -0.1208 -0.2839 -0.0243
 7075SOL    HW132687   0.203   3.794   1.016 -0.8215 -0.0935  2.3660
 7075SOL    HW232688   0.155   3.925   0.961  0.6429 -0.5008  0.1995
 7076SOL     OW32689   3.908   3.866   3.704 -0.6969 -0.1395 -0.0174
 7076SOL    HW132690   3.973   3.804   3.737  2.2646  2.0188 -1.8458
 7076SOL    HW232691   3.844   3.803   3.670 -3.8969  2.4882  1.0711
 7077SOL     OW32692   3.150   2.253   7.874  0.0557 -0.2595  0.2005
 7077SOL    HW132693   3.150   2.348   7.889  2.1191  0.0336 -1.6852
 7077SOL    HW232694   3.097   2.225   7.948  0.3736 -0.5171  0.3289
 7078SOL     OW32695   2.922   1.560   0.304  0.4344 -0.1109  0.1442
 7078SOL    HW132696   2.994   1.579   0.363  0.3533 -0.0207  0.2129
 7078SOL    HW232697   2.958   1.473   0.286 -1.6637 -1.0835  0.6751
 7079SOL     OW32698   0.752   3.907   6.567  0.1222  0.1008  0.0538
 7079SOL    HW132699   0.780   3.982   6.512  1.1458  0.6214  1.2771
 7079SOL    HW232700   0.827   3.850   6.550 -0.7136 -1.1106  0.4365
 7080SOL     OW32701   2.054   2.346  15.109 -0.9879 -0.0987  0.0295
 7080SOL    HW132702   2.134   2.292  15.114  0.5413  2.0554 -1.5393
 7080SOL    HW232703   2.026   2.355  15.200  0.4025 -1.5474  0.5979
 7081SOL     OW32704   2.794   3.705  11.796  0.1098  1.0119  0.4636
 7081SOL    HW132705   2.874   3.757  11.798  0.5060  0.4457 -0.9037
 7081SOL    HW232706   2.752   3.735  11.715  1.7551  1.0490 -0.3736
 7082SOL     OW32707   2.892   0.035  13.689 -0.1601  0.1577  0.0382
 7082SOL    HW132708   2.852   0.054  13.774 -0.6393  1.2755 -0.4518
 7082SOL    HW232709   2.967   0.095  13.693  0.5480 -0.6981 -0.3789
 7083SOL     OW32710   1.169   4.173   5.996 -0.1954 -0.2656 -0.0319
 7083SOL    HW132711   1.207   4.193   5.911  0.4925  0.1593  0.3782
 7083SOL    HW232712   1.242   4.124   6.036 -1.8603 -2.1080  0.7470
 7084SOL     OW32713   0.151   0.819   5.285 -0.0421  0.1250 -0.2103
 7084SOL    HW132714   0.199   0.900   5.266  0.5691 -0.5360 -1.4751
 7084SOL    HW232715   0.211   0.757   5.243 -1.9570 -0.8920 -1.4361
 7085SOL     OW32716   1.506   2.110  12.197  0.1259 -0.2854  0.6409
 7085SOL    HW132717   1.451   2.033  12.210 -0.4590  0.1806  0.8790
 7085SOL    HW232718   1.563   2.104  12.274  0.0524 -0.3391  0.6907
 7086SOL     OW32719   0.916   3.273   8.723 -0.0939  0.1088  0.3735
 7086SOL    HW132720   0.833   3.318   8.708  0.5885  1.2361  0.0067
 7086SOL    HW232721   0.916   3.188   8.678 -2.3298 -0.3185  1.1886
 7087SOL     OW32722   0.415   3.837  14.090 -0.4356 -0.0601 -0.0272
 7087SOL    HW132723   0.453   3.886  14.017  1.0771  1.5917  1.8641
 7087SOL    HW232724   0.447   3.748  14.075 -0.3412 -0.0595  0.1754
 7088SOL     OW32725   4.176   3.479   8.506 -0.4453  0.0181 -0.8475
 7088SOL    HW132726   4.148   3.562   8.468 -3.3077 -0.2021  0.7949
 7088SOL    HW232727   4.245   3.460   8.442 -0.8697  0.6095 -1.4873
 7089SOL     OW32728   3.673   4.102  16.531 -0.7580 -0.0842 -0.1852
 7089SOL    HW132729   3.584   4.119  16.500 -0.4719  0.8712 -0.5020
 7089SOL    HW232730   3.666   4.028  16.591  4.0969  0.0280  0.5735
 7090SOL     OW32731   0.235   3.865   8.692 -0.0646  0.4631 -0.3854
 7090SOL    HW132732   0.267   3.930   8.755 -3.2971 -0.4069  2.1693
 7090SOL    HW232733   0.140   3.878   8.684  0.2447  2.1025 -1.5640
 7091SOL     OW32734   4.128   1.007   2.280  0.0710 -0.7692  0.4259
 7091SOL    HW132735   4.159   0.974   2.196  0.5698 -1.8441  1.0302
 7091SOL    HW232736   4.069   1.078   2.254 -0.2392 -1.3673 -0.4777
 7092SOL     OW32737   3.319   2.638   6.053 -0.0918  0.1527 -0.4620
 7092SOL    HW132738   3.279   2.687   5.982 -2.4060 -1.7718 -0.4900
 7092SOL    HW232739   3.252   2.638   6.122 -0.2144  1.9892 -0.5768
 7093SOL     OW32740   2.397   1.352  14.000  0.0051 -0.3871  0.4993
 7093SOL    HW132741   2.476   1.301  13.981 -0.3754 -0.3515 -1.1754
 7093SOL    HW232742   2.414   1.424  13.940 -0.3175  0.1591  1.0728
 7094SOL     OW32743   3.768   2.393   7.447  0.6454 -0.3954  0.5648
 7094SOL    HW132744   3.690   2.447   7.431 -0.9398 -3.3856 -1.9588
 7094SOL    HW232745   3.800   2.411   7.535 -2.4446  0.8982  1.4352
 7095SOL     OW32746   1.824   0.522  17.361  0.5810  0.4350  1.0460
 7095SOL    HW132747   1.770   0.601  17.351  0.0734 -0.0732 -0.1840
 7095SOL    HW232748   1.859   0.517  17.273  0.3439 -1.3953  1.0610
 7096SOL     OW32749   0.620   2.156   6.737 -0.3298 -0.3873  0.1776
 7096SOL    HW132750   0.639   2.102   6.660  0.7622 -0.8161  0.7431
 7096SOL    HW232751   0.697   2.214   6.740 -0.1061 -0.6119 -1.1931
 7097SOL     OW32752   1.807   4.619   0.538 -0.5255  0.4274  0.1807
 7097SOL    HW132753   1.721   4.592   0.570 -1.4949  1.3666 -1.5616
 7097SOL    HW232754   1.842   4.598   0.624  1.5666 -1.7245 -1.2245
 7098SOL     OW32755   3.017   1.134  11.926 -0.0509  1.1025 -0.3815
 7098SOL    HW132756   2.977   1.047  11.936  0.9663  0.7989  1.0420
 7098SOL    HW232757   2.951   1.171  11.868  0.4354 -0.0060 -1.6471
 7099SOL     OW32758   3.649   2.732   3.906 -0.4493  0.3037  0.4645
 7099SOL    HW132759   3.663   2.806   3.847  2.5672  0.8317  1.8246
 7099SOL    HW232760   3.597   2.780   3.970 -2.1385  2.1673 -2.2976
 7100SOL     OW32761   3.348   1.167   7.052 -0.5176 -0.5602  0.3740
 7100SOL    HW132762   3.371   1.257   7.072 -2.1581 -0.7500  3.0252
 7100SOL    HW232763   3.294   1.133   7.123 -0.1390 -0.2294  0.8112
 7101SOL     OW32764   2.036   2.385   2.540  0.2949  0.0559  0.1025
 7101SOL    HW132765   1.979   2.343   2.604 -0.5353  2.3056  0.8305
 7101SOL    HW232766   2.115   2.332   2.532 -0.4375 -0.8960 -0.7931
 7102SOL     OW32767   3.014   3.954   3.605 -0.3842 -0.1681  0.7745
 7102SOL    HW132768   2.992   3.964   3.697 -2.4617 -0.8636  0.3547
 7102SOL    HW232769   2.926   3.934   3.572  0.0925 -0.6824 -0.1935
 7103SOL     OW32770   2.064   0.101   5.278  0.2838 -0.5066 -0.2828
 7103SOL    HW132771   1.990   0.105   5.217  1.0391 -1.9040 -1.2957
 7103SOL    HW232772   2.036   0.163   5.345 -3.7650 -0.6265 -1.8268
 7104SOL     OW32773   3.745   3.854   2.419  0.1717 -0.1950 -0.4829
 7104SOL    HW132774   3.691   3.901   2.355 -0.1048 -0.1645 -0.2260
 7104SOL    HW232775   3.826   3.860   2.369 -0.6792 -1.6595 -2.0629
 7105SOL     OW32776   1.941   1.288   7.204  0.1731  0.0102 -0.2075
 7105SOL    HW132777   1.846   1.277   7.213  0.0669 -1.4883 -3.0175
 7105SOL    HW232778   1.966   1.304   7.294 -0.1766  1.2130 -0.3179
 7106SOL     OW32779   2.173   3.294   2.742  0.2363 -1.2170 -0.1112
 7106SOL    HW132780   2.264   3.322   2.755 -0.0394  0.0542 -0.9830
 7106SOL    HW232781   2.132   3.372   2.705  3.8647  0.5324 -0.4079
 7107SOL     OW32782   4.060   2.680   1.526  0.0644  0.0168  0.5219
 7107SOL    HW132783   4.088   2.703   1.437 -4.4580  1.3302 -0.5932
 7107SOL    HW232784   3.966   2.666   1.513  0.2869 -2.0366  1.1869
 7108SOL     OW32785   4.327   4.004   1.936  0.2908 -0.4169  0.4068
 7108SOL    HW132786   4.344   3.965   1.850 -2.5810 -1.4708  0.3212
 7108SOL    HW232787   4.311   4.097   1.921  0.2973 -0.5885 -0.6673
 7109SOL     OW32788   0.517   4.377  17.034  0.8614 -0.8023 -0.1896
 7109SOL    HW132789   0.600   4.425  17.042  1.2428 -1.7165  1.3641
 7109SOL    HW232790   0.540   4.342  16.948  3.5496  1.2339 -0.2998
 7110SOL     OW32791   4.566   3.828  11.928 -0.1259 -0.4937 -0.4040
 7110SOL    HW132792   4.639   3.888  11.911 -0.7345  0.0711 -1.0485
 7110SOL    HW232793   4.618   3.751  11.950 -0.7543 -0.9608 -0.5435
 7111SOL     OW32794   1.625   3.528   7.279 -0.1821 -0.1960 -0.6712
 7111SOL    HW132795   1.570   3.606   7.272  0.1180  0.4478  3.8058
 7111SOL    HW232796   1.586   3.489   7.357 -1.0214 -1.1022 -1.5489
 7112SOL     OW32797   2.599   3.782   6.617 -0.2599  0.4326 -0.2059
 7112SOL    HW132798   2.655   3.843   6.664  0.0426  1.5814 -2.0650
 7112SOL    HW232799   2.607   3.718   6.688 -0.8716 -0.7378 -1.1774
 7113SOL     OW32800   2.246   2.363   7.541 -0.1753  0.1701 -0.1956
 7113SOL    HW132801   2.271   2.448   7.506  1.1377  0.4350  1.3988
 7113SOL    HW232802   2.253   2.389   7.633 -1.1825  1.8438 -0.5894
 7114SOL     OW32803   3.763   1.128   6.041  0.2432  0.3999 -0.1291
 7114SOL    HW132804   3.758   1.069   6.115  2.3999 -0.5993 -0.7809
 7114SOL    HW232805   3.809   1.074   5.977 -0.3209  3.2410 -2.9479
 7115SOL     OW32806   0.260   4.651  13.409 -0.2814 -0.3063 -0.5933
 7115SOL    HW132807   0.293   4.659  13.319 -1.4455 -1.5942 -1.1342
 7115SOL    HW232808   0.263   0.021  13.430  0.4617 -0.1088 -1.5695
 7116SOL     OW32809   0.526   0.156   3.672  0.1408  0.5761 -0.3009
 7116SOL    HW132810   0.460   0.092   3.643  0.0087  0.1039  1.0678
 7116SOL    HW232811   0.493   0.218   3.606 -1.8350  0.1501  0.2705
 7117SOL     OW32812   1.682   2.152   6.782  0.1706  0.4440  0.2582
 7117SOL    HW132813   1.641   2.068   6.802  2.5933 -1.7586 -3.9868
 7117SOL    HW232814   1.613   2.193   6.729  0.3820 -0.4639 -0.7311
 7118SOL     OW32815   4.499   3.446   5.157 -0.3298 -0.5005  0.6950
 7118SOL    HW132816   4.526   3.537   5.153  0.0197 -0.6470 -0.4482
 7118SOL    HW232817   4.490   3.433   5.062 -3.9686 -1.3585  1.1596
 7119SOL     OW32818   3.326   0.706   8.438  0.0672  0.5210  0.1797
 7119SOL    HW132819   3.377   0.696   8.518 -0.3961  0.3912  0.4621
 7119SOL    HW232820   3.326   0.615   8.408 -0.6119 -0.4249  3.0837
 7120SOL     OW32821   3.495   0.536  12.362 -0.0063  0.1827 -0.0084
 7120SOL    HW132822   3.525   0.445  12.363 -0.5407  0.0214  0.8576
 7120SOL    HW232823   3.476   0.533  12.455  0.1558 -1.8337 -0.0287
 7121SOL     OW32824   3.703   3.328   6.293  0.6001 -0.0079 -0.0709
 7121SOL    HW132825   3.645   3.256   6.318 -1.4116  0.5984 -2.9845
 7121SOL    HW232826   3.693   3.380   6.373 -1.4091 -1.1022  0.3882
 7122SOL     OW32827   0.334   4.636   2.791 -0.0074 -0.5424 -0.2634
 7122SOL    HW132828   0.317   4.614   2.699 -0.8031 -1.8798  0.2033
 7122SOL    HW232829   0.413   4.688   2.779 -0.7292  0.1424 -2.1579
 7123SOL     OW32830   4.303   0.185   0.722  0.3880 -0.0464 -0.0381
 7123SOL    HW132831   4.305   0.270   0.766 -1.9502 -0.0561  0.1209
 7123SOL    HW232832   4.212   0.187   0.693  1.0907 -0.2694 -2.2435
 7124SOL     OW32833   2.632   4.432   2.488  0.3206 -0.0195  0.0028
 7124SOL    HW132834   2.560   4.385   2.531  0.4033 -1.5309 -1.5084
 7124SOL    HW232835   2.679   4.354   2.459  0.2789 -0.9000  2.3093
 7125SOL     OW32836   0.182   3.198   4.316  0.3497 -0.6230  0.5208
 7125SOL    HW132837   0.220   3.265   4.372  1.4420  0.3137 -1.3436
 7125SOL    HW232838   0.248   3.128   4.317 -0.0644 -1.0255 -0.3210
 7126SOL     OW32839   1.868   4.452  14.445 -0.0632  0.1097  0.3468
 7126SOL    HW132840   1.842   4.369  14.406  0.7967  1.5633 -3.3533
 7126SOL    HW232841   1.829   4.507  14.376 -0.0604  0.8112  0.9033
 7127SOL     OW32842   2.724   3.705   9.222  0.1589 -0.5466 -0.2307
 7127SOL    HW132843   2.741   3.724   9.314 -1.2483 -1.2160  0.1639
 7127SOL    HW232844   2.771   3.624   9.205 -0.1582 -1.3470  2.6479
 7128SOL     OW32845   2.929   0.255  11.215  0.6006 -0.1446 -0.5991
 7128SOL    HW132846   2.878   0.290  11.142 -0.6733 -0.6007  0.0710
 7128SOL    HW232847   2.926   0.337  11.265 -0.0296 -0.2873 -0.4002
 7129SOL     OW32848   0.479   4.491   1.610 -0.0747  0.1701 -0.6170
 7129SOL    HW132849   0.556   4.532   1.571  0.5146 -0.1333  0.2158
 7129SOL    HW232850   0.407   4.497   1.547 -1.0659 -1.1462  0.3870
 7130SOL     OW32851   1.274   0.079  14.024  0.4865  0.6837  0.0419
 7130SOL    HW132852   1.263   0.013  13.955 -1.2365 -0.6413  1.5749
 7130SOL    HW232853   1.210   0.144  13.996  0.9098  1.2593  0.4163
 7131SOL     OW32854   0.976   1.938   7.984  0.2726 -0.0074 -0.0359
 7131SOL    HW132855   0.950   2.030   7.991 -1.8433 -0.5890 -0.2118
 7131SOL    HW232856   0.985   1.935   7.889 -0.1382 -2.5451  0.0128
 7132SOL     OW32857   1.420   2.451   2.363 -0.6287 -0.2590  0.5644
 7132SOL    HW132858   1.457   2.367   2.334 -0.5117  0.1477 -0.4485
 7132SOL    HW232859   1.499   2.504   2.350 -2.1191  1.2726 -2.1141
 7133SOL     OW32860   3.985   1.364   7.212 -0.1964  0.1058 -0.2223
 7133SOL    HW132861   3.956   1.301   7.145  1.0111 -0.1578 -0.4960
 7133SOL    HW232862   3.907   1.416   7.233  1.5217  2.5053  0.2087
 7134SOL     OW32863   4.678   1.460   9.635 -0.3627 -0.7659  0.6657
 7134SOL    HW132864   4.601   1.405   9.621 -0.7893 -0.3497  1.3684
 7134SOL    HW232865   4.650   1.547   9.607  0.8844 -0.4862  0.2547
 7135SOL     OW32866   1.079   1.823  14.794  0.6208  0.2159  0.4475
 7135SOL    HW132867   1.119   1.754  14.742  0.4055 -0.5765  1.3416
 7135SOL    HW232868   1.153   1.882  14.804  1.1480 -0.1645 -1.2164
 7136SOL     OW32869   0.315   1.034   5.266 -0.9104  0.9570  0.2343
 7136SOL    HW132870   0.387   1.036   5.330 -0.6547 -4.5440  0.0944
 7136SOL    HW232871   0.321   1.127   5.241 -1.3938  0.6670 -0.9514
 7137SOL     OW32872   3.847   4.471   7.946 -0.0521 -0.5663 -0.2563
 7137SOL    HW132873   3.803   4.462   7.861  0.9749 -2.2276 -0.6172
 7137SOL    HW232874   3.792   4.526   8.002  0.4631  0.6738 -0.9710
 7138SOL     OW32875   2.926   4.175  16.744  0.0732 -0.3238 -0.0275
 7138SOL    HW132876   2.889   4.215  16.823  2.8123  0.2053  0.9762
 7138SOL    HW232877   2.997   4.238  16.733  0.3663 -0.6418  0.0586
 7139SOL     OW32878   2.078   1.820   0.462 -0.1173 -0.0067 -0.6127
 7139SOL    HW132879   2.049   1.735   0.430 -1.4280  0.4810 -0.7418
 7139SOL    HW232880   2.000   1.855   0.506 -0.9652  0.2505 -2.3037
 7140SOL     OW32881   2.462   4.381   0.412  0.6727 -0.1580  0.1271
 7140SOL    HW132882   2.504   4.398   0.496 -2.1497  1.7570  1.1412
 7140SOL    HW232883   2.370   4.391   0.434  0.6068 -3.2813  1.2908
 7141SOL     OW32884   2.353   1.365  14.542 -0.1877 -0.2529 -0.4211
 7141SOL    HW132885   2.336   1.279  14.581  1.3042 -1.0639 -1.5189
 7141SOL    HW232886   2.309   1.358  14.457 -1.3994 -0.0107  0.1842
 7142SOL     OW32887   0.762   0.166   3.543  0.1610  0.2711  0.4853
 7142SOL    HW132888   0.669   0.169   3.564 -0.2257 -0.4297 -1.0589
 7142SOL    HW232889   0.801   0.177   3.629 -1.4569 -1.0320  1.3646
 7143SOL     OW32890   3.108   0.799   9.052  0.3870 -0.7869  0.6875
 7143SOL    HW132891   3.061   0.735   9.106 -0.2362  0.5785  1.7618
 7143SOL    HW232892   3.053   0.877   9.049 -1.3352 -2.0403 -0.1828
 7144SOL     OW32893   3.018   3.682   6.056 -0.1153  0.4901 -0.4176
 7144SOL    HW132894   3.053   3.733   6.129  1.8448 -1.8170  0.2729
 7144SOL    HW232895   2.931   3.719   6.045  0.3506  0.8519 -2.8763
 7145SOL     OW32896   4.680   0.866   8.706  0.1096  0.1013  0.3926
 7145SOL    HW132897   4.719   0.856   8.793  0.7400  2.4660  0.4011
 7145SOL    HW232898   0.013   0.935   8.671  2.0146 -0.7192  1.8784
 7146SOL     OW32899   0.080   3.631   9.797  0.6629  0.2732 -0.1352
 7146SOL    HW132900   0.111   3.604   9.710  0.5300 -0.9849  0.2088
 7146SOL    HW232901   0.038   3.713   9.773  1.2481  0.7891  0.5925
 7147SOL     OW32902   3.302   3.505  12.591 -0.3273  0.0804  0.2051
 7147SOL    HW132903   3.224   3.551  12.559  0.6798  0.8783 -1.1234
 7147SOL    HW232904   3.292   3.423  12.544 -1.1047  0.2462  0.0731
 7148SOL     OW32905   3.162   1.649  13.748  0.8893 -0.7253  0.1723
 7148SOL    HW132906   3.117   1.638  13.664 -2.0408  0.3813  1.5842
 7148SOL    HW232907   3.235   1.705  13.723 -1.5267  0.9377 -3.2637
 7149SOL     OW32908   2.203   1.101   0.476  0.2987  0.1497  0.1356
 7149SOL    HW132909   2.111   1.123   0.487  0.0699  0.3600 -2.2165
 7149SOL    HW232910   2.207   1.083   0.382 -2.0388  0.3722  0.0099
 7150SOL     OW32911   4.083   0.176  14.111 -0.4113 -0.4450  0.3308
 7150SOL    HW132912   4.116   0.210  14.194  0.5946  1.8070 -0.9879
 7150SOL    HW232913   4.159   0.120  14.096 -1.2537 -1.2467 -0.9586
 7151SOL     OW32914   2.849   2.409  16.169  0.0894  0.1743  0.3185
 7151SOL    HW132915   2.837   2.323  16.208  0.8140  0.5312  1.3234
 7151SOL    HW232916   2.871   2.393  16.077  0.3527  0.6301  0.2985
 7152SOL     OW32917   3.319   3.809   5.893  0.2811 -0.3590  0.1694
 7152SOL    HW132918   3.325   3.720   5.927  1.0341  0.4432  2.1649
 7152SOL    HW232919   3.407   3.840   5.916  0.7863 -1.5658 -0.1662
 7153SOL     OW32920   2.532   0.705  13.615  0.4172 -0.5721  0.4677
 7153SOL    HW132921   2.462   0.720  13.551  0.2680  0.3360  0.8342
 7153SOL    HW232922   2.505   0.756  13.692 -0.5765  1.1818 -1.0289
 7154SOL     OW32923   2.718   2.612  11.766 -0.0072 -0.0178  0.0835
 7154SOL    HW132924   2.769   2.567  11.833 -1.4198  0.3205  1.3961
 7154SOL    HW232925   2.777   2.625  11.693  2.2124 -2.8493  1.3592
 7155SOL     OW32926   3.835   3.613   0.402  0.2420  0.2267 -0.3312
 7155SOL    HW132927   3.791   3.588   0.483  0.9718  1.6009  0.4843
 7155SOL    HW232928   3.792   3.557   0.337  0.4651 -2.8749  2.2045
 7156SOL     OW32929   0.644   3.730   3.038  0.5329 -0.2866 -0.2711
 7156SOL    HW132930   0.607   3.807   3.080  1.7054  0.3216 -0.3335
 7156SOL    HW232931   0.682   3.760   2.955 -2.8716  0.5901 -1.4890
 7157SOL     OW32932   0.972   1.807   7.395 -0.0360  0.1865 -0.2995
 7157SOL    HW132933   0.876   1.811   7.391 -0.0368 -0.7263 -1.1748
 7157SOL    HW232934   0.991   1.866   7.468 -2.8278  1.3299 -0.5045
 7158SOL     OW32935   2.827   0.845   5.361 -0.0124 -0.0601  0.2720
 7158SOL    HW132936   2.765   0.893   5.306  0.4431 -0.2524 -0.4052
 7158SOL    HW232937   2.903   0.858   5.305  2.5216 -0.6389  3.6092
 7159SOL     OW32938   1.317   4.458   4.101 -0.0067  0.0080 -0.5856
 7159SOL    HW132939   1.277   4.485   4.018  1.1728 -3.4152 -2.2836
 7159SOL    HW232940   1.272   4.375   4.113 -0.3507  0.5407  1.7437
 7160SOL     OW32941   0.212   0.979   2.556 -0.2788 -0.3464 -0.2418
 7160SOL    HW132942   0.145   1.006   2.619  0.0641  1.5569 -0.7010
 7160SOL    HW232943   0.177   0.896   2.523 -0.4829 -0.6252  0.6586
 7161SOL     OW32944   3.564   0.789   7.212  0.1805  0.0555  0.1739
 7161SOL    HW132945   3.618   0.853   7.166  1.0203 -0.5900  0.2737
 7161SOL    HW232946   3.482   0.796   7.163  0.1361 -2.2333 -0.0787
 7162SOL     OW32947   1.232   3.990   7.698  0.5771  0.0859  0.1092
 7162SOL    HW132948   1.242   4.027   7.611 -1.5550 -0.9186 -0.5693
 7162SOL    HW232949   1.296   4.048   7.739 -0.2109  0.4325  0.8459
 7163SOL     OW32950   2.232   3.819  15.804 -0.1177 -0.3001 -0.1643
 7163SOL    HW132951   2.150   3.869  15.809 -0.6233 -1.3177  1.6772
 7163SOL    HW232952   2.205   3.737  15.762 -1.5803 -0.4912  1.1457
 7164SOL     OW32953   1.044   2.869   0.871 -0.3510 -0.2851 -0.6017
 7164SOL    HW132954   0.995   2.787   0.879  0.0240 -0.7572 -2.9994
 7164SOL    HW232955   1.124   2.839   0.829 -0.3395  0.0017 -0.7775
 7165SOL     OW32956   1.088   0.859   4.974 -0.0881  0.3389 -0.1184
 7165SOL    HW132957   0.998   0.833   4.955 -0.2972  0.4961  0.6539
 7165SOL    HW232958   1.079   0.890   5.065  1.2503 -1.7806  0.7295
 7166SOL     OW32959   2.031   2.375   2.165 -0.2196  0.1529 -0.2331
 7166SOL    HW132960   2.074   2.460   2.164  1.6547 -0.8008 -1.5036
 7166SOL    HW232961   2.062   2.345   2.080  2.9271 -1.6232  1.5438
 7167SOL     OW32962   4.345   3.240   2.528  0.2088  0.0032  0.1369
 7167SOL    HW132963   4.343   3.334   2.544  0.6239 -0.0050  0.2495
 7167SOL    HW232964   4.316   3.209   2.614 -1.0751  0.4019 -0.1612
 7168SOL     OW32965   0.579   1.718   1.676  0.4124  0.2020 -0.0861
 7168SOL    HW132966   0.562   1.810   1.694 -0.3718  0.5800 -2.8713
 7168SOL    HW232967   0.624   1.736   1.593  0.4704  1.0615  0.1340
 7169SOL     OW32968   4.664   3.732   1.951  0.9170 -0.6475  0.1615
 7169SOL    HW132969   0.010   3.673   1.924  0.0838 -1.1721 -0.8401
 7169SOL    HW232970   4.598   3.663   1.960  0.2384  0.2942  2.3076
 7170SOL     OW32971   1.116   3.361   9.397  0.2411 -0.2291  0.6617
 7170SOL    HW132972   1.204   3.382   9.430  0.0570  1.7796 -0.1306
 7170SOL    HW232973   1.112   3.431   9.332 -0.2187  0.4231  1.3808
 7171SOL     OW32974   4.014   3.259   3.826 -0.0264 -0.0284 -0.5893
 7171SOL    HW132975   4.045   3.169   3.815 -1.8847 -0.6602 -0.6000
 7171SOL    HW232976   4.092   3.313   3.813  1.3564 -2.0929 -0.8602
 7172SOL     OW32977   2.596   1.777   3.630  0.3122  0.1434  0.2458
 7172SOL    HW132978   2.607   1.869   3.654  1.0579  0.0689  0.1629
 7172SOL    HW232979   2.608   1.775   3.535 -0.6811 -0.2905  0.1194
 7173SOL     OW32980   4.235   0.656   5.345  0.4079 -1.0752 -0.3773
 7173SOL    HW132981   4.278   0.675   5.428 -2.8640 -0.9924  1.3053
 7173SOL    HW232982   4.271   0.727   5.292  1.2561 -0.1211  1.4928
 7174SOL     OW32983   4.699   4.565   3.000 -0.4830 -0.4594  0.1839
 7174SOL    HW132984   4.641   4.489   2.997 -0.2437 -0.6743  0.9830
 7174SOL    HW232985   4.709   4.588   2.908  1.2049  1.6657  0.8814
 7175SOL     OW32986   2.729   2.354   1.184  0.0516 -0.3806  0.2587
 7175SOL    HW132987   2.784   2.390   1.114  0.1196  0.0835  0.5510
 7175SOL    HW232988   2.798   2.296   1.218 -1.5439 -0.7439  2.8526
 7176SOL     OW32989   0.825   2.938   4.837  0.0811 -0.4198  0.0044
 7176SOL    HW132990   0.765   2.889   4.893  1.1424  0.8686  2.2133
 7176SOL    HW232991   0.857   2.879   4.768 -0.0267 -1.3424  0.7417
 7177SOL     OW32992   1.179   3.031   7.221 -0.6972 -0.9037  0.0286
 7177SOL    HW132993   1.263   2.991   7.200 -0.7520 -0.9974 -0.0134
 7177SOL    HW232994   1.181   3.033   7.317  0.5075  1.4774 -0.0479
 7178SOL     OW32995   2.164   1.053   4.664  0.1595 -0.3643 -0.0026
 7178SOL    HW132996   2.116   1.136   4.656 -0.5010 -0.6697  0.8190
 7178SOL    HW232997   2.141   1.035   4.755 -2.2207  1.2773 -0.2740
 7179SOL     OW32998   2.340   1.135   8.608  0.1454 -0.6792 -0.0534
 7179SOL    HW132999   2.292   1.062   8.570  0.2946 -1.0029  0.3903
 7179SOL    HW233000   2.282   1.182   8.668  0.2702  1.3904 -1.5458
 7180SOL     OW33001   3.079   4.580  15.439 -0.4178  0.0102  0.1796
 7180SOL    HW133002   2.983   4.583  15.447 -0.5065 -0.5034 -0.6296
 7180SOL    HW233003   3.088   4.518  15.511 -1.8645 -0.8023 -0.3255
 7181SOL     OW33004   1.494   1.082   1.019 -0.0556 -0.6190  0.3483
 7181SOL    HW133005   1.551   1.159   1.026 -0.2647 -0.5406  1.2067
 7181SOL    HW233006   1.555   1.015   1.049  0.2406  0.5652  2.3990
 7182SOL     OW33007   3.117   2.875  10.389 -0.3551 -0.1805  0.5891
 7182SOL    HW133008   3.082   2.933  10.321  2.6354  0.3486 -0.4777
 7182SOL    HW233009   3.207   2.866  10.360  0.1856  0.6078  2.0317
 7183SOL     OW33010   0.917   2.755   8.327 -0.0631 -0.0849  0.1252
 7183SOL    HW133011   0.862   2.784   8.400  0.0703  0.3091  0.0639
 7183SOL    HW233012   0.993   2.810   8.343 -0.0232  0.4354 -1.8871
 7184SOL     OW33013   2.676   3.429  16.416  0.2558  0.3289  0.4600
 7184SOL    HW133014   2.651   3.427  16.323 -0.3705 -0.8419  0.6497
 7184SOL    HW233015   2.694   3.521  16.433 -1.2058  1.0610 -1.9370
 7185SOL     OW33016   2.986   2.155   8.949 -0.5340 -0.1298 -0.5066
 7185SOL    HW133017   2.923   2.227   8.941  0.3118  0.7458  0.8458
 7185SOL    HW233018   3.022   2.140   8.861 -2.1202  0.2887 -1.2333
 7186SOL     OW33019   4.340   0.247   4.690  0.2200  0.9380 -0.7483
 7186SOL    HW133020   4.299   0.273   4.608  2.6909  2.4437 -1.5076
 7186SOL    HW233021   4.349   0.331   4.736  1.1426  1.7946 -2.4924
 7187SOL     OW33022   4.074   2.689  11.207 -0.1049  0.1730 -0.6882
 7187SOL    HW133023   4.020   2.715  11.281 -0.7639  2.1141 -1.8465
 7187SOL    HW233024   4.161   2.724  11.225 -0.6364  1.1450 -0.0169
 7188SOL     OW33025   0.374   0.235   8.390  0.7346  0.0038  0.3821
 7188SOL    HW133026   0.305   0.168   8.396  2.0368 -1.0823  3.2593
 7188SOL    HW233027   0.333   0.320   8.404 -0.3695 -0.8078  2.1126
 7189SOL     OW33028   2.137   0.600  10.026  0.4198 -0.2858 -0.2051
 7189SOL    HW133029   2.194   0.575  10.099 -0.9185 -2.0916  0.2437
 7189SOL    HW233030   2.194   0.648   9.967  0.0815  1.0883  0.5802
 7190SOL     OW33031   1.853   1.337   2.735  0.1718  0.2911 -0.3240
 7190SOL    HW133032   1.850   1.296   2.821 -1.8816  1.8498  0.3370
 7190SOL    HW233033   1.817   1.273   2.674 -0.6780  2.2870 -1.9237
 7191SOL     OW33034   2.810   2.794   8.007  0.0983  0.1091  0.0545
 7191SOL    HW133035   2.775   2.862   8.064  2.0360 -0.5560  2.0415
 7191SOL    HW233036   2.861   2.750   8.075  1.2202  0.0860 -0.7876
 7192SOL     OW33037   1.783   1.643   7.686  0.1647  0.1687 -0.6124
 7192SOL    HW133038   1.756   1.555   7.714  0.8193 -0.0889 -0.7810
 7192SOL    HW233039   1.853   1.628   7.623  1.1532  0.9842  0.3084
 7193SOL     OW33040   1.217   2.974  17.498  0.2064 -0.5422  0.2461
 7193SOL    HW133041   1.154   3.009  17.561 -1.3275 -0.3527 -1.4046
 7193SOL    HW233042   1.183   2.996  17.411 -1.1627  1.0208  1.1617
 7194SOL     OW33043   1.575   0.874   5.148 -0.1331  0.2951  0.1276
 7194SOL    HW133044   1.655   0.869   5.200 -0.8745 -2.0878  1.0376
 7194SOL    HW233045   1.508   0.863   5.215 -1.2227  0.5567 -0.9067
 7195SOL     OW33046   0.672   2.768   6.467  0.3211  0.2497  0.0576
 7195SOL    HW133047   0.738   2.807   6.524  1.1000 -0.9574 -0.0040
 7195SOL    HW233048   0.652   2.689   6.517  1.7704  0.2764  0.6890
 7196SOL     OW33049   0.152   3.383  17.649 -0.0172 -0.2582  0.5435
 7196SOL    HW133050   0.150   3.449  17.580 -1.4371 -0.2845  0.5713
 7196SOL    HW233051   0.187   3.435   0.025 -0.6135  0.7298  0.1205
 7197SOL     OW33052   0.671   3.839   4.699 -0.8544  0.2037 -0.6395
 7197SOL    HW133053   0.604   3.771   4.700  0.9111 -1.5655 -1.8728
 7197SOL    HW233054   0.636   3.892   4.627 -0.2573 -0.5230 -1.4568
 7198SOL     OW33055   0.097   2.703   6.938 -0.1220 -0.6426  0.0694
 7198SOL    HW133056   0.060   2.752   7.012  0.1818  1.9321 -1.5074
 7198SOL    HW233057   0.096   2.763   6.863  0.9336  1.8531  2.0363
 7199SOL     OW33058   2.402   4.280   7.870  0.3490 -0.1734  0.3474
 7199SOL    HW133059   2.398   4.187   7.894  2.2282 -0.4234 -0.3126
 7199SOL    HW233060   2.470   4.309   7.932 -0.2527 -0.5281  1.1690
 7200SOL     OW33061   3.481   1.451   2.491  0.8829  0.1919  0.1644
 7200SOL    HW133062   3.464   1.391   2.418 -1.0339  1.5472 -0.5115
 7200SOL    HW233063   3.576   1.458   2.488  0.7937  0.1789 -2.3915
 7201SOL     OW33064   2.230   0.530   2.158  0.2634 -0.3016  0.6366
 7201SOL    HW133065   2.320   0.551   2.183  0.6639 -1.2935  0.0554
 7201SOL    HW233066   2.223   0.440   2.190  0.0472 -0.4056  0.3063
 7202SOL     OW33067   1.834   3.369   2.504 -0.6232 -0.0730  0.3088
 7202SOL    HW133068   1.743   3.356   2.531 -0.6121  1.5443  1.1616
 7202SOL    HW233069   1.822   3.423   2.426  1.2464  0.2145  0.2226
 7203SOL     OW33070   3.883   3.890   9.642  0.1158 -0.5659  0.3226
 7203SOL    HW133071   3.837   3.807   9.653 -1.2075  0.2265  0.8083
 7203SOL    HW233072   3.944   3.893   9.716  1.7896 -0.4503 -1.0521
 7204SOL     OW33073   0.975   4.078   3.684  0.0164 -0.4558  0.7700
 7204SOL    HW133074   0.975   3.986   3.659  1.4688  0.0529 -1.0951
 7204SOL    HW233075   1.069   4.070   3.699  0.2821  0.2955 -0.4975
 7205SOL     OW33076   2.444   1.408   1.875  0.2870 -0.5720  1.2857
 7205SOL    HW133077   2.441   1.404   1.780  2.7534 -1.4329  1.2357
 7205SOL    HW233078   2.538   1.393   1.888  0.7008  0.2175 -0.8879
 7206SOL     OW33079   3.211   2.481   6.333  0.6080 -0.4497 -0.4177
 7206SOL    HW133080   3.300   2.503   6.358 -0.7394  3.8879  0.5390
 7206SOL    HW233081   3.167   2.558   6.298 -2.9019 -2.6709 -0.9878
 7207SOL     OW33082   1.538   1.806  14.029  0.1308 -0.1274  0.4630
 7207SOL    HW133083   1.502   1.860  14.100 -1.3098  0.1940 -0.5117
 7207SOL    HW233084   1.609   1.863  14.001  0.4972 -0.3867  0.8728
 7208SOL     OW33085   1.544   4.305   5.809 -0.5285 -0.5524 -0.6687
 7208SOL    HW133086   1.569   4.243   5.878 -0.5803 -0.8697 -0.9305
 7208SOL    HW233087   1.595   4.275   5.733 -0.5192 -2.9132  0.2569
 7209SOL     OW33088   0.440   2.776  15.402  0.0392  0.3373  0.2522
 7209SOL    HW133089   0.388   2.806  15.477 -0.5518  1.1372 -0.4742
 7209SOL    HW233090   0.451   2.683  15.421  0.2405  0.3321  0.1174
 7210SOL     OW33091   3.545   3.085   1.992 -0.1509 -0.2746 -0.4933
 7210SOL    HW133092   3.587   3.157   1.945  0.7496 -0.1399  0.5204
 7210SOL    HW233093   3.456   3.086   1.957 -0.0314  1.3015 -0.7369
 7211SOL     OW33094   4.182   3.943   6.556  0.0140  0.8683 -0.0930
 7211SOL    HW133095   4.271   3.944   6.522  0.3460 -0.4634  0.7310
 7211SOL    HW233096   4.162   4.035   6.538 -0.3068  1.1465  1.5976
 7212SOL     OW33097   2.303   4.629   9.362 -0.0234 -0.2647 -0.0626
 7212SOL    HW133098   2.226   4.661   9.410  0.5302 -0.4213  0.9439
 7212SOL    HW233099   2.352   4.707   9.336  2.6974 -2.3534 -1.2430
 7213SOL     OW33100   0.590   1.383   8.003 -0.4547 -0.0384  0.5528
 7213SOL    HW133101   0.643   1.382   8.083 -0.3119 -0.5166  0.4545
 7213SOL    HW233102   0.502   1.358   8.032 -1.0518 -0.6129 -1.7632
 7214SOL     OW33103   3.779   3.802   5.457 -0.1261  0.2180  0.2824
 7214SOL    HW133104   3.871   3.809   5.483 -0.1103  1.3780 -0.0700
 7214SOL    HW233105   3.755   3.710   5.471  0.2779  0.3192  1.5640
 7215SOL     OW33106   1.625   3.028   7.616  0.6306 -0.8854  0.1096
 7215SOL    HW133107   1.540   3.068   7.593  1.5613  1.8725  1.4371
 7215SOL    HW233108   1.667   3.056   7.535  2.2314 -2.1038  0.5380
 7216SOL     OW33109   1.301   0.776  16.808 -0.2346  0.5957 -0.5624
 7216SOL    HW133110   1.233   0.713  16.832 -0.1572  1.4815  1.9365
 7216SOL    HW233111   1.272   0.857  16.850  0.9495  0.5557  0.3438
 7217SOL     OW33112   0.127   1.207  14.544 -0.2930  0.1539 -0.4988
 7217SOL    HW133113   0.215   1.202  14.581 -0.6178  0.6238  0.3370
 7217SOL    HW233114   0.143   1.267  14.471  0.5608  2.9215  1.9493
 7218SOL     OW33115   3.599   2.574   6.640 -0.2880 -0.3955  0.2201
 7218SOL    HW133116   3.648   2.498   6.609  0.9851  0.9010 -0.9440
 7218SOL    HW233117   3.653   2.607   6.712 -0.5636  1.7526 -0.5576
 7219SOL     OW33118   2.996   1.549   3.626  0.4771  0.0744 -0.3972
 7219SOL    HW133119   2.961   1.607   3.693 -1.1941 -1.0662 -0.3083
 7219SOL    HW233120   3.029   1.479   3.682  0.5238 -2.2140 -3.2562
 7220SOL     OW33121   2.038   3.714   2.368 -0.2058  0.6640 -0.3360
 7220SOL    HW133122   1.997   3.648   2.313  0.8081 -0.7339  0.5713
 7220SOL    HW233123   1.977   3.713   2.442 -0.0492  0.1089 -0.2161
 7221SOL     OW33124   1.873   0.385   5.772 -0.2796 -0.0284  0.0770
 7221SOL    HW133125   1.804   0.350   5.829 -0.5662  0.0431 -0.2218
 7221SOL    HW233126   1.943   0.389   5.837 -0.6483  0.0630  0.4670
 7222SOL     OW33127   3.888   0.164   2.491 -0.0935  0.1356  0.0688
 7222SOL    HW133128   3.894   0.190   2.400  1.7868 -1.2522 -0.2164
 7222SOL    HW233129   3.876   0.069   2.488 -0.8172  0.2485 -0.5671
 7223SOL     OW33130   2.894   1.307  10.528  0.1421  0.5172  0.8265
 7223SOL    HW133131   2.852   1.387  10.558 -0.1860  0.5413  0.2999
 7223SOL    HW233132   2.840   1.242  10.573  2.4007 -1.9303 -0.0462
 7224SOL     OW33133   1.671   1.350   8.884  0.2020  0.0277 -0.0620
 7224SOL    HW133134   1.639   1.302   8.961  1.9001 -0.1447  0.5355
 7224SOL    HW233135   1.717   1.426   8.919 -1.8426  2.0529 -1.7741
 7225SOL     OW33136   0.454   0.581   1.706 -0.0653  0.3564  0.2081
 7225SOL    HW133137   0.459   0.487   1.720 -2.6764  0.0036 -1.4201
 7225SOL    HW233138   0.377   0.611   1.754 -0.6122 -1.6726  0.5675
 7226SOL     OW33139   0.995   0.273   3.379 -0.2289  0.0816  0.1412
 7226SOL    HW133140   0.924   0.253   3.439 -1.3672 -2.5208 -2.0975
 7226SOL    HW233141   1.074   0.262   3.433 -0.0508  3.5239  0.6058
 7227SOL     OW33142   3.167   2.917  14.739 -0.0946 -0.3043  0.3246
 7227SOL    HW133143   3.169   2.822  14.737  2.2817 -0.1934 -2.8658
 7227SOL    HW233144   3.118   2.929  14.821 -0.1849 -0.7508  0.3334
 7228SOL     OW33145   4.501   0.409   0.768  0.1424  0.4352 -0.3265
 7228SOL    HW133146   4.569   0.390   0.833  1.1207  0.6225 -1.3088
 7228SOL    HW233147   4.476   0.501   0.782  0.1583 -0.0583  2.8865
 7229SOL     OW33148   2.601   2.760   6.292 -0.2849  0.5544  0.2469
 7229SOL    HW133149   2.675   2.765   6.352 -0.0365 -1.7282  0.1321
 7229SOL    HW233150   2.580   2.668   6.276  0.3809  0.3075  0.8058
 7230SOL     OW33151   3.523   2.241   2.213 -0.3673 -0.2894 -0.0520
 7230SOL    HW133152   3.464   2.217   2.142  0.6547 -1.4764 -0.4947
 7230SOL    HW233153   3.560   2.325   2.184 -0.2739 -0.7019 -1.1383
 7231SOL     OW33154   0.408   1.843   2.431  0.1829  0.6873 -0.1842
 7231SOL    HW133155   0.488   1.868   2.385 -0.2146  4.4322  1.1838
 7231SOL    HW233156   0.344   1.912   2.415  0.5807  0.8855 -0.9193
 7232SOL     OW33157   4.005   0.932   8.936 -0.1423  0.0722 -0.1920
 7232SOL    HW133158   3.921   0.889   8.947 -0.4060  0.4279 -0.8119
 7232SOL    HW233159   4.020   0.977   9.019 -0.3929 -1.4162  0.6711
 7233SOL     OW33160   0.765   1.752   2.576  0.3803  0.6033 -0.0551
 7233SOL    HW133161   0.797   1.774   2.488 -0.9593 -0.1564 -0.7394
 7233SOL    HW233162   0.827   1.803   2.628  0.8355 -1.1512  1.0953
 7234SOL     OW33163   1.792   0.893   4.299 -0.1106  0.5997 -0.3096
 7234SOL    HW133164   1.779   0.986   4.312 -3.4636  0.2523 -1.1585
 7234SOL    HW233165   1.837   0.878   4.382  0.1739 -0.1968 -0.6038
 7235SOL     OW33166   4.103   1.578   5.198  0.1921  0.4626  0.7442
 7235SOL    HW133167   4.036   1.623   5.147  1.1642  0.7553 -0.2865
 7235SOL    HW233168   4.071   1.489   5.186 -1.3087  0.7497  2.6202
 7236SOL     OW33169   2.867   3.018  17.677 -0.6612 -0.1790  0.6613
 7236SOL    HW133170   2.916   3.089  17.636  1.3189 -2.0138 -0.1931
 7236SOL    HW233171   2.882   2.955  17.606 -0.4082 -0.1706  0.7052
 7237SOL     OW33172   4.604   2.694   2.023  0.5734 -0.3100 -0.6275
 7237SOL    HW133173   4.678   2.740   1.983 -0.7650  0.3147 -2.3907
 7237SOL    HW233174   4.639   2.669   2.109 -0.3177  0.4483 -0.0439
 7238SOL     OW33175   1.035   4.226   6.278  0.2699 -0.1495  0.1285
 7238SOL    HW133176   1.037   4.268   6.193  0.2949 -1.6744 -0.6207
 7238SOL    HW233177   1.083   4.149   6.246 -0.5594 -0.1629 -1.0619
 7239SOL     OW33178   1.055   4.547   2.234  0.0204  0.0936  0.4489
 7239SOL    HW133179   1.121   4.478   2.242  0.2656  0.1565 -0.8888
 7239SOL    HW233180   0.977   4.494   2.250  1.0181 -0.7701  2.3716
 7240SOL     OW33181   1.727   2.116   5.683 -0.0323 -0.1122  0.0805
 7240SOL    HW133182   1.728   2.032   5.638 -1.1766 -0.5607  0.8883
 7240SOL    HW233183   1.676   2.093   5.760 -0.0398  0.8657  0.3696
 7241SOL     OW33184   2.128   1.965   8.341 -0.7635 -0.4985  0.7384
 7241SOL    HW133185   2.089   1.877   8.345 -1.1117 -0.4708 -2.1465
 7241SOL    HW233186   2.051   2.022   8.343 -0.7436 -0.4226 -1.1134
 7242SOL     OW33187   3.379   1.993   5.453  0.1868 -0.4641 -0.0475
 7242SOL    HW133188   3.370   2.087   5.473 -0.6007 -0.6824  0.6244
 7242SOL    HW233189   3.473   1.980   5.451 -0.0313 -2.1182  0.2836
 7243SOL     OW33190   0.901   3.005   2.219 -0.3432  0.3696  0.5544
 7243SOL    HW133191   0.842   2.970   2.152 -0.1763 -0.3385  0.7776
 7243SOL    HW233192   0.898   3.100   2.211  0.6432  0.2699 -0.8291
 7244SOL     OW33193   3.990   3.773  17.397  0.5920 -0.1476 -0.3252
 7244SOL    HW133194   3.987   3.777  17.492 -0.1252  3.1268 -0.4886
 7244SOL    HW233195   3.963   3.859  17.367  1.4792  0.3321  0.2520
 7245SOL     OW33196   1.034   1.098  17.677 -0.8714  0.1446  0.3158
 7245SOL    HW133197   1.050   1.028   0.045 -0.0372 -1.1580 -1.3163
 7245SOL    HW233198   1.084   1.169   0.020  0.0158  1.6348 -3.5508
 7246SOL     OW33199   1.427   2.358  12.138  0.6068 -0.3460 -0.3503
 7246SOL    HW133200   1.438   2.348  12.044  1.3759  3.3350 -0.6640
 7246SOL    HW233201   1.459   2.274  12.172  0.0006  0.0607  1.2259
 7247SOL     OW33202   3.234   1.830   7.401  0.0479  0.2581  0.7265
 7247SOL    HW133203   3.174   1.882   7.455 -1.1177 -0.4985  0.1601
 7247SOL    HW233204   3.187   1.747   7.404 -0.0821  0.4275  3.2918
 7248SOL     OW33205   1.048   1.703   6.068  0.1543  0.9390  0.2146
 7248SOL    HW133206   1.013   1.625   6.024  3.7293  1.6003 -3.8573
 7248SOL    HW233207   1.014   1.770   6.009  0.6723  2.0755  1.1953
 7249SOL     OW33208   4.196   2.650   5.365  0.2015 -0.5678 -0.5166
 7249SOL    HW133209   4.138   2.650   5.440  3.2416  0.8723  1.8196
 7249SOL    HW233210   4.280   2.676   5.403 -0.5245  1.2187 -0.1327
 7250SOL     OW33211   2.258   1.685  14.719  0.5234 -0.2252  0.6246
 7250SOL    HW133212   2.212   1.742  14.658 -0.1546 -2.2525 -0.7554
 7250SOL    HW233213   2.207   1.714  14.794 -1.6182  0.2867 -1.0094
 7251SOL     OW33214   1.381   4.475   7.626  0.4758 -0.4466 -0.1492
 7251SOL    HW133215   1.468   4.456   7.591  0.5066 -0.0410 -0.2987
 7251SOL    HW233216   1.401   4.539   7.694  2.8488  0.2743 -1.5060
 7252SOL     OW33217   3.078   3.184   7.200 -0.2970 -0.1758  0.1566
 7252SOL    HW133218   3.044   3.139   7.278 -0.1766  0.6633  0.6924
 7252SOL    HW233219   3.089   3.270   7.242 -2.4809 -0.0782  0.5011
 7253SOL     OW33220   0.286   2.383   9.872  0.1176 -0.3484 -0.3176
 7253SOL    HW133221   0.360   2.368   9.813  2.5271  0.9667  2.3925
 7253SOL    HW233222   0.325   2.354   9.954 -0.6267 -1.3927 -0.3276
 7254SOL     OW33223   4.612   3.224   6.084 -0.1133 -0.1299  0.2470
 7254SOL    HW133224   4.669   3.230   6.007 -0.0550 -2.9881  0.0776
 7254SOL    HW233225   4.559   3.158   6.038 -0.5701 -0.5819  1.4347
 7255SOL     OW33226   1.103   2.873   5.720  0.5559  0.0022 -0.3920
 7255SOL    HW133227   1.098   2.912   5.808 -1.6897  0.8024 -0.8857
 7255SOL    HW233228   1.015   2.836   5.711  0.4438  0.2671 -0.3802
 7256SOL     OW33229   2.169   0.645   8.133  0.3397  0.0701  0.2313
 7256SOL    HW133230   2.136   0.601   8.212 -0.6194 -0.6806 -0.5859
 7256SOL    HW233231   2.141   0.736   8.145  2.8856  0.5381  2.5417
 7257SOL     OW33232   4.044   0.305   6.119  0.3657 -0.5059  0.0757
 7257SOL    HW133233   3.961   0.351   6.107  0.5673  0.1892  1.2994
 7257SOL    HW233234   4.060   0.277   6.029 -0.0965  1.2147 -0.5516
 7258SOL     OW33235   1.309   0.940   1.631 -0.4625  0.4555 -0.0246
 7258SOL    HW133236   1.247   0.941   1.705  1.0097  2.4080  1.1986
 7258SOL    HW233237   1.255   0.978   1.562 -0.0651 -1.3564 -1.3356
 7259SOL     OW33238   4.030   3.921   2.326  0.9035 -0.3329  0.6570
 7259SOL    HW133239   4.117   3.942   2.360  0.9799  1.8652 -0.8989
 7259SOL    HW233240   4.059   3.869   2.251  0.5948  0.9616 -0.3515
 7260SOL     OW33241   4.556   2.381   6.022 -0.9418 -0.3881 -0.4102
 7260SOL    HW133242   4.649   2.371   6.001 -0.3799  1.8846  0.9589
 7260SOL    HW233243   4.542   2.292   6.056 -1.4428  0.8827  2.7132
 7261SOL     OW33244   1.862   2.059   0.577  0.1532  0.4415  0.0564
 7261SOL    HW133245   1.784   2.037   0.628 -0.6074  0.3678 -1.1463
 7261SOL    HW233246   1.827   2.091   0.494 -0.8324 -0.0776  0.2773
 7262SOL     OW33247   4.164   4.510  11.277 -0.4514  0.8067 -0.4858
 7262SOL    HW133248   4.107   4.579  11.242  0.5155  1.0519 -1.5994
 7262SOL    HW233249   4.132   4.494  11.365 -0.7708  1.8783 -0.4044
 7263SOL     OW33250   2.860   3.474   9.118 -0.1043 -0.0195 -0.2695
 7263SOL    HW133251   2.790   3.412   9.098 -1.4166  0.6341  2.3707
 7263SOL    HW233252   2.919   3.491   9.045  0.0956 -0.2485 -0.1643
 7264SOL     OW33253   0.192   1.980  13.769 -0.4751  0.0204  0.2385
 7264SOL    HW133254   0.228   2.069  13.758 -1.1782  0.3231  0.3932
 7264SOL    HW233255   0.108   2.006  13.806 -1.0956 -1.6947  0.0327
 7265SOL     OW33256   2.804   2.606   4.865  0.0428  0.4001 -0.1011
 7265SOL    HW133257   2.843   2.682   4.909  1.4430 -0.4226  0.0974
 7265SOL    HW233258   2.774   2.645   4.783 -0.4863  1.9575  0.8497
 7266SOL     OW33259   3.161   2.760   3.571 -0.4912  0.6448  0.0757
 7266SOL    HW133260   3.215   2.751   3.493 -0.1979  0.2766  0.3147
 7266SOL    HW233261   3.223   2.709   3.624 -3.1426 -1.0587  1.5290
 7267SOL     OW33262   3.380   1.213  12.374 -0.0909 -0.3199  0.0168
 7267SOL    HW133263   3.443   1.159  12.327 -0.9472  0.6892 -2.2664
 7267SOL    HW233264   3.443   1.262  12.426  2.7339 -1.1307 -2.6450
 7268SOL     OW33265   2.358   3.820   6.351  0.0118 -0.1420 -0.0035
 7268SOL    HW133266   2.404   3.739   6.327  0.5672  0.7865 -2.0417
 7268SOL    HW233267   2.414   3.879   6.300 -0.0373 -0.2911 -0.2303
 7269SOL     OW33268   4.153   0.407   0.861  0.1969  0.0486 -0.4435
 7269SOL    HW133269   4.116   0.482   0.907  1.8568  0.5472  0.0766
 7269SOL    HW233270   4.097   0.332   0.882  0.1749 -0.0544 -0.8723
 7270SOL     OW33271   1.288   2.725  11.736 -0.2857  0.3845  0.1149
 7270SOL    HW133272   1.263   2.676  11.658 -1.9649 -0.6697  1.3098
 7270SOL    HW233273   1.204   2.763  11.763  0.0469  0.9215  0.3951
 7271SOL     OW33274   2.146   0.454   1.418  0.2255 -0.4314  0.0817
 7271SOL    HW133275   2.088   0.470   1.343 -0.8850  1.5763  1.3722
 7271SOL    HW233276   2.107   0.501   1.491  0.0541 -2.0118  1.0201
 7272SOL     OW33277   2.785   1.289   3.773 -0.1406 -0.1358 -0.1644
 7272SOL    HW133278   2.842   1.356   3.810 -0.5307  0.1273 -0.0405
 7272SOL    HW233279   2.810   1.212   3.824  1.2518  0.0427 -0.5886
 7273SOL     OW33280   1.419   1.008   3.684 -0.4090  0.7560  0.2482
 7273SOL    HW133281   1.401   1.010   3.778  1.4699 -1.4416  0.6470
 7273SOL    HW233282   1.362   1.079   3.656  0.8795  1.1058 -1.4948
 7274SOL     OW33283   0.556   0.666  14.030 -0.2506  0.8725 -0.8454
 7274SOL    HW133284   0.481   0.614  14.000 -0.2118 -0.7174  1.7711
 7274SOL    HW233285   0.502   0.721  14.088  0.0853  0.8252 -0.4896
 7275SOL     OW33286   0.566   1.874   2.753  0.4185 -0.5447  0.1974
 7275SOL    HW133287   0.636   1.880   2.818  0.0064 -0.5004  0.6355
 7275SOL    HW233288   0.611   1.825   2.684  1.8201 -0.4300  1.0272
 7276SOL     OW33289   4.404   3.858   7.487 -0.0310 -0.0939 -0.1653
 7276SOL    HW133290   4.439   3.935   7.532  0.2480 -1.2305  1.5477
 7276SOL    HW233291   4.396   3.892   7.398 -1.0451 -0.7766 -0.3267
 7277SOL     OW33292   0.295   2.993  14.705  0.1547 -0.3649  0.5156
 7277SOL    HW133293   0.309   3.012  14.798  2.2993 -0.9988  0.3287
 7277SOL    HW233294   0.364   2.928  14.692 -0.6202 -1.5071  2.1023
 7278SOL     OW33295   3.675   1.651  10.873 -0.0681  0.0686  0.1548
 7278SOL    HW133296   3.615   1.597  10.924  0.4061 -0.8884 -0.3003
 7278SOL    HW233297   3.665   1.616  10.784  0.4484 -1.6962  0.7957
 7279SOL     OW33298   0.662   4.707   8.870 -0.5019 -0.4887  0.6093
 7279SOL    HW133299   0.618   4.628   8.902  2.3220 -2.0726  0.5929
 7279SOL    HW233300   0.724   0.012   8.936 -1.1935  2.5139 -0.0737
 7280SOL     OW33301   0.351   3.855   5.975  0.6187  0.2143  0.4300
 7280SOL    HW133302   0.324   3.941   6.004  0.9065  0.3858  0.1926
 7280SOL    HW233303   0.376   3.861   5.882 -0.3295 -2.2674  0.0145
 7281SOL     OW33304   1.298   4.231   5.742 -0.1035 -0.0518 -0.2876
 7281SOL    HW133305   1.287   4.267   5.654 -1.3180 -1.3673 -0.6845
 7281SOL    HW233306   1.379   4.265   5.779 -0.9239  1.0810  0.4544
 7282SOL     OW33307   0.629   4.679  16.081 -0.1202 -0.2960 -0.4745
 7282SOL    HW133308   0.624   4.598  16.029  1.8009  1.2963 -3.1530
 7282SOL    HW233309   0.541   4.685  16.118  0.0951  0.2929 -0.0714
 7283SOL     OW33310   3.332   1.714   3.088 -0.0538 -0.4290  0.3744
 7283SOL    HW133311   3.328   1.631   3.136  0.6867 -1.2189 -0.9216
 7283SOL    HW233312   3.254   1.711   3.032  1.0631  2.5153 -1.3167
 7284SOL     OW33313   1.079   1.021   6.400  0.1482  0.2017 -0.1292
 7284SOL    HW133314   1.044   0.957   6.338 -0.6509 -0.5899  1.1528
 7284SOL    HW233315   1.172   1.003   6.387  0.2026 -0.5942  1.4004
 7285SOL     OW33316   1.686   3.589  10.000 -0.3795 -0.4101 -0.2071
 7285SOL    HW133317   1.636   3.508  10.012  0.8113 -1.0153  0.7820
 7285SOL    HW233318   1.613   3.642   9.969 -0.2972 -0.1574  0.0320
 7286SOL     OW33319   1.551   0.328  10.680 -0.0693 -0.1969 -0.2591
 7286SOL    HW133320   1.509   0.324  10.766  0.4174 -2.1745 -0.1073
 7286SOL    HW233321   1.586   0.417  10.673 -2.3043  0.7873  1.1396
 7287SOL     OW33322   2.408   2.876   0.316  0.7084  0.0367  0.0321
 7287SOL    HW133323   2.435   2.945   0.256 -0.9915  0.6032 -0.0760
 7287SOL    HW233324   2.421   2.793   0.270  0.2597 -0.3070  0.5302
 7288SOL     OW33325   3.369   2.286   7.699  0.1510  0.3288  0.5948
 7288SOL    HW133326   3.426   2.351   7.740  0.8417 -0.6112  1.1276
 7288SOL    HW233327   3.302   2.284   7.767  0.5916  0.6999  1.0374
 7289SOL     OW33328   0.193   0.334   3.489  0.0283 -0.1889  0.4528
 7289SOL    HW133329   0.124   0.277   3.523 -1.5951  1.2070 -0.4340
 7289SOL    HW233330   0.166   0.419   3.524  4.8336  1.1121  0.9523
 7290SOL     OW33331   3.827   0.854  14.306 -0.0393  0.4685 -0.0986
 7290SOL    HW133332   3.869   0.842  14.220 -2.4856  0.3210 -1.2729
 7290SOL    HW233333   3.845   0.772  14.352 -1.1959 -0.6259 -1.6158
 7291SOL     OW33334   1.388   2.230   3.453 -0.2079 -0.0410 -0.3478
 7291SOL    HW133335   1.411   2.316   3.488  2.0791  0.6888 -3.6016
 7291SOL    HW233336   1.444   2.170   3.502 -1.8080 -1.7600 -0.6066
 7292SOL     OW33337   1.236   4.564   1.205 -0.4574  0.5564 -0.3113
 7292SOL    HW133338   1.160   4.510   1.184  1.1409 -2.0251  0.4615
 7292SOL    HW233339   1.242   4.610   1.121  1.2040  0.2571 -0.3612
 7293SOL     OW33340   1.032   1.856   3.986  0.3999 -0.7566  0.0182
 7293SOL    HW133341   1.030   1.782   3.925  1.4560 -1.7035  1.1104
 7293SOL    HW233342   1.056   1.811   4.067 -0.8660  0.0846  0.8641
 7294SOL     OW33343   3.836   3.250   3.308 -0.1644 -0.3340  0.1389
 7294SOL    HW133344   3.872   3.284   3.390  0.2165 -0.2608 -0.0585
 7294SOL    HW233345   3.806   3.331   3.268  0.0862 -0.4160 -0.2144
 7295SOL     OW33346   1.281   4.361   4.640 -0.1365 -0.4003  0.1145
 7295SOL    HW133347   1.365   4.380   4.682  0.9602 -2.8131 -1.0072
 7295SOL    HW233348   1.297   4.370   4.546 -0.4291  1.5899  0.2469
 7296SOL     OW33349   4.455   2.589   6.160  0.3941 -0.3472  0.1408
 7296SOL    HW133350   4.489   2.515   6.110 -1.2300  0.3761 -2.0164
 7296SOL    HW233351   4.514   2.662   6.139 -1.1762  0.6653 -0.7729
 7297SOL     OW33352   3.955   3.744   9.000 -0.4323  0.0781  0.2623
 7297SOL    HW133353   3.979   3.835   8.984  1.2104  0.2221  3.4961
 7297SOL    HW233354   3.874   3.751   9.051 -1.4602 -1.4289 -1.1800
 7298SOL     OW33355   3.706   2.040   2.324  0.4130  0.4684  0.1281
 7298SOL    HW133356   3.661   2.123   2.310  0.6593 -0.0231 -3.5122
 7298SOL    HW233357   3.641   1.978   2.357  1.0143 -0.1932  0.0534
 7299SOL     OW33358   4.233   0.479  16.314  0.0506 -0.4287  0.1220
 7299SOL    HW133359   4.216   0.564  16.355  0.4882 -1.2044  1.9004
 7299SOL    HW233360   4.273   0.514  16.234  1.0043 -1.9570 -0.0620
 7300SOL     OW33361   4.472   3.546   7.562  0.3728  0.2066 -0.2310
 7300SOL    HW133362   4.505   3.621   7.511  0.6634  0.6260  0.5780
 7300SOL    HW233363   4.500   3.475   7.504  3.0848  0.9200  0.2075
 7301SOL     OW33364   4.506   0.278  11.485  0.1855  0.0660 -0.0209
 7301SOL    HW133365   4.539   0.211  11.425 -1.6175 -0.3109 -0.6020
 7301SOL    HW233366   4.420   0.295  11.447 -0.0032  0.1938  0.4595
 7302SOL     OW33367   1.895   1.109   6.835  0.4447 -0.3943  0.0664
 7302SOL    HW133368   1.931   1.192   6.867  1.7681 -0.7912 -0.3689
 7302SOL    HW233369   1.802   1.119   6.855  0.6115 -0.3447  0.8247
 7303SOL     OW33370   2.497   4.159   2.842 -0.1225 -0.2902 -0.1629
 7303SOL    HW133371   2.529   4.086   2.894  0.3818  2.2005  3.0187
 7303SOL    HW233372   2.578   4.185   2.798  0.8552 -1.8758  0.7304
 7304SOL     OW33373   4.512   2.009   7.048  0.1552 -0.1091  0.1309
 7304SOL    HW133374   4.443   2.056   7.001  1.0501 -0.2151 -1.2927
 7304SOL    HW233375   4.463   1.939   7.091 -3.2338  2.2528  0.0099
 7305SOL     OW33376   3.929   1.475  10.159  0.6239  0.7222 -0.2872
 7305SOL    HW133377   3.885   1.558  10.140 -0.4845 -0.0230 -0.9481
 7305SOL    HW233378   4.016   1.514  10.174 -0.1074  2.2359  0.0993
 7306SOL     OW33379   0.818   1.776  11.327  0.3686  0.2375  0.1916
 7306SOL    HW133380   0.855   1.702  11.280 -0.2101  1.3218 -1.9888
 7306SOL    HW233381   0.805   1.734  11.412  2.1270 -1.3365 -0.3155
 7307SOL     OW33382   0.739   0.677   1.394 -0.2114  0.3365 -0.2408
 7307SOL    HW133383   0.674   0.606   1.392 -0.5343  0.5935  1.1559
 7307SOL    HW233384   0.753   0.706   1.304  3.3698 -1.5444 -0.2744
 7308SOL     OW33385   3.588   1.947   3.054  0.7924 -0.4309 -0.3165
 7308SOL    HW133386   3.592   1.893   3.133 -1.2253 -0.5936 -0.3339
 7308SOL    HW233387   3.605   1.880   2.988  0.4065  0.5633 -1.4345
 7309SOL     OW33388   0.982   2.197  15.812  0.4384  0.2455  0.1207
 7309SOL    HW133389   1.059   2.233  15.767  0.6763  2.6535  2.4045
 7309SOL    HW233390   0.909   2.241  15.770  1.7095  1.4677 -0.8274
 7310SOL     OW33391   0.526   3.688   5.203 -0.1942  0.2183  0.0311
 7310SOL    HW133392   0.556   3.761   5.147  1.1029 -1.0355 -0.9320
 7310SOL    HW233393   0.593   3.621   5.187  0.2305  0.4642  0.7932
 7311SOL     OW33394   3.668   2.236   5.840 -0.5240 -0.0073 -1.2489
 7311SOL    HW133395   3.669   2.331   5.847  1.1028 -0.2105  1.3173
 7311SOL    HW233396   3.589   2.209   5.888  2.2670 -1.8539  2.3071
 7312SOL     OW33397   3.333   0.294   3.272  0.2723 -0.5508  0.5333
 7312SOL    HW133398   3.256   0.344   3.244  0.0146  0.1345  2.4513
 7312SOL    HW233399   3.294   0.222   3.321 -1.2967 -0.6687 -0.8777
 7313SOL     OW33400   4.068   4.712   3.854  0.3743 -0.8846 -0.1749
 7313SOL    HW133401   4.155   0.025   3.838 -0.3069  0.7347 -0.2053
 7313SOL    HW233402   4.069   4.641   3.789  0.0257  0.7667 -2.0075
 7314SOL     OW33403   4.093   2.183   3.652  0.0833 -0.3331 -0.0536
 7314SOL    HW133404   4.075   2.131   3.573  1.9417  2.1190 -2.0643
 7314SOL    HW233405   4.016   2.164   3.706 -0.3744  0.4304 -0.4327
 7315SOL     OW33406   2.957   0.744   6.152 -0.0986  0.1044 -0.1483
 7315SOL    HW133407   2.931   0.736   6.244  0.1596 -1.0215 -0.1699
 7315SOL    HW233408   2.958   0.839   6.144 -1.1203  0.2414  1.1700
 7316SOL     OW33409   4.561   0.841   1.306 -0.1829 -0.6261 -0.0880
 7316SOL    HW133410   4.647   0.815   1.273  0.9167  0.1218  2.1664
 7316SOL    HW233411   4.513   0.864   1.227  0.0432  0.2650  0.0283
 7317SOL     OW33412   0.504   3.218   3.616  0.2828 -0.4457 -0.0522
 7317SOL    HW133413   0.527   3.296   3.565 -1.2833  0.6313  0.8824
 7317SOL    HW233414   0.450   3.246   3.689 -1.5359  0.1948 -1.6384
 7318SOL     OW33415   3.622   0.020   8.294 -0.2063 -0.0827 -1.1793
 7318SOL    HW133416   3.587   4.716   8.378  2.7434  2.3820  0.8786
 7318SOL    HW233417   3.641   0.113   8.307  1.3043 -0.6028  0.3953
 7319SOL     OW33418   2.804   0.133   6.604 -0.5659 -0.7336 -0.1488
 7319SOL    HW133419   2.756   0.215   6.591  0.2960 -0.1163  0.5724
 7319SOL    HW233420   2.771   0.095   6.523  1.2888  2.7160 -2.5216
 7320SOL     OW33421   2.953   3.252  16.323  0.0584  0.0832 -0.9317
 7320SOL    HW133422   2.937   3.346  16.315 -0.4847  0.1794  1.2597
 7320SOL    HW233423   2.900   3.228  16.399  1.0416 -0.1363 -0.3149
 7321SOL     OW33424   4.489   4.684   3.795  0.5859  0.5255 -0.4035
 7321SOL    HW133425   4.427   0.026   3.763 -0.6466 -1.4728 -2.1454
 7321SOL    HW233426   4.554   0.020   3.832  1.3575  0.8218 -2.2446
 7322SOL     OW33427   1.548   2.256   5.400 -0.5426  0.4235 -0.4771
 7322SOL    HW133428   1.602   2.253   5.479  0.2711 -0.0026 -1.0444
 7322SOL    HW233429   1.564   2.349   5.385  0.1390 -0.0372 -2.6621
 7323SOL     OW33430   3.579   0.135   2.698  0.2735  0.0607 -0.4135
 7323SOL    HW133431   3.574   0.110   2.606 -0.8440 -0.5336 -0.1879
 7323SOL    HW233432   3.489   0.114   2.724 -0.1086 -0.3332 -2.0690
 7324SOL     OW33433   1.280   4.343   3.426 -0.2300  0.0350  0.2434
 7324SOL    HW133434   1.224   4.294   3.367  2.2793 -1.6452 -0.7286
 7324SOL    HW233435   1.319   4.274   3.480  0.4572  0.4460  0.2760
 7325SOL     OW33436   2.712   1.309   6.151  0.4349  0.2778  0.1459
 7325SOL    HW133437   2.661   1.355   6.218  2.6245  1.2125  1.1796
 7325SOL    HW233438   2.711   1.381   6.087 -0.6190  0.8708  0.8183
 7326SOL     OW33439   2.139   0.909   0.935  0.2128 -0.2922  0.5875
 7326SOL    HW133440   2.198   0.983   0.948 -0.3570  0.3958 -0.7248
 7326SOL    HW233441   2.076   0.945   0.873  1.4451  1.8157  0.5412
 7327SOL     OW33442   2.550   2.480   6.285  0.1329 -0.5225  0.6014
 7327SOL    HW133443   2.528   2.394   6.321  0.9070  0.2845  3.0172
 7327SOL    HW233444   2.542   2.469   6.191  0.6677  1.0978  0.3643
 7328SOL     OW33445   1.032   0.711  13.789  0.2781  0.3681  0.0024
 7328SOL    HW133446   1.004   0.643  13.850  1.9128 -0.7370 -0.4484
 7328SOL    HW233447   0.955   0.760  13.761  1.2281  0.0623 -3.1743
 7329SOL     OW33448   3.298   2.785   6.635  0.1931 -0.0788 -0.2424
 7329SOL    HW133449   3.390   2.792   6.610  0.3026 -1.7474 -0.2788
 7329SOL    HW233450   3.265   2.809   6.549 -2.0666 -2.2192  0.0162
 7330SOL     OW33451   4.390   4.686   3.059 -0.3509  0.3612 -0.2314
 7330SOL    HW133452   4.466   0.008   3.024 -1.6745  0.7927 -2.6158
 7330SOL    HW233453   4.389   4.714   3.150 -0.9115 -0.2008 -0.0666
 7331SOL     OW33454   3.295   0.935   5.653 -0.0543  0.4546 -0.0910
 7331SOL    HW133455   3.298   0.861   5.713 -0.3341  1.1919  0.8265
 7331SOL    HW233456   3.206   0.967   5.638  0.3891  1.9060  0.3624
 7332SOL     OW33457   0.446   2.913   2.156 -0.0706  0.2894  0.2165
 7332SOL    HW133458   0.451   2.831   2.106  0.1899  1.0883 -1.0744
 7332SOL    HW233459   0.530   2.912   2.203  0.7026 -0.1687 -1.1678
 7333SOL     OW33460   4.023   4.394   7.351 -0.1458 -0.0689  0.2922
 7333SOL    HW133461   4.023   4.466   7.287  1.1099 -0.4079 -0.0979
 7333SOL    HW233462   3.966   4.331   7.307  0.4120 -0.4523  0.1216
 7334SOL     OW33463   0.786   4.423  13.460 -0.1100  0.5719 -0.0583
 7334SOL    HW133464   0.778   4.495  13.523  1.0012 -0.4047  1.1802
 7334SOL    HW233465   0.736   4.360  13.512 -1.2673 -1.7423 -3.9668
 7335SOL     OW33466   0.082   4.225   2.379  0.2658 -0.2655 -0.2537
 7335SOL    HW133467   0.100   4.287   2.449  0.1592 -1.7320  1.0613
 7335SOL    HW233468   0.051   4.278   2.305  2.8461  0.2592 -0.9607
 7336SOL     OW33469   3.751   4.363  11.674  0.0585  0.1047  0.0816
 7336SOL    HW133470   3.827   4.306  11.688  1.0394  1.0258 -1.5482
 7336SOL    HW233471   3.778   4.408  11.594  1.1736 -0.6195  0.0526
 7337SOL     OW33472   2.663   3.069   7.878  0.1429  0.0691  0.6015
 7337SOL    HW133473   2.714   3.032   7.951  1.4948  1.9600  0.6174
 7337SOL    HW233474   2.679   3.162   7.894 -0.4339  0.2021  0.3928
 7338SOL     OW33475   3.113   2.475   4.564  0.0746 -0.3745  0.1163
 7338SOL    HW133476   3.117   2.385   4.596  3.6121  0.3000  1.5685
 7338SOL    HW233477   3.020   2.494   4.569 -0.2092 -0.9923 -2.3977
 7339SOL     OW33478   4.549   2.210  13.106  0.2591  0.2489 -0.2293
 7339SOL    HW133479   4.485   2.141  13.118  0.7115 -0.6780 -3.2279
 7339SOL    HW233480   4.541   2.246  13.194 -0.6168  1.0902 -0.6469
 7340SOL     OW33481   1.710   1.404  13.654 -0.4605 -0.1499  0.1822
 7340SOL    HW133482   1.679   1.420  13.565 -0.4877  0.1903  0.2522
 7340SOL    HW233483   1.801   1.387  13.630 -0.5371  0.2681 -0.4086
 7341SOL     OW33484   4.307   3.091   8.700 -0.7352  0.3959 -0.4867
 7341SOL    HW133485   4.242   3.063   8.765 -0.0943 -1.7707 -0.7627
 7341SOL    HW233486   4.268   3.056   8.619 -0.2824  0.4520 -0.7297
 7342SOL     OW33487   4.296   0.700   9.376 -0.7342 -0.1580 -0.3130
 7342SOL    HW133488   4.265   0.612   9.354 -0.1696 -0.4486  0.0700
 7342SOL    HW233489   4.263   0.740   9.295  0.6827  0.7041 -0.4674
 7343SOL     OW33490   0.033   0.267   4.176  0.4507 -0.1201 -0.4642
 7343SOL    HW133491   0.072   0.235   4.257  0.0160  0.6626  0.0522
 7343SOL    HW233492   0.016   0.183   4.132  0.2782 -1.1176  1.4834
 7344SOL     OW33493   1.288   3.158   2.902  0.0107 -0.0995 -0.4901
 7344SOL    HW133494   1.263   3.229   2.843  1.0998  0.0217 -0.8051
 7344SOL    HW233495   1.383   3.160   2.916 -0.3658  0.9120  1.9711
 7345SOL     OW33496   3.752   1.729  13.576 -0.0955 -0.7493  0.4649
 7345SOL    HW133497   3.726   1.637  13.585 -1.4047 -0.3285  1.0131
 7345SOL    HW233498   3.845   1.721  13.556 -0.1951 -1.3739  0.2469
 7346SOL     OW33499   3.890   0.873   4.177  0.0175 -0.4612 -0.2390
 7346SOL    HW133500   3.827   0.906   4.242 -1.8861 -1.5207 -1.5336
 7346SOL    HW233501   3.826   0.826   4.123 -1.1315  1.7016 -0.7692
 7347SOL     OW33502   2.636   1.631   3.346 -0.4819 -0.1826 -0.3314
 7347SOL    HW133503   2.696   1.560   3.324  1.4225  0.6713  2.0384
 7347SOL    HW233504   2.605   1.671   3.265 -0.9559 -0.5547 -0.3317
 7348SOL     OW33505   0.142   2.341   3.489 -0.2236  0.0990  0.1845
 7348SOL    HW133506   0.200   2.327   3.563  3.0161  3.3283 -1.7702
 7348SOL    HW233507   0.073   2.390   3.534 -1.3336 -2.5492  1.3143
 7349SOL     OW33508   2.660   3.113  14.389  0.0354 -0.2949  0.4135
 7349SOL    HW133509   2.717   3.168  14.336 -0.1248  1.0330  1.6338
 7349SOL    HW233510   2.644   3.041  14.328  1.1383 -1.1073  1.0994
 7350SOL     OW33511   4.221   1.594   4.039 -0.3300 -0.3064 -0.1690
 7350SOL    HW133512   4.196   1.592   4.131 -0.0680 -0.2816 -0.0976
 7350SOL    HW233513   4.137   1.609   3.996 -1.6591 -4.2662  0.9970
 7351SOL     OW33514   3.146   0.912   1.775 -0.2467  0.4828 -0.2456
 7351SOL    HW133515   3.173   0.996   1.737 -0.5921  0.2217 -1.0755
 7351SOL    HW233516   3.219   0.855   1.752  1.3019  2.4328 -0.2203
 7352SOL     OW33517   1.672   0.807  16.911 -0.1377 -0.1019  0.4352
 7352SOL    HW133518   1.626   0.746  16.854  1.5605  0.0986 -1.1527
 7352SOL    HW233519   1.655   0.766  16.995  2.0177  0.9431  1.3868
 7353SOL     OW33520   2.592   0.951   1.411 -0.4334 -0.1427  0.3028
 7353SOL    HW133521   2.672   0.899   1.417 -1.2457 -1.5060 -0.8061
 7353SOL    HW233522   2.621   1.013   1.344 -3.2465  0.5684 -0.2591
 7354SOL     OW33523   1.829   1.145   4.421  0.0510 -0.7926 -0.1941
 7354SOL    HW133524   1.925   1.148   4.417  0.1298 -1.7736  0.9301
 7354SOL    HW233525   1.802   1.225   4.377 -2.0992 -1.3121  0.1796
 7355SOL     OW33526   1.304   3.528   5.148  0.2973 -0.1424 -0.1694
 7355SOL    HW133527   1.342   3.500   5.231  1.3854 -2.2723 -1.3755
 7355SOL    HW233528   1.263   3.449   5.112  0.6847 -0.3563 -0.1489
 7356SOL     OW33529   3.532   3.182   2.580 -0.2216 -0.1629  0.1589
 7356SOL    HW133530   3.563   3.109   2.633 -1.2514  0.7345  1.9903
 7356SOL    HW233531   3.608   3.184   2.522  0.2349 -1.0549  0.7366
 7357SOL     OW33532   2.140   2.519   9.640  0.2467  0.2645 -0.6456
 7357SOL    HW133533   2.192   2.596   9.660  0.1861 -0.0179  0.6432
 7357SOL    HW233534   2.105   2.503   9.728  1.6131 -1.9086 -0.4947
 7358SOL     OW33535   2.172   2.339   7.005 -0.7726 -0.5518  0.5458
 7358SOL    HW133536   2.258   2.305   6.980 -0.9318 -1.7338  1.6323
 7358SOL    HW233537   2.119   2.322   6.927 -0.7023  0.5740  0.2566
 7359SOL     OW33538   0.211   2.192   9.083 -0.3174 -0.1880 -0.4398
 7359SOL    HW133539   0.174   2.174   9.169  1.8198 -3.8758 -0.3175
 7359SOL    HW233540   0.171   2.275   9.056  1.6088  1.5133  2.0562
 7360SOL     OW33541   0.008   3.447   6.478 -0.7841 -0.3937 -0.6295
 7360SOL    HW133542   0.008   3.486   6.391  1.5089 -0.4312 -0.6448
 7360SOL    HW233543   0.085   3.392   6.469 -0.6304 -0.3090  0.1258
 7361SOL     OW33544   1.593   2.450  12.352  0.1229  0.4032  0.1946
 7361SOL    HW133545   1.519   2.406  12.310  0.9190  0.0098 -0.8047
 7361SOL    HW233546   1.645   2.450  12.271  0.3364  0.0654  0.3285
 7362SOL     OW33547   0.142   0.117   8.973  0.1716  0.0883  0.1336
 7362SOL    HW133548   0.154   0.146   9.064  1.1627 -0.8498  0.3030
 7362SOL    HW233549   0.231   0.104   8.939  0.7097 -0.2639  1.6790
 7363SOL     OW33550   4.425   3.887   6.485 -0.3432 -0.1584 -0.4413
 7363SOL    HW133551   4.440   3.794   6.468  0.5731  0.0673 -0.8778
 7363SOL    HW233552   4.503   3.917   6.532 -1.1295  1.6220 -0.2659
 7364SOL     OW33553   0.716   2.791  11.366  0.2643  0.2653  0.4315
 7364SOL    HW133554   0.690   2.722  11.305  0.5054  0.7229 -0.1951
 7364SOL    HW233555   0.641   2.826  11.414 -0.4574 -0.4499 -0.1993
 7365SOL     OW33556   2.823   3.158  11.801  0.7124  0.1363  0.8925
 7365SOL    HW133557   2.915   3.175  11.819  0.4976  0.9146  1.2543
 7365SOL    HW233558   2.795   3.249  11.806  1.2366  0.3633 -0.3150
 7366SOL     OW33559   2.942   1.074   7.371  0.2218 -0.1321 -0.4281
 7366SOL    HW133560   2.943   0.986   7.409  0.3417  0.8873  1.9153
 7366SOL    HW233561   2.859   1.075   7.324  1.4438  0.3710 -2.5496
 7367SOL     OW33562   0.191   4.099   0.148  0.1432  0.3038 -0.4244
 7367SOL    HW133563   0.104   4.078   0.182  0.9933 -2.7074 -0.0843
 7367SOL    HW233564   0.210   4.022   0.095 -1.1367 -1.6586  1.9877
 7368SOL     OW33565   1.755   3.957   6.990  0.3316 -0.3170  0.1916
 7368SOL    HW133566   1.762   3.887   6.925 -0.0370  0.1173 -0.3275
 7368SOL    HW233567   1.839   4.002   6.988 -0.0559  0.2724 -3.1010
 7369SOL     OW33568   0.740   3.200  15.216 -0.0613  0.4468 -0.0824
 7369SOL    HW133569   0.714   3.115  15.251 -1.8414  1.3248  0.7378
 7369SOL    HW233570   0.832   3.204  15.241  1.2168 -1.5602 -4.4591
 7370SOL     OW33571   0.282   4.578   2.005  0.1822 -0.6024 -0.1289
 7370SOL    HW133572   0.351   4.617   1.952 -2.0525  2.0560 -1.0883
 7370SOL    HW233573   0.204   4.580   1.949  0.2716 -0.4907 -0.2473
 7371SOL     OW33574   2.142   3.611   6.187  0.2799 -0.1684  0.2458
 7371SOL    HW133575   2.164   3.701   6.165 -1.8720  0.6308  1.3326
 7371SOL    HW233576   2.051   3.601   6.158  0.0027 -0.2514  1.1529
 7372SOL     OW33577   3.620   0.056   7.631 -0.0496 -0.0671 -1.0226
 7372SOL    HW133578   3.637   0.097   7.546  3.5612 -0.0192 -0.2652
 7372SOL    HW233579   3.656   0.126   7.686  1.5142 -2.1269  0.5779
 7373SOL     OW33580   2.396   0.041   5.154  0.1546 -0.1606  0.0028
 7373SOL    HW133581   2.323   0.091   5.117  1.7867  1.4423 -1.0019
 7373SOL    HW233582   2.369   0.049   5.246  0.9115  1.2401  0.0989
 7374SOL     OW33583   2.406   3.240   5.391 -0.6590  0.2239  0.0207
 7374SOL    HW133584   2.446   3.300   5.454  1.4860 -1.9957  0.7526
 7374SOL    HW233585   2.335   3.201   5.442 -2.5591  1.2769 -1.8124
 7375SOL     OW33586   0.272   2.366   0.956  0.3308  0.2418 -0.4192
 7375SOL    HW133587   0.274   2.363   0.860 -1.8135 -1.9298 -0.4130
 7375SOL    HW233588   0.233   2.280   0.973  1.3987  0.2291  2.0602
 7376SOL     OW33589   3.545   0.902   3.442 -0.8286  0.0572 -0.4258
 7376SOL    HW133590   3.615   0.890   3.377 -0.5200  0.9229 -0.2488
 7376SOL    HW233591   3.549   0.997   3.445 -0.0121 -0.0011  0.2579
 7377SOL     OW33592   0.368   0.635  17.657 -0.2276 -0.2148 -0.6749
 7377SOL    HW133593   0.351   0.637  17.563 -1.1817 -4.5457 -0.6069
 7377SOL    HW233594   0.304   0.692   0.004  2.3056  0.9631  1.5226
 7378SOL     OW33595   1.780   2.499   9.608  0.3333 -0.5077  0.4225
 7378SOL    HW133596   1.773   2.550   9.689  0.3600 -1.1790  0.8484
 7378SOL    HW233597   1.707   2.534   9.556  1.6967  1.3662 -0.2581
 7379SOL     OW33598   4.671   4.227  17.648 -0.0446  0.2522 -0.2285
 7379SOL    HW133599   0.001   4.301  17.619  0.3989 -0.4499 -1.1874
 7379SOL    HW233600   4.706   4.213   0.040 -0.5080 -0.0794 -0.0966
 7380SOL     OW33601   3.550   4.347   2.090 -0.0194  0.4419 -0.1359
 7380SOL    HW133602   3.554   4.308   2.003 -2.0659  1.4556 -0.6930
 7380SOL    HW233603   3.475   4.296   2.121  0.1394 -0.5939 -1.4761
 7381SOL     OW33604   3.519   0.760  16.741 -0.1921  0.0837 -0.3928
 7381SOL    HW133605   3.433   0.772  16.700 -0.3756  1.0841  0.2748
 7381SOL    HW233606   3.579   0.788  16.672 -0.2226  0.9721 -0.0637
 7382SOL     OW33607   3.867   2.155   3.798 -0.0081 -1.1442  0.1764
 7382SOL    HW133608   3.827   2.069   3.797 -0.6013 -0.8655  0.0660
 7382SOL    HW233609   3.884   2.164   3.892  0.6589 -1.1370  0.0564
 7383SOL     OW33610   0.570   4.018  13.922 -0.0246  0.4041 -0.3663
 7383SOL    HW133611   0.590   4.022  13.828 -2.1721  1.7421 -0.7654
 7383SOL    HW233612   0.548   4.110  13.935 -0.6321  0.2782 -0.4918
 7384SOL     OW33613   0.596   1.797   8.109 -0.4103 -0.3135  0.1044
 7384SOL    HW133614   0.548   1.834   8.036  0.9214  1.1407 -0.0282
 7384SOL    HW233615   0.521   1.770   8.162 -0.5731  1.6867  0.9143
 7385SOL     OW33616   4.230   2.627  13.714  0.5998  0.6386 -0.9994
 7385SOL    HW133617   4.137   2.606  13.728  1.3461 -1.8148  0.2064
 7385SOL    HW233618   4.243   2.721  13.730  0.4542  0.8700 -2.2447
 7386SOL     OW33619   2.221   4.443   4.863  0.0234 -0.4375 -0.2832
 7386SOL    HW133620   2.283   4.459   4.934 -0.4976 -2.3991  0.6206
 7386SOL    HW233621   2.277   4.437   4.785  3.1090  1.3204  1.8041
 7387SOL     OW33622   4.121   1.867   2.365  0.0684  0.0656  0.2518
 7387SOL    HW133623   4.037   1.858   2.411 -0.8461 -2.4155 -1.8877
 7387SOL    HW233624   4.115   1.958   2.334 -0.9293  0.6106  2.0568
 7388SOL     OW33625   3.247   1.084   3.441 -0.2056  0.3968 -0.3600
 7388SOL    HW133626   3.309   1.047   3.378 -1.8616 -0.3177 -1.5865
 7388SOL    HW233627   3.310   1.141   3.485  1.4167 -0.6112 -1.3518
 7389SOL     OW33628   4.710   2.493   3.954 -0.1616  0.1693 -0.1859
 7389SOL    HW133629   4.692   2.435   3.880 -1.7696  0.5361 -0.0883
 7389SOL    HW233630   0.027   2.567   3.910  2.4389 -0.8758  0.4804
 7390SOL     OW33631   1.260   1.358   8.643  0.3776  0.1247  0.6763
 7390SOL    HW133632   1.250   1.452   8.649 -0.6903 -0.0571  1.7217
 7390SOL    HW233633   1.229   1.345   8.553  1.4704 -0.5137  0.3827
 7391SOL     OW33634   0.563   3.561   4.537 -0.0772  0.1165  0.6758
 7391SOL    HW133635   0.642   3.547   4.588  0.4781 -2.2106 -0.8071
 7391SOL    HW233636   0.506   3.504   4.589  1.9087 -2.6304 -0.1781
 7392SOL     OW33637   2.386   0.725   4.029  0.3290  0.1783 -0.4670
 7392SOL    HW133638   2.458   0.772   3.987  1.8536 -1.1645  0.6294
 7392SOL    HW233639   2.322   0.724   3.959  0.2689 -2.0067 -0.4005
 7393SOL     OW33640   3.305   2.794   7.939 -0.2225  0.4230 -0.2836
 7393SOL    HW133641   3.374   2.757   7.994  0.0329 -0.9558 -1.5348
 7393SOL    HW233642   3.311   2.886   7.968 -1.2622  0.3748  0.0793
 7394SOL     OW33643   4.127   4.688   2.907 -0.6030 -0.5909 -0.1659
 7394SOL    HW133644   4.101   0.033   2.968  1.5372  0.5059 -0.4994
 7394SOL    HW233645   4.218   4.663   2.921 -1.2127 -1.6011  1.8645
 7395SOL     OW33646   3.997   4.412  16.957  0.1263  0.6552 -0.1222
 7395SOL    HW133647   3.928   4.417  16.891 -1.6700  1.2763  1.7906
 7395SOL    HW233648   3.959   4.349  17.018  0.5658  1.0192  0.5281
 7396SOL     OW33649   2.254   1.603   1.257  0.2727 -0.1246  0.8792
 7396SOL    HW133650   2.213   1.689   1.252 -0.1769 -0.3039  1.5565
 7396SOL    HW233651   2.333   1.626   1.307  1.0029  0.5702 -0.5868
 7397SOL     OW33652   1.193   3.334   1.418  0.2744  0.0746  0.0594
 7397SOL    HW133653   1.136   3.268   1.379  0.4310 -1.7640  3.0046
 7397SOL    HW233654   1.153   3.343   1.504  1.7672 -0.2181  0.7782
 7398SOL     OW33655   4.294   1.011  14.569  0.2691  0.1083  0.0368
 7398SOL    HW133656   4.210   0.972  14.593  0.6824 -0.4564  0.5689
 7398SOL    HW233657   4.316   0.969  14.485  1.6007 -0.5110  0.6990
 7399SOL     OW33658   2.090   1.762   6.956 -0.0267  0.2763 -0.0610
 7399SOL    HW133659   2.068   1.750   7.048  0.2912 -1.3600 -0.1991
 7399SOL    HW233660   2.071   1.855   6.949 -4.4199 -0.6051  0.4292
 7400SOL     OW33661   4.720   3.386   4.938 -0.1144 -0.4228  0.5091
 7400SOL    HW133662   0.041   3.445   4.999 -0.4046  1.7472 -1.3843
 7400SOL    HW233663   4.649   3.448   4.921  1.2954  0.3858 -2.4514
 7401SOL     OW33664   1.387   1.201   1.226 -0.1526 -0.4954 -0.2238
 7401SOL    HW133665   1.433   1.177   1.146  0.0872  0.4719 -0.3787
 7401SOL    HW233666   1.305   1.154   1.207 -0.0375 -0.1145 -1.7190
 7402SOL     OW33667   1.543   3.628   8.369 -0.1456  0.5920 -0.5682
 7402SOL    HW133668   1.538   3.711   8.417  0.3083  0.4363 -0.2462
 7402SOL    HW233669   1.598   3.576   8.427 -1.4326  0.7824  0.8187
 7403SOL     OW33670   0.598   1.081   3.103 -0.0813  0.2138 -0.3435
 7403SOL    HW133671   0.570   1.149   3.165  1.0454 -2.5498  3.1716
 7403SOL    HW233672   0.693   1.091   3.109 -0.1109  1.0495 -1.1856
 7404SOL     OW33673   1.118   2.109  13.516 -0.3771  0.5778 -0.3885
 7404SOL    HW133674   1.055   2.164  13.470 -1.4713 -0.2507  0.1191
 7404SOL    HW233675   1.191   2.105  13.454 -0.0784 -3.0522  0.1591
 7405SOL     OW33676   0.027   1.040  16.128  0.0228 -0.5533  0.8652
 7405SOL    HW133677   0.029   1.043  16.033  2.0442 -0.8667  0.8951
 7405SOL    HW233678   4.660   1.044  16.157 -0.7624 -2.0569 -1.3600
 7406SOL     OW33679   4.493   4.440   2.293 -0.0064  0.3008 -0.4982
 7406SOL    HW133680   4.404   4.408   2.278 -0.1363 -0.0436  0.9443
 7406SOL    HW233681   4.541   4.388   2.229 -0.9204 -0.2069 -0.7703
 7407SOL     OW33682   4.279   3.038  11.598  0.0720  0.6815  0.5387
 7407SOL    HW133683   4.240   3.025  11.685 -1.7336  3.9433  0.2225
 7407SOL    HW233684   4.263   3.132  11.598  0.6549  0.7810  1.1739
 7408SOL     OW33685   3.216   1.351   2.132  0.2281 -0.1043 -0.0837
 7408SOL    HW133686   3.179   1.440   2.137  1.3199  0.2720  1.5346
 7408SOL    HW233687   3.221   1.338   2.038  0.9121 -1.2613  0.1163
 7409SOL     OW33688   1.417   4.131   7.867 -0.1493 -0.2345  0.1341
 7409SOL    HW133689   1.454   4.123   7.955 -0.1683 -2.7775 -0.1013
 7409SOL    HW233690   1.332   4.164   7.894  0.0460  0.4336 -0.0491
 7410SOL     OW33691   2.679   1.611   6.584 -0.9719 -0.2912 -0.3553
 7410SOL    HW133692   2.737   1.594   6.659 -2.4182 -1.6183  0.4664
 7410SOL    HW233693   2.716   1.558   6.514  1.6650  0.2054  0.6552
 7411SOL     OW33694   2.199   0.446  12.346  0.1527 -0.3947  0.3355
 7411SOL    HW133695   2.186   0.540  12.360  1.9371 -0.0723 -0.1809
 7411SOL    HW233696   2.204   0.425  12.440  1.0983  0.2153  0.4196
 7412SOL     OW33697   2.103   0.230  14.857 -0.6038  0.3946 -0.0825
 7412SOL    HW133698   2.065   0.256  14.941 -0.7424 -0.1062  0.0143
 7412SOL    HW233699   2.108   0.136  14.877  2.5810  0.2006 -1.6962
 7413SOL     OW33700   2.058   3.161  11.084 -0.2526 -0.0012  0.1625
 7413SOL    HW133701   1.994   3.226  11.054  0.1596 -0.4037 -1.5769
 7413SOL    HW233702   2.007   3.115  11.151  0.6825  0.1116  0.9521
 7414SOL     OW33703   2.356   1.529   7.524 -0.1729  0.6257 -0.3001
 7414SOL    HW133704   2.360   1.623   7.505 -0.5728  0.3808 -1.5651
 7414SOL    HW233705   2.415   1.525   7.600  0.5537 -0.1211 -0.9073
 7415SOL     OW33706   4.554   3.540   5.625  0.3122 -0.6304 -0.0043
 7415SOL    HW133707   4.614   3.596   5.576  0.8505  0.3421  1.7405
 7415SOL    HW233708   4.616   3.499   5.686  0.6726 -2.4818 -1.6268
 7416SOL     OW33709   0.298   1.490   5.821  0.7468  0.1445  0.0023
 7416SOL    HW133710   0.333   1.546   5.752  1.0359 -0.2156 -0.1419
 7416SOL    HW233711   0.261   1.419   5.768 -1.7344 -0.0350  1.9361
 7417SOL     OW33712   4.695   4.169  16.864 -0.1300  0.0248  0.2160
 7417SOL    HW133713   0.059   4.206  16.868  1.0275 -2.8429  1.6010
 7417SOL    HW233714   4.632   4.241  16.870 -0.9072 -0.5766 -0.7658
 7418SOL     OW33715   1.365   3.853   0.373  0.0008 -0.3847  0.2037
 7418SOL    HW133716   1.307   3.868   0.447  1.1277  0.6354  0.8843
 7418SOL    HW233717   1.341   3.914   0.304  0.3822 -2.7442 -1.9993
 7419SOL     OW33718   1.213   3.953   8.631  0.0366 -0.0481 -0.5315
 7419SOL    HW133719   1.134   3.969   8.580 -0.2818 -1.3829 -0.4496
 7419SOL    HW233720   1.200   3.863   8.660 -1.1260  0.4818  0.6142
 7420SOL     OW33721   1.781   0.796   5.917 -0.0988 -0.6863  0.0112
 7420SOL    HW133722   1.718   0.806   5.846 -0.3227 -0.0653  0.2945
 7420SOL    HW233723   1.854   0.750   5.874  1.3168  1.8576 -0.3077
 7421SOL     OW33724   2.667   4.536   5.224  0.0267  0.0649  0.9589
 7421SOL    HW133725   2.612   4.481   5.168  0.9885  0.7916 -0.6940
 7421SOL    HW233726   2.613   4.547   5.303 -1.5916  0.6467 -0.2079
 7422SOL     OW33727   4.575   4.627  12.135 -0.5026 -0.4620  0.2963
 7422SOL    HW133728   4.524   4.566  12.188  0.8572 -1.7316  0.1391
 7422SOL    HW233729   4.662   4.590  12.145 -0.4819 -0.9901 -2.0210
 7423SOL     OW33730   4.626   0.383   2.875  0.1826  0.1800 -0.1448
 7423SOL    HW133731   4.598   0.453   2.816 -0.3913  1.0355  1.1490
 7423SOL    HW233732   4.710   0.356   2.838  0.9278  2.5596 -0.1553
 7424SOL     OW33733   0.457   3.029  14.949 -0.0998  0.4408 -1.0203
 7424SOL    HW133734   0.372   3.015  14.990  0.2229 -0.3152 -0.6245
 7424SOL    HW233735   0.492   2.940  14.951 -1.6573 -0.1746 -1.0253
 7425SOL     OW33736   0.305   2.131   6.167 -0.0013  0.5589 -0.0885
 7425SOL    HW133737   0.397   2.119   6.187  0.1425 -1.7836 -2.1562
 7425SOL    HW233738   0.298   2.186   6.089 -1.2163  3.2030  1.9038
 7426SOL     OW33739   2.092   2.503   5.564  0.0103  1.1669 -0.0443
 7426SOL    HW133740   2.043   2.553   5.630 -1.1290  0.8462 -0.6539
 7426SOL    HW233741   2.051   2.416   5.567 -1.5540  1.8979 -0.1876
 7427SOL     OW33742   1.985   0.283   9.514  0.0547 -0.2035 -0.0024
 7427SOL    HW133743   1.926   0.296   9.588  3.4012 -1.0268  2.7527
 7427SOL    HW233744   1.979   0.369   9.472 -2.7861  0.2749  1.3993
 7428SOL     OW33745   3.390   3.601   9.924 -0.3936  0.0525 -0.4058
 7428SOL    HW133746   3.437   3.659   9.863  1.6436 -1.0005  0.1396
 7428SOL    HW233747   3.448   3.597  10.000 -0.0034 -1.6623 -0.8100
 7429SOL     OW33748   4.366   1.229   6.624 -0.1414 -0.3313  0.3561
 7429SOL    HW133749   4.451   1.273   6.631  1.1662 -2.5518 -1.0969
 7429SOL    HW233750   4.324   1.289   6.563 -3.1941  0.0946  2.8841
 7430SOL     OW33751   3.951   3.561  16.301  0.2626  0.1723 -0.0896
 7430SOL    HW133752   3.948   3.625  16.373  1.7643 -1.0155  1.0344
 7430SOL    HW233753   4.000   3.493  16.348 -1.4707 -2.2249 -1.7858
 7431SOL     OW33754   3.344   2.122   3.028  0.5647  0.9560  0.1834
 7431SOL    HW133755   3.414   2.062   3.053  0.4610 -0.1199 -2.0326
 7431SOL    HW233756   3.264   2.069   3.029  2.2122 -1.6495 -3.2526
 7432SOL     OW33757   3.315   4.493   1.865  0.3572  0.0182  0.0445
 7432SOL    HW133758   3.312   4.472   1.958  1.4890 -0.2027  0.0280
 7432SOL    HW233759   3.272   4.578   1.871  1.7936  0.7112  0.4604
 7433SOL     OW33760   0.897   3.699  10.159 -0.2354 -0.3165  0.5036
 7433SOL    HW133761   0.894   3.733  10.248  0.2309 -1.3050  0.8853
 7433SOL    HW233762   0.845   3.620  10.171 -0.1373 -0.7160 -1.7542
 7434SOL     OW33763   2.247   1.822   7.896  1.0064  0.0745 -0.5059
 7434SOL    HW133764   2.176   1.762   7.870  0.7942  1.3214 -2.7373
 7434SOL    HW233765   2.194   1.883   7.948  1.6422  0.0227  0.2151
 7435SOL     OW33766   4.349   2.492   5.836 -0.0624  0.0181  0.2733
 7435SOL    HW133767   4.419   2.474   5.898  2.0618 -2.2365 -2.8072
 7435SOL    HW233768   4.397   2.516   5.757 -0.7469 -1.7866 -0.6844
 7436SOL     OW33769   3.839   2.410  15.221  0.4390 -0.4050  0.2338
 7436SOL    HW133770   3.835   2.315  15.233 -3.2015 -0.2767 -0.0429
 7436SOL    HW233771   3.880   2.409  15.134  0.1618 -0.4234  0.1057
 7437SOL     OW33772   0.438   1.567   2.086  0.4738  0.3160  0.3759
 7437SOL    HW133773   0.404   1.588   1.999  1.3959  1.5920  0.3226
 7437SOL    HW233774   0.424   1.653   2.126 -0.9082 -1.5552  3.9136
 7438SOL     OW33775   0.918   0.385  10.111 -1.0938  0.1203 -0.0825
 7438SOL    HW133776   0.855   0.390  10.183 -1.8792  1.1668 -0.8545
 7438SOL    HW233777   0.982   0.333  10.160  0.6335  1.3704 -1.0088
 7439SOL     OW33778   1.241   0.631   2.586  0.4751 -0.1475 -0.0162
 7439SOL    HW133779   1.299   0.585   2.647  0.4612 -0.1762 -0.0250
 7439SOL    HW233780   1.188   0.686   2.644  1.3829 -1.1172  1.7211
 7440SOL     OW33781   1.212   1.631   2.262  0.0220 -0.2754 -0.0549
 7440SOL    HW133782   1.297   1.650   2.223  0.7789 -1.9011  0.7875
 7440SOL    HW233783   1.177   1.712   2.299  1.0116  0.2999 -0.3744
 7441SOL     OW33784   1.675   2.386   5.091 -0.3043  0.0585  0.1302
 7441SOL    HW133785   1.584   2.361   5.074  0.3613 -1.1385 -1.5626
 7441SOL    HW233786   1.712   2.405   5.005 -1.6849 -0.8998 -0.6767
 7442SOL     OW33787   3.259   1.483   0.715  0.2426 -0.0799  0.8404
 7442SOL    HW133788   3.352   1.479   0.695  0.2825  0.4788  0.9063
 7442SOL    HW233789   3.267   1.490   0.810  1.5571  2.1447  0.5645
 7443SOL     OW33790   1.719   4.692  11.428 -0.7004 -0.1267  0.5424
 7443SOL    HW133791   1.779   4.717  11.357 -1.7517  0.7263 -0.0508
 7443SOL    HW233792   1.663   4.652  11.361 -0.4768 -0.2040  0.3993
 7444SOL     OW33793   2.429   1.428   0.650 -0.3428 -0.1208 -0.2018
 7444SOL    HW133794   2.511   1.461   0.614  0.4047 -0.2504  1.3719
 7444SOL    HW233795   2.369   1.424   0.576  0.0304 -1.5065 -0.4284
 7445SOL     OW33796   0.315   4.136   6.030  0.1534 -0.0775 -0.6540
 7445SOL    HW133797   0.326   4.228   6.055 -3.2118  0.1522 -0.0288
 7445SOL    HW233798   0.240   4.129   5.970 -1.0869  0.8048  0.7890
 7446SOL     OW33799   4.430   2.628   9.771 -0.4097 -0.2263 -0.0385
 7446SOL    HW133800   4.479   2.552   9.742  0.5258  0.0282  0.8467
 7446SOL    HW233801   4.354   2.592   9.815 -1.1439  0.4823 -0.7251
 7447SOL     OW33802   1.973   1.594   2.744  0.4335 -0.1156 -0.2548
 7447SOL    HW133803   1.950   1.503   2.761  1.3287 -0.7351 -2.3684
 7447SOL    HW233804   1.898   1.619   2.690  0.3180 -0.3080 -0.1831
 7448SOL     OW33805   3.718   0.405   5.625 -0.0542  0.3258  0.4277
 7448SOL    HW133806   3.640   0.351   5.637  0.4792 -0.5453  0.0276
 7448SOL    HW233807   3.698   0.495   5.651 -0.4028  0.6115 -0.8136
 7449SOL     OW33808   4.585   1.563   4.382  0.0190 -0.5595 -0.5975
 7449SOL    HW133809   4.593   1.589   4.290  0.1013  0.5360 -0.2894
 7449SOL    HW233810   4.618   1.473   4.377 -0.7379 -0.9180  0.8145
 7450SOL     OW33811   2.074   1.988   5.266 -0.1140 -0.2333  0.2577
 7450SOL    HW133812   1.995   1.936   5.254 -0.9760  0.8119  1.3298
 7450SOL    HW233813   2.038   2.065   5.222 -0.7090 -0.8542 -0.3335
 7451SOL     OW33814   0.221   4.085   8.115 -0.0021  0.3195  0.3280
 7451SOL    HW133815   0.163   4.131   8.054 -1.1570 -2.3499 -0.5943
 7451SOL    HW233816   0.195   3.994   8.098 -0.5701  0.3180  1.1963
 7452SOL     OW33817   3.502   3.646   6.258  0.5317 -0.2224 -0.0994
 7452SOL    HW133818   3.495   3.649   6.353  0.8036 -0.8043 -0.0624
 7452SOL    HW233819   3.595   3.652   6.238  0.2512 -0.5814 -1.5514
 7453SOL     OW33820   3.620   2.445   7.135 -0.7725 -0.2913 -0.2005
 7453SOL    HW133821   3.637   2.497   7.213  1.3453 -3.4180  1.3980
 7453SOL    HW233822   3.690   2.380   7.140 -1.6504 -1.1044  1.3396
 7454SOL     OW33823   1.388   3.965   5.670 -0.2767 -0.0649 -0.1457
 7454SOL    HW133824   1.362   4.057   5.669 -0.8011 -0.2098  0.0920
 7454SOL    HW233825   1.391   3.952   5.765  2.2556 -0.4765 -0.2927
 7455SOL     OW33826   2.227   0.875   6.474 -0.5124  0.4277  0.2769
 7455SOL    HW133827   2.147   0.915   6.438  1.2993  0.5668 -3.6224
 7455SOL    HW233828   2.211   0.884   6.568  1.7525  1.0761  0.5934
 7456SOL     OW33829   1.780   2.962   6.879  0.9039 -0.7474 -0.0906
 7456SOL    HW133830   1.870   2.975   6.909  0.6341 -0.2512  0.5084
 7456SOL    HW233831   1.773   2.867   6.870 -2.0676 -0.7999  2.5494
 7457SOL     OW33832   2.868   3.265   5.525  0.3748  0.7242  0.3118
 7457SOL    HW133833   2.892   3.220   5.444  1.6687  1.7914  0.0941
 7457SOL    HW233834   2.777   3.236   5.527  0.4543  0.4692  0.1483
 7458SOL     OW33835   1.683   3.024   2.735 -0.0434 -0.2558  0.0783
 7458SOL    HW133836   1.619   3.040   2.665  0.8947  0.4515 -0.6187
 7458SOL    HW233837   1.731   3.106   2.748  1.5104 -1.0174 -0.7679
 7459SOL     OW33838   2.195   4.554   1.264  0.1839  0.3757  0.2199
 7459SOL    HW133839   2.268   4.583   1.318 -0.9728 -2.0792  3.0570
 7459SOL    HW233840   2.118   4.582   1.313 -1.0785  0.5910 -1.8838
 7460SOL     OW33841   1.648   0.163  16.532 -0.0907 -0.0973  0.1379
 7460SOL    HW133842   1.642   0.184  16.439  0.4189  1.6699  0.4956
 7460SOL    HW233843   1.701   0.083  16.528  2.1374  1.3736 -0.1579
 7461SOL     OW33844   3.267   0.968   2.264 -0.7958 -0.3895 -0.2054
 7461SOL    HW133845   3.259   1.060   2.289 -0.4405 -0.1616 -0.9224
 7461SOL    HW233846   3.198   0.963   2.197 -3.5359  1.2384  2.4891
 7462SOL     OW33847   3.833   1.911   9.811 -0.7315  0.0924  0.1546
 7462SOL    HW133848   3.920   1.881   9.787 -0.5897  1.3129 -0.8440
 7462SOL    HW233849   3.791   1.828   9.836  3.2110 -1.9033  0.1239
 7463SOL     OW33850   1.068   2.694  16.284 -0.3654 -0.2548 -0.9333
 7463SOL    HW133851   1.094   2.606  16.312  0.0314 -0.1594 -1.0026
 7463SOL    HW233852   0.987   2.671  16.239 -0.9443 -0.3990  0.1750
 7464SOL     OW33853   2.891   4.078   4.395 -0.8532  0.0313 -0.1671
 7464SOL    HW133854   2.969   4.133   4.402  0.1946 -1.3638 -0.6854
 7464SOL    HW233855   2.816   4.134   4.414 -0.4835  0.0558  1.1846
 7465SOL     OW33856   2.245   4.087   5.334  0.3940 -0.1872 -0.3114
 7465SOL    HW133857   2.234   4.182   5.331 -0.8421 -0.4056 -2.6869
 7465SOL    HW233858   2.178   4.054   5.393 -0.1325  1.3195 -0.0684
 7466SOL     OW33859   0.858   4.534   9.114  0.0491 -0.3482  0.0249
 7466SOL    HW133860   0.843   4.552   9.207 -1.0657 -0.7961 -0.0701
 7466SOL    HW233861   0.853   4.626   9.086 -3.1168 -0.9103 -1.2976
 7467SOL     OW33862   2.782   3.307  17.520  0.3754 -0.4878 -0.0812
 7467SOL    HW133863   2.864   3.264  17.495  1.7891  2.2693 -0.0952
 7467SOL    HW233864   2.743   3.312  17.433  1.6007  0.3663 -0.5717
 7468SOL     OW33865   0.507   3.164   7.007 -0.3961 -0.2642  0.0548
 7468SOL    HW133866   0.441   3.099   7.030 -1.9320  1.8988  1.7595
 7468SOL    HW233867   0.476   3.198   6.923 -0.7046 -0.4458  0.0970
 7469SOL     OW33868   1.500   4.020   6.687 -0.1495  0.1704 -0.6685
 7469SOL    HW133869   1.442   3.975   6.749  0.7809  0.6889  0.5893
 7469SOL    HW233870   1.559   4.054   6.754  1.2886 -0.8555 -1.3954
 7470SOL     OW33871   0.969   0.111   3.815 -0.0674  0.4606  0.1072
 7470SOL    HW133872   1.020   0.105   3.734 -2.2363 -0.3357 -1.2215
 7470SOL    HW233873   0.909   0.182   3.793  1.0514  1.8222  1.4784
 7471SOL     OW33874   4.220   0.521   4.838  0.6326  0.1054 -0.4618
 7471SOL    HW133875   4.243   0.563   4.755  0.3257  1.0943 -0.0470
 7471SOL    HW233876   4.307   0.501   4.872  1.0767 -0.4889 -1.9240
 7472SOL     OW33877   0.044   3.660  15.937  0.1728 -0.4257 -0.1067
 7472SOL    HW133878   0.002   3.618  16.013 -1.2340  0.9997 -0.0981
 7472SOL    HW233879   0.084   3.739  15.973 -0.2049 -0.1904 -0.2031
 7473SOL     OW33880   1.683   2.715   8.684 -1.1405  0.2629  0.3301
 7473SOL    HW133881   1.763   2.686   8.727 -2.8574 -2.6465  1.5361
 7473SOL    HW233882   1.671   2.657   8.609 -1.6519  0.5288  0.1983
 7474SOL     OW33883   4.041   4.181   5.665 -0.5247 -0.6691 -0.1924
 7474SOL    HW133884   3.985   4.209   5.592 -1.0261  2.0825  1.2625
 7474SOL    HW233885   3.982   4.158   5.736 -0.0034 -0.3020  0.3603
 7475SOL     OW33886   1.206   3.289   5.070 -0.4740  0.0739  0.5566
 7475SOL    HW133887   1.290   3.294   5.024  0.1166  0.7416  1.6947
 7475SOL    HW233888   1.161   3.208   5.050  2.4930 -1.4559  0.0202
 7476SOL     OW33889   0.100   2.109   4.463  0.0601 -0.2937  0.2663
 7476SOL    HW133890   0.184   2.155   4.470  1.0799 -2.2193  0.9159
 7476SOL    HW233891   0.033   2.177   4.463  1.2117  0.8607 -2.7866
 7477SOL     OW33892   1.488   3.174   5.829  0.4972  0.3699  0.6663
 7477SOL    HW133893   1.433   3.160   5.906 -1.8252  0.7205 -0.9600
 7477SOL    HW233894   1.560   3.115   5.851 -0.2696 -0.7386  0.1425
 7478SOL     OW33895   3.214   0.288  16.909  1.0014 -0.3105  0.1815
 7478SOL    HW133896   3.188   0.348  16.838 -1.1012 -1.5300 -0.0607
 7478SOL    HW233897   3.153   0.296  16.982  1.2498 -1.4661  0.5082
 7479SOL     OW33898   2.606   1.577   3.067 -0.1471 -0.3795  0.2850
 7479SOL    HW133899   2.580   1.490   3.097  1.2170 -0.5687  0.9007
 7479SOL    HW233900   2.692   1.553   3.032 -0.7469 -2.8077  0.4992
 7480SOL     OW33901   4.228   0.157   4.209  0.1832 -0.1069  0.0537
 7480SOL    HW133902   4.254   0.065   4.210 -0.1600 -0.1858  1.4028
 7480SOL    HW233903   4.135   0.145   4.192  0.0157  1.0445  0.1966
 7481SOL     OW33904   0.714   1.137   6.652 -0.3364 -0.1788 -0.3953
 7481SOL    HW133905   0.735   1.132   6.559  0.4720  1.5578 -0.3138
 7481SOL    HW233906   0.794   1.097   6.686 -0.2956  1.2789  1.2684
 7482SOL     OW33907   3.722   3.650   3.604 -0.0678  0.0177 -0.4505
 7482SOL    HW133908   3.805   3.618   3.569  1.4034  2.1312  1.0999
 7482SOL    HW233909   3.656   3.584   3.580 -0.4459  0.7877 -1.5922
 7483SOL     OW33910   2.682   0.272   3.315 -0.0062  0.9254  0.2926
 7483SOL    HW133911   2.757   0.301   3.264  0.0745  1.9392  0.9987
 7483SOL    HW233912   2.730   0.236   3.390 -1.1786 -0.6423  0.3061
 7484SOL     OW33913   2.389   2.908   4.236 -0.2335 -0.2206 -0.3966
 7484SOL    HW133914   2.451   2.980   4.238 -1.5177  0.8769 -0.1558
 7484SOL    HW233915   2.412   2.860   4.157 -1.1751  0.4180 -1.0598
 7485SOL     OW33916   2.373   4.183  14.311  0.9170  0.2675  0.5793
 7485SOL    HW133917   2.383   4.222  14.224 -0.2692  0.2033  0.4217
 7485SOL    HW233918   2.281   4.196  14.333  0.4376 -1.5187 -0.4390
 7486SOL     OW33919   0.818   0.075   4.250  0.5977 -0.4611 -0.0677
 7486SOL    HW133920   0.782   0.120   4.326  1.0276  1.0492 -0.7635
 7486SOL    HW233921   0.793   4.710   4.276 -0.6015 -0.8041 -2.4479
 7487SOL     OW33922   1.235   0.736   4.789 -0.8259  0.2629  0.5455
 7487SOL    HW133923   1.180   0.779   4.855  0.7460  0.6526  1.6015
 7487SOL    HW233924   1.318   0.719   4.835 -0.1872  1.5859 -0.1264
 7488SOL     OW33925   1.841   0.361   3.414  0.2159  0.4608 -0.6171
 7488SOL    HW133926   1.792   0.387   3.492 -1.4737  0.8023 -1.7783
 7488SOL    HW233927   1.919   0.416   3.421 -2.5099  4.2046  0.1989
 7489SOL     OW33928   0.350   2.127   8.823  0.0743  0.2520 -0.5729
 7489SOL    HW133929   0.277   2.170   8.867 -0.0619 -3.5367  2.8695
 7489SOL    HW233930   0.405   2.096   8.895  1.4002  1.3209 -1.0986
 7490SOL     OW33931   3.686   0.918  14.899 -0.6514  0.0695 -0.2525
 7490SOL    HW133932   3.602   0.901  14.943  0.3775  1.4459  2.2420
 7490SOL    HW233933   3.644   0.953  14.820  0.6834 -0.7827 -1.3300
 7491SOL     OW33934   2.240   0.562   5.804 -0.0217  0.0678 -0.0837
 7491SOL    HW133935   2.275   0.564   5.715 -0.9400  3.1947 -0.3819
 7491SOL    HW233936   2.316   0.578   5.860  0.6850  0.6123 -1.2015
 7492SOL     OW33937   2.764   0.167   3.754 -0.6114 -0.0982  0.9042
 7492SOL    HW133938   2.763   0.074   3.731  0.2110  0.3440 -0.9605
 7492SOL    HW233939   2.707   0.207   3.688 -0.5218 -2.1234 -0.4123
 7493SOL     OW33940   2.863   2.246   1.406  0.1885 -0.7405  0.1814
 7493SOL    HW133941   2.869   2.269   1.498 -0.0579  2.7298 -0.6869
 7493SOL    HW233942   2.790   2.184   1.407 -0.2177 -0.2881 -1.4595
 7494SOL     OW33943   4.550   3.036   2.448 -0.1904 -0.1585 -0.1569
 7494SOL    HW133944   4.638   3.072   2.440  0.3562 -1.8532 -1.6586
 7494SOL    HW233945   4.498   3.108   2.484 -1.2416  0.0344 -2.0393
 7495SOL     OW33946   2.408   0.999   4.541  0.6845 -0.2403 -0.1852
 7495SOL    HW133947   2.334   1.015   4.601 -0.5151 -0.3414 -1.6320
 7495SOL    HW233948   2.417   1.088   4.506 -0.4867 -0.8318 -2.0001
 7496SOL     OW33949   2.866   3.801   4.156  0.0192  0.3027  0.5063
 7496SOL    HW133950   2.864   3.877   4.098  2.0762 -1.3221 -1.6763
 7496SOL    HW233951   2.775   3.802   4.186 -0.4427 -1.1646 -0.8780
 7497SOL     OW33952   2.501   1.412   8.488 -0.5016  0.2262  0.4248
 7497SOL    HW133953   2.439   1.369   8.547 -0.1917  0.5252  0.9727
 7497SOL    HW233954   2.443   1.477   8.449  0.5088  0.0173 -1.4388
 7498SOL     OW33955   2.274   1.931   0.619 -0.5779  0.0185 -0.4326
 7498SOL    HW133956   2.227   2.008   0.651 -0.4714  0.2687 -0.8719
 7498SOL    HW233957   2.214   1.878   0.566 -2.1718  2.5165 -1.0996
 7499SOL     OW33958   1.132   0.865   8.950  0.4602  0.4024  0.0395
 7499SOL    HW133959   1.161   0.901   9.034 -0.5997 -0.6140  0.8465
 7499SOL    HW233960   1.096   0.784   8.987 -1.2925  1.2548  0.2079
 7500SOL     OW33961   3.430   3.525  11.128  0.5862  0.4707 -0.3331
 7500SOL    HW133962   3.380   3.569  11.196  1.6034 -0.5112  1.0490
 7500SOL    HW233963   3.477   3.601  11.092  0.8364 -1.3818 -3.9869
 7501SOL     OW33964   1.334   1.389   0.988 -0.5647 -0.1690 -0.5430
 7501SOL    HW133965   1.300   1.469   1.028  0.5129 -1.3442  2.6939
 7501SOL    HW233966   1.249   1.364   0.952 -0.8238 -0.5945  0.3588
 7502SOL     OW33967   1.971   4.269  11.380 -0.4178  0.2244  0.4751
 7502SOL    HW133968   1.952   4.201  11.445 -1.5694  2.1907  2.2119
 7502SOL    HW233969   1.944   4.343  11.434 -1.1056 -0.4723  1.0812
 7503SOL     OW33970   0.172   4.643   1.642 -0.0556  0.1224  0.1148
 7503SOL    HW133971   0.134   4.561   1.675  0.3962 -0.4224 -0.7139
 7503SOL    HW233972   0.119   4.664   1.565  0.9652 -1.0449 -0.9232
 7504SOL     OW33973   2.846   2.265  16.642 -1.0842 -0.3653  0.3473
 7504SOL    HW133974   2.868   2.177  16.613  0.1539  0.0699 -0.0465
 7504SOL    HW233975   2.808   2.289  16.557  0.6790  2.1030  0.2227
 7505SOL     OW33976   3.371   0.701   2.643 -0.1861 -0.3125 -0.2694
 7505SOL    HW133977   3.426   0.774   2.671  0.0418 -0.4129 -0.4545
 7505SOL    HW233978   3.426   0.639   2.595 -0.4343 -1.5518  1.0601
 7506SOL     OW33979   3.699   1.762  14.308  0.1723  0.0064  0.0339
 7506SOL    HW133980   3.606   1.775  14.291 -0.0966 -1.1790  0.6469
 7506SOL    HW233981   3.717   1.719  14.224 -1.2259  0.0964 -0.3085
 7507SOL     OW33982   3.346   1.348  10.825 -0.4463 -0.0690 -0.4351
 7507SOL    HW133983   3.417   1.365  10.763 -0.1377  0.7057  0.1262
 7507SOL    HW233984   3.320   1.438  10.841  0.1442 -0.1761  1.1982
 7508SOL     OW33985   4.254   1.955   9.487  0.2827 -0.2156 -0.6299
 7508SOL    HW133986   4.296   1.948   9.573  0.5783 -0.5741 -0.8050
 7508SOL    HW233987   4.249   1.860   9.477 -1.0607  0.0096 -2.0566
 7509SOL     OW33988   0.320   1.820   4.215  0.0776  0.5902 -0.3546
 7509SOL    HW133989   0.365   1.770   4.147  0.3395  0.4671 -0.0943
 7509SOL    HW233990   0.229   1.794   4.223 -0.2292  1.5456 -0.6943
 7510SOL     OW33991   2.371   3.563   1.347  0.3214  0.0648  0.0652
 7510SOL    HW133992   2.431   3.515   1.404 -0.6496  1.5757  2.3552
 7510SOL    HW233993   2.357   3.493   1.284 -1.4850  1.5988 -1.2162
 7511SOL     OW33994   1.549   0.613   4.005 -0.0747  0.1605  0.8398
 7511SOL    HW133995   1.575   0.629   4.096  0.3030 -1.3438  1.0012
 7511SOL    HW233996   1.470   0.565   4.030 -0.1779  0.8686  1.8914
 7512SOL     OW33997   3.422   2.926   5.086  0.2168 -0.3992 -0.4544
 7512SOL    HW133998   3.464   3.002   5.126 -0.2832 -0.5168  0.3037
 7512SOL    HW233999   3.370   2.892   5.159 -1.4332  0.2243 -1.3277
 7513SOL     OW34000   2.805   1.543   6.325 -0.0251 -0.2786 -0.1334
 7513SOL    HW134001   2.896   1.540   6.355 -0.1304  1.4385  0.3466
 7513SOL    HW234002   2.816   1.570   6.234  0.0727 -2.3799 -0.7409
 7514SOL     OW34003   1.803   2.743  13.476  0.6080 -0.1705 -0.1952
 7514SOL    HW134004   1.818   2.830  13.437  0.0300  0.1244  0.2287
 7514SOL    HW234005   1.814   2.753  13.571 -0.3503  1.3051 -0.2190
 7515SOL     OW34006   3.010   0.007   7.076 -0.5082  0.2100 -0.5387
 7515SOL    HW134007   2.947   0.008   7.004 -1.5240  2.4692  0.3961
 7515SOL    HW234008   3.024   0.102   7.079 -2.2186  0.4586 -0.1495
 7516SOL     OW34009   0.806   4.259  13.814 -0.6322 -0.0220 -0.0253
 7516SOL    HW134010   0.736   4.293  13.757  0.6052 -0.1054 -1.5823
 7516SOL    HW234011   0.765   4.246  13.899 -1.8569  0.5897 -0.5107
 7517SOL     OW34012   0.372   0.418  15.724  0.2624  0.1921  0.0932
 7517SOL    HW134013   0.387   0.473  15.647  0.7826  2.3127  1.6969
 7517SOL    HW234014   0.446   0.428  15.784  1.0111  1.1921 -0.9926
 7518SOL     OW34015   1.285   2.840   2.608 -0.4377 -0.3077  0.2883
 7518SOL    HW134016   1.365   2.788   2.613  0.2652  0.5039 -2.6619
 7518SOL    HW234017   1.291   2.867   2.516  0.6921  0.9687  0.7435
 7519SOL     OW34018   0.327   0.930   3.864 -0.3116  0.5667  0.1172
 7519SOL    HW134019   0.357   0.855   3.915  1.9996 -0.5373 -2.8114
 7519SOL    HW234020   0.232   0.921   3.858 -0.3602  0.0496  1.9709
 7520SOL     OW34021   1.458   1.267   8.174  0.0648 -0.4158 -0.1533
 7520SOL    HW134022   1.390   1.216   8.219 -0.1317  0.3493  0.4272
 7520SOL    HW234023   1.418   1.353   8.160  0.3396 -0.0994  0.9511
 7521SOL     OW34024   4.646   0.221  10.864  0.3258 -0.7255 -0.2330
 7521SOL    HW134025   4.713   0.253  10.804  0.4145 -0.7699 -0.1577
 7521SOL    HW234026   4.683   0.147  10.913  1.0020  0.3036  0.7953
 7522SOL     OW34027   3.720   3.026   6.455  0.6222 -0.2830 -0.2168
 7522SOL    HW134028   3.739   2.932   6.445 -0.1043 -0.2126 -2.2921
 7522SOL    HW234029   3.629   3.036   6.427 -0.0125 -0.5063  1.7934
 7523SOL     OW34030   0.631   0.178   7.259 -0.4768 -0.0061 -0.1355
 7523SOL    HW134031   0.662   0.237   7.329  1.4741 -0.6698 -0.4382
 7523SOL    HW234032   0.627   0.100   7.315 -0.4859 -0.6959 -1.1099
 7524SOL     OW34033   0.398   3.127  17.338  0.1320  0.4079 -0.5966
 7524SOL    HW134034   0.451   3.070  17.282 -1.3921 -2.3656  0.8093
 7524SOL    HW234035   0.328   3.063  17.339  1.2381 -0.7589  0.6534
 7525SOL     OW34036   1.647   2.268  10.635 -0.1191 -0.7722  0.1770
 7525SOL    HW134037   1.710   2.309  10.577 -1.8010 -0.5446 -1.4918
 7525SOL    HW234038   1.611   2.346  10.677 -2.9787 -1.7985 -0.3665
 7526SOL     OW34039   0.013   1.585   2.661  0.4370  0.1089 -0.2534
 7526SOL    HW134040   0.062   1.639   2.600  0.9881  1.5784  1.4830
 7526SOL    HW234041   4.665   1.636   2.701 -0.1848 -0.5897 -0.4779
 7527SOL     OW34042   0.048   3.462   4.116 -0.4918 -0.3500 -0.6055
 7527SOL    HW134043   0.051   3.407   4.037 -2.2630 -0.1775 -0.8060
 7527SOL    HW234044   4.715   3.414   4.176 -0.9309  1.1847  0.2140
 7528SOL     OW34045   3.498   1.590  11.799  0.7526 -0.3111  0.6452
 7528SOL    HW134046   3.556   1.545  11.737 -0.0440  0.0716 -0.3716
 7528SOL    HW234047   3.429   1.524  11.808  0.2688  0.0817 -0.1641
 7529SOL     OW34048   1.432   1.378  16.790  0.0955  0.1919  0.3745
 7529SOL    HW134049   1.376   1.301  16.797  1.6561 -0.8899  0.9930
 7529SOL    HW234050   1.412   1.420  16.873  1.1449  0.3087  0.5723
 7530SOL     OW34051   2.393   0.739   6.159  0.7438  0.9099 -0.0755
 7530SOL    HW134052   2.319   0.800   6.150 -0.4523 -0.4606  0.4559
 7530SOL    HW234053   2.462   0.801   6.181  2.1909  0.2472 -2.7122
 7531SOL     OW34054   3.441   1.201   6.809  0.7950  0.2984  0.2719
 7531SOL    HW134055   3.384   1.161   6.875  0.7432 -0.5679 -0.2883
 7531SOL    HW234056   3.425   1.293   6.830  0.5396 -0.0899  1.7474
 7532SOL     OW34057   4.341   1.783   7.067 -0.2056 -0.4999  0.6166
 7532SOL    HW134058   4.342   1.757   6.975 -0.8477  1.1956  0.1409
 7532SOL    HW234059   4.364   1.706   7.119 -0.7563 -0.7077  0.5407
 7533SOL     OW34060   0.412   2.368   9.034 -0.0315 -0.3205  0.5564
 7533SOL    HW134061   0.465   2.335   9.106 -0.0229  0.9592  1.1324
 7533SOL    HW234062   0.334   2.313   9.035 -0.9260  0.9195 -2.0795
 7534SOL     OW34063   3.993   0.244   2.741  0.6252 -0.0472  0.0060
 7534SOL    HW134064   4.088   0.254   2.739  0.4336  1.5911 -0.2815
 7534SOL    HW234065   3.959   0.239   2.651 -0.5921 -0.4242  0.4761
 7535SOL     OW34066   3.102   3.638  12.454  0.2406 -0.1098 -0.2311
 7535SOL    HW134067   3.146   3.618  12.372  1.0967  0.8551 -0.0016
 7535SOL    HW234068   3.026   3.579  12.446  1.0661 -0.9565 -1.6977
 7536SOL     OW34069   0.560   2.353   9.741 -0.3764  0.2070 -0.1614
 7536SOL    HW134070   0.641   2.394   9.712 -1.5763  1.5029 -1.7186
 7536SOL    HW234071   0.589   2.277   9.790 -1.7603 -0.3840 -0.2641
 7537SOL     OW34072   3.077   1.314   1.272  0.3291  0.1997  0.0133
 7537SOL    HW134073   3.014   1.244   1.258  1.3497 -0.2348 -2.3418
 7537SOL    HW234074   3.047   1.385   1.215 -0.2746  1.0238  1.3429
 7538SOL     OW34075   4.646   1.346   1.321  0.0422  0.6641  0.0023
 7538SOL    HW134076   4.589   1.293   1.264  0.2954 -0.6067  0.9398
 7538SOL    HW234077   4.707   1.282   1.358 -1.3156  0.8923  2.6342
 7539SOL     OW34078   4.153   2.385   5.562 -0.2318 -0.0528  0.1636
 7539SOL    HW134079   4.140   2.477   5.584  0.6426 -0.0183  0.5126
 7539SOL    HW234080   4.094   2.351   5.629  0.5526 -2.0715 -0.1854
 7540SOL     OW34081   1.601   2.263   9.630 -0.1955 -0.1451  0.5523
 7540SOL    HW134082   1.631   2.199   9.694  0.1583 -0.5889 -0.0619
 7540SOL    HW234083   1.682   2.315   9.627 -0.2891  0.0290  0.9227
 7541SOL     OW34084   1.201   2.557   0.925 -0.7353 -0.0450 -0.6373
 7541SOL    HW134085   1.181   2.465   0.944  0.7270 -0.0456  0.8658
 7541SOL    HW234086   1.120   2.588   0.885 -1.8581 -3.5306 -1.1203
 7542SOL     OW34087   0.873   1.946   6.168 -0.5968 -0.1381 -1.0922
 7542SOL    HW134088   0.896   1.861   6.207  1.9175  0.6613 -0.8699
 7542SOL    HW234089   0.841   1.916   6.083  1.0985 -0.7151 -1.5259
 7543SOL     OW34090   0.823   0.406  14.215  0.0645  0.5806 -0.4066
 7543SOL    HW134091   0.799   0.454  14.294  0.0539  1.2936 -0.8346
 7543SOL    HW234092   0.766   0.329  14.212  1.1636 -0.1995 -1.4266
 7544SOL     OW34093   4.241   3.738   7.676  0.0608  0.4385  0.0197
 7544SOL    HW134094   4.329   3.715   7.648 -0.2064 -2.7686  1.7220
 7544SOL    HW234095   4.215   3.801   7.610  0.2982  0.4157 -0.0929
 7545SOL     OW34096   1.169   1.722   7.776  0.2209  0.7375 -0.2623
 7545SOL    HW134097   1.214   1.773   7.843  0.5016  0.0410  0.0773
 7545SOL    HW234098   1.081   1.760   7.776  0.5134  1.4126 -0.3038
 7546SOL     OW34099   4.588   3.751   5.241 -0.0535 -0.0208  0.0128
 7546SOL    HW134100   4.660   3.809   5.216  0.6229 -0.1933  1.5551
 7546SOL    HW234101   4.514   3.807   5.266  0.9644  0.1647  2.6347
 7547SOL     OW34102   4.709   0.184   9.895  0.4960 -0.9078 -0.0919
 7547SOL    HW134103   4.626   0.210   9.935  1.6198  0.4837  1.3346
 7547SOL    HW234104   4.691   0.191   9.802  2.9273  0.8302 -0.4273
 7548SOL     OW34105   4.119   0.502   5.629  0.0784  0.1548 -0.0165
 7548SOL    HW134106   4.097   0.534   5.716 -1.6215 -0.5423 -0.1942
 7548SOL    HW234107   4.186   0.437   5.651 -0.9027  0.2002  3.1201
 7549SOL     OW34108   4.468   2.397   7.199 -0.2453 -0.3663  0.2737
 7549SOL    HW134109   4.412   2.418   7.125 -1.1633 -4.0105 -0.0571
 7549SOL    HW234110   4.554   2.416   7.162 -0.1661 -0.5740  0.3549
 7550SOL     OW34111   3.257   1.762   5.967 -0.7384 -0.2390 -0.7483
 7550SOL    HW134112   3.211   1.684   5.937 -1.0798 -0.2073 -0.2914
 7550SOL    HW234113   3.244   1.819   5.892  1.3586  0.6722 -0.4232
 7551SOL     OW34114   4.020   3.809   8.416 -0.9327 -0.0604 -0.4588
 7551SOL    HW134115   4.071   3.888   8.395 -0.0651 -0.5264 -0.1084
 7551SOL    HW234116   4.012   3.815   8.511  0.6389 -1.3485 -0.2343
 7552SOL     OW34117   0.521   2.536   2.325 -0.0956 -0.1197  0.0333
 7552SOL    HW134118   0.529   2.593   2.402 -1.6200  0.0231  0.0878
 7552SOL    HW234119   0.597   2.564   2.275  1.0354 -4.1488 -0.4429
 7553SOL     OW34120   2.112   1.069  13.153  0.2226  0.4920 -0.2556
 7553SOL    HW134121   2.149   1.154  13.133  1.9613  0.0794  1.2207
 7553SOL    HW234122   2.193   1.023  13.131  0.8524  0.9363  1.1535
 7554SOL     OW34123   3.677   1.972  16.617 -0.2482 -0.3492 -0.6507
 7554SOL    HW134124   3.586   1.971  16.587 -0.1567 -1.5407 -0.8772
 7554SOL    HW234125   3.656   2.001  16.706  2.2282 -0.0278 -0.1680
 7555SOL     OW34126   0.145   0.974   3.110  0.4546  0.2251  0.4097
 7555SOL    HW134127   0.214   1.028   3.072 -0.6091  0.6681 -0.8729
 7555SOL    HW234128   0.202   0.937   3.178  0.3575  0.5389  0.6620
 7556SOL     OW34129   0.826   2.861   3.168 -0.0529 -0.5563 -0.2104
 7556SOL    HW134130   0.796   2.819   3.087  0.4516 -3.9035  1.3868
 7556SOL    HW234131   0.918   2.866   3.143  0.4411  1.2547  2.0020
 7557SOL     OW34132   1.107   2.341   0.699  0.5633 -0.0165 -0.2934
 7557SOL    HW134133   1.202   2.357   0.697  0.6813 -0.6272  0.3336
 7557SOL    HW234134   1.104   2.326   0.794 -3.8783 -0.2440 -0.5054
 7558SOL     OW34135   1.739   0.519  16.620  0.5169 -0.0523  0.1318
 7558SOL    HW134136   1.717   0.450  16.682 -0.5563 -1.5868 -1.9682
 7558SOL    HW234137   1.690   0.595  16.653  2.0616  0.2898  1.6450
 7559SOL     OW34138   3.730   0.921   3.236 -0.0050 -0.1814  0.1526
 7559SOL    HW134139   3.722   0.904   3.142  0.4594 -0.3860  0.1485
 7559SOL    HW234140   3.799   0.988   3.229  2.6956 -2.8647  1.1159
 7560SOL     OW34141   0.803   2.561   8.136  0.0237  0.3315  0.0196
 7560SOL    HW134142   0.723   2.596   8.096 -1.1488 -4.2806 -1.7810
 7560SOL    HW234143   0.829   2.645   8.172 -1.8573  0.6463  0.6387
 7561SOL     OW34144   0.570   4.610   6.330  0.1584 -0.0430 -0.5407
 7561SOL    HW134145   0.646   4.575   6.283  0.6160  0.3378 -0.0865
 7561SOL    HW234146   0.548   4.545   6.396  0.2847  1.2999  0.8181
 7562SOL     OW34147   0.128   3.105   6.227 -0.4150  0.2479  0.1971
 7562SOL    HW134148   0.110   3.065   6.141 -0.8642  1.3945 -0.2354
 7562SOL    HW234149   0.048   3.156   6.219 -0.2037 -0.0495 -3.6915
 7563SOL     OW34150   2.922   4.607  10.027 -0.2586  0.5850 -0.1623
 7563SOL    HW134151   2.947   4.598  10.119 -0.4356  1.1513 -0.0604
 7563SOL    HW234152   3.000   4.604   9.971  0.9161  0.6509  1.4708
 7564SOL     OW34153   0.260   3.497   2.340 -0.4436 -0.0810 -0.4319
 7564SOL    HW134154   0.244   3.425   2.278  0.5496  0.1669 -0.9667
 7564SOL    HW234155   0.167   3.518   2.346 -0.3897  0.6006 -1.9544
 7565SOL     OW34156   2.810   4.277  10.003 -0.0829  0.3804  0.2705
 7565SOL    HW134157   2.869   4.336  10.050  0.6573 -0.7955  0.8064
 7565SOL    HW234158   2.866   4.203   9.983  0.4523  1.0456 -0.6976
 7566SOL     OW34159   2.336   2.838  14.891  0.2189  0.4110  0.1251
 7566SOL    HW134160   2.334   2.903  14.821  0.9592  0.5146  0.2101
 7566SOL    HW234161   2.270   2.774  14.863 -0.7276 -0.0503  3.3925
 7567SOL     OW34162   2.054   3.036   8.456  0.7056  0.0714 -0.2809
 7567SOL    HW134163   2.034   2.944   8.471 -1.4615  0.5375 -0.3327
 7567SOL    HW234164   2.018   3.047   8.368  1.5218  1.4230 -0.4461
 7568SOL     OW34165   0.491   3.663   0.190  0.2411 -0.2097 -0.0549
 7568SOL    HW134166   0.550   3.701   0.125 -0.6509  2.0966  0.4688
 7568SOL    HW234167   0.550   3.619   0.251 -1.3080 -1.2043  0.7269
 7569SOL     OW34168   1.258   2.893   6.326 -0.0551  0.1835 -0.6673
 7569SOL    HW134169   1.248   2.825   6.393 -2.2193 -0.2323 -1.4033
 7569SOL    HW234170   1.190   2.876   6.262  0.5524 -1.0265 -0.9978
 7570SOL     OW34171   3.853   4.057  14.578  0.0751  0.2508 -0.0062
 7570SOL    HW134172   3.794   4.130  14.595 -0.7153 -0.0183 -1.5991
 7570SOL    HW234173   3.928   4.083  14.632  0.5881 -1.9520  0.3365
 7571SOL     OW34174   4.193   2.095   4.290 -0.3849  0.1339 -0.2815
 7571SOL    HW134175   4.288   2.089   4.288 -0.4478 -1.0155  0.0297
 7571SOL    HW234176   4.169   2.169   4.234 -1.5520 -0.5354 -0.6819
 7572SOL     OW34177   3.381   1.612   5.120 -0.5592 -0.5281 -1.0015
 7572SOL    HW134178   3.389   1.591   5.213  0.3163  0.4001 -0.8652
 7572SOL    HW234179   3.366   1.707   5.125 -1.2407 -0.6341 -1.0504
 7573SOL     OW34180   1.692   3.216   8.686  0.0818 -0.2247 -0.4891
 7573SOL    HW134181   1.713   3.200   8.778  1.0154 -0.6351 -0.7749
 7573SOL    HW234182   1.672   3.310   8.682  0.5416 -0.0742  0.6118
 7574SOL     OW34183   2.166   0.540   2.928  0.2774  0.1151  0.2792
 7574SOL    HW134184   2.108   0.580   2.993  1.3749 -1.4073  2.2131
 7574SOL    HW234185   2.169   0.448   2.954 -2.3466  0.7542  2.7496
 7575SOL     OW34186   2.548   1.542   2.212 -0.4003 -0.6831 -0.2628
 7575SOL    HW134187   2.575   1.629   2.183 -0.8819  0.0630  1.5545
 7575SOL    HW234188   2.533   1.551   2.306 -0.7748  0.2441 -0.4116
 7576SOL     OW34189   1.102   3.053   6.489 -0.0050  0.9036  0.3536
 7576SOL    HW134190   1.140   3.140   6.503  1.8251 -0.0926  1.5649
 7576SOL    HW234191   1.137   3.030   6.403 -0.3270 -1.4715  0.8844
 7577SOL     OW34192   3.566   2.342   1.744 -0.2769  0.2744 -0.3133
 7577SOL    HW134193   3.476   2.373   1.737 -0.5279 -0.4632 -0.2941
 7577SOL    HW234194   3.610   2.425   1.764 -0.1515  0.6181 -1.9894
 7578SOL     OW34195   2.765   1.846  16.312 -0.0964 -0.2933  0.5149
 7578SOL    HW134196   2.807   1.848  16.398  2.4884  0.8378 -0.7700
 7578SOL    HW234197   2.702   1.775  16.326  2.5272 -2.9874 -1.2214
 7579SOL     OW34198   2.080   4.160   0.809  0.2468 -0.1533  0.2392
 7579SOL    HW134199   2.104   4.073   0.842 -2.8317 -1.2482 -0.4806
 7579SOL    HW234200   2.074   4.137   0.716  1.1033  2.2864 -0.4141
 7580SOL     OW34201   2.088   3.805   3.842 -0.4679 -0.7905 -0.5271
 7580SOL    HW134202   2.152   3.740   3.869 -0.0892  0.2004  1.0198
 7580SOL    HW234203   2.013   3.750   3.820  0.1111 -2.6943  2.1929
 7581SOL     OW34204   0.449   3.864   6.670 -0.1107  0.0407  0.0937
 7581SOL    HW134205   0.529   3.916   6.685 -0.5260  0.6646  0.1297
 7581SOL    HW234206   0.459   3.870   6.575  2.4360 -0.0240  0.3446
 7582SOL     OW34207   0.242   2.914   3.505 -0.0180 -0.5537 -0.3741
 7582SOL    HW134208   0.238   2.824   3.537  1.8452 -0.6309 -0.3901
 7582SOL    HW234209   0.334   2.933   3.519 -0.1532 -0.4237  0.3316
 7583SOL     OW34210   3.244   2.310  13.669 -0.0149 -0.4847  0.0009
 7583SOL    HW134211   3.302   2.345  13.601 -0.4845  0.2989 -0.0010
 7583SOL    HW234212   3.272   2.220  13.688  0.2064  0.1343  2.6733
 7584SOL     OW34213   3.160   3.449  11.033 -0.2916 -0.1626 -0.0147
 7584SOL    HW134214   3.246   3.407  11.033  0.1958  0.8225  1.4739
 7584SOL    HW234215   3.167   3.543  11.053  1.2272  0.1999 -2.1416
 7585SOL     OW34216   2.066   4.642   7.497 -0.5584  0.5045 -0.2739
 7585SOL    HW134217   2.161   4.657   7.496 -0.5943  0.6808 -0.6837
 7585SOL    HW234218   2.034   4.688   7.575  1.6621  0.8153  0.4713
 7586SOL     OW34219   0.599   3.916   6.165  0.0821 -0.3840  0.6914
 7586SOL    HW134220   0.663   3.948   6.101 -1.2105 -1.4965 -1.1528
 7586SOL    HW234221   0.525   3.922   6.104  1.1956  0.6049 -0.5579
 7587SOL     OW34222   3.184   0.345  13.261 -0.3361 -0.2288  0.2970
 7587SOL    HW134223   3.132   0.376  13.187  1.2963  0.2863 -0.6264
 7587SOL    HW234224   3.178   0.417  13.325  0.4765  0.1463 -0.0564
 7588SOL     OW34225   0.994   0.833   9.402 -0.1685 -0.0136  0.3573
 7588SOL    HW134226   1.044   0.914   9.394  0.9276 -0.7711 -0.6467
 7588SOL    HW234227   1.061   0.765   9.403 -1.2391 -1.0814 -0.0914
 7589SOL     OW34228   2.733   0.646   4.918 -0.3667  0.6352  0.6668
 7589SOL    HW134229   2.738   0.638   4.823 -0.8348 -3.8253  1.0242
 7589SOL    HW234230   2.686   0.728   4.931  2.5069  2.3125  0.3704
 7590SOL     OW34231   1.259   1.140   5.013 -0.7398 -0.0778 -0.3354
 7590SOL    HW134232   1.344   1.148   5.056  0.3307  0.8850 -2.6688
 7590SOL    HW234233   1.242   1.234   5.016  1.1222  0.2677 -1.2016
 7591SOL     OW34234   3.432   2.957   5.665  0.7299 -0.3871  0.2712
 7591SOL    HW134235   3.396   3.046   5.666  0.4933 -0.4976  1.0641
 7591SOL    HW234236   3.497   2.967   5.595 -0.5957 -2.0321 -1.1969
 7592SOL     OW34237   3.111   0.930   4.239 -0.1686  0.3171 -0.3374
 7592SOL    HW134238   3.049   1.001   4.258  0.6028  1.9374 -3.8771
 7592SOL    HW234239   3.184   0.963   4.292  0.7651 -1.3439 -0.6038
 7593SOL     OW34240   0.507   1.962   7.909 -1.1332  0.1955  0.0432
 7593SOL    HW134241   0.509   2.035   7.847 -0.4551  0.0412 -0.1122
 7593SOL    HW234242   0.425   1.976   7.957 -0.5564  0.2328  1.0000
 7594SOL     OW34243   1.231   3.655  13.758 -0.0612 -0.1592 -0.0480
 7594SOL    HW134244   1.249   3.745  13.788 -3.3990 -0.4097  2.6138
 7594SOL    HW234245   1.179   3.678  13.681 -0.1983 -0.8692 -0.1625
 7595SOL     OW34246   3.086   2.752   5.637 -0.5554  0.2557  0.2429
 7595SOL    HW134247   3.080   2.840   5.601 -0.9288  0.5813  1.1025
 7595SOL    HW234248   3.003   2.714   5.608 -0.3756  1.1791 -1.4548
 7596SOL     OW34249   1.238   2.966   5.501 -0.1429  0.1941  0.4034
 7596SOL    HW134250   1.182   2.917   5.561  0.0685 -1.5970 -0.8640
 7596SOL    HW234251   1.256   3.045   5.552 -0.4540  1.1307 -0.9475
 7597SOL     OW34252   0.527   2.224   1.769  0.1363 -0.0058 -0.0316
 7597SOL    HW134253   0.583   2.235   1.692  0.0446 -1.1155 -0.2545
 7597SOL    HW234254   0.599   2.217   1.831  0.0886  3.1793  0.3717
 7598SOL     OW34255   3.334   0.918   7.815 -0.4711  0.1637  0.1165
 7598SOL    HW134256   3.392   0.930   7.740  0.0642  2.4233  0.9000
 7598SOL    HW234257   3.400   0.937   7.882 -0.2035 -2.7719  0.6806
 7599SOL     OW34258   2.829   2.109   4.454 -0.1723  0.4060  0.0800
 7599SOL    HW134259   2.752   2.056   4.474 -1.0836  2.5168  2.0967
 7599SOL    HW234260   2.843   2.111   4.359 -3.7932  1.0907 -0.4084
 7600SOL     OW34261   4.571   0.576  15.164  0.6843  1.1497 -0.4482
 7600SOL    HW134262   4.561   0.611  15.075  1.1703 -0.1560 -1.0322
 7600SOL    HW234263   4.579   0.482  15.143 -0.2694  0.7398  1.0266
 7601SOL     OW34264   0.095   0.817  11.330 -0.1148 -0.1782 -0.6215
 7601SOL    HW134265   0.128   0.733  11.362 -0.9597  0.1042  1.0135
 7601SOL    HW234266   0.012   0.837  11.373 -0.4395  1.8555 -2.2024
 7602SOL     OW34267   0.719   0.995   0.862 -0.2197 -0.2372  0.2277
 7602SOL    HW134268   0.624   0.993   0.858 -0.4289  0.2688  4.1410
 7602SOL    HW234269   0.732   1.083   0.897  2.3836  0.2166 -1.8815
 7603SOL     OW34270   3.162   0.289   6.469 -0.5451 -0.1855 -0.5276
 7603SOL    HW134271   3.198   0.337   6.544  2.2590 -2.2038 -0.6072
 7603SOL    HW234272   3.113   0.218   6.511  1.2517 -0.5711  0.9155
 7604SOL     OW34273   2.878   1.332   5.592 -0.6432 -0.3074 -0.1888
 7604SOL    HW134274   2.894   1.426   5.604  1.3515 -0.4235 -2.0157
 7604SOL    HW234275   2.883   1.289   5.678 -0.1164 -0.7347 -0.4351
 7605SOL     OW34276   2.199   0.060   2.526  0.1894 -0.4991  0.3116
 7605SOL    HW134277   2.288   0.056   2.561 -0.4986  3.6102  2.6310
 7605SOL    HW234278   2.204   0.116   2.448  2.9033 -1.4175 -0.1684
 7606SOL     OW34279   1.387   2.007   1.615  0.6216 -0.1163 -0.0039
 7606SOL    HW134280   1.414   1.931   1.666 -1.0926 -0.1755  0.8412
 7606SOL    HW234281   1.473   2.038   1.586  0.4057 -0.2990 -0.8429
 7607SOL     OW34282   3.704   3.284   7.398  0.4387  0.0778 -0.1479
 7607SOL    HW134283   3.701   3.209   7.339  2.0426  0.5974 -0.8839
 7607SOL    HW234284   3.618   3.324   7.387 -0.0493 -0.7501  0.6690
 7608SOL     OW34285   2.749   0.590   7.607  0.2086  0.0254 -0.1579
 7608SOL    HW134286   2.671   0.627   7.649  0.3229 -0.6829  0.6546
 7608SOL    HW234287   2.799   0.557   7.681 -1.2129  2.1200  1.7337
 7609SOL     OW34288   0.080   2.075   6.721  0.8722  0.4416 -0.3374
 7609SOL    HW134289   0.083   2.125   6.639  0.0859  2.1289  0.6531
 7609SOL    HW234290   4.711   2.059   6.738  1.1823 -1.2465 -0.2712
 7610SOL     OW34291   3.918   4.642   4.185  0.7894 -0.1814  0.1064
 7610SOL    HW134292   3.983   4.580   4.152 -0.2356 -1.6605  0.8393
 7610SOL    HW234293   3.857   4.590   4.237  0.6838  0.3667  0.5400
 7611SOL     OW34294   2.528   3.786   3.285  0.3895 -0.7106 -0.2552
 7611SOL    HW134295   2.468   3.746   3.222 -1.1056 -1.1250  1.4467
 7611SOL    HW234296   2.505   3.878   3.276  0.1223 -0.7758 -0.2417
 7612SOL     OW34297   2.683   1.459  10.014  0.0478 -0.2213 -0.7829
 7612SOL    HW134298   2.738   1.398   9.965  0.7251 -0.1686 -0.0858
 7612SOL    HW234299   2.664   1.516   9.939  1.2102  1.5107  0.2553
 7613SOL     OW34300   0.984   3.901   2.770 -0.4277 -0.0835  0.7800
 7613SOL    HW134301   1.010   3.850   2.846  0.8658  2.4060  2.0231
 7613SOL    HW234302   0.888   3.897   2.766 -0.4004 -0.8233  0.9957
 7614SOL     OW34303   3.786   4.010  15.991 -0.2706 -0.0947  0.0412
 7614SOL    HW134304   3.765   4.088  16.043 -1.6095 -0.8964  0.7243
 7614SOL    HW234305   3.881   4.010  15.982 -0.3003  2.3897 -0.1453
 7615SOL     OW34306   1.670   2.719   3.435 -0.3233 -0.3654 -0.4073
 7615SOL    HW134307   1.600   2.756   3.381 -1.5827 -0.2374  1.3266
 7615SOL    HW234308   1.642   2.628   3.446  0.0027 -0.4306 -0.1182
 7616SOL     OW34309   1.085   0.308   4.428  0.2282  0.9494 -0.3904
 7616SOL    HW134310   1.075   0.285   4.520  0.2387  3.1647  0.1611
 7616SOL    HW234311   1.101   0.400   4.448 -0.6388  1.5786 -2.5098
 7617SOL     OW34312   1.206   2.640   8.134  0.2478  0.1101  0.4204
 7617SOL    HW134313   1.174   2.716   8.182 -0.5117 -0.6169  1.0735
 7617SOL    HW234314   1.271   2.674   8.073 -0.1346  1.0368  0.5402
 7618SOL     OW34315   1.813   2.033  17.026 -0.2895 -0.0371  0.5363
 7618SOL    HW134316   1.722   2.013  17.045 -0.5783  0.5334 -0.2552
 7618SOL    HW234317   1.856   1.950  17.049  1.0152  0.5852  0.3581
 7619SOL     OW34318   4.371   1.611   5.889 -0.3385 -0.1816 -0.0258
 7619SOL    HW134319   4.378   1.646   5.978  0.9402  0.5273 -0.4089
 7619SOL    HW234320   4.379   1.686   5.831 -0.2966 -1.2103 -1.3504
 7620SOL     OW34321   0.383   2.920   8.588 -0.0904 -0.4700 -0.3144
 7620SOL    HW134322   0.310   2.861   8.568 -0.3703 -1.2040  2.8986
 7620SOL    HW234323   0.441   2.909   8.512 -1.1482  0.8667 -1.3251
 7621SOL     OW34324   0.993   2.743   0.035 -0.3201 -0.1564 -0.5135
 7621SOL    HW134325   0.902   2.765   0.015 -0.0269  0.7443 -0.8577
 7621SOL    HW234326   1.028   2.830   0.017  0.4500 -0.1017  1.3101
 7622SOL     OW34327   1.883   3.640  11.695  0.2725  0.0566  0.4356
 7622SOL    HW134328   1.844   3.572  11.639  0.0725  0.4507  0.0910
 7622SOL    HW234329   1.957   3.587  11.723 -1.7924 -2.0706  1.8858
 7623SOL     OW34330   3.599   0.340  15.443 -0.5302 -0.4810  0.4758
 7623SOL    HW134331   3.504   0.340  15.447 -0.4477 -0.8162  2.3838
 7623SOL    HW234332   3.614   0.296  15.359 -0.9821 -0.8362  0.5798
 7624SOL     OW34333   4.217   1.847   8.437 -0.1079 -0.3386  0.1523
 7624SOL    HW134334   4.152   1.822   8.503 -0.6918  0.6331 -0.0561
 7624SOL    HW234335   4.301   1.804   8.451 -0.5540 -0.8600  1.1930
 7625SOL     OW34336   0.201   4.009   3.296  0.2784  0.1427  0.0177
 7625SOL    HW134337   0.266   3.942   3.276  0.8785  1.3050 -2.0016
 7625SOL    HW234338   0.251   4.079   3.337  0.8297 -0.5110  0.4519
 7626SOL     OW34339   2.170   3.343   0.950  0.2619  0.0374 -0.6759
 7626SOL    HW134340   2.092   3.395   0.971  0.2096 -0.3452  0.0522
 7626SOL    HW234341   2.139   3.307   0.867 -0.6219  0.7793 -0.6692
 7627SOL     OW34342   4.285   1.513   3.755  0.3232  0.0423  0.1637
 7627SOL    HW134343   4.296   1.558   3.838 -1.0262 -0.7514  0.7687
 7627SOL    HW234344   4.340   1.565   3.696 -0.8194  1.6833  0.5353
 7628SOL     OW34345   2.450   2.067   7.342 -0.1179  0.8646 -0.1362
 7628SOL    HW134346   2.465   2.007   7.269  2.3781 -1.3560  2.2240
 7628SOL    HW234347   2.355   2.055   7.350 -0.7543  4.8072 -1.6008
 7629SOL     OW34348   1.913   1.834   5.796 -0.0071 -0.7335  0.4836
 7629SOL    HW134349   1.961   1.891   5.856  0.0244  1.1283 -1.2906
 7629SOL    HW234350   1.962   1.847   5.714 -0.4550  1.5055  0.5796
 7630SOL     OW34351   1.590   1.025   3.297 -0.4226 -0.1011  0.2608
 7630SOL    HW134352   1.578   0.937   3.262  2.1743 -0.3785  0.1300
 7630SOL    HW234353   1.625   1.064   3.217 -0.3099 -2.1014 -0.6481
 7631SOL     OW34354   2.278   3.506   2.931  0.7909  0.0486  0.1243
 7631SOL    HW134355   2.337   3.473   2.863  1.3498  0.1344  0.5630
 7631SOL    HW234356   2.226   3.427   2.938 -1.9513  1.8552 -0.0185
 7632SOL     OW34357   2.995   1.365   2.655  0.3553 -0.4026  0.1597
 7632SOL    HW134358   3.057   1.299   2.686  0.3310 -0.7656 -0.5650
 7632SOL    HW234359   3.040   1.417   2.589  0.1470  1.0310  1.1540
 7633SOL     OW34360   2.462   4.561  15.202  0.2164  0.5415  0.0341
 7633SOL    HW134361   2.534   4.610  15.240 -1.9685  4.1880 -0.5512
 7633SOL    HW234362   2.495   4.477  15.233 -0.1188 -0.0689 -1.2354
 7634SOL     OW34363   0.200   0.148   8.094  0.1672 -0.5976 -0.5174
 7634SOL    HW134364   0.183   0.066   8.142 -0.1984 -0.1430  0.1297
 7634SOL    HW234365   0.108   0.168   8.078  0.4320  1.2918  0.3264
 7635SOL     OW34366   4.096   4.518   5.008 -0.2760 -0.0058 -0.4733
 7635SOL    HW134367   4.098   4.442   4.949  2.8600 -0.2979 -0.0033
 7635SOL    HW234368   4.187   4.546   5.000  0.9869 -3.9380  0.0101
 7636SOL     OW34369   4.603   4.520  13.417  0.5348 -0.1610  0.2005
 7636SOL    HW134370   4.542   4.561  13.478  0.2260 -0.2418 -0.0569
 7636SOL    HW234371   4.557   4.541  13.336  1.1283  1.0876  0.1821
 7637SOL     OW34372   0.108   3.561  11.361  0.0544  0.1846  0.6766
 7637SOL    HW134373   0.039   3.565  11.426 -1.6123  4.0491 -1.3289
 7637SOL    HW234374   0.083   3.633  11.303  1.1143  0.6856  0.8363
 7638SOL     OW34375   1.117   2.886  13.685 -0.3064  0.2920 -0.3338
 7638SOL    HW134376   1.070   2.897  13.602  1.6048 -1.4605 -1.6506
 7638SOL    HW234377   1.209   2.868  13.662  0.0608 -1.2529  2.3269
 7639SOL     OW34378   3.355   2.131   6.172  0.2130  0.1003  0.1712
 7639SOL    HW134379   3.378   2.115   6.080  1.5903 -0.7938  0.6629
 7639SOL    HW234380   3.444   2.132   6.208  0.0313  0.8200  0.5855
 7640SOL     OW34381   4.668   2.739   6.086  0.0385 -0.2159 -0.4139
 7640SOL    HW134382   4.714   2.820   6.065  0.4419 -0.8936 -2.1934
 7640SOL    HW234383   0.008   2.678   6.049  1.6347  1.1719  0.0553
 7641SOL     OW34384   2.504   0.677   7.791  0.4344 -0.7671  0.6100
 7641SOL    HW134385   2.513   0.650   7.882  2.7910  0.2502  0.6839
 7641SOL    HW234386   2.538   0.766   7.799 -1.7027 -0.0523  1.4517
 7642SOL     OW34387   3.940   3.795   6.443 -0.6690  0.0096 -0.4495
 7642SOL    HW134388   3.859   3.840   6.466 -0.3364 -0.0758  0.8598
 7642SOL    HW234389   4.009   3.846   6.485 -1.4579  0.3251  0.4590
 7643SOL     OW34390   2.041   3.645   4.842  0.2817  0.7344  0.2570
 7643SOL    HW134391   2.100   3.696   4.788  0.2460  1.3784  0.8233
 7643SOL    HW234392   1.963   3.702   4.841 -0.1407  0.1504 -0.2672
 7644SOL     OW34393   3.392   1.933   9.784 -0.4659  0.0711 -0.0247
 7644SOL    HW134394   3.351   1.868   9.841 -2.3329  1.9429  0.7838
 7644SOL    HW234395   3.325   2.000   9.774  0.6395  0.9427 -1.7014
 7645SOL     OW34396   1.115   2.858  14.721 -0.3710 -0.5010  0.3428
 7645SOL    HW134397   1.045   2.840  14.658 -0.4580  0.9983  0.0305
 7645SOL    HW234398   1.081   2.794  14.784 -1.2600  0.2975  0.6841
 7646SOL     OW34399   3.005   3.823   4.376  0.1295 -0.0222  0.2216
 7646SOL    HW134400   2.971   3.908   4.404  0.5639  1.2015 -2.9153
 7646SOL    HW234401   2.946   3.800   4.304  1.6696 -2.7098 -0.1945
 7647SOL     OW34402   0.720   4.639   5.627  0.1324 -0.6915  0.1300
 7647SOL    HW134403   0.722   4.556   5.675  1.4187 -0.9282 -0.3389
 7647SOL    HW234404   0.772   4.621   5.548  0.6131 -1.6052  0.6498
 7648SOL     OW34405   0.476   4.103   3.619 -0.2714  0.1070 -0.4422
 7648SOL    HW134406   0.490   4.139   3.531  0.1937 -1.2706 -0.9263
 7648SOL    HW234407   0.548   4.149   3.662  1.6295 -1.9681 -1.4600
 7649SOL     OW34408   4.287   1.893  10.648 -0.0823 -0.4733  0.0074
 7649SOL    HW134409   4.331   1.923  10.727  0.7813  0.8586 -0.9669
 7649SOL    HW234410   4.340   1.816  10.624  0.4745  0.8750 -3.1218
 7650SOL     OW34411   1.837   0.827  14.645  0.2888  0.4322  0.3659
 7650SOL    HW134412   1.913   0.885  14.654  0.2361  0.5514  0.0278
 7650SOL    HW234413   1.799   0.853  14.562 -1.2123  0.1181  0.9638
 7651SOL     OW34414   1.611   1.725   1.664 -0.1161  0.5928 -0.0437
 7651SOL    HW134415   1.622   1.665   1.589  0.3887  1.5837 -0.7541
 7651SOL    HW234416   1.687   1.782   1.652 -0.2068  0.6403 -0.4043
 7652SOL     OW34417   3.988   4.255   9.001 -0.1556  0.3452 -0.2889
 7652SOL    HW134418   4.054   4.253   9.069  0.6290 -1.3034 -1.1011
 7652SOL    HW234419   4.045   4.278   8.928  0.1006  0.3034 -0.1001
 7653SOL     OW34420   2.613   3.543  15.888 -0.7367  0.8295  0.2392
 7653SOL    HW134421   2.577   3.470  15.839 -0.8661  0.1725  1.3082
 7653SOL    HW234422   2.675   3.575  15.823  0.8689 -1.5711  0.6183
 7654SOL     OW34423   0.385   3.322   6.799 -0.3181  0.0972 -0.4920
 7654SOL    HW134424   0.372   3.260   6.728 -1.1842  1.3306 -1.4009
 7654SOL    HW234425   0.301   3.364   6.815  0.5447  1.7670 -0.3089
 7655SOL     OW34426   3.270   4.601   3.667  0.0479 -0.7007  0.0142
 7655SOL    HW134427   3.210   4.675   3.681 -0.3253 -0.7619 -1.2866
 7655SOL    HW234428   3.220   4.543   3.725 -0.7925  2.2451  2.2711
 7656SOL     OW34429   3.860   3.159   1.984  0.0067  0.3590 -0.4816
 7656SOL    HW134430   3.932   3.220   1.966 -0.9072  0.9568 -2.1496
 7656SOL    HW234431   3.787   3.208   1.947  0.2280 -1.2252 -3.0160
 7657SOL     OW34432   4.548   4.297   3.208 -0.2106  0.3171  0.2356
 7657SOL    HW134433   4.470   4.290   3.263 -0.5984 -1.9995 -0.6095
 7657SOL    HW234434   4.504   4.345   3.138 -0.0314 -1.6047 -1.2053
 7658SOL     OW34435   3.277   3.973  17.029  0.1824  0.5501  0.1192
 7658SOL    HW134436   3.260   4.067  17.038  0.3259  0.5375  0.5296
 7658SOL    HW234437   3.366   3.976  16.992 -0.4933  1.4726 -1.4448
 7659SOL     OW34438   1.978   0.484   8.016 -0.6186 -0.3451  0.2702
 7659SOL    HW134439   1.972   0.390   8.000  0.5837 -0.1808 -1.0893
 7659SOL    HW234440   2.066   0.479   8.053 -0.6222  0.6820  0.4108
 7660SOL     OW34441   1.452   1.996   5.291  0.0043  0.1761  0.9737
 7660SOL    HW134442   1.502   2.077   5.287  0.3417 -0.1876 -2.1955
 7660SOL    HW234443   1.522   1.930   5.291  0.9265  1.1696  0.0639
 7661SOL     OW34444   0.239   1.914   7.338  0.4701  0.0075 -0.0880
 7661SOL    HW134445   0.179   1.986   7.357  0.5297 -0.2134  0.9216
 7661SOL    HW234446   0.265   1.939   7.249 -0.8737  2.3994  0.1961
 7662SOL     OW34447   1.286   4.013  17.154  0.6320 -0.2435 -0.1143
 7662SOL    HW134448   1.308   4.087  17.097  0.9295  0.2520  0.6474
 7662SOL    HW234449   1.223   3.971  17.096  0.6870 -0.9992  0.3872
 7663SOL     OW34450   1.690   1.224   7.270  0.1515 -0.1374  0.5817
 7663SOL    HW134451   1.659   1.186   7.353 -0.0444  1.7372  1.3592
 7663SOL    HW234452   1.622   1.191   7.211  1.7137 -5.0082  1.4796
 7664SOL     OW34453   0.450   0.130   4.301  0.4128  0.0399  0.0038
 7664SOL    HW134454   0.425   0.207   4.250  0.2004  1.2213  1.9155
 7664SOL    HW234455   0.545   0.135   4.308  0.6176 -3.1194 -0.3194
 7665SOL     OW34456   1.277   2.061  11.522  0.0059  0.0749  0.4370
 7665SOL    HW134457   1.186   2.089  11.512  0.7254  1.3963 -2.5641
 7665SOL    HW234458   1.296   2.121  11.595  0.8210  0.7758 -0.3442
 7666SOL     OW34459   1.749   3.936   9.202 -0.5867 -0.1744  0.6632
 7666SOL    HW134460   1.746   4.019   9.155 -0.2218 -1.7903 -2.2395
 7666SOL    HW234461   1.747   3.870   9.133 -3.0752  1.8479 -1.1910
 7667SOL     OW34462   3.457   3.378   5.400  0.2747  0.1791 -0.2349
 7667SOL    HW134463   3.397   3.307   5.424  0.0489  0.9207  1.3870
 7667SOL    HW234464   3.403   3.449   5.434  0.5981 -0.6812  2.0864
 7668SOL     OW34465   0.829   0.079   0.301  0.5576  0.4226 -0.2698
 7668SOL    HW134466   0.782   4.723   0.324 -1.4761  1.8422  0.4281
 7668SOL    HW234467   0.805   0.090   0.209 -0.3130  2.2095  0.1746
 7669SOL     OW34468   2.749   2.874   9.606 -0.6253 -0.2569 -0.3709
 7669SOL    HW134469   2.706   2.829   9.680  0.8761 -0.9967  0.0527
 7669SOL    HW234470   2.690   2.947   9.589  2.7136  1.9964 -2.1725
 7670SOL     OW34471   2.894   0.776   8.511  0.4959  0.0326  0.1760
 7670SOL    HW134472   2.968   0.717   8.522 -0.2155 -0.8296  0.3569
 7670SOL    HW234473   2.936   0.847   8.463  2.5267 -0.2977  1.4759
 7671SOL     OW34474   4.328   3.075  13.560  0.3077  0.1718  0.5473
 7671SOL    HW134475   4.396   3.142  13.548  0.6124 -0.2295  0.0736
 7671SOL    HW234476   4.260   3.132  13.596  0.2924 -0.6725  1.8567
 7672SOL     OW34477   3.649   3.176   9.580 -0.3636 -0.2967  0.1097
 7672SOL    HW134478   3.652   3.222   9.496 -1.1955  1.2985  0.9489
 7672SOL    HW234479   3.692   3.239   9.638  2.8141 -1.5958 -0.8421
 7673SOL     OW34480   4.293   1.605   0.022  0.0954 -0.3874 -0.2150
 7673SOL    HW134481   4.288   1.531   0.083  2.2121 -0.5092 -0.1949
 7673SOL    HW234482   4.384   1.606  17.690  0.7121  0.1665  1.7556
 7674SOL     OW34483   1.700   1.392   3.544 -0.0590 -0.5817 -0.7443
 7674SOL    HW134484   1.788   1.364   3.566 -0.1851  0.2126  0.7642
 7674SOL    HW234485   1.665   1.304   3.526 -0.0261 -0.5528 -0.9540
 7675SOL     OW34486   1.338   3.286   1.159 -0.0338 -0.2565 -0.1046
 7675SOL    HW134487   1.332   3.299   1.254 -2.7465 -0.4148 -0.2467
 7675SOL    HW234488   1.260   3.328   1.122  0.9521  0.6797 -1.1024
 7676SOL     OW34489   1.865   2.663   5.699  0.4796 -0.4585 -0.0836
 7676SOL    HW134490   1.792   2.723   5.709 -0.7416 -1.6892 -1.5710
 7676SOL    HW234491   1.823   2.582   5.730  1.9617 -1.2643 -0.1591
 7677SOL     OW34492   0.849   0.637  14.015  0.2708 -0.0420 -0.2030
 7677SOL    HW134493   0.847   0.568  14.082 -0.3647 -0.0859 -0.2643
 7677SOL    HW234494   0.756   0.662  14.012  0.4428  0.8570  1.4397
 7678SOL     OW34495   0.439   3.729  11.240 -0.0417 -0.1958  0.6414
 7678SOL    HW134496   0.411   3.699  11.326 -1.0632  0.3844  0.5050
 7678SOL    HW234497   0.361   3.770  11.203  2.5257  3.3395 -0.9296
 7679SOL     OW34498   1.326   3.583   7.045  0.3181  0.0167  0.2760
 7679SOL    HW134499   1.351   3.645   7.114  2.6355 -1.4075  0.7105
 7679SOL    HW234500   1.258   3.634   7.000 -0.0896 -0.9571 -0.2005
 7680SOL     OW34501   4.700   3.159   2.120  0.2481 -0.8354 -0.2975
 7680SOL    HW134502   0.047   3.142   2.057  0.9631 -1.4814  0.6711
 7680SOL    HW234503   0.029   3.155   2.200 -0.4939 -0.4558  0.2115
 7681SOL     OW34504   3.086   0.907   5.256  0.2723 -0.0307  0.0298
 7681SOL    HW134505   3.073   1.002   5.261 -1.3492 -0.3345  1.8435
 7681SOL    HW234506   3.181   0.910   5.250  0.2799  0.7196  0.5328
 7682SOL     OW34507   0.055   3.242   8.699  0.1729  0.5342 -0.2725
 7682SOL    HW134508   0.121   3.184   8.736 -0.4301  0.9794  1.4962
 7682SOL    HW234509   0.108   3.300   8.644  0.8640 -0.5665 -0.7576
 7683SOL     OW34510   0.308   0.730   3.598  0.1015  0.8645  0.2186
 7683SOL    HW134511   0.376   0.763   3.540 -0.8180 -0.2298 -1.4787
 7683SOL    HW234512   0.334   0.754   3.687  2.9705 -0.6307 -0.2111
 7684SOL     OW34513   2.373   1.056   7.494  0.8848 -0.0556 -0.1012
 7684SOL    HW134514   2.423   1.079   7.572  1.7786 -1.2281 -0.3324
 7684SOL    HW234515   2.326   0.983   7.535  1.2461  0.2751  0.8914
 7685SOL     OW34516   3.282   1.680   4.424 -0.2487  0.1989 -0.0522
 7685SOL    HW134517   3.250   1.590   4.417  2.8324 -0.9600  0.7241
 7685SOL    HW234518   3.231   1.721   4.494 -2.5575 -0.7303 -1.2236
 7686SOL     OW34519   0.067   1.784   2.039  0.2530 -0.1814 -0.1065
 7686SOL    HW134520   0.141   1.839   2.064 -0.5066  1.1978 -0.9083
 7686SOL    HW234521   0.105   1.742   1.962  1.1110  0.9988 -0.3216
 7687SOL     OW34522   1.306   3.214  17.352 -0.1263  0.6791  0.4018
 7687SOL    HW134523   1.213   3.223  17.373 -0.4210  0.8332 -0.9134
 7687SOL    HW234524   1.308   3.149  17.281 -0.9950 -1.6819  2.5424
 7688SOL     OW34525   1.030   0.551   2.168 -0.3784 -0.3127  0.3051
 7688SOL    HW134526   1.101   0.488   2.184 -0.2949 -0.7547 -1.8011
 7688SOL    HW234527   0.959   0.495   2.200 -0.6211  1.7117  3.2531
 7689SOL     OW34528   4.492   0.131   7.717 -0.6787  0.2108 -0.2296
 7689SOL    HW134529   4.404   0.105   7.745 -0.8093  0.8805 -0.0276
 7689SOL    HW234530   4.471   0.211   7.669 -1.3378 -0.4822 -1.0982
 7690SOL     OW34531   4.553   2.110   9.683  0.2111  0.3525 -0.5289
 7690SOL    HW134532   4.489   2.180   9.670  0.5952  0.3792 -2.3112
 7690SOL    HW234533   4.527   2.055   9.609 -0.5623 -0.6065  0.4625
 7691SOL     OW34534   4.596   4.189   3.493  0.7926 -0.2244 -0.6490
 7691SOL    HW134535   4.585   4.096   3.513 -0.9013  0.3899  1.2409
 7691SOL    HW234536   4.690   4.199   3.509 -0.0285  0.7161  3.5399
 7692SOL     OW34537   0.400   3.653  11.981 -0.3877 -0.3715  0.2386
 7692SOL    HW134538   0.360   3.718  11.924 -1.1209 -0.0230  1.1519
 7692SOL    HW234539   0.413   3.697  12.065  1.5369 -0.1601 -0.1779
 7693SOL     OW34540   4.167   2.637   4.639 -0.1518 -0.3176 -0.0137
 7693SOL    HW134541   4.149   2.543   4.637  3.3741 -0.9379 -2.1435
 7693SOL    HW234542   4.169   2.639   4.734  2.3836 -1.4053 -0.0312
 7694SOL     OW34543   2.673   0.375   6.559  0.3125 -0.2029 -0.4604
 7694SOL    HW134544   2.708   0.427   6.487  0.8744 -3.2566 -2.4134
 7694SOL    HW234545   2.589   0.346   6.522 -0.5189  0.5383  0.8560
 7695SOL     OW34546   3.921   1.988   8.176  0.4522 -1.3985 -0.3064
 7695SOL    HW134547   4.011   2.002   8.205  0.6939  0.2922 -1.9128
 7695SOL    HW234548   3.925   1.902   8.134 -1.5666 -0.9779 -1.3502
 7696SOL     OW34549   0.574   1.391   1.646 -0.8822  0.1744  0.2257
 7696SOL    HW134550   0.551   1.474   1.688 -0.3568  0.3832  0.0995
 7696SOL    HW234551   0.603   1.342   1.722 -0.2150 -0.0460 -0.1680
 7697SOL     OW34552   0.075   4.322  13.291 -0.0157 -0.1680  0.2056
 7697SOL    HW134553   0.017   4.397  13.282 -0.9123 -0.8956 -0.0987
 7697SOL    HW234554   0.145   4.364  13.241 -1.1640 -0.9469 -2.0637
 7698SOL     OW34555   0.256   1.752  13.676  0.2404  0.8620 -0.3390
 7698SOL    HW134556   0.309   1.768  13.598  0.1001  0.9445 -0.4173
 7698SOL    HW234557   0.242   1.842  13.706  0.0322  0.1197  1.8150
 7699SOL     OW34558   0.794   1.336   6.451 -0.5746  0.6631 -0.4004
 7699SOL    HW134559   0.755   1.405   6.505 -2.3494 -1.0396  0.4953
 7699SOL    HW234560   0.845   1.314   6.528  0.5990 -0.4768 -1.5019
 7700SOL     OW34561   4.615   0.471   5.909 -0.3525  0.4434  0.6128
 7700SOL    HW134562   4.672   0.470   5.985  0.8364  0.1284 -0.2833
 7700SOL    HW234563   4.572   0.557   5.904  2.2757  1.7652  0.6117
 7701SOL     OW34564   2.352   4.107   0.328 -0.2221 -0.0331  0.2625
 7701SOL    HW134565   2.371   4.029   0.381  0.5264 -0.7165 -1.0177
 7701SOL    HW234566   2.400   4.180   0.368  0.4762  0.2040 -0.9998
 7702SOL     OW34567   3.592   3.828   7.098 -0.1930  0.4511  0.0673
 7702SOL    HW134568   3.570   3.759   7.035 -0.8634  0.0205  0.7715
 7702SOL    HW234569   3.505   3.845   7.133 -1.6360  0.5194 -3.5803
 7703SOL     OW34570   3.737   4.304  16.026 -0.4449 -0.3630 -0.0568
 7703SOL    HW134571   3.690   4.337  16.103  0.3530  1.2917 -0.2868
 7703SOL    HW234572   3.782   4.380  15.990 -2.0326  0.0353 -1.1565
 7704SOL     OW34573   3.947   0.663  14.498  0.0293  0.0173  0.3623
 7704SOL    HW134574   3.975   0.571  14.502 -0.2897 -0.1551 -1.4597
 7704SOL    HW234575   3.917   0.669  14.589  1.9587 -1.5012  1.1178
 7705SOL     OW34576   1.197   4.375  10.323 -0.1779 -0.0537  0.2715
 7705SOL    HW134577   1.133   4.306  10.306 -1.0070  0.4506  1.3887
 7705SOL    HW234578   1.143   4.453  10.312  1.2475  0.9810  0.6917
 7706SOL     OW34579   3.311   4.652   6.044  0.3991 -0.5119 -0.0225
 7706SOL    HW134580   3.346   4.635   6.131 -2.7745  1.3217  1.5938
 7706SOL    HW234581   3.319   0.023   6.038 -0.1227 -0.5636 -1.6057
 7707SOL     OW34582   3.578   3.655  16.386 -0.0243 -0.3383  0.1108
 7707SOL    HW134583   3.603   3.700  16.305  1.1889 -0.5867  0.3534
 7707SOL    HW234584   3.490   3.628  16.359  0.6806  0.1487 -2.7082
 7708SOL     OW34585   4.339   0.977  11.103  0.5284 -0.3823  0.1654
 7708SOL    HW134586   4.346   0.901  11.044 -1.1028 -0.9350  0.6809
 7708SOL    HW234587   4.291   1.044  11.053 -1.9151 -1.6115  0.8630
 7709SOL     OW34588   4.694   1.196   9.902 -0.3888  0.0718 -0.2522
 7709SOL    HW134589   4.660   1.284   9.910  0.0956  0.3514 -1.2900
 7709SOL    HW234590   0.012   1.185   9.988  3.1539 -1.3086 -2.0982
 7710SOL     OW34591   0.426   0.740  16.255 -0.4293  0.4802 -0.0336
 7710SOL    HW134592   0.380   0.753  16.172  0.5273 -0.8816 -0.7861
 7710SOL    HW234593   0.380   0.800  16.314  1.4385  1.5855  0.2806
 7711SOL     OW34594   3.055   1.406   8.471  0.1471 -0.2476  0.3999
 7711SOL    HW134595   3.087   1.432   8.384 -1.8153  0.2340 -0.1873
 7711SOL    HW234596   2.992   1.337   8.449 -0.6345  0.0620  1.7120
 7712SOL     OW34597   3.130   0.050   4.283  0.1474  0.3545 -0.4578
 7712SOL    HW134598   3.094   0.107   4.351 -1.1893 -0.5951 -0.3675
 7712SOL    HW234599   3.225   0.060   4.285  0.2661 -0.6997 -0.8875
 7713SOL     OW34600   1.966   3.659   8.587  0.5484  0.1926 -0.5157
 7713SOL    HW134601   1.881   3.616   8.575  1.0487 -0.4724 -1.6523
 7713SOL    HW234602   1.966   3.672   8.682  1.5371 -2.1701 -0.1843
 7714SOL     OW34603   2.833   4.567   9.754 -0.4172 -0.3955  0.1512
 7714SOL    HW134604   2.829   4.553   9.849 -1.2649  1.5060  0.4055
 7714SOL    HW234605   2.753   4.617   9.734 -0.6918 -1.0876 -0.4720
 7715SOL     OW34606   0.055   4.535   9.514 -0.3327 -0.1802  0.1793
 7715SOL    HW134607   4.702   4.582   9.548  0.5752  2.1588 -1.0182
 7715SOL    HW234608   0.124   4.578   9.564 -0.6286  0.1348  0.3148
 7716SOL     OW34609   0.838   2.470   6.217 -0.1372  0.5673 -0.2328
 7716SOL    HW134610   0.838   2.376   6.230  3.8172  0.2741 -2.2804
 7716SOL    HW234611   0.875   2.514   6.293 -0.8827  0.2164  0.3345
 7717SOL     OW34612   0.188   1.170   0.797  0.0338  0.3128 -0.2891
 7717SOL    HW134613   0.101   1.203   0.822  0.0230  1.1318 -1.3815
 7717SOL    HW234614   0.178   1.178   0.702 -1.1237 -0.0006 -0.1911
 7718SOL     OW34615   3.338   3.170   2.217 -0.5154  0.2833 -0.2361
 7718SOL    HW134616   3.318   3.105   2.284 -0.2564  2.3158  1.8061
 7718SOL    HW234617   3.317   3.121   2.138  1.4378  1.0899 -1.2742
 7719SOL     OW34618   4.032   1.645   3.435  0.1762 -0.0737  0.4383
 7719SOL    HW134619   4.029   1.563   3.485  1.7575 -0.5624 -0.2899
 7719SOL    HW234620   3.939   1.664   3.424  1.0136  3.1457 -0.9494
 7720SOL     OW34621   4.425   2.660  11.715 -0.0005  0.3782 -0.3960
 7720SOL    HW134622   4.396   2.663  11.806  2.2511  0.2587  0.3246
 7720SOL    HW234623   4.506   2.711  11.714  1.5531 -2.0870  0.0246
 7721SOL     OW34624   1.448   0.855   3.032 -1.0528  0.6715 -0.4019
 7721SOL    HW134625   1.396   0.908   2.971 -0.7873  3.0297  1.4572
 7721SOL    HW234626   1.455   0.773   2.982 -2.0516  0.6974 -0.5932
 7722SOL     OW34627   0.214   0.848   6.395  0.2679 -0.5626  0.0785
 7722SOL    HW134628   0.121   0.866   6.383  0.2806 -0.3163  0.3533
 7722SOL    HW234629   0.203   0.763   6.437  0.4226  0.0940  1.4312
 7723SOL     OW34630   0.183   4.384   8.711 -0.6836  0.1906 -0.2520
 7723SOL    HW134631   0.219   4.345   8.791 -2.7621 -1.0588  0.0897
 7723SOL    HW234632   0.136   4.455   8.753 -2.4944 -0.7894 -0.6032
 7724SOL     OW34633   0.427   4.409  13.433 -0.4138 -0.4746  0.2954
 7724SOL    HW134634   0.373   4.487  13.442 -1.0115 -0.7949 -0.5128
 7724SOL    HW234635   0.438   4.411  13.338  0.1135  0.6703  0.3827
 7725SOL     OW34636   4.590   3.648   4.937  0.4328  0.5096  0.7084
 7725SOL    HW134637   4.615   3.672   4.848 -1.0592 -2.3490 -0.5051
 7725SOL    HW234638   4.634   3.712   4.992  2.1771 -0.0176 -0.0727
 7726SOL     OW34639   0.537   0.975  16.926 -0.1675  0.3232  0.0807
 7726SOL    HW134640   0.553   0.987  17.019  2.1788  3.9961 -0.8113
 7726SOL    HW234641   0.446   0.945  16.928  0.8153 -2.6840 -0.2786
 7727SOL     OW34642   1.382   3.903   6.902 -0.3134 -0.0374  0.7315
 7727SOL    HW134643   1.446   3.900   6.973 -0.0415 -1.7200  0.4039
 7727SOL    HW234644   1.314   3.957   6.944 -1.0961  1.8642 -3.0101
 7728SOL     OW34645   0.687   4.608   1.472  0.0468  0.3136 -0.1302
 7728SOL    HW134646   0.675   4.685   1.416 -0.8309  0.8953  0.8416
 7728SOL    HW234647   0.783   4.604   1.472 -0.0071 -0.7810  1.6050
 7729SOL     OW34648   0.657   4.490  16.582  0.2290 -0.4401  0.2415
 7729SOL    HW134649   0.645   4.441  16.501 -0.0297 -1.6437  1.0034
 7729SOL    HW234650   0.732   4.442  16.618  1.7420 -0.0984 -2.4064
 7730SOL     OW34651   0.323   0.002  12.302  0.3120  0.1907 -0.5952
 7730SOL    HW134652   0.345   4.639  12.336  0.2174  0.7486  0.8956
 7730SOL    HW234653   0.282   0.040  12.380 -1.2668 -0.0191 -1.3136
 7731SOL     OW34654   2.259   3.362   6.155 -0.4711 -0.1763  0.2086
 7731SOL    HW134655   2.341   3.403   6.183  0.9129 -1.7129 -1.5952
 7731SOL    HW234656   2.203   3.439   6.146  1.5802  1.3016  0.2086
 7732SOL     OW34657   3.889   2.437   9.760 -0.7654  0.0129 -0.2026
 7732SOL    HW134658   3.815   2.408   9.707 -0.9419  0.9041 -0.4415
 7732SOL    HW234659   3.936   2.354   9.760  0.9722  1.0003  1.5201
 7733SOL     OW34660   4.065   1.028   5.153 -0.2818 -0.4434 -0.8138
 7733SOL    HW134661   4.071   1.068   5.067  2.3902 -1.1919 -0.9735
 7733SOL    HW234662   4.135   0.964   5.153  0.4083  0.3076 -1.1228
 7734SOL     OW34663   3.807   1.025   2.872 -0.0415  0.1034  0.0948
 7734SOL    HW134664   3.818   0.952   2.811  1.1458 -0.7070  1.2904
 7734SOL    HW234665   3.894   1.014   2.912  0.3619 -1.2202 -1.1601
 7735SOL     OW34666   2.368   3.541   6.885  0.3577 -0.2947 -0.1022
 7735SOL    HW134667   2.337   3.462   6.930 -1.7482  0.1856 -0.6719
 7735SOL    HW234668   2.294   3.597   6.909 -0.0716 -0.8708 -0.0474
 7736SOL     OW34669   4.413   0.556   1.107  0.1473  0.3295  0.3292
 7736SOL    HW134670   4.367   0.628   1.064 -0.3374 -1.9250 -2.8962
 7736SOL    HW234671   4.388   0.477   1.060 -1.1686  0.6817  0.4366
 7737SOL     OW34672   2.363   1.523   8.726 -0.6275  0.1490 -0.1093
 7737SOL    HW134673   2.433   1.557   8.670 -0.8046 -2.2862 -1.8121
 7737SOL    HW234674   2.376   1.570   8.808 -0.1428  0.2699 -0.2558
 7738SOL     OW34675   1.739   3.293   7.153 -0.2664  0.0105 -0.0802
 7738SOL    HW134676   1.699   3.379   7.160  0.4079  0.4138 -1.1836
 7738SOL    HW234677   1.818   3.309   7.102  0.6075 -0.2165  1.2120
 7739SOL     OW34678   2.987   2.381  10.173 -0.0083  0.1232  0.1401
 7739SOL    HW134679   2.913   2.387  10.234  0.6520  0.9923  0.8582
 7739SOL    HW234680   3.020   2.470  10.173  1.8060 -0.5482  1.4992
 7740SOL     OW34681   0.176   2.923   7.578  0.1096 -0.0095 -1.1560
 7740SOL    HW134682   0.116   2.939   7.505 -1.4519  0.2419  0.1694
 7740SOL    HW234683   0.193   2.829   7.570  1.3190  0.1534 -0.5534
 7741SOL     OW34684   3.095   2.275   5.661 -0.4660  0.9810 -0.6792
 7741SOL    HW134685   3.150   2.348   5.632  0.6441 -0.3287 -1.8724
 7741SOL    HW234686   3.143   2.275   5.744 -1.1449  0.1782 -0.2942
 7742SOL     OW34687   0.668   1.010   5.804  0.1410  0.4293 -0.0177
 7742SOL    HW134688   0.607   1.065   5.853 -0.6618 -0.9297  0.4892
 7742SOL    HW234689   0.630   0.923   5.816  0.4437  0.3942  0.7193
 7743SOL     OW34690   3.009   2.832   2.311 -0.1764 -0.1312 -0.0563
 7743SOL    HW134691   2.989   2.924   2.329 -0.8560 -0.2143 -0.3790
 7743SOL    HW234692   3.060   2.814   2.390 -2.6300  1.4505  1.8730
 7744SOL     OW34693   3.916   4.231   5.429 -0.0938 -0.2823  0.0627
 7744SOL    HW134694   3.969   4.280   5.366 -0.6394  0.6949  0.3543
 7744SOL    HW234695   3.825   4.261   5.421  0.1923  0.8744  1.1737
 7745SOL     OW34696   0.876   3.355   5.944  1.1000 -0.1007 -0.3468
 7745SOL    HW134697   0.879   3.361   6.039  0.7378  2.6233 -0.5058
 7745SOL    HW234698   0.797   3.408   5.936  0.3812 -0.9747  0.9457
 7746SOL     OW34699   1.039   1.339   9.648  0.1949 -0.3923  0.0706
 7746SOL    HW134700   1.090   1.391   9.711  1.0431 -1.7566  0.5097
 7746SOL    HW234701   1.114   1.293   9.609 -0.2532  0.1646 -1.4519
 7747SOL     OW34702   1.876   0.467  10.062 -0.1152 -0.1562 -0.0386
 7747SOL    HW134703   1.962   0.502  10.083  0.2019 -1.4132  0.7480
 7747SOL    HW234704   1.819   0.542  10.079 -0.7230 -0.5130 -0.5121
 7748SOL     OW34705   2.457   1.656   4.436  0.3021  0.4960  0.2259
 7748SOL    HW134706   2.462   1.610   4.353  0.2961  1.3305 -0.2342
 7748SOL    HW234707   2.399   1.730   4.418 -2.8443 -2.2836 -1.0669
 7749SOL     OW34708   2.671   4.046   2.586  0.3094  0.1678  0.6435
 7749SOL    HW134709   2.679   4.095   2.504  1.3319  0.8391  1.1378
 7749SOL    HW234710   2.606   3.985   2.552  0.4681 -0.5023  1.5409
 7750SOL     OW34711   4.534   0.742  17.515 -0.1658  0.1348 -0.5651
 7750SOL    HW134712   4.466   0.674  17.512 -0.2716  0.2486 -0.7093
 7750SOL    HW234713   4.576   0.739  17.429 -0.4367 -1.3629 -0.6418
 7751SOL     OW34714   1.550   3.673   4.242 -0.0591  0.2391  0.1771
 7751SOL    HW134715   1.595   3.640   4.164  0.7686  1.6463  0.0605
 7751SOL    HW234716   1.620   3.668   4.307  2.9528  0.4592 -3.0451
 7752SOL     OW34717   1.254   0.917   0.855 -0.1927 -0.1856  0.1430
 7752SOL    HW134718   1.322   0.910   0.921  0.3828 -1.6137 -0.6053
 7752SOL    HW234719   1.196   0.976   0.904  0.3956 -0.4912  1.1970
 7753SOL     OW34720   1.486   2.863   4.527 -0.0739 -0.2623 -0.2112
 7753SOL    HW134721   1.533   2.848   4.445 -1.6633 -0.1845 -1.1283
 7753SOL    HW234722   1.416   2.799   4.509  1.1640 -0.8163 -3.0737
 7754SOL     OW34723   0.402   1.038   2.354 -0.0477 -0.0987 -0.3077
 7754SOL    HW134724   0.347   1.025   2.431  0.7556 -0.2466  0.2429
 7754SOL    HW234725   0.335   1.042   2.285 -1.4764  0.6786  1.1091
 7755SOL     OW34726   2.660   2.265   3.965  0.0364  0.1398 -0.1178
 7755SOL    HW134727   2.578   2.274   4.013 -0.6839  2.5004 -1.7749
 7755SOL    HW234728   2.665   2.346   3.914  1.2958  0.2764  0.2206
 7756SOL     OW34729   0.944   0.500   9.347  0.6625 -0.5210  0.4820
 7756SOL    HW134730   0.892   0.448   9.409 -1.1548 -0.1730 -0.7391
 7756SOL    HW234731   1.007   0.533   9.411  1.6108  1.0826 -1.2828
 7757SOL     OW34732   0.506   1.636   0.599  0.0238 -0.4315 -0.3024
 7757SOL    HW134733   0.533   1.647   0.690 -2.2372 -2.3577  0.6045
 7757SOL    HW234734   0.570   1.690   0.554 -0.1177  1.6745  2.0036
 7758SOL     OW34735   1.892   1.958   3.387 -0.3593 -0.0862 -0.2857
 7758SOL    HW134736   1.898   1.945   3.293 -3.0081 -3.6935  0.0538
 7758SOL    HW234737   1.927   1.876   3.422  0.1937  0.3633  0.2257
 7759SOL     OW34738   1.101   2.966   6.856  0.0594 -0.1242  0.0242
 7759SOL    HW134739   1.127   3.028   6.924 -3.7007  1.3980  0.0838
 7759SOL    HW234740   1.008   2.945   6.862 -0.2278  0.9789 -0.5093
 7760SOL     OW34741   0.716   0.715   7.984  0.2361 -0.2138  0.2557
 7760SOL    HW134742   0.721   0.766   7.903 -2.4622 -0.4915 -0.0879
 7760SOL    HW234743   0.804   0.717   8.022  0.1181 -2.1167  0.6062
 7761SOL     OW34744   2.082   1.540   4.072 -0.5347  0.3589  0.3088
 7761SOL    HW134745   1.993   1.506   4.082  0.3464 -1.6335  1.2888
 7761SOL    HW234746   2.096   1.551   3.978 -1.0632 -0.3090  0.1474
 7762SOL     OW34747   0.659   4.175   4.026 -0.2016 -0.3721  0.1364
 7762SOL    HW134748   0.612   4.147   4.104 -2.1581  0.5080 -0.7250
 7762SOL    HW234749   0.611   4.255   4.004 -1.1057 -1.4977 -1.9527
 7763SOL     OW34750   1.293   3.401   5.476 -0.2689  0.0745  0.3367
 7763SOL    HW134751   1.232   3.464   5.514  0.1419  1.5490 -1.4179
 7763SOL    HW234752   1.362   3.399   5.542 -1.3294  2.3451  1.5238
 7764SOL     OW34753   0.489   0.355   3.505 -0.4423 -0.3495  0.4514
 7764SOL    HW134754   0.533   0.440   3.514  2.6668 -2.0380  1.2659
 7764SOL    HW234755   0.397   0.370   3.486 -0.5810 -2.4327 -0.4856
 7765SOL     OW34756   1.097   2.355  14.856 -0.3204 -0.2872 -0.0402
 7765SOL    HW134757   1.184   2.349  14.896 -0.1901  0.0924 -0.2678
 7765SOL    HW234758   1.110   2.427  14.795 -1.0293 -1.8889 -2.0896
 7766SOL     OW34759   3.669   0.502  10.720  0.2063  0.1846 -0.0839
 7766SOL    HW134760   3.719   0.575  10.756  0.4285  0.9209 -1.8906
 7766SOL    HW234761   3.725   0.470  10.649  0.9279  0.0802  0.5317
 7767SOL     OW34762   0.646   3.408   7.045  0.0229  0.8315 -0.5709
 7767SOL    HW134763   0.606   3.321   7.048  0.7025  0.6148  1.9156
 7767SOL    HW234764   0.588   3.456   6.986 -2.9171 -0.8632  0.9729
 7768SOL     OW34765   0.381   0.914   5.607 -0.0930 -0.2827 -0.0733
 7768SOL    HW134766   0.316   0.952   5.666  1.0184  2.4202 -0.6172
 7768SOL    HW234767   0.441   0.870   5.668  2.2318  1.3760 -1.1322
 7769SOL     OW34768   3.328   3.850   3.325  0.4373 -0.0992  0.4115
 7769SOL    HW134769   3.394   3.914   3.349 -0.5486  1.0260  0.0957
 7769SOL    HW234770   3.293   3.821   3.409  1.9676  1.3281  1.5314
 7770SOL     OW34771   1.539   4.130   4.844  0.7200  0.4013  1.1880
 7770SOL    HW134772   1.613   4.140   4.784 -0.0418 -0.6138  0.0748
 7770SOL    HW234773   1.483   4.062   4.806  1.1776  0.8776 -0.3308
 7771SOL     OW34774   0.729   2.396   2.606 -0.1284  0.5735 -0.6784
 7771SOL    HW134775   0.814   2.354   2.617 -0.1038  0.9349  0.4590
 7771SOL    HW234776   0.683   2.318   2.574  0.9911 -0.4844  0.3449
 7772SOL     OW34777   1.950   0.748  10.330  0.0415 -0.0994  0.3507
 7772SOL    HW134778   1.859   0.737  10.359  0.2505  0.2180  1.1314
 7772SOL    HW234779   1.986   0.725  10.416 -0.1805 -1.3624  0.1034
 7773SOL     OW34780   1.972   1.076   8.824  0.0055  0.0575 -0.1017
 7773SOL    HW134781   1.987   1.145   8.889 -1.3814  1.3262 -1.1230
 7773SOL    HW234782   2.032   1.003   8.842 -0.1135  0.1504  0.6504
 7774SOL     OW34783   0.777   1.272   9.566  0.8068 -0.4527  0.2335
 7774SOL    HW134784   0.850   1.315   9.612  0.5071  0.8305 -0.5001
 7774SOL    HW234785   0.703   1.271   9.627 -0.0960 -0.7079 -0.8692
 7775SOL     OW34786   4.218   3.667   6.646  0.2369  0.2365  0.4161
 7775SOL    HW134787   4.302   3.639   6.683 -0.1209 -3.0068 -1.2125
 7775SOL    HW234788   4.235   3.758   6.622 -1.3627 -0.1889 -2.4413
 7776SOL     OW34789   1.187   2.708   4.191 -0.0716  0.0367 -0.4527
 7776SOL    HW134790   1.101   2.748   4.176  0.2695  0.4515 -1.2747
 7776SOL    HW234791   1.204   2.674   4.103 -1.6373 -0.5032 -0.5470
 7777SOL     OW34792   1.149   2.075  11.124 -0.6149 -0.1986  0.4577
 7777SOL    HW134793   1.092   2.035  11.190  0.4987 -1.2567  0.7844
 7777SOL    HW234794   1.095   2.046  11.051 -0.9517 -0.7536  0.9249
 7778SOL     OW34795   0.419   0.690  17.191  0.0327 -0.8575  0.0568
 7778SOL    HW134796   0.422   0.758  17.124 -0.1978 -0.0794  0.8461
 7778SOL    HW234797   0.503   0.643  17.184  0.0017 -1.0433  1.0180
 7779SOL     OW34798   3.480   0.565  13.609  0.4625  0.0400 -0.0391
 7779SOL    HW134799   3.486   0.491  13.669 -1.2015  0.3122  0.4898
 7779SOL    HW234800   3.504   0.643  13.659 -0.5129  0.3008  0.0217
 7780SOL     OW34801   1.532   1.899   0.432 -0.2621 -0.3157  0.1983
 7780SOL    HW134802   1.571   1.822   0.473  1.1483 -0.1839 -0.8835
 7780SOL    HW234803   1.540   1.955   0.510 -1.3188 -0.8957  0.7176
 7781SOL     OW34804   1.821   3.257  11.499  0.4933 -0.1760 -0.5002
 7781SOL    HW134805   1.868   3.274  11.580  1.2703  2.2843 -1.4614
 7781SOL    HW234806   1.747   3.318  11.497  1.5439  1.1276  0.4670
 7782SOL     OW34807   3.085   4.238  12.808 -0.1000  0.2279 -0.0351
 7782SOL    HW134808   3.170   4.263  12.846 -1.0115  3.0243  0.1499
 7782SOL    HW234809   3.109   4.222  12.717  1.1974  2.6248 -0.1447
 7783SOL     OW34810   0.560   2.511   6.551 -0.2271  0.1021  0.2341
 7783SOL    HW134811   0.471   2.544   6.569  0.2934 -0.1910  3.3205
 7783SOL    HW234812   0.556   2.488   6.458  0.7364  0.7904  0.0230
 7784SOL     OW34813   0.710   1.576   8.718  0.2330 -0.4606 -0.1363
 7784SOL    HW134814   0.785   1.546   8.769  1.1351 -1.5458 -2.1132
 7784SOL    HW234815   0.640   1.564   8.782  0.7395 -0.3774  0.4231
 7785SOL     OW34816   2.642   3.834   5.622  0.0863  0.0493 -0.1081
 7785SOL    HW134817   2.621   3.873   5.537  0.4310  0.5795  0.0459
 7785SOL    HW234818   2.571   3.772   5.638  0.2831 -0.7040 -2.2038
 7786SOL     OW34819   0.806   2.502   1.768  0.2446 -0.2826 -0.5293
 7786SOL    HW134820   0.881   2.458   1.808 -0.1268  0.8090  1.3814
 7786SOL    HW234821   0.829   2.484   1.677  1.0360 -0.1296 -0.3540
 7787SOL     OW34822   3.983   4.476   2.794  0.6691  0.4219  0.7925
 7787SOL    HW134823   3.915   4.519   2.743  0.6666 -1.7414 -1.0130
 7787SOL    HW234824   4.023   4.552   2.836 -1.1915  1.2910  0.9977
 7788SOL     OW34825   3.080   1.755   6.713  0.3655  0.3115 -0.4819
 7788SOL    HW134826   3.135   1.749   6.791  0.2120  1.0570 -0.3189
 7788SOL    HW234827   3.015   1.685   6.721 -0.0313  0.8098  0.6219
 7789SOL     OW34828   1.478   2.307   1.783 -0.2832 -0.5969  0.2056
 7789SOL    HW134829   1.486   2.357   1.702  0.8429 -0.3259  0.4767
 7789SOL    HW234830   1.413   2.242   1.758 -0.7824  0.8153 -2.0721
 7790SOL     OW34831   2.636   0.112   5.000  0.4369 -0.4542 -0.3213
 7790SOL    HW134832   2.584   0.157   4.934 -0.2630 -0.3352  0.3175
 7790SOL    HW234833   2.563   0.081   5.054  0.5179  3.2068  1.8978
 7791SOL     OW34834   2.049   3.201   6.541  0.1000 -0.1218  0.3904
 7791SOL    HW134835   2.105   3.204   6.618 -0.0432 -0.0558  0.4917
 7791SOL    HW234836   1.987   3.273   6.551 -0.0406 -0.2202  0.2286
 7792SOL     OW34837   4.378   3.365   8.340  0.4457 -0.3208  0.2591
 7792SOL    HW134838   4.330   3.290   8.305  0.6034 -0.3706  0.1505
 7792SOL    HW234839   4.458   3.322   8.372  1.2214 -0.0726 -1.3298
 7793SOL     OW34840   0.498   0.939   3.489  0.3183 -0.3059  0.2310
 7793SOL    HW134841   0.514   0.953   3.582  0.9855 -1.2171  0.2571
 7793SOL    HW234842   0.436   1.011   3.479 -1.6291 -2.1751 -1.2764
 7794SOL     OW34843   3.316   4.124   8.276  0.0682 -0.8855 -0.5158
 7794SOL    HW134844   3.373   4.051   8.254  3.4146  0.7256  2.6737
 7794SOL    HW234845   3.306   4.107   8.370  1.4971  0.6150 -0.0971
 7795SOL     OW34846   3.780   2.163  12.470 -0.1228 -0.4559  0.2762
 7795SOL    HW134847   3.838   2.175  12.546  0.4500 -1.9897  0.0959
 7795SOL    HW234848   3.847   2.146  12.404 -0.9828 -3.0941  0.0529
 7796SOL     OW34849   1.616   0.295  17.392  0.1499  0.7507 -0.5040
 7796SOL    HW134850   1.672   0.350  17.448 -0.3350 -0.5986  1.3113
 7796SOL    HW234851   1.670   0.255  17.325  1.6165 -0.7882  1.6310
 7797SOL     OW34852   1.608   3.947   5.476  0.3791  0.0471  0.9560
 7797SOL    HW134853   1.553   3.965   5.552 -0.9130  0.0281  0.0294
 7797SOL    HW234854   1.644   3.861   5.498  3.8126  1.1192 -0.4518
 7798SOL     OW34855   0.170   3.200   7.096 -0.0295  0.1349  0.1854
 7798SOL    HW134856   0.213   3.115   7.098  0.6326  0.4905  0.8984
 7798SOL    HW234857   0.100   3.182   7.033  1.0203  1.2379 -1.2661
 7799SOL     OW34858   3.570   3.942   8.186 -0.3011 -0.3840  0.0974
 7799SOL    HW134859   3.583   3.960   8.279 -0.7125 -0.6490  0.2046
 7799SOL    HW234860   3.662   3.947   8.158  0.0643  3.5677  1.9111
 7800SOL     OW34861   2.207   1.141   5.874 -0.5333 -0.7236  0.2126
 7800SOL    HW134862   2.243   1.054   5.859 -0.2038 -0.6333  0.4789
 7800SOL    HW234863   2.225   1.189   5.794  2.0018  1.3832  2.0285
 7801SOL     OW34864   3.652   2.616   4.180 -0.4241  0.1195 -0.0826
 7801SOL    HW134865   3.721   2.636   4.244  1.3251 -0.5904 -1.7482
 7801SOL    HW234866   3.708   2.625   4.103  1.2432 -0.6595  1.0320
 7802SOL     OW34867   1.726   1.753   7.996  0.4647  0.0921 -0.0142
 7802SOL    HW134868   1.670   1.677   7.984  4.1790 -2.6618  0.2539
 7802SOL    HW234869   1.785   1.736   7.924  1.2918 -0.6048  0.8365
 7803SOL     OW34870   4.434   3.012   2.041  0.2043 -0.4405 -0.4652
 7803SOL    HW134871   4.500   3.080   2.056 -2.2388  2.1190 -1.4985
 7803SOL    HW234872   4.412   2.984   2.130  3.6989 -0.4163  0.4182
 7804SOL     OW34873   0.441   2.191   8.144 -0.3335  0.0990 -0.3343
 7804SOL    HW134874   0.414   2.235   8.064 -1.8104  0.0755  0.1474
 7804SOL    HW234875   0.379   2.120   8.157  1.3830 -1.1247  1.1508
 7805SOL     OW34876   3.622   0.941  11.629 -0.0720 -0.9629  0.3307
 7805SOL    HW134877   3.560   0.889  11.681 -0.4165 -1.1931 -0.3097
 7805SOL    HW234878   3.640   0.879  11.559  1.0639 -0.6663  0.3572
 7806SOL     OW34879   3.904   4.215   4.230  0.6018 -0.2992  0.3337
 7806SOL    HW134880   3.913   4.132   4.184 -1.4710 -0.0464 -0.5075
 7806SOL    HW234881   3.870   4.269   4.159  0.9528 -2.1649 -1.2465
 7807SOL     OW34882   0.611   3.353   3.349  0.1295  0.2789  0.1688
 7807SOL    HW134883   0.637   3.437   3.311  0.0685  0.1341 -0.1933
 7807SOL    HW234884   0.529   3.323   3.311  0.4570 -2.7413  1.8914
 7808SOL     OW34885   0.384   1.255   8.108 -0.0097 -0.1475 -0.0421
 7808SOL    HW134886   0.296   1.275   8.074 -0.2848 -2.1665 -0.5064
 7808SOL    HW234887   0.365   1.241   8.200 -0.7261  1.8438  0.1107
 7809SOL     OW34888   2.186   1.293   5.618  0.2252  0.6123 -0.9883
 7809SOL    HW134889   2.155   1.383   5.611 -0.9781  0.2217 -0.7475
 7809SOL    HW234890   2.102   1.253   5.596 -0.3246  0.3738  1.5222
 7810SOL     OW34891   3.017   2.346   9.665 -0.2924 -0.1159  0.5625
 7810SOL    HW134892   3.094   2.346   9.609 -0.7253  1.4460 -0.0425
 7810SOL    HW234893   3.034   2.423   9.720 -0.1871  1.0996 -1.1610
 7811SOL     OW34894   4.414   1.608   6.392  0.4680 -0.1699  0.1262
 7811SOL    HW134895   4.319   1.605   6.396  0.5372 -2.0667  0.0758
 7811SOL    HW234896   4.427   1.703   6.398 -1.7432  0.0833  0.9319
 7812SOL     OW34897   3.040   3.367   8.910 -0.1336 -0.7824 -0.0047
 7812SOL    HW134898   2.953   3.327   8.900 -0.5105 -0.1127  0.6207
 7812SOL    HW234899   3.089   3.285   8.911 -1.2510 -1.4259  2.5950
 7813SOL     OW34900   1.955   1.381  13.384  0.0077  0.3437  0.0094
 7813SOL    HW134901   1.862   1.402  13.378 -0.2981 -0.9462  0.2748
 7813SOL    HW234902   1.985   1.451  13.327  1.6530 -0.4132 -0.0609
 7814SOL     OW34903   2.220   1.276   8.031 -0.2684 -0.2558 -0.5107
 7814SOL    HW134904   2.252   1.205   8.086  1.1657 -0.0722 -1.1147
 7814SOL    HW234905   2.129   1.282   8.059 -0.0157 -1.5579  0.5784
 7815SOL     OW34906   1.493   1.043   8.921 -0.8316 -0.6124 -0.2846
 7815SOL    HW134907   1.473   1.062   9.012  0.1055  2.0275 -0.6354
 7815SOL    HW234908   1.550   0.965   8.923  0.6028  0.4895  1.5915
 7816SOL     OW34909   3.410   3.308   1.723 -0.3451  0.4629  0.2248
 7816SOL    HW134910   3.421   3.279   1.633 -1.6662  3.4161 -0.8928
 7816SOL    HW234911   3.351   3.382   1.710 -0.2966  1.1343  3.8945
 7817SOL     OW34912   2.078   4.401  17.361 -0.4647 -0.0432  0.4781
 7817SOL    HW134913   2.081   4.493  17.387  0.4705 -0.6137  2.3865
 7817SOL    HW234914   2.017   4.375  17.430  0.7535 -0.9000  1.2356
 7818SOL     OW34915   2.479   3.906   6.001 -0.2473  0.2681 -0.1601
 7818SOL    HW134916   2.424   3.930   5.926  1.0995 -1.0327 -1.5770
 7818SOL    HW234917   2.550   3.970   5.997  1.1338 -1.0852  2.5994
 7819SOL     OW34918   4.424   2.375   4.788  0.0398 -0.1554 -0.5477
 7819SOL    HW134919   4.386   2.342   4.707  1.1007 -0.3841 -0.9406
 7819SOL    HW234920   4.466   2.457   4.762 -2.3204  0.7431 -1.5505
 7820SOL     OW34921   3.773   2.285  17.343 -0.7269  0.0615  0.3277
 7820SOL    HW134922   3.849   2.287  17.400 -1.2017 -0.4998  0.9782
 7820SOL    HW234923   3.813   2.348  17.282 -0.5851 -0.9736 -0.6399
 7821SOL     OW34924   2.476   3.922   2.423  0.3851 -0.3360  0.2049
 7821SOL    HW134925   2.418   3.846   2.421  0.6201 -0.4971 -0.2461
 7821SOL    HW234926   2.512   3.938   2.336  0.0386  0.3331  0.1779
 7822SOL     OW34927   3.608   4.694   6.570 -0.5573 -0.0381  0.6526
 7822SOL    HW134928   3.520   4.699   6.608 -0.9731  1.1819 -0.4858
 7822SOL    HW234929   3.608   0.059   6.536  0.5782  0.0473  0.8556
 7823SOL     OW34930   0.696   0.502   5.155 -0.3403 -0.4863  0.1907
 7823SOL    HW134931   0.686   0.470   5.245 -0.4541  0.5918  0.5534
 7823SOL    HW234932   0.789   0.527   5.151 -0.5182  0.6422  2.8481
 7824SOL     OW34933   0.691   0.692   6.479 -0.3169 -0.0373  0.0107
 7824SOL    HW134934   0.617   0.723   6.426  0.0196 -1.3372 -1.2332
 7824SOL    HW234935   0.646   0.643   6.547 -0.5073  1.0328  0.6550
 7825SOL     OW34936   4.365   2.349   7.608  0.2255  0.6988 -0.2670
 7825SOL    HW134937   4.284   2.326   7.653  1.0792 -0.1852  0.8093
 7825SOL    HW234938   4.419   2.390   7.676  3.0644  0.6812 -2.5152
 7826SOL     OW34939   1.416   2.422   2.628  0.3986 -0.1276  0.3019
 7826SOL    HW134940   1.496   2.468   2.653  1.2685 -1.0181 -0.7953
 7826SOL    HW234941   1.380   2.465   2.551  2.6040  2.2058  0.5650
 7827SOL     OW34942   0.609   1.389   1.191 -0.2644 -0.2308  0.0398
 7827SOL    HW134943   0.552   1.408   1.266 -0.6550 -0.8099 -0.1102
 7827SOL    HW234944   0.587   1.296   1.179  0.7594  0.0752 -3.9855
 7828SOL     OW34945   0.094   2.114   9.463 -0.3850  0.7498  0.6840
 7828SOL    HW134946   0.174   2.066   9.443 -1.3670 -1.4339  2.0687
 7828SOL    HW234947   0.104   2.117   9.558 -1.2286 -0.6153  0.8190
 7829SOL     OW34948   3.129   0.143  11.343 -0.5663  0.1472  0.3054
 7829SOL    HW134949   3.070   0.179  11.276 -0.2116 -0.9384 -0.6057
 7829SOL    HW234950   3.072   0.078  11.384 -0.8061  0.0973 -0.1014
 7830SOL     OW34951   0.651   0.701   8.642  0.3746 -0.1067 -0.4890
 7830SOL    HW134952   0.584   0.733   8.582 -1.9118 -0.0890  2.0744
 7830SOL    HW234953   0.615   0.613   8.644 -0.2702  0.1165 -2.4741
 7831SOL     OW34954   0.751   1.926   5.358 -0.4083 -0.1234 -0.0292
 7831SOL    HW134955   0.758   2.020   5.376  2.2314  0.0077 -1.6662
 7831SOL    HW234956   0.765   1.936   5.264  2.8126 -1.7640  0.2510
 7832SOL     OW34957   4.385   0.168  11.722 -0.3313  0.1645  0.3833
 7832SOL    HW134958   4.407   0.237  11.659  0.0170  0.0365  0.3635
 7832SOL    HW234959   4.463   0.177  11.777 -2.0170 -1.7394  3.0775
 7833SOL     OW34960   1.727   4.602   3.783  0.1201 -0.0219  0.5025
 7833SOL    HW134961   1.811   4.569   3.816  0.3666 -0.2870 -0.3785
 7833SOL    HW234962   1.664   4.542   3.823  0.5750  1.3764  3.2680
 7834SOL     OW34963   1.832   3.250   2.760 -0.2390  0.1506 -0.2078
 7834SOL    HW134964   1.842   3.287   2.673  0.4003 -0.7919 -0.5334
 7834SOL    HW234965   1.910   3.197   2.777  0.9924  2.8791  2.8357
 7835SOL     OW34966   3.563   3.256  13.005 -0.0092  0.4006  0.2224
 7835SOL    HW134967   3.524   3.318  12.943  1.2128 -0.2251 -1.1437
 7835SOL    HW234968   3.565   3.169  12.965  0.2398  0.8089 -0.6532
 7836SOL     OW34969   1.266   3.341   4.062 -0.3597  0.2305  0.0318
 7836SOL    HW134970   1.177   3.362   4.088  0.2063  1.3380  1.0399
 7836SOL    HW234971   1.308   3.421   4.093 -1.4426  0.2380  1.4538
 7837SOL     OW34972   4.302   2.153   6.180  0.4089  0.1129  0.0102
 7837SOL    HW134973   4.279   2.246   6.181 -0.6245 -0.1406 -0.3889
 7837SOL    HW234974   4.395   2.154   6.199  0.7452 -0.6082 -1.5980
 7838SOL     OW34975   2.157   2.104   1.100  0.2598 -0.4943 -0.5043
 7838SOL    HW134976   2.189   2.162   1.031  2.4298 -0.2978  0.6411
 7838SOL    HW234977   2.066   2.094   1.075  0.6085 -1.5477 -1.3308
 7839SOL     OW34978   2.336   0.286   9.113 -0.0377 -0.2091 -0.6164
 7839SOL    HW134979   2.284   0.323   9.042  1.2217  0.7200 -1.0511
 7839SOL    HW234980   2.421   0.328   9.120  0.1206 -0.8736  1.5672
 7840SOL     OW34981   1.976   3.781   7.125  0.2384  0.1190 -0.4296
 7840SOL    HW134982   2.018   3.864   7.148 -0.4346  0.1193  0.8107
 7840SOL    HW234983   1.931   3.748   7.203  0.3445  0.3880 -0.2528
 7841SOL     OW34984   3.007   1.637  17.692  0.3248 -0.4201 -0.4156
 7841SOL    HW134985   3.075   1.634   0.062 -0.6158  1.8191  0.6263
 7841SOL    HW234986   3.026   1.555  17.646 -1.1606 -0.8801 -0.2229
 7842SOL     OW34987   1.618   2.495   8.485  0.3345 -0.7573  0.6605
 7842SOL    HW134988   1.553   2.538   8.428 -1.8713  1.0987  4.6129
 7842SOL    HW234989   1.697   2.510   8.433  0.1172 -0.9299  0.2785
 7843SOL     OW34990   3.889   2.720  11.643  0.1085  0.6748  0.0990
 7843SOL    HW134991   3.883   2.664  11.566  2.1052  0.2990  0.2377
 7843SOL    HW234992   3.918   2.650  11.701 -1.5768  1.2274  1.6401
 7844SOL     OW34993   3.064   4.044   1.642 -0.2816 -0.4130  0.0078
 7844SOL    HW134994   3.009   3.984   1.592 -3.0448  1.3187  0.9986
 7844SOL    HW234995   3.127   4.078   1.579  2.1566 -0.5400  2.3853
 7845SOL     OW34996   0.211   3.224   4.044  0.1607  0.5729 -0.6669
 7845SOL    HW134997   0.187   3.137   4.011  1.5843  0.7467 -2.1704
 7845SOL    HW234998   0.187   3.210   4.136 -1.8042 -0.7516 -1.3735
 7846SOL     OW34999   4.394   0.759   5.572  0.4799  0.5099  0.2778
 7846SOL    HW135000   4.440   0.843   5.569 -0.2159  0.8246 -2.0467
 7846SOL    HW235001   4.340   0.774   5.650  0.5552  1.8023  0.0825
 7847SOL     OW35002   1.664   3.009   1.299 -0.5404  0.3446 -0.4885
 7847SOL    HW135003   1.661   3.061   1.380 -0.0951  1.5505 -1.2501
 7847SOL    HW235004   1.739   2.952   1.318 -2.2589 -0.8996  2.5998
 7848SOL     OW35005   0.995   4.694   6.057  0.6149  0.2517  0.1143
 7848SOL    HW135006   1.072   4.637   6.059  1.0367  0.7688 -1.3557
 7848SOL    HW235007   0.974   4.714   6.149  1.9576 -1.5592  0.8205
 7849SOL     OW35008   4.236   3.556   4.813  0.1141 -0.7605 -0.2967
 7849SOL    HW135009   4.257   3.597   4.897 -3.0063 -1.9411  1.0605
 7849SOL    HW235010   4.182   3.623   4.772  3.1487  0.9922 -1.3984
 7850SOL     OW35011   3.868   3.639   1.522  0.3924  0.5227 -0.3623
 7850SOL    HW135012   3.937   3.577   1.496  0.2913  1.0583 -1.9213
 7850SOL    HW235013   3.824   3.652   1.438 -1.0226  0.4765  0.3706
 7851SOL     OW35014   4.039   1.382   8.746  0.5961  0.5184  0.3535
 7851SOL    HW135015   4.099   1.310   8.726  0.7311  0.6578  0.2599
 7851SOL    HW235016   3.965   1.334   8.783  2.2565 -1.9549  0.5205
 7852SOL     OW35017   3.698   3.542   5.498  0.1271 -0.5384 -1.0780
 7852SOL    HW135018   3.644   3.561   5.574  0.3366 -0.7203 -0.8835
 7852SOL    HW235019   3.650   3.481   5.443  0.6044 -0.0582 -2.0214
 7853SOL     OW35020   1.283   3.692   0.885 -0.8224 -0.3296  0.0182
 7853SOL    HW135021   1.218   3.761   0.895  1.9507  2.2340  0.3075
 7853SOL    HW235022   1.242   3.617   0.841 -0.0387  1.3376 -3.5354
 7854SOL     OW35023   0.171   2.610   5.943  0.0620 -0.2683  0.4190
 7854SOL    HW135024   0.138   2.616   5.853  0.6142  0.1123  0.2469
 7854SOL    HW235025   0.212   2.523   5.942 -3.3337 -1.8982  0.8298
 7855SOL     OW35026   1.840   0.166   2.565 -0.4071  0.1404  0.5009
 7855SOL    HW135027   1.760   0.117   2.541  0.0158  1.1269 -2.9341
 7855SOL    HW235028   1.895   0.166   2.487  3.5615 -1.6329  3.2980
 7856SOL     OW35029   1.071   3.462   3.204  0.2600 -0.0107  0.5935
 7856SOL    HW135030   0.991   3.411   3.185 -0.5951  1.8186 -0.6665
 7856SOL    HW235031   1.114   3.442   3.120 -0.8402  1.0263 -0.2105
 7857SOL     OW35032   2.209   4.177   3.288  0.4800 -0.4711  0.0315
 7857SOL    HW135033   2.298   4.160   3.316  0.1800  2.0181  2.4795
 7857SOL    HW235034   2.204   4.261   3.242  1.8020  0.6082  1.8464
 7858SOL     OW35035   0.555   1.116   0.024 -0.0676  0.3983  0.0989
 7858SOL    HW135036   0.606   1.075   0.094  1.4398  1.0711 -0.6039
 7858SOL    HW235037   0.630   1.143  17.667 -1.3807 -1.1830 -2.5141
 7859SOL     OW35038   0.156   3.649   9.443 -0.9362 -0.3860 -0.6571
 7859SOL    HW135039   0.223   3.592   9.406 -2.8586 -0.2721 -4.3266
 7859SOL    HW235040   0.204   3.722   9.482  0.8698 -2.5728  1.2018
 7860SOL     OW35041   2.780   2.148  15.573 -0.3959 -0.5283  0.0977
 7860SOL    HW135042   2.796   2.169  15.481  0.7888 -0.7952  0.2303
 7860SOL    HW235043   2.795   2.234  15.612  0.0311 -1.0874  1.1735
 7861SOL     OW35044   3.375   3.667   2.537 -0.4471  0.7530  0.4237
 7861SOL    HW135045   3.330   3.690   2.618 -2.1771 -1.6022  0.1166
 7861SOL    HW235046   3.409   3.755   2.520  1.4129  0.1515  0.9769
 7862SOL     OW35047   0.328   2.049  11.429  0.1981 -0.1971  0.3309
 7862SOL    HW135048   0.376   1.966  11.437  2.2305  0.9147 -0.2822
 7862SOL    HW235049   0.259   2.024  11.368 -0.5409 -0.7689  1.4080
 7863SOL     OW35050   3.645   3.163  15.025  0.0431  0.0659  0.1634
 7863SOL    HW135051   3.647   3.109  15.104 -3.1273  1.7308  1.3968
 7863SOL    HW235052   3.584   3.232  15.053 -1.0807 -1.9572  2.6691
 7864SOL     OW35053   0.440   1.957   1.597  0.2679 -0.2921  0.4067
 7864SOL    HW135054   0.362   1.924   1.551  1.4043 -4.8812  1.7337
 7864SOL    HW235055   0.454   2.041   1.554 -0.8837 -0.2189  0.1777
 7865SOL     OW35056   3.617   4.329   6.312  0.4191  0.3010  0.0580
 7865SOL    HW135057   3.530   4.291   6.304 -0.1525  1.4987  0.4810
 7865SOL    HW235058   3.657   4.299   6.394  0.4524  2.2210  0.7586
 7866SOL     OW35059   2.841   2.752   5.450 -0.6742 -0.0853  0.0976
 7866SOL    HW135060   2.757   2.771   5.408 -0.4110  0.6532 -0.0896
 7866SOL    HW235061   2.892   2.818   5.403  0.4966 -2.4415 -1.9147
 7867SOL     OW35062   0.313   3.919   1.259  0.3950 -0.5892  0.3748
 7867SOL    HW135063   0.336   3.975   1.185 -1.9956  0.8112  0.7116
 7867SOL    HW235064   0.344   3.833   1.231  2.1329  0.4389 -0.8586
 7868SOL     OW35065   1.000   0.015   6.495  0.5489  0.3387  0.2515
 7868SOL    HW135066   0.994   4.655   6.448  2.7756 -0.3171  1.1148
 7868SOL    HW235067   0.937   4.721   6.564 -0.7807  0.0353 -1.0474
 7869SOL     OW35068   2.660   2.738   6.681  0.0153 -0.4382 -0.3587
 7869SOL    HW135069   2.745   2.760   6.720  0.8595 -0.9438 -1.8792
 7869SOL    HW235070   2.669   2.650   6.642  2.1757  0.8452 -2.7978
 7870SOL     OW35071   1.423   3.455   8.572  0.5051  0.6300  0.0922
 7870SOL    HW135072   1.451   3.423   8.487 -1.0155 -1.4595  0.3655
 7870SOL    HW235073   1.506   3.464   8.619 -0.0659 -0.2468  1.2730
 7871SOL     OW35074   3.076   2.556   6.766  0.5338  0.5355 -0.5329
 7871SOL    HW135075   3.027   2.556   6.683 -0.8819 -0.0940  0.2903
 7871SOL    HW235076   3.066   2.466   6.798 -2.1359  1.0382  0.0501
 7872SOL     OW35077   0.421   0.163   2.057 -0.1735 -0.0953  0.0360
 7872SOL    HW135078   0.352   0.160   1.991  2.3695  2.9732 -2.7272
 7872SOL    HW235079   0.380   0.107   2.123 -0.2721 -1.3689 -1.1082
 7873SOL     OW35080   2.542   1.532   7.751 -0.2787 -0.3461 -0.3111
 7873SOL    HW135081   2.470   1.525   7.814 -0.0533  0.1715  0.0005
 7873SOL    HW235082   2.587   1.449   7.765  1.4614  1.1898  3.2356
 7874SOL     OW35083   1.050   2.623   5.480 -0.2807  0.3100 -0.1532
 7874SOL    HW135084   1.082   2.544   5.523 -0.9793  0.6343  0.9764
 7874SOL    HW235085   0.993   2.666   5.544  1.8266  1.4333  0.9864
 7875SOL     OW35086   3.365   1.722   4.062 -0.4046 -0.2025  0.0070
 7875SOL    HW135087   3.386   1.751   3.973 -1.4868  0.1339 -0.1335
 7875SOL    HW235088   3.315   1.792   4.105  3.0389  2.7263 -0.7738
 7876SOL     OW35089   3.382   1.403   9.484 -0.0652 -0.6242  0.2423
 7876SOL    HW135090   3.429   1.448   9.554  1.4505 -0.9171 -0.6092
 7876SOL    HW235091   3.462   1.376   9.441 -0.4721 -1.8366  0.2614
 7877SOL     OW35092   1.852   3.987   1.998 -0.6891  0.7008  0.1378
 7877SOL    HW135093   1.787   3.924   2.027 -0.8332  0.0236 -1.6594
 7877SOL    HW235094   1.917   3.978   2.067 -1.7507 -1.1305  0.8984
 7878SOL     OW35095   2.193   4.395   9.226 -0.2423  0.5401  0.2563
 7878SOL    HW135096   2.239   4.471   9.260  1.9432 -0.4759 -0.4006
 7878SOL    HW235097   2.228   4.326   9.283 -1.5447  1.3517  2.0240
 7879SOL     OW35098   4.548   2.476  13.004  0.2432  0.6660  0.3709
 7879SOL    HW135099   4.562   2.381  12.999  0.3017  0.7700 -1.4177
 7879SOL    HW235100   4.452   2.468  13.003  0.6666 -4.2864 -2.4974
 7880SOL     OW35101   3.785   1.571   4.326 -0.1817 -0.4423 -0.3411
 7880SOL    HW135102   3.776   1.593   4.419  1.6896 -1.6739  0.1236
 7880SOL    HW235103   3.692   1.556   4.306  0.1238 -0.2318 -1.8513
 7881SOL     OW35104   0.265   1.682   3.474  0.5775  0.8639  0.0158
 7881SOL    HW135105   0.209   1.694   3.551  1.5050 -2.9839  1.3151
 7881SOL    HW235106   0.227   1.750   3.419 -1.2123  1.7389  2.3501
 7882SOL     OW35107   3.223   2.293   8.796  0.4942 -0.0430 -0.1857
 7882SOL    HW135108   3.300   2.269   8.744  2.0714  0.5440  1.9170
 7882SOL    HW235109   3.262   2.284   8.883 -1.9798  0.7476  0.9996
 7883SOL     OW35110   0.246   3.448   7.011 -0.7076 -0.6204 -0.4209
 7883SOL    HW135111   0.276   3.466   7.100  0.5318  1.8537 -1.3093
 7883SOL    HW235112   0.225   3.357   7.028  1.8837 -1.6261 -2.6532
 7884SOL     OW35113   1.640   3.460  11.170  0.3767 -0.4251  0.4857
 7884SOL    HW135114   1.685   3.491  11.248 -0.9721  0.3914  0.9328
 7884SOL    HW235115   1.559   3.510  11.178  0.0872 -0.7885 -0.1259
 7885SOL     OW35116   3.788   4.360   6.536  0.3308 -0.0406 -0.2918
 7885SOL    HW135117   3.804   4.453   6.518 -0.6108  0.6348  2.3015
 7885SOL    HW235118   3.765   4.374   6.628  0.2404  0.9311 -0.4572
 7886SOL     OW35119   0.666   2.465   2.895  0.3160 -0.2096  0.5497
 7886SOL    HW135120   0.758   2.439   2.898  0.5123  0.6811  2.5550
 7886SOL    HW235121   0.651   2.439   2.805  0.0003  0.8442  0.2935
 7887SOL     OW35122   3.236   1.207  12.641 -0.5097 -0.3759 -0.2539
 7887SOL    HW135123   3.294   1.260  12.586  1.9112 -1.8004  0.9360
 7887SOL    HW235124   3.281   1.123  12.651 -1.3975 -0.3431  3.7443
 7888SOL     OW35125   1.059   4.383   5.046 -0.4302 -0.1863  0.1622
 7888SOL    HW135126   1.129   4.320   5.032 -0.3703 -0.5790  2.1845
 7888SOL    HW235127   0.992   4.351   4.985 -1.0434 -2.7625  2.2038
 7889SOL     OW35128   4.171   4.010   8.339 -0.2102 -0.3006  0.6786
 7889SOL    HW135129   4.197   3.962   8.261 -1.4532  2.8475 -1.6529
 7889SOL    HW235130   4.123   4.080   8.295 -0.2731 -0.0925  1.0781
 7890SOL     OW35131   4.397   2.374   5.420  0.4983  0.1327 -0.2285
 7890SOL    HW135132   4.417   2.466   5.404 -0.0103  0.1715 -0.6681
 7890SOL    HW235133   4.312   2.388   5.463  1.5093  0.7349  1.5403
 7891SOL     OW35134   1.752   2.729  16.552  0.1415  0.0591  0.2784
 7891SOL    HW135135   1.823   2.778  16.593 -0.4740  1.9665 -0.9478
 7891SOL    HW235136   1.754   2.762  16.462 -1.1743 -0.1233  0.1875
 7892SOL     OW35137   4.131   4.002  12.269 -0.7203  1.1486  0.4671
 7892SOL    HW135138   4.211   3.957  12.243 -0.6654  1.7423 -0.4239
 7892SOL    HW235139   4.166   4.078  12.316  0.5328  1.6671 -1.2882
 7893SOL     OW35140   3.884   0.737  14.021 -0.2719 -0.0470  0.0792
 7893SOL    HW135141   3.922   0.819  13.989 -0.3980  0.8789  2.2913
 7893SOL    HW235142   3.913   0.673  13.956 -0.2516 -1.3033  1.3436
 7894SOL     OW35143   1.618   0.696   4.257 -0.2865 -0.4593 -0.2920
 7894SOL    HW135144   1.561   0.693   4.334  1.0130 -0.8070  0.6541
 7894SOL    HW235145   1.667   0.778   4.265 -0.3210 -0.5558  0.8642
 7895SOL     OW35146   3.885   2.492   6.718  0.6837  0.1119 -0.4183
 7895SOL    HW135147   3.810   2.531   6.762  0.9802 -2.1487  2.1024
 7895SOL    HW235148   3.932   2.452   6.791  1.7597 -1.7235 -2.1065
 7896SOL     OW35149   4.630   1.288  16.917  0.1322  0.6463 -0.2540
 7896SOL    HW135150   4.682   1.217  16.879 -1.1757  0.2406 -1.2989
 7896SOL    HW235151   4.554   1.241  16.950 -0.4657  0.7261 -1.5257
 7897SOL     OW35152   3.864   3.440  14.147 -0.7167  0.0962  0.0972
 7897SOL    HW135153   3.783   3.487  14.166 -0.1802  1.1146 -0.1358
 7897SOL    HW235154   3.871   3.382  14.222 -1.0950  1.6826  1.3553
 7898SOL     OW35155   0.639   2.860  12.458  0.0275  0.3418  0.2229
 7898SOL    HW135156   0.561   2.848  12.403  0.0160  0.7170  0.1568
 7898SOL    HW235157   0.633   2.791  12.523 -1.3116  0.4013  0.1659
 7899SOL     OW35158   2.431   1.440  10.129  0.3027  0.3273 -0.6812
 7899SOL    HW135159   2.399   1.454  10.039 -0.1599 -1.9222 -0.8662
 7899SOL    HW235160   2.519   1.476  10.115 -0.2051  3.2770  3.8990
 7900SOL     OW35161   2.244   2.273   3.940  1.2336  0.1549 -0.5474
 7900SOL    HW135162   2.315   2.288   4.003 -0.8724  0.7628  1.6665
 7900SOL    HW235163   2.261   2.180   3.928  0.0172  0.0629 -1.5354
 7901SOL     OW35164   3.381   1.874   0.233  0.3817  0.4592  0.1511
 7901SOL    HW135165   3.332   1.820   0.171  0.8105  1.9548 -1.5013
 7901SOL    HW235166   3.448   1.811   0.258 -0.2625 -0.0982  0.4730
 7902SOL     OW35167   0.841   1.710   8.081  0.5247 -0.1094 -0.0188
 7902SOL    HW135168   0.887   1.793   8.068 -0.5743  0.6391  0.8344
 7902SOL    HW235169   0.748   1.727   8.098  0.5442  0.4932 -0.5220
 7903SOL     OW35170   3.036   1.934   7.960 -0.0649  0.3592  0.7205
 7903SOL    HW135171   3.101   1.874   7.996  1.1357  0.0707 -1.8866
 7903SOL    HW235172   2.958   1.880   7.964  0.3622 -0.3180 -0.2050
 7904SOL     OW35173   3.516   4.263   3.770 -0.0111  0.2257  0.1019
 7904SOL    HW135174   3.542   4.172   3.784 -1.0804 -0.2592 -1.0301
 7904SOL    HW235175   3.482   4.261   3.680 -0.2791 -0.3893  0.2119
 7905SOL     OW35176   1.863   0.407   9.728  0.3560 -0.1002  0.3498
 7905SOL    HW135177   1.900   0.457   9.800  0.2339 -0.0487  0.3783
 7905SOL    HW235178   1.813   0.337   9.770 -1.3909  1.8009  1.4446
 7906SOL     OW35179   3.879   0.865  10.412  0.6561 -0.7490  0.5765
 7906SOL    HW135180   3.882   0.953  10.450  0.0488 -0.8445  0.8426
 7906SOL    HW235181   3.788   0.839  10.423  0.5455 -0.2974  0.7416
 7907SOL     OW35182   3.000   1.204   4.081  0.4235 -0.0690 -0.3664
 7907SOL    HW135183   2.925   1.202   4.140 -0.0383 -0.6069 -0.9801
 7907SOL    HW235184   3.059   1.259   4.132  0.0137  0.7032 -0.7322
 7908SOL     OW35185   3.208   1.498   6.587  0.4265 -0.2013  0.2553
 7908SOL    HW135186   3.281   1.532   6.639  1.6541 -0.6064 -1.2135
 7908SOL    HW235187   3.130   1.511   6.641 -0.4124 -0.4758 -0.8930
 7909SOL     OW35188   3.083   1.761   4.603 -0.0086  0.4391 -0.5548
 7909SOL    HW135189   2.996   1.766   4.641  0.7256  1.2251  1.0167
 7909SOL    HW235190   3.078   1.846   4.558  0.7216  0.5482 -0.4282
 7910SOL     OW35191   3.941   4.608   6.607  0.0513  0.6015  0.2677
 7910SOL    HW135192   3.922   4.701   6.615  1.9688  1.0281 -0.0179
 7910SOL    HW235193   3.888   4.576   6.679 -2.6124  2.4900 -0.8628
 7911SOL     OW35194   2.594   2.076  14.310  0.4261  0.1449  0.3644
 7911SOL    HW135195   2.631   2.010  14.368  0.7589 -0.0403 -0.0616
 7911SOL    HW235196   2.679   2.120  14.300  0.8020 -0.1767  2.1368
 7912SOL     OW35197   2.833   0.020   6.328  0.2576  0.4401 -0.3065
 7912SOL    HW135198   2.879   0.065   6.257 -0.3902  1.9933  0.2810
 7912SOL    HW235199   2.906   4.699   6.371 -0.6993 -0.6172  0.2223
 7913SOL     OW35200   0.751   0.067   8.618 -0.1038 -0.0751  0.2340
 7913SOL    HW135201   0.803   4.716   8.588  0.8477 -0.5417  2.9857
 7913SOL    HW235202   0.712   0.033   8.699 -0.5492  0.4402  0.2348
 7914SOL     OW35203   0.889   2.168  16.481 -0.0525 -0.2888  0.0504
 7914SOL    HW135204   0.809   2.220  16.469  0.2832  0.1631 -0.2403
 7914SOL    HW235205   0.887   2.165  16.576 -2.0313  0.1412  0.0193
 7915SOL     OW35206   4.391   0.921  13.341  0.3080 -0.3355 -0.1216
 7915SOL    HW135207   4.393   0.996  13.281  1.9386 -0.8051 -0.6615
 7915SOL    HW235208   4.301   0.889  13.336 -0.1029  1.2223 -2.9099
 7916SOL     OW35209   2.303   2.664   4.355 -0.6477  0.4360  0.1273
 7916SOL    HW135210   2.208   2.651   4.355 -0.3931 -1.4731  0.0559
 7916SOL    HW235211   2.310   2.725   4.281  1.3814  0.6058  0.4603
 7917SOL     OW35212   0.409   0.925   4.457 -0.2766 -0.0670 -0.2084
 7917SOL    HW135213   0.384   0.966   4.374  2.0588  0.7119 -0.5255
 7917SOL    HW235214   0.492   0.882   4.439 -0.3402  1.0879 -3.2995
 7918SOL     OW35215   1.451   2.182  11.027  0.9569 -0.4102  0.4978
 7918SOL    HW135216   1.415   2.121  11.091  1.9457 -0.1661  1.2950
 7918SOL    HW235217   1.533   2.212  11.067  0.5828  0.5129  0.5667
 7919SOL     OW35218   0.561   1.044   5.466  0.2574 -0.5425  0.1842
 7919SOL    HW135219   0.503   1.009   5.534  0.4686 -1.1049  0.0759
 7919SOL    HW235220   0.634   0.981   5.466 -0.4520 -1.3963  3.8620
 7920SOL     OW35221   3.164   3.989   7.173 -0.6768  0.1263  0.1731
 7920SOL    HW135222   3.130   4.001   7.262  1.5883 -0.6820  1.1464
 7920SOL    HW235223   3.092   4.010   7.114 -1.0077  0.3388  0.6473
 7921SOL     OW35224   1.635   0.859   5.685  0.7976  0.1035  0.1333
 7921SOL    HW135225   1.577   0.918   5.733  0.6133 -0.2029  0.2869
 7921SOL    HW235226   1.656   0.910   5.607  0.4687  0.0660  0.0221
 7922SOL     OW35227   1.195   3.807   6.700  0.5844 -0.1422  0.1300
 7922SOL    HW135228   1.268   3.813   6.763  0.5721 -1.0303  0.2266
 7922SOL    HW235229   1.142   3.752   6.758 -2.8465 -0.3983 -3.2953
 7923SOL     OW35230   3.628   2.385  13.918  0.0092 -0.2959  0.4593
 7923SOL    HW135231   3.566   2.451  13.888 -0.6607  0.0485  2.6199
 7923SOL    HW235232   3.640   2.334  13.838 -2.9922  0.5905 -0.5270
 7924SOL     OW35233   2.663   1.973   6.196  0.3081 -0.2471  0.3705
 7924SOL    HW135234   2.744   1.993   6.243 -0.4770  1.9161  0.7857
 7924SOL    HW235235   2.629   1.908   6.258 -0.2028  1.0793  1.4652
 7925SOL     OW35236   2.464   0.338   4.055  0.5204 -0.1506  0.5084
 7925SOL    HW135237   2.382   0.308   4.094 -0.5285 -0.2447 -1.7995
 7925SOL    HW235238   2.519   0.350   4.132  0.3339 -2.8634  1.0624
 7926SOL     OW35239   3.761   4.041   7.198  0.2226 -0.2387 -0.0066
 7926SOL    HW135240   3.728   3.961   7.157  0.2094 -0.3646  0.2517
 7926SOL    HW235241   3.695   4.062   7.264 -1.3380 -2.6077 -0.8246
 7927SOL     OW35242   2.025   0.558   5.507  0.0061 -0.3359  0.3182
 7927SOL    HW135243   1.962   0.619   5.469  0.6097  0.1899  0.1715
 7927SOL    HW235244   2.087   0.541   5.436  1.3004 -1.6806  1.7631
 7928SOL     OW35245   4.693   0.529   1.986 -1.0346  0.6349 -0.6238
 7928SOL    HW135246   4.623   0.581   1.948 -1.7438  0.1659  0.0547
 7928SOL    HW235247   4.655   0.518   2.073  1.2188 -0.9312  0.1746
 7929SOL     OW35248   1.233   3.300  12.016  0.4013  0.0987 -0.3881
 7929SOL    HW135249   1.257   3.331  11.929  0.5491 -2.1898 -1.1684
 7929SOL    HW235250   1.288   3.223  12.032  0.8697  0.6541  0.6933
 7930SOL     OW35251   3.290   1.156  11.038  0.0073 -0.4646  0.2100
 7930SOL    HW135252   3.311   1.226  10.976  0.9191 -1.2422 -0.3562
 7930SOL    HW235253   3.303   1.199  11.123 -1.6756 -0.3720  0.4151
 7931SOL     OW35254   2.775   3.855  12.433  0.7964 -0.7111 -0.5899
 7931SOL    HW135255   2.747   3.815  12.350  2.1708 -0.6696 -1.0731
 7931SOL    HW235256   2.714   3.926  12.453 -2.1433 -3.4035 -0.0898
 7932SOL     OW35257   4.075   3.914   4.515  0.0451 -0.3493 -0.3746
 7932SOL    HW135258   4.145   3.906   4.449  0.8034  3.4285 -0.0330
 7932SOL    HW235259   4.112   3.860   4.585 -0.0833  0.0463 -0.0019
 7933SOL     OW35260   0.448   0.333   2.364  0.0871  0.1394 -0.4233
 7933SOL    HW135261   0.468   0.343   2.271  3.1005  0.4410  0.2567
 7933SOL    HW235262   0.423   0.241   2.358 -0.9429  0.4311 -0.6541
 7934SOL     OW35263   4.261   0.017   1.793  0.1944  0.5845  0.2227
 7934SOL    HW135264   4.344   0.066   1.800  0.2554  0.8792 -2.6745
 7934SOL    HW235265   4.196   0.085   1.774  1.3657  1.7377  0.2583
 7935SOL     OW35266   2.501   2.239   8.884  0.4034  1.0239 -0.4693
 7935SOL    HW135267   2.499   2.242   8.980 -1.1647  0.9350 -0.4965
 7935SOL    HW235268   2.554   2.316   8.862 -0.5210  1.7244 -0.2388
 7936SOL     OW35269   0.835   2.666   6.735 -0.3001 -0.5309 -0.1604
 7936SOL    HW135270   0.842   2.746   6.787 -0.3835  0.2679 -1.3632
 7936SOL    HW235271   0.784   2.610   6.793 -1.1649  0.5339  0.1039
 7937SOL     OW35272   0.223   3.685   4.006  0.6926 -0.0849 -0.5208
 7937SOL    HW135273   0.164   3.631   4.058  0.6211  0.2040 -0.3028
 7937SOL    HW235274   0.162   3.725   3.943 -0.6111 -3.4316 -1.3819
 7938SOL     OW35275   2.041   0.337  15.592 -0.3018 -0.0205 -0.0856
 7938SOL    HW135276   1.981   0.282  15.643 -0.1862  0.1621  0.2501
 7938SOL    HW235277   2.119   0.330  15.647  0.1408 -1.7457 -0.9100
 7939SOL     OW35278   1.407   0.300   6.861  0.2367  0.7043 -0.4026
 7939SOL    HW135279   1.367   0.214   6.867  2.7935 -0.5251 -0.9351
 7939SOL    HW235280   1.497   0.289   6.891 -0.1567 -1.2148  0.0260
 7940SOL     OW35281   0.179   2.106   5.144  0.1822 -0.5533  0.2270
 7940SOL    HW135282   0.182   2.053   5.064  0.4386  0.9913 -0.7960
 7940SOL    HW235283   0.084   2.114   5.153  0.3332 -0.1227  1.4561
 7941SOL     OW35284   0.643   2.621   4.072  0.0249  0.2290  0.3158
 7941SOL    HW135285   0.624   2.714   4.082 -0.2736  0.1282  0.6646
 7941SOL    HW235286   0.730   2.619   4.111  0.4271 -0.9020 -0.6290
 7942SOL     OW35287   4.576   0.533  16.346 -0.2943 -0.0980  0.8234
 7942SOL    HW135288   4.536   0.489  16.421 -0.4534  1.7508  1.8288
 7942SOL    HW235289   4.515   0.508  16.276 -3.6634  0.5785  3.5500
 7943SOL     OW35290   4.082   2.721   8.259 -0.4164 -0.3780 -0.0729
 7943SOL    HW135291   3.991   2.724   8.287 -0.5575 -3.1398 -0.2480
 7943SOL    HW235292   4.091   2.764   8.174  0.0521 -0.5941 -0.1321
 7944SOL     OW35293   1.132   1.026   8.522 -0.1776 -0.3588 -0.0245
 7944SOL    HW135294   1.167   1.114   8.508  1.1243 -0.7693  0.6395
 7944SOL    HW235295   1.045   1.050   8.555  0.6909  1.4435  0.9752
 7945SOL     OW35296   2.186   4.000   7.804  0.2814  0.3484 -0.1307
 7945SOL    HW135297   2.240   4.012   7.882  2.3604  0.7753 -1.6016
 7945SOL    HW235298   2.103   3.977   7.845 -0.1916  0.3557 -1.0751
 7946SOL     OW35299   0.106   1.678   6.320 -0.0544  0.1358 -0.1313
 7946SOL    HW135300   0.197   1.659   6.345  1.0271  2.7543 -2.0640
 7946SOL    HW235301   0.104   1.629   6.237 -2.3165 -0.9943  0.6077
 7947SOL     OW35302   1.372   2.545   8.344  0.4546 -0.8039 -0.6045
 7947SOL    HW135303   1.312   2.557   8.270 -0.0596 -3.0708 -0.5605
 7947SOL    HW235304   1.301   2.504   8.393  0.7554  0.0379  0.5259
 7948SOL     OW35305   2.132   4.020   7.509 -0.3924  0.0729  0.2514
 7948SOL    HW135306   2.148   3.994   7.600  0.9887 -0.0491 -0.0353
 7948SOL    HW235307   2.107   3.934   7.476 -1.5474 -0.9850  3.9142
 7949SOL     OW35308   4.553   1.592   1.438  0.5493 -0.6750  0.2816
 7949SOL    HW135309   4.604   1.552   1.508  1.3800 -2.6669 -1.4800
 7949SOL    HW235310   4.504   1.518   1.401 -1.8997  1.1669 -0.1707
 7950SOL     OW35311   1.680   0.570  10.758 -0.2203  0.1485 -0.1328
 7950SOL    HW135312   1.747   0.579  10.827 -0.1490  1.1881 -0.3384
 7950SOL    HW235313   1.666   0.664  10.751 -1.4789 -0.0499 -0.2086
 7951SOL     OW35314   3.983   3.108   1.468 -0.4388 -0.1876  0.5908
 7951SOL    HW135315   4.054   3.171   1.453  0.0802 -1.8251 -3.8144
 7951SOL    HW235316   3.909   3.167   1.458 -0.2574  0.2994  2.2824
 7952SOL     OW35317   2.922   2.247   2.706 -0.4215 -0.1567 -1.1314
 7952SOL    HW135318   2.917   2.333   2.664 -0.4722  0.4075  0.0178
 7952SOL    HW235319   2.865   2.197   2.648 -2.2822 -0.7287  1.1809
 7953SOL     OW35320   0.840   1.151  11.149  0.2444  0.0498 -0.2617
 7953SOL    HW135321   0.798   1.221  11.098  0.2803 -0.2396 -0.6836
 7953SOL    HW235322   0.880   1.107  11.074 -0.5169  2.0321 -1.8505
 7954SOL     OW35323   4.567   2.430   3.283  0.6344 -0.4462 -0.0102
 7954SOL    HW135324   4.647   2.409   3.331  0.2578 -0.0495  0.7937
 7954SOL    HW235325   4.606   2.472   3.206 -2.3271 -0.6899 -1.6318
 7955SOL     OW35326   0.439   0.030  15.242 -0.6726 -1.3152 -0.0445
 7955SOL    HW135327   0.391   0.069  15.315 -1.0829 -0.7093 -0.6399
 7955SOL    HW235328   0.480   0.105  15.198  0.2287 -1.0455  1.2410
 7956SOL     OW35329   1.894   2.242   9.804 -0.5786  0.0108  0.3823
 7956SOL    HW135330   1.885   2.326   9.850 -1.5413  0.1943 -0.1364
 7956SOL    HW235331   1.803   2.214   9.817 -0.2380 -1.8287 -1.2035
 7957SOL     OW35332   0.083   1.072   3.668  0.3241 -0.3489  0.5269
 7957SOL    HW135333   0.092   1.005   3.736 -0.6112 -1.0410 -0.0198
 7957SOL    HW235334   0.034   1.137   3.718 -1.7001 -0.9250 -0.6861
 7958SOL     OW35335   0.826   4.616   3.450  0.9682  0.2870 -0.0890
 7958SOL    HW135336   0.749   4.579   3.493  1.4842 -2.0190 -1.1670
 7958SOL    HW235337   0.809   4.710   3.452  1.5014  0.4748 -3.4167
 7959SOL     OW35338   3.876   4.280   7.572  0.2401 -0.4530 -0.7570
 7959SOL    HW135339   3.909   4.369   7.562 -1.5791  0.2124 -0.8093
 7959SOL    HW235340   3.796   4.296   7.623 -1.5798 -0.1050 -3.7623
 7960SOL     OW35341   4.234   4.233   1.280 -0.3658  0.5513  0.6570
 7960SOL    HW135342   4.145   4.242   1.246  0.7307  3.5375 -1.4233
 7960SOL    HW235343   4.270   4.320   1.264 -0.2648  0.2060 -1.0276
 7961SOL     OW35344   2.098   2.086   2.887 -0.9673 -0.0925 -0.3989
 7961SOL    HW135345   2.041   2.154   2.925  0.9146 -0.1117  2.4136
 7961SOL    HW235346   2.042   2.032   2.832 -0.5798  1.3325 -2.1874
 7962SOL     OW35347   3.607   2.072   0.366  0.4510 -0.0225 -0.4652
 7962SOL    HW135348   3.687   2.118   0.342  1.4188 -0.8003  1.2607
 7962SOL    HW235349   3.624   2.050   0.458  3.0915 -0.4816 -1.0636
 7963SOL     OW35350   2.201   2.010   3.959  0.4706 -0.2111  0.2378
 7963SOL    HW135351   2.164   1.960   4.031  0.7813  1.3588  1.4909
 7963SOL    HW235352   2.121   2.034   3.912  0.9432 -0.3408 -0.6343
 7964SOL     OW35353   4.106   3.154   5.864 -0.2265  0.3423  0.0090
 7964SOL    HW135354   4.018   3.168   5.828 -0.3436  0.0572  0.1750
 7964SOL    HW235355   4.078   3.096   5.935 -0.2349 -0.1330 -0.3835
 7965SOL     OW35356   1.382   2.943  15.658  0.0778  0.4251 -0.0180
 7965SOL    HW135357   1.416   2.981  15.577  2.3058  0.1071  0.7450
 7965SOL    HW235358   1.400   2.849  15.658  3.1493  1.0082  1.1509
 7966SOL     OW35359   2.714   2.913   6.097 -0.1373  0.0200 -0.7809
 7966SOL    HW135360   2.645   2.858   6.132  0.2822 -1.1114 -1.7490
 7966SOL    HW235361   2.749   2.961   6.173 -2.1871  0.3608 -0.0386
 7967SOL     OW35362   0.368   3.901   4.002 -0.3321 -0.6474 -0.6335
 7967SOL    HW135363   0.311   3.943   3.938  0.1796 -0.7374 -1.1476
 7967SOL    HW235364   0.305   3.832   4.024 -1.5289  0.8718  0.7526
 7968SOL     OW35365   3.096   3.614   2.392 -0.2276 -0.0397 -0.1039
 7968SOL    HW135366   3.119   3.588   2.481  1.2745  2.6500  0.2725
 7968SOL    HW235367   3.108   3.709   2.392  0.0828 -0.0770 -1.2258
 7969SOL     OW35368   1.344   3.518  17.657  0.2443 -0.1416 -0.1913
 7969SOL    HW135369   1.374   3.429  17.673  0.7424  0.4916  2.4166
 7969SOL    HW235370   1.304   3.542   0.044  1.5831 -0.9169  0.6571
 7970SOL     OW35371   1.865   2.428   7.603 -0.2401  0.6850  0.0888
 7970SOL    HW135372   1.836   2.413   7.513  0.0249  0.0395  0.1111
 7970SOL    HW235373   1.919   2.506   7.594  1.1892 -0.1416  1.5341
 7971SOL     OW35374   1.427   2.445   6.899  0.0290 -0.2931  0.4963
 7971SOL    HW135375   1.361   2.445   6.830  0.0319 -0.8914  0.4912
 7971SOL    HW235376   1.404   2.356   6.926  4.6095 -0.7147  2.9585
 7972SOL     OW35377   0.553   0.759   7.681  0.4149  0.3896  0.2398
 7972SOL    HW135378   0.532   0.728   7.769  1.3442 -1.7466 -0.2855
 7972SOL    HW235379   0.505   0.697   7.627  0.5433 -0.1377  0.7293
 7973SOL     OW35380   0.053   0.802   8.153  0.8950 -0.5018  0.5604
 7973SOL    HW135381   4.708   0.744   8.119  2.1250 -2.1663  0.9179
 7973SOL    HW235382   0.117   0.731   8.156 -0.5398 -1.7678  0.9550
 7974SOL     OW35383   0.209   3.237   0.280  0.0572  0.7298 -0.2798
 7974SOL    HW135384   0.197   3.329   0.255 -0.4187  0.3238 -1.5237
 7974SOL    HW235385   0.262   3.250   0.359 -1.4449  0.1804  0.8247
 7975SOL     OW35386   0.459   2.122   4.726  0.1086  0.3742 -0.4690
 7975SOL    HW135387   0.396   2.050   4.724 -1.3306  1.6827 -2.4070
 7975SOL    HW235388   0.415   2.175   4.659 -0.5579  1.2786  0.6764
 7976SOL     OW35389   1.371   0.083   3.467 -0.2930  0.0969 -0.5651
 7976SOL    HW135390   1.460   0.066   3.499  0.2603  0.0049 -2.1555
 7976SOL    HW235391   1.392   0.088   3.373 -0.2353 -1.8272 -0.6466
 7977SOL     OW35392   3.021   0.542   5.187  0.3000 -0.2603 -0.2180
 7977SOL    HW135393   3.018   0.455   5.147 -1.1090  0.7966 -2.4244
 7977SOL    HW235394   2.997   0.593   5.110  0.4527  1.4180  0.8324
 7978SOL     OW35395   1.809   4.051   7.677 -0.4716  0.8125 -0.1580
 7978SOL    HW135396   1.817   4.032   7.770 -1.2917  1.4474  0.0317
 7978SOL    HW235397   1.873   3.989   7.640 -1.8138  0.0867 -1.2663
 7979SOL     OW35398   4.106   2.930  15.121  0.0104  0.2695 -0.0415
 7979SOL    HW135399   4.148   2.916  15.206 -1.9440 -0.8001  0.7744
 7979SOL    HW235400   4.054   3.006  15.147  0.3455  0.6337 -0.4498
 7980SOL     OW35401   4.362   1.106   2.963 -0.2595 -1.1796  0.1891
 7980SOL    HW135402   4.454   1.121   2.985 -0.0952 -0.4425 -0.9875
 7980SOL    HW235403   4.348   1.053   3.041  2.1608 -0.0520  1.3985
 7981SOL     OW35404   2.394   1.946   1.431  0.2389 -0.3838 -0.3449
 7981SOL    HW135405   2.341   1.903   1.498  2.1269 -0.8306  0.8782
 7981SOL    HW235406   2.348   2.024   1.402 -0.2373 -0.8073 -0.7421
 7982SOL     OW35407   4.262   1.418  15.741  0.0457 -0.1714 -0.1247
 7982SOL    HW135408   4.275   1.513  15.743  1.1962 -0.3251  0.0654
 7982SOL    HW235409   4.177   1.416  15.784  1.3185 -0.2731  2.3937
 7983SOL     OW35410   4.454   3.450   4.003  0.1177  0.3118  0.2070
 7983SOL    HW135411   4.426   3.451   4.094 -0.1300 -0.3048  0.1367
 7983SOL    HW235412   4.502   3.533   4.000  1.2162 -0.2688  1.9091
 7984SOL     OW35413   2.303   2.465   4.548 -0.2352  0.1233 -0.7552
 7984SOL    HW135414   2.287   2.529   4.478  0.8183  4.2651  2.8251
 7984SOL    HW235415   2.367   2.521   4.592 -0.6115 -1.0265  1.2406
 7985SOL     OW35416   2.125   2.861   6.282  0.0369  0.4808 -0.6185
 7985SOL    HW135417   2.052   2.853   6.342  0.7089 -0.1581  0.1106
 7985SOL    HW235418   2.157   2.941   6.323 -0.0851  1.2370 -1.9892
 7986SOL     OW35419   0.028   3.240   3.699  0.2087 -0.6393  0.1911
 7986SOL    HW135420   0.091   3.262   3.630  0.1676  2.0395  0.9873
 7986SOL    HW235421   0.017   3.147   3.682 -0.5034 -0.6220  0.5484
 7987SOL     OW35422   1.768   3.500   8.225 -0.5254  0.0980  0.4545
 7987SOL    HW135423   1.721   3.480   8.306 -3.4349  1.5771 -0.8429
 7987SOL    HW235424   1.835   3.432   8.221 -1.3547 -0.7068  0.2227
 7988SOL     OW35425   1.150   2.986  15.789 -0.1935 -0.4575  0.5357
 7988SOL    HW135426   1.172   3.079  15.788  0.9023 -0.7050  1.9178
 7988SOL    HW235427   1.232   2.941  15.768  1.4325  1.9723  1.5597
 7989SOL     OW35428   1.925   4.208   5.401  0.0050 -0.0357  0.0746
 7989SOL    HW135429   1.912   4.284   5.345  0.5735  0.3732  0.4932
 7989SOL    HW235430   2.010   4.230   5.441 -0.3546  0.5399  0.5214
 7990SOL     OW35431   2.910   4.148  13.002 -0.0833  0.1595  0.5607
 7990SOL    HW135432   2.897   4.053  13.001  0.0750  0.1197  1.6119
 7990SOL    HW235433   2.947   4.165  12.915  0.5780  0.3136  0.8688
 7991SOL     OW35434   1.316   2.767   1.113 -0.3015 -0.1870  0.1761
 7991SOL    HW135435   1.369   2.814   1.178 -0.1110 -0.3581  0.1438
 7991SOL    HW235436   1.268   2.709   1.172 -0.7842 -1.6664 -1.7186
 7992SOL     OW35437   4.517   0.171  12.496  0.1168  0.4743  0.7563
 7992SOL    HW135438   4.477   0.087  12.519  3.1166 -0.3805  2.8594
 7992SOL    HW235439   4.565   0.192  12.576  3.1349 -1.1823 -0.6227
 7993SOL     OW35440   1.521   0.975   2.373 -0.6001 -0.1341 -0.5824
 7993SOL    HW135441   1.504   0.897   2.426 -3.6409  0.2904 -0.9225
 7993SOL    HW235442   1.452   0.971   2.306 -1.2514  1.4118 -0.0165
 7994SOL     OW35443   0.317   0.887   1.795  0.2040 -0.6179 -0.2321
 7994SOL    HW135444   0.263   0.934   1.732 -1.3353 -2.4622 -0.2961
 7994SOL    HW235445   0.274   0.801   1.801 -0.5753 -0.0378  2.2815
 7995SOL     OW35446   1.030   1.082   7.742 -0.3644  0.5953 -0.9347
 7995SOL    HW135447   0.976   1.158   7.718 -1.4614 -0.4874 -1.8860
 7995SOL    HW235448   0.960   1.017   7.739  0.4611 -0.2841 -0.8745
 7996SOL     OW35449   3.648   3.111   7.218  0.3459  0.0552  1.0665
 7996SOL    HW135450   3.653   3.079   7.128 -0.1483  1.6041  0.5051
 7996SOL    HW235451   3.630   3.028   7.262 -2.0022  0.8460  1.5960
 7997SOL     OW35452   4.489   2.818   4.158  0.0593 -0.5511 -0.0842
 7997SOL    HW135453   4.571   2.863   4.179  1.6573 -2.8731 -1.3842
 7997SOL    HW235454   4.490   2.807   4.063  0.7911  1.4601 -0.2961
 7998SOL     OW35455   2.614   1.894   9.290 -0.1874  0.1566  0.2834
 7998SOL    HW135456   2.628   1.976   9.338 -1.7303 -0.1012  1.1753
 7998SOL    HW235457   2.622   1.929   9.201  0.7471  0.7883  0.6215
 7999SOL     OW35458   2.961   2.648   3.838  0.8178  0.2660  0.1583
 7999SOL    HW135459   2.970   2.699   3.918 -1.5852  2.0470 -0.7156
 7999SOL    HW235460   2.892   2.700   3.798  0.6472 -1.6251 -2.0278
 8000SOL     OW35461   2.821   0.305   1.430  0.0258  0.2625  0.5420
 8000SOL    HW135462   2.786   0.382   1.475  0.3882  1.7116 -1.6218
 8000SOL    HW235463   2.894   0.298   1.492  0.9953 -1.4535 -0.8053
 8001SOL     OW35464   4.457   3.952   3.578  0.6047 -0.3889 -0.1823
 8001SOL    HW135465   4.423   3.969   3.490 -0.2275  0.6101  0.3409
 8001SOL    HW235466   4.512   3.876   3.556 -3.3167 -3.1249 -0.4794
 8002SOL     OW35467   2.014   0.608   8.882 -0.0492 -0.4079  0.0412
 8002SOL    HW135468   1.961   0.686   8.902 -0.1041 -0.6359  0.7648
 8002SOL    HW235469   2.064   0.626   8.802 -0.1634  0.6639  0.2004
 8003SOL     OW35470   0.766   4.211   6.361 -0.5250 -0.0558  0.0276
 8003SOL    HW135471   0.725   4.168   6.286  1.8643  0.7695 -1.7717
 8003SOL    HW235472   0.853   4.238   6.332 -0.2701 -0.2955  0.5724
 8004SOL     OW35473   4.245   4.078   6.245  0.4053 -0.6687  0.2635
 8004SOL    HW135474   4.278   4.093   6.157  0.7671  0.5153  0.5944
 8004SOL    HW235475   4.279   4.154   6.294  0.7023  0.0963 -1.1276
 8005SOL     OW35476   2.896   2.775  13.755 -0.6420  0.3526 -0.1626
 8005SOL    HW135477   2.972   2.822  13.719 -1.0210 -0.4996 -2.1021
 8005SOL    HW235478   2.874   2.832  13.829  1.3473 -1.4425  1.7982
 8006SOL     OW35479   1.015   2.948   1.140 -0.2536  0.2731  0.1524
 8006SOL    HW135480   0.925   2.939   1.108 -0.6999 -0.8727  1.6812
 8006SOL    HW235481   1.069   2.937   1.063  1.8837  0.1949  1.6723
 8007SOL     OW35482   4.541   1.561   7.095  0.4517 -0.0919 -0.3203
 8007SOL    HW135483   4.566   1.542   7.005 -0.5855  0.4821 -0.7329
 8007SOL    HW235484   4.576   1.648   7.116  1.6358 -0.3542 -1.2562
 8008SOL     OW35485   0.379   2.321   8.605 -0.2537  0.2698  0.6529
 8008SOL    HW135486   0.355   2.252   8.668  1.5330  0.7795  1.9004
 8008SOL    HW235487   0.301   2.376   8.608 -1.3264 -1.1689 -0.8324
 8009SOL     OW35488   3.397   4.229   6.758  0.0952 -0.0997  0.2955
 8009SOL    HW135489   3.393   4.324   6.761 -0.5299 -0.1393  0.6338
 8009SOL    HW235490   3.459   4.202   6.826  2.3740  0.7794 -1.4278
 8010SOL     OW35491   1.838   1.766  12.849  0.7196 -0.0969 -0.1039
 8010SOL    HW135492   1.873   1.682  12.819  0.9661  0.1119 -0.4033
 8010SOL    HW235493   1.776   1.741  12.917  0.8953  2.8330  1.1277
 8011SOL     OW35494   1.743   1.604   6.730 -0.2700 -0.2209 -0.1840
 8011SOL    HW135495   1.662   1.576   6.688 -0.8407  0.5762  0.3763
 8011SOL    HW235496   1.765   1.534   6.792  0.6950 -2.4374 -3.0292
 8012SOL     OW35497   0.668   3.290   8.514  0.5962 -0.0559 -0.3688
 8012SOL    HW135498   0.626   3.376   8.522 -1.3537 -0.9335 -1.0073
 8012SOL    HW235499   0.731   3.312   8.445  1.2217 -0.6663  0.0099
 8013SOL     OW35500   3.552   1.345   5.966 -0.3026 -0.2569 -0.5364
 8013SOL    HW135501   3.573   1.259   6.003 -1.1569  0.7721  2.2900
 8013SOL    HW235502   3.490   1.320   5.897 -0.5072  0.6462 -0.6749
 8014SOL     OW35503   1.412   4.224   1.409  0.3085  0.8415  0.1052
 8014SOL    HW135504   1.484   4.237   1.469  1.3533  1.1758 -1.2199
 8014SOL    HW235505   1.339   4.246   1.467  0.9019 -3.1633  2.2970
 8015SOL     OW35506   3.978   0.653   5.238  0.4492  0.6511 -0.4994
 8015SOL    HW135507   3.949   0.672   5.327  2.7011  3.1735 -0.2704
 8015SOL    HW235508   4.072   0.643   5.255  0.1159 -2.5716 -0.5633
 8016SOL     OW35509   0.224   2.314  11.414 -0.7447  0.1222 -0.2422
 8016SOL    HW135510   0.278   2.340  11.488 -1.3635  1.0628 -0.1255
 8016SOL    HW235511   0.275   2.234  11.399  2.0777  1.9578 -0.4754
 8017SOL     OW35512   0.439   3.320   5.935 -0.3572 -0.2808  0.3956
 8017SOL    HW135513   0.410   3.229   5.941  3.4753 -1.5629 -0.8314
 8017SOL    HW235514   0.385   3.351   5.862  1.9840 -0.2431 -1.3181
 8018SOL     OW35515   1.966   4.228  13.386  0.6140 -0.6730  0.0612
 8018SOL    HW135516   2.037   4.286  13.358  0.3266 -0.1033  0.5156
 8018SOL    HW235517   1.943   4.206  13.295  1.1589  0.4028 -0.3311
 8019SOL     OW35518   1.271   2.120   6.620 -0.2792 -0.3617 -1.0495
 8019SOL    HW135519   1.287   2.213   6.608  1.9032 -0.8115 -1.6328
 8019SOL    HW235520   1.176   2.123   6.632 -0.0059  0.4837  0.8729
 8020SOL     OW35521   3.412   0.230   9.630 -0.0208  0.2461  0.6727
 8020SOL    HW135522   3.483   0.261   9.686  2.5094 -1.2684 -1.6987
 8020SOL    HW235523   3.340   0.243   9.692 -0.9228 -1.3801 -0.0367
 8021SOL     OW35524   1.656   0.283   6.534 -0.0171  0.0031  0.5917
 8021SOL    HW135525   1.691   0.286   6.623  1.6162 -1.2115 -0.0014
 8021SOL    HW235526   1.691   0.198   6.509  0.1025 -1.0054  4.1824
 8022SOL     OW35527   2.868   0.589   9.588 -0.0941  0.0242 -0.2949
 8022SOL    HW135528   2.855   0.517   9.527  1.5438 -0.1647 -0.4119
 8022SOL    HW235529   2.781   0.627   9.603 -1.5180 -3.2475 -0.4260
 8023SOL     OW35530   4.625   4.593   2.729 -0.4653 -0.0739  0.0276
 8023SOL    HW135531   4.606   4.631   2.643 -0.2721  2.1566  0.9761
 8023SOL    HW235532   4.674   4.516   2.698  0.4627  0.2294  0.7525
 8024SOL     OW35533   1.887   4.473  11.561 -0.0676  0.1150  0.6185
 8024SOL    HW135534   1.826   4.537  11.523 -1.1060 -0.6123  1.0592
 8024SOL    HW235535   1.854   4.468  11.651 -2.9435 -1.6306 -0.5612
 8025SOL     OW35536   2.741   0.814  10.870 -0.0768 -0.1040  0.3091
 8025SOL    HW135537   2.826   0.803  10.913  0.3946  1.2058 -0.2884
 8025SOL    HW235538   2.711   0.724  10.881  0.8045 -0.5246 -0.7071
 8026SOL     OW35539   3.638   0.384   1.893 -0.3232  0.0662 -0.4080
 8026SOL    HW135540   3.596   0.319   1.949  0.5130  3.9301  4.6987
 8026SOL    HW235541   3.558   0.429   1.865  0.7193  1.7285 -0.7060
 8027SOL     OW35542   1.129   1.889  15.979 -0.1115  0.3831  0.3235
 8027SOL    HW135543   1.210   1.938  15.967  0.4468 -0.4274  0.7810
 8027SOL    HW235544   1.063   1.957  15.971 -1.3592 -0.7597  0.8930
 8028SOL     OW35545   3.318   1.035   6.623 -0.3278  0.1571  0.6164
 8028SOL    HW135546   3.357   1.083   6.696 -2.1045 -0.2712  1.8360
 8028SOL    HW235547   3.349   1.094   6.554 -1.0793  1.2928  1.2512
 8029SOL     OW35548   3.641   3.874  16.211 -0.1379  0.1966 -0.0097
 8029SOL    HW135549   3.573   3.934  16.241 -0.3018  0.6925 -1.4073
 8029SOL    HW235550   3.684   3.927  16.145  0.4495 -0.4040 -0.1131
 8030SOL     OW35551   1.888   3.710   2.585 -0.4164  0.3579 -0.7206
 8030SOL    HW135552   1.838   3.695   2.665  0.6802 -2.4954 -0.5736
 8030SOL    HW235553   1.825   3.758   2.531 -0.6303  1.1136  0.2010
 8031SOL     OW35554   0.322   1.354   5.252  0.4896  0.2418  0.1451
 8031SOL    HW135555   0.261   1.374   5.182 -0.5416  1.0066  1.2625
 8031SOL    HW235556   0.404   1.379   5.209 -0.0591  1.4391 -0.1991
 8032SOL     OW35557   3.923   3.364   7.948  0.1701  0.0067  0.3654
 8032SOL    HW135558   3.956   3.434   8.004  1.5417 -1.4909  1.4310
 8032SOL    HW235559   3.999   3.348   7.892  0.3021  0.4327  0.4252
 8033SOL     OW35560   0.791   3.483   6.414  0.1733 -0.2927  0.4443
 8033SOL    HW135561   0.861   3.546   6.401 -0.2165 -0.4425 -2.5245
 8033SOL    HW235562   0.718   3.533   6.377  2.6162  1.6396 -1.6912
 8034SOL     OW35563   3.305   3.582   5.155 -0.4172 -0.0293  0.4049
 8034SOL    HW135564   3.222   3.625   5.139 -0.2165  0.5550  0.9555
 8034SOL    HW235565   3.328   3.616   5.242 -2.2614  0.2614  0.7804
 8035SOL     OW35566   4.103   0.901   3.236 -0.7153  0.2580 -0.3238
 8035SOL    HW135567   4.082   0.911   3.143  0.0438  0.3167 -0.4936
 8035SOL    HW235568   4.196   0.882   3.220 -0.4883  0.1654  1.1405
 8036SOL     OW35569   3.749   0.496   8.797  0.6568 -0.5313  0.2090
 8036SOL    HW135570   3.821   0.558   8.809  0.4362  0.4827 -3.7558
 8036SOL    HW235571   3.671   0.534   8.836  1.1425  0.0371  0.6255
 8037SOL     OW35572   3.748   2.981  17.463 -0.1834  0.1061 -0.5673
 8037SOL    HW135573   3.733   2.920  17.536  0.1332  1.1507  0.3734
 8037SOL    HW235574   3.832   2.961  17.422  0.5412  1.3078  0.3183
 8038SOL     OW35575   3.714   2.893   1.776 -0.4566 -0.2143 -0.1085
 8038SOL    HW135576   3.720   2.921   1.685 -1.5567  0.9040  0.1630
 8038SOL    HW235577   3.633   2.938   1.801 -1.4207 -2.6199  1.0844
 8039SOL     OW35578   2.999   4.128   4.713  0.2515 -0.2101 -0.4574
 8039SOL    HW135579   3.058   4.182   4.661  1.0976  0.8629  1.6247
 8039SOL    HW235580   2.918   4.173   4.688  1.0823  0.7178 -1.5099
 8040SOL     OW35581   0.992   0.531  13.564  0.7249  0.1659 -1.0017
 8040SOL    HW135582   1.082   0.533  13.531  0.1084 -1.5168 -2.7883
 8040SOL    HW235583   0.994   0.581  13.646 -2.9344  0.4843 -1.1149
 8041SOL     OW35584   1.430   2.465   5.707  0.1194 -0.7944  0.0958
 8041SOL    HW135585   1.411   2.382   5.750  0.3145 -1.5557 -1.3027
 8041SOL    HW235586   1.416   2.523   5.782 -0.7986  0.0201 -0.6892
 8042SOL     OW35587   0.144   2.688  16.613  0.0636  0.3036 -0.0859
 8042SOL    HW135588   0.219   2.747  16.625 -0.6218  1.5657 -1.8798
 8042SOL    HW235589   0.076   2.753  16.595  1.3099  2.0531  1.4242
 8043SOL     OW35590   0.937   2.958   3.500  0.2229 -0.0094  0.2109
 8043SOL    HW135591   0.934   3.012   3.421  0.8347 -1.6871 -0.9698
 8043SOL    HW235592   0.979   3.019   3.560 -2.0196  2.5620 -0.8709
 8044SOL     OW35593   4.692   2.528   2.224 -0.2594  0.5017  0.2706
 8044SOL    HW135594   0.044   2.508   2.280  1.2470 -1.2065 -2.3545
 8044SOL    HW235595   4.717   2.472   2.151  0.4458 -1.3813  1.9270
 8045SOL     OW35596   2.753   3.657   2.554  0.4553  0.0476  0.5141
 8045SOL    HW135597   2.785   3.598   2.485 -0.8238 -0.5711  0.4394
 8045SOL    HW235598   2.775   3.737   2.507  1.9985 -0.5857  0.1366
 8046SOL     OW35599   0.623   1.516  17.685 -0.2726 -0.3039 -0.5353
 8046SOL    HW135600   0.712   1.485   0.005 -0.3903  1.7890  3.9355
 8046SOL    HW235601   0.584   1.453   0.049  1.4386 -0.3494  0.5191
 8047SOL     OW35602   4.047   2.339   7.670 -0.1773 -0.2027  0.3209
 8047SOL    HW135603   3.994   2.418   7.676 -2.4059 -1.7808  1.7565
 8047SOL    HW235604   4.014   2.287   7.744 -1.7255 -3.2850 -2.5313
 8048SOL     OW35605   3.298   3.216   6.745 -0.5405 -0.3602 -0.1857
 8048SOL    HW135606   3.296   3.270   6.824 -1.1246  1.0505 -1.1651
 8048SOL    HW235607   3.251   3.138   6.773 -2.6444  1.2101  0.6364
 8049SOL     OW35608   0.547   0.877   4.817  0.3558  0.4456  0.6177
 8049SOL    HW135609   0.494   0.871   4.896  0.4988 -1.8856  0.5584
 8049SOL    HW235610   0.532   0.966   4.787  0.1805 -0.4779 -2.0293
 8050SOL     OW35611   0.846   0.141  17.319  0.0574 -0.1803 -0.0888
 8050SOL    HW135612   0.806   0.061  17.353  1.8640 -1.8036 -1.8166
 8050SOL    HW235613   0.927   0.149  17.368 -0.1038 -0.3775  0.2127
 8051SOL     OW35614   0.047   0.438   0.391 -0.0764  0.1621  0.0036
 8051SOL    HW135615   0.107   0.467   0.322  0.6904  0.6366  0.8676
 8051SOL    HW235616   4.688   0.476   0.361  0.7881  1.3427 -0.9248
 8052SOL     OW35617   3.687   1.333  11.819  0.2039  0.6715 -0.2456
 8052SOL    HW135618   3.610   1.289  11.854  0.9700 -0.8495 -0.4777
 8052SOL    HW235619   3.690   1.288  11.735  2.7457  1.8977 -0.8163
 8053SOL     OW35620   4.168   3.839   5.973 -0.3278  1.0187 -0.4092
 8053SOL    HW135621   4.134   3.883   6.051 -0.8783  0.7088 -0.4792
 8053SOL    HW235622   4.198   3.756   6.009 -2.7256  1.4602  2.6114
 8054SOL     OW35623   4.200   1.137  10.932  0.1872  0.0947 -0.0655
 8054SOL    HW135624   4.142   1.099  10.865 -1.9610 -0.1377  1.9123
 8054SOL    HW235625   4.210   1.228  10.904 -1.8027  0.8172  1.5561
 8055SOL     OW35626   0.886   0.864   6.980  0.3145  0.2997 -0.2075
 8055SOL    HW135627   0.963   0.815   6.953  0.6410  1.2060 -0.9089
 8055SOL    HW235628   0.812   0.820   6.937  0.3360  1.9220 -1.9197
 8056SOL     OW35629   2.088   1.402  17.002 -0.0510 -0.8225 -0.0921
 8056SOL    HW135630   2.029   1.428  17.073 -1.5752  2.2135 -2.4691
 8056SOL    HW235631   2.135   1.486  16.992 -2.3711  0.3457 -1.0363
 8057SOL     OW35632   3.908   3.650   7.189 -0.4557  0.6810  0.1512
 8057SOL    HW135633   3.822   3.683   7.160 -0.5510  0.3459  0.0530
 8057SOL    HW235634   3.884   3.608   7.271 -0.3456 -0.3371 -0.3451
 8058SOL     OW35635   3.764   1.657  14.762  0.5394 -0.4984  0.5914
 8058SOL    HW135636   3.718   1.594  14.707  0.1677  0.8260 -0.6004
 8058SOL    HW235637   3.797   1.723  14.702 -0.1968 -1.8081 -1.2424
 8059SOL     OW35638   0.286   1.360  13.448  0.2000 -0.2075 -0.3397
 8059SOL    HW135639   0.248   1.417  13.381  0.7861 -1.7617 -2.0055
 8059SOL    HW235640   0.217   1.369  13.513  0.1490  1.0781 -0.5890
 8060SOL     OW35641   2.336   1.044   1.870  0.1821 -0.5438 -0.2573
 8060SOL    HW135642   2.329   0.971   1.809 -2.8096 -0.3519 -0.1498
 8060SOL    HW235643   2.384   0.996   1.938  1.2147  1.8465  0.6941
 8061SOL     OW35644   2.405   0.772   2.421 -0.1418 -0.1252  0.0751
 8061SOL    HW135645   2.435   0.794   2.509 -0.9758  1.8141 -0.1317
 8061SOL    HW235646   2.389   0.679   2.438 -1.7406 -0.0135 -0.8812
 8062SOL     OW35647   0.098   0.296   0.767  0.3175  0.2577  0.6182
 8062SOL    HW135648   0.137   0.380   0.743 -2.3417  0.6296 -2.3724
 8062SOL    HW235649   0.062   0.319   0.852  1.3188  1.9780  0.5841
 8063SOL     OW35650   0.924   3.423  12.504 -0.2084 -0.7253  0.1962
 8063SOL    HW135651   0.998   3.396  12.450  0.4052  1.0168  0.1694
 8063SOL    HW235652   0.969   3.478  12.568  0.1515 -1.0205  0.2016
 8064SOL     OW35653   2.650   1.793   2.184 -0.0345  0.1282 -0.3323
 8064SOL    HW135654   2.703   1.807   2.105  1.9314  0.5857  1.0565
 8064SOL    HW235655   2.605   1.877   2.188 -1.5808 -0.6694 -1.3559
 8065SOL     OW35656   0.989   3.723   5.102 -0.1419  0.1632  0.2227
 8065SOL    HW135657   0.912   3.758   5.057 -1.2468 -1.0773  1.1432
 8065SOL    HW235658   0.981   3.636   5.063  2.8699  0.4989 -1.1354
 8066SOL     OW35659   2.872   1.310   2.937  0.0803  0.1460 -0.0367
 8066SOL    HW135660   2.861   1.363   3.016 -0.1382 -0.8160  0.5812
 8066SOL    HW235661   2.872   1.382   2.873  0.6662 -0.6536 -0.9351
 8067SOL     OW35662   3.479   4.196  15.944  0.2609  0.2254 -0.5348
 8067SOL    HW135663   3.574   4.208  15.935  0.2742 -0.0300 -0.7335
 8067SOL    HW235664   3.450   4.178  15.855 -0.1001 -3.2201  0.2865
 8068SOL     OW35665   4.441   2.848   7.409  0.1127  0.1428 -0.4531
 8068SOL    HW135666   4.389   2.914   7.362 -0.0119 -0.5131 -1.2433
 8068SOL    HW235667   4.385   2.771   7.398  0.2235 -0.3142  2.2414
 8069SOL     OW35668   4.671   2.805  15.969  0.5976  0.4792  0.6610
 8069SOL    HW135669   0.005   2.746  15.920  1.0472 -0.8963  2.7981
 8069SOL    HW235670   4.591   2.754  15.979  0.6662 -0.0770 -1.8145
 8070SOL     OW35671   1.129   4.333   8.447  0.5950 -0.0304  0.3334
 8070SOL    HW135672   1.102   4.335   8.539 -2.0609  1.6299 -0.4622
 8070SOL    HW235673   1.060   4.290   8.397  2.9145 -2.9275 -0.3663
 8071SOL     OW35674   1.619   1.331   1.061 -0.1232  0.1795  0.4027
 8071SOL    HW135675   1.669   1.409   1.083 -1.8855  1.5753 -0.4804
 8071SOL    HW235676   1.532   1.371   1.056  0.7250  1.8296 -1.2707
 8072SOL     OW35677   3.397   3.403  17.399 -0.5854  0.4967  0.4693
 8072SOL    HW135678   3.353   3.380  17.317 -1.5901 -0.9553  1.4379
 8072SOL    HW235679   3.472   3.459  17.378 -0.3597  1.2665  3.3913
 8073SOL     OW35680   0.773   0.073   2.581  0.1063 -0.2801  0.1067
 8073SOL    HW135681   0.833   0.083   2.508 -0.7817 -0.8687 -0.6991
 8073SOL    HW235682   0.834   0.095   2.652  2.4586 -3.1622 -1.0283
 8074SOL     OW35683   1.449   0.084  17.375  0.3220 -0.8206 -0.0557
 8074SOL    HW135684   1.466   0.032  17.297  0.4043  1.5994 -1.6581
 8074SOL    HW235685   1.455   0.175  17.345 -1.6916 -1.1843 -1.5230
 8075SOL     OW35686   4.584   3.027   8.696 -0.0810 -0.2821 -0.1046
 8075SOL    HW135687   4.640   3.096   8.731  0.4916  0.3891 -2.3282
 8075SOL    HW235688   4.497   3.064   8.713 -0.1594 -0.8845  0.8205
 8076SOL     OW35689   1.318   1.156  12.611  0.3402 -0.0582 -0.2247
 8076SOL    HW135690   1.309   1.090  12.543  0.2244  1.0879 -1.3261
 8076SOL    HW235691   1.383   1.120  12.672  0.4817 -2.2773 -1.7202
 8077SOL     OW35692   0.935   1.303   8.591  0.0141  0.3560 -0.4959
 8077SOL    HW135693   1.006   1.296   8.528  0.9245 -0.3523  0.5946
 8077SOL    HW235694   0.958   1.387   8.631  0.3776 -0.8214  1.7876
 8078SOL     OW35695   3.086   2.678   7.173  0.0996  0.0652  0.0594
 8078SOL    HW135696   3.104   2.623   7.250 -0.0302 -0.7140 -0.4652
 8078SOL    HW235697   3.043   2.608   7.124 -0.1789 -0.0684  0.4984
 8079SOL     OW35698   2.438   1.349   9.487 -0.2474 -0.1784 -0.0027
 8079SOL    HW135699   2.511   1.289   9.475 -0.2565 -0.4522  1.3756
 8079SOL    HW235700   2.493   1.426   9.499 -0.9776  0.6009 -1.5960
 8080SOL     OW35701   0.381   2.247   7.022  0.2917  0.2606 -0.4273
 8080SOL    HW135702   0.365   2.301   6.944 -0.8055 -0.6003 -0.8082
 8080SOL    HW235703   0.342   2.163   6.997  1.6628 -0.1890 -1.0616
 8081SOL     OW35704   0.598   1.858   7.270 -0.1800 -0.1455  0.6925
 8081SOL    HW135705   0.681   1.903   7.253 -0.4568  0.3136  0.5336
 8081SOL    HW235706   0.565   1.936   7.314 -1.2068 -0.5351  0.6082
 8082SOL     OW35707   1.771   1.805  15.110 -0.5598  0.1341 -0.3938
 8082SOL    HW135708   1.813   1.766  15.034  0.5236  1.0111 -0.2468
 8082SOL    HW235709   1.852   1.825  15.157 -0.5662 -1.7646  0.4123
 8083SOL     OW35710   4.286   2.166  15.973 -0.0321 -0.2580  0.0896
 8083SOL    HW135711   4.271   2.260  15.965 -0.6379 -0.3503  0.1080
 8083SOL    HW235712   4.205   2.147  16.020 -0.1294  1.1131  0.4589
 8084SOL     OW35713   1.045   1.240   3.033 -0.1434  0.2625  0.0199
 8084SOL    HW135714   1.135   1.208   3.037 -0.0338  0.6260  0.5499
 8084SOL    HW235715   1.035   1.284   2.949  2.1350 -1.3473 -1.0812
 8085SOL     OW35716   0.778   4.440  12.241  0.2497 -0.3096  0.0247
 8085SOL    HW135717   0.827   4.404  12.167  0.3359 -1.1842  0.5047
 8085SOL    HW235718   0.751   4.521  12.197 -1.3234 -1.2566 -0.7708
 8086SOL     OW35719   1.745   3.384  17.497 -0.1394  0.0350 -0.1382
 8086SOL    HW135720   1.734   3.470  17.538  0.0232 -1.0157  2.1224
 8086SOL    HW235721   1.788   3.339  17.570 -0.8742 -0.6424 -0.1307
 8087SOL     OW35722   2.606   3.835   8.005 -0.0631  0.3763  0.2166
 8087SOL    HW135723   2.643   3.852   7.918 -0.3917 -2.3936 -0.4591
 8087SOL    HW235724   2.685   3.846   8.059 -0.2842 -0.2902  0.6757
 8088SOL     OW35725   4.112   0.455   0.575  0.4034 -0.4908 -0.4078
 8088SOL    HW135726   4.138   0.457   0.667  0.4849  2.7176 -0.5164
 8088SOL    HW235727   4.134   0.543   0.545 -1.6101 -0.4580 -1.7960
 8089SOL     OW35728   2.507   1.530   3.585 -0.4325 -0.3476  0.1133
 8089SOL    HW135729   2.508   1.551   3.491  0.9724  2.1024  0.6622
 8089SOL    HW235730   2.536   1.613   3.622 -0.2755 -0.2745 -0.1716
 8090SOL     OW35731   1.276   1.167   3.893  0.6359  0.1409 -0.0749
 8090SOL    HW135732   1.362   1.144   3.929  0.7875 -1.3448 -1.3890
 8090SOL    HW235733   1.312   1.209   3.815 -1.3352 -0.9468 -1.5587
 8091SOL     OW35734   3.327   0.194   1.847  0.6649  0.0463  0.8554
 8091SOL    HW135735   3.274   0.257   1.896 -0.5568  0.3210 -0.8000
 8091SOL    HW235736   3.393   0.172   1.912 -0.2701 -0.0069  1.7893
 8092SOL     OW35737   4.627   0.872   0.035  0.0085 -0.8165  0.3657
 8092SOL    HW135738   4.600   0.826  17.652  0.0816  0.9026 -0.6753
 8092SOL    HW235739   4.599   0.962   0.015 -0.7104 -0.7002  1.8640
 8093SOL     OW35740   0.448   3.316  17.640 -0.7842  0.0551 -0.0826
 8093SOL    HW135741   0.421   3.228  17.666  0.3513  0.2974  1.9346
 8093SOL    HW235742   0.367   3.366  17.631 -0.4170  0.7866  0.6962
 8094SOL     OW35743   3.824   3.859   2.684 -0.7227  0.5327 -0.4052
 8094SOL    HW135744   3.821   3.861   2.588  0.3675 -0.8022 -0.4658
 8094SOL    HW235745   3.901   3.807   2.704 -1.2594 -0.2616 -0.3857
 8095SOL     OW35746   0.791   0.891   2.330 -0.1601 -0.2416  0.1877
 8095SOL    HW135747   0.706   0.849   2.317 -0.2977  0.3626 -0.8419
 8095SOL    HW235748   0.783   0.905   2.424  2.0842  3.1531 -0.1108
 8096SOL     OW35749   0.287   0.401   8.708  0.3824 -0.4387 -0.1984
 8096SOL    HW135750   0.206   0.352   8.720 -0.0670  0.5397  0.7395
 8096SOL    HW235751   0.272   0.431   8.618  0.6233  3.3172  0.9925
 8097SOL     OW35752   3.152   1.015   9.290  0.9079  0.0536  0.5488
 8097SOL    HW135753   3.197   1.033   9.207 -1.3091  0.7276 -0.5260
 8097SOL    HW235754   3.092   1.090   9.292 -1.3065 -1.7037  0.0163
 8098SOL     OW35755   0.056   3.650   6.994  0.0046  0.6524  0.1313
 8098SOL    HW135756   0.084   3.661   6.903 -1.3886  0.3051 -0.3359
 8098SOL    HW235757   0.096   3.566   7.014  1.8860  1.5263  0.0749
 8099SOL     OW35758   1.132   3.651   2.712 -0.0746 -0.1191  0.5931
 8099SOL    HW135759   1.051   3.653   2.660  1.0236 -1.2537 -1.1620
 8099SOL    HW235760   1.175   3.730   2.679 -2.0803  0.9171  0.4326
 8100SOL     OW35761   3.710   4.281   9.086 -0.0815 -0.1992 -0.2162
 8100SOL    HW135762   3.773   4.283   9.014 -0.2233  1.1778 -0.3103
 8100SOL    HW235763   3.771   4.258   9.157 -0.1003  1.2160  0.2719
 8101SOL     OW35764   4.325   1.208   3.731 -0.1423 -0.3584  0.6100
 8101SOL    HW135765   4.257   1.152   3.694  1.5080 -0.1096 -2.8212
 8101SOL    HW235766   4.277   1.290   3.737  0.4893 -0.1054  2.1248
 8102SOL     OW35767   1.400   2.026   2.396  0.0176 -0.2663 -0.0779
 8102SOL    HW135768   1.310   1.994   2.402 -0.2530  0.5421  0.0411
 8102SOL    HW235769   1.392   2.082   2.319  0.4737 -3.0442 -2.1941
 8103SOL     OW35770   2.225   0.531  12.090 -0.1259  0.0005 -0.0807
 8103SOL    HW135771   2.162   0.599  12.114 -2.4064 -2.0102 -0.4621
 8103SOL    HW235772   2.205   0.472  12.163 -0.0481  0.9402  0.7118
 8104SOL     OW35773   0.631   3.176   6.189  0.3176 -0.2530  0.0163
 8104SOL    HW135774   0.553   3.138   6.148 -0.5552  2.1865 -0.6419
 8104SOL    HW235775   0.609   3.179   6.282  4.2738  0.8564  0.9069
 8105SOL     OW35776   3.060   0.531   8.637 -0.0585  0.1738  0.6552
 8105SOL    HW135777   3.121   0.551   8.707 -0.8920 -1.3979  1.8230
 8105SOL    HW235778   2.977   0.544   8.682 -0.3063  0.4813  0.1171
 8106SOL     OW35779   0.905   1.508  13.725  0.1748 -0.3372 -0.1967
 8106SOL    HW135780   0.976   1.570  13.709 -0.0117 -0.2173 -0.5579
 8106SOL    HW235781   0.928   1.441  13.661  0.7520  0.4564 -0.8241
 8107SOL     OW35782   3.720   0.220  16.323 -0.0068  0.4606  0.3835
 8107SOL    HW135783   3.628   0.243  16.312  0.5072  2.2872 -0.1134
 8107SOL    HW235784   3.747   0.168  16.247  0.0024  0.8235  0.1395
 8108SOL     OW35785   1.466   3.106   0.955 -0.1262 -0.2603  0.1136
 8108SOL    HW135786   1.554   3.140   0.942 -0.9160  2.2523  1.4140
 8108SOL    HW235787   1.436   3.139   1.040 -3.9235  0.8891 -1.6654
 8109SOL     OW35788   3.912   1.687   5.063  0.2444 -0.0407  0.1257
 8109SOL    HW135789   3.923   1.768   5.014 -1.0174 -0.2672 -0.5383
 8109SOL    HW235790   3.821   1.665   5.041  0.1091  0.9575 -0.2737
 8110SOL     OW35791   0.021   0.327   5.361  0.1228  0.1742 -0.2511
 8110SOL    HW135792   0.043   0.252   5.416  0.3323  1.1083  0.9525
 8110SOL    HW235793   4.686   0.381   5.414 -0.7964  0.2237 -1.3290
 8111SOL     OW35794   1.222   4.384   2.026  0.1180  0.5646  0.7634
 8111SOL    HW135795   1.139   4.352   1.991  1.4388 -1.0953 -0.8424
 8111SOL    HW235796   1.249   4.438   1.952 -1.2708  0.2549  0.0219
 8112SOL     OW35797   2.303   3.794   4.239  0.2880  0.4142  0.2059
 8112SOL    HW135798   2.249   3.859   4.284 -0.2550  0.0230  0.1052
 8112SOL    HW235799   2.244   3.720   4.230  0.7035  0.1222 -0.0865
 8113SOL     OW35800   0.759   4.366   7.803 -0.9149  0.1124 -0.2403
 8113SOL    HW135801   0.829   4.352   7.739  0.5595  1.7189  1.0293
 8113SOL    HW235802   0.699   4.422   7.754  0.2930  0.1320 -1.6754
 8114SOL     OW35803   0.039   2.979   3.903  0.4432 -0.3166 -0.2375
 8114SOL    HW135804   4.700   3.035   3.949 -0.6112  0.9843 -3.2572
 8114SOL    HW235805   0.013   2.984   3.811  1.2186  0.0227 -0.4382
 8115SOL     OW35806   2.333   1.649   4.065  1.1296  0.0607  0.2562
 8115SOL    HW135807   2.334   1.680   3.975 -0.8383  0.8802  0.5123
 8115SOL    HW235808   2.248   1.605   4.060  0.2734  1.8506 -0.8047
 8116SOL     OW35809   3.286   4.125   1.313 -0.4637 -0.3701 -0.1942
 8116SOL    HW135810   3.311   4.207   1.270  0.2111  0.8376  2.4985
 8116SOL    HW235811   3.301   4.152   1.403  1.3626 -2.1668  0.0244
 8117SOL     OW35812   2.108   0.979   2.595  0.2315 -0.0630 -0.1450
 8117SOL    HW135813   2.154   0.936   2.667  0.6669  1.5662  0.5535
 8117SOL    HW235814   2.174   1.040   2.562 -0.5948  1.4557  1.0068
 8118SOL     OW35815   4.677   3.936   7.900 -0.2239 -0.1117 -0.0121
 8118SOL    HW135816   4.706   3.899   7.983  1.0955 -1.4373 -1.0727
 8118SOL    HW235817   4.653   4.025   7.924  1.3333  0.1011  0.7748
 8119SOL     OW35818   3.427   0.545   9.748 -1.2325  0.1492  0.8662
 8119SOL    HW135819   3.345   0.593   9.731 -0.2960  1.4939  0.1196
 8119SOL    HW235820   3.453   0.506   9.665  0.9326  3.1346  0.1200
 8120SOL     OW35821   0.032   1.119   4.264  0.0559 -0.2454  0.3558
 8120SOL    HW135822   0.027   1.150   4.174  1.6967 -2.1063 -0.3776
 8120SOL    HW235823   0.127   1.112   4.266  0.1996  1.8139  1.0204
 8121SOL     OW35824   3.751   2.326   3.630 -0.2262  0.2901 -0.5275
 8121SOL    HW135825   3.789   2.254   3.680 -1.4481 -0.2600 -0.3896
 8121SOL    HW235826   3.712   2.360   3.711 -0.5462 -0.3829 -0.3950
 8122SOL     OW35827   3.048   3.882  12.496  0.4003 -0.0813  0.2047
 8122SOL    HW135828   3.052   3.787  12.481  1.9827  0.1509 -0.8700
 8122SOL    HW235829   2.958   3.912  12.488  0.9660  2.7256  4.1887
 8123SOL     OW35830   4.271   0.115  16.675 -0.1799 -0.2703 -0.1297
 8123SOL    HW135831   4.244   0.035  16.630  0.8564  0.6803 -2.3921
 8123SOL    HW235832   4.310   0.163  16.602 -0.9686 -3.1319 -2.4368
 8124SOL     OW35833   3.920   1.953   4.324 -0.2142  0.5688  0.2931
 8124SOL    HW135834   3.894   2.043   4.343 -0.6339  0.0891  1.9725
 8124SOL    HW235835   4.006   1.963   4.366 -0.8098 -2.4745  2.2934
 8125SOL     OW35836   2.559   3.253   7.215 -0.0921  0.5183  0.1056
 8125SOL    HW135837   2.639   3.305   7.218 -0.7509  1.5149  0.5287
 8125SOL    HW235838   2.551   3.202   7.296  2.1977 -1.5618 -0.9682
 8126SOL     OW35839   3.134   1.528   5.845  0.1519 -0.2563  0.4443
 8126SOL    HW135840   3.150   1.433   5.846 -1.9285 -0.6097  0.1587
 8126SOL    HW235841   3.150   1.545   5.752 -2.9285  0.6852  0.0994
 8127SOL     OW35842   4.693   1.350  14.001 -0.4201  0.3330 -0.2327
 8127SOL    HW135843   4.649   1.323  13.920  0.0043 -0.3248 -0.2418
 8127SOL    HW235844   4.666   1.440  14.019  2.1736  0.8894  0.8720
 8128SOL     OW35845   3.603   1.735   2.599 -0.4957  0.2641  0.6283
 8128SOL    HW135846   3.574   1.644   2.588  0.5299 -0.0659  0.5782
 8128SOL    HW235847   3.556   1.778   2.528  0.9127  0.3979 -0.2208
 8129SOL     OW35848   1.868   1.232  10.088 -0.5057 -0.9895 -0.0710
 8129SOL    HW135849   1.823   1.148  10.082  0.9549 -1.8237  0.7105
 8129SOL    HW235850   1.963   1.221  10.098 -0.6903 -1.8317  0.7523
 8130SOL     OW35851   1.775   0.025  10.206 -0.0715 -0.2719 -0.1165
 8130SOL    HW135852   1.797   4.669  10.156  1.1205 -0.5610  0.8798
 8130SOL    HW235853   1.722   4.716  10.278  2.4802 -1.7244  1.1296
 8131SOL     OW35854   0.095   4.061  11.928 -0.9100  0.4027  0.1369
 8131SOL    HW135855   0.101   4.123  12.000 -2.0618 -0.3005  0.8282
 8131SOL    HW235856   0.098   4.122  11.853 -0.4238 -1.6004 -1.4707
 8132SOL     OW35857   2.231   3.504   5.054  0.2559 -0.2893 -0.1286
 8132SOL    HW135858   2.165   3.468   5.113 -0.1998  0.5726 -0.1093
 8132SOL    HW235859   2.174   3.525   4.980  0.8943 -0.2749 -0.6121
 8133SOL     OW35860   1.621   4.410   7.506  0.2600  0.9629  0.2142
 8133SOL    HW135861   1.614   4.449   7.419 -1.1121  0.6815  0.1909
 8133SOL    HW235862   1.695   4.350   7.497  0.1285  0.9327 -0.6701
 8134SOL     OW35863   1.837   3.478   2.906 -0.2986  0.4827 -0.5611
 8134SOL    HW135864   1.844   3.394   2.861 -1.6443 -1.3064  2.5263
 8134SOL    HW235865   1.853   3.452   2.997  1.6968  1.3995 -0.6498
 8135SOL     OW35866   0.382   0.560  15.313  0.1531 -0.2736 -0.6083
 8135SOL    HW135867   0.406   0.474  15.346 -1.8323  0.7446  3.4893
 8135SOL    HW235868   0.383   0.605  15.398  0.4754 -0.8005 -0.3365
 8136SOL     OW35869   4.030   0.551   5.882  0.1697 -0.1222 -0.4874
 8136SOL    HW135870   4.024   0.641   5.915  0.3428 -0.4565  0.4559
 8136SOL    HW235871   3.948   0.514   5.915  1.4871 -0.5004  2.3552
 8137SOL     OW35872   4.422   3.615   9.351 -0.2441  0.8152  0.6638
 8137SOL    HW135873   4.491   3.574   9.403  0.9859 -1.3506 -2.6606
 8137SOL    HW235874   4.346   3.576   9.392 -0.6207 -0.2594 -1.0624
 8138SOL     OW35875   2.725   2.069   9.762 -0.2026 -0.3189 -0.2789
 8138SOL    HW135876   2.794   2.120   9.804 -0.9120  0.2228  0.2274
 8138SOL    HW235877   2.733   1.994   9.820  0.7587 -1.0008 -1.2857
 8139SOL     OW35878   1.905   2.996  11.267 -0.0668 -0.8032 -0.9202
 8139SOL    HW135879   1.951   2.912  11.262  1.7253  0.1580 -0.5633
 8139SOL    HW235880   1.938   3.017  11.354 -0.1188  1.2873 -1.4073
 8140SOL     OW35881   2.234   1.472   0.448  0.1583 -0.2060 -0.0445
 8140SOL    HW135882   2.243   1.480   0.353  0.6982 -0.6880 -0.0338
 8140SOL    HW235883   2.146   1.505   0.466  0.7242  0.1070  2.1053
 8141SOL     OW35884   4.050   0.295   3.982  0.2224  0.6229  0.2143
 8141SOL    HW135885   3.994   0.246   4.042 -1.4917  3.3180  0.8059
 8141SOL    HW235886   4.031   0.243   3.905 -0.7326  1.5584 -0.1839
 8142SOL     OW35887   3.799   4.627  16.485 -0.1037  0.5505 -0.3889
 8142SOL    HW135888   3.798   4.573  16.564 -0.2702 -0.0904 -0.8277
 8142SOL    HW235889   3.785   4.713  16.525 -1.5504  0.1877 -0.1168
 8143SOL     OW35890   0.777   3.816   2.252 -0.0001  0.2053 -0.5512
 8143SOL    HW135891   0.738   3.738   2.213 -1.5276  0.9206 -0.4478
 8143SOL    HW235892   0.711   3.884   2.239 -0.9958 -0.4387  1.0846
 8144SOL     OW35893   1.715   4.534   3.020 -0.4173  0.0082  0.0751
 8144SOL    HW135894   1.701   4.513   2.928  1.2081  0.1895 -0.2039
 8144SOL    HW235895   1.746   4.446   3.043  0.7886  0.9896  2.2308
 8145SOL     OW35896   2.111   3.980  13.406  0.0183  0.2245 -0.5239
 8145SOL    HW135897   2.062   4.062  13.408 -2.5946 -1.3642  2.4214
 8145SOL    HW235898   2.199   4.011  13.426  0.6602 -0.5246 -2.2170
 8146SOL     OW35899   1.330   0.179   4.528 -0.3239 -0.6976  0.4013
 8146SOL    HW135900   1.372   0.187   4.442  1.2103  0.0743  1.2100
 8146SOL    HW235901   1.244   0.158   4.492 -0.3360 -1.3391  0.8144
 8147SOL     OW35902   1.758   0.294   0.244  0.4050  0.3171 -0.5740
 8147SOL    HW135903   1.809   0.353   0.188  1.9290  1.1073  1.6408
 8147SOL    HW235904   1.701   0.245   0.185  0.8728  0.3432 -1.0492
 8148SOL     OW35905   0.106   1.730   9.977  0.0616  0.1894 -0.5590
 8148SOL    HW135906   0.145   1.801   9.926  2.2456 -0.5191  0.1107
 8148SOL    HW235907   0.052   1.783  10.037  0.1353 -1.7533  1.2375
 8149SOL     OW35908   3.864   3.383   8.720  0.6716  0.3399  0.2976
 8149SOL    HW135909   3.932   3.338   8.670  2.2195 -0.3348  3.0218
 8149SOL    HW235910   3.893   3.370   8.810 -2.2341 -2.5163  0.8384
 8150SOL     OW35911   3.934   1.120  11.403 -0.6892  0.1154  0.1363
 8150SOL    HW135912   3.892   1.151  11.323 -0.9406  0.5919  0.4494
 8150SOL    HW235913   3.877   1.159  11.470  0.2975  1.4295  0.2002
 8151SOL     OW35914   0.871   1.469   5.910  0.5172  0.0672  0.1674
 8151SOL    HW135915   0.855   1.466   6.004  2.9457  1.2729  0.6136
 8151SOL    HW235916   0.784   1.495   5.879 -0.3456 -1.0804  1.6112
 8152SOL     OW35917   3.972   1.803   1.694  0.1512  0.1365 -0.0198
 8152SOL    HW135918   4.021   1.747   1.633  1.0549  0.5591  0.3145
 8152SOL    HW235919   4.015   1.888   1.692  0.2811  0.0451 -1.2841
 8153SOL     OW35920   4.378   4.560   4.597  0.4127  0.2321 -0.3990
 8153SOL    HW135921   4.335   4.549   4.512  0.6437  1.4888 -0.6729
 8153SOL    HW235922   4.305   4.589   4.651  1.4856  0.2115  1.0650
 8154SOL     OW35923   2.492   3.499   6.171  0.2912  0.4412  0.0129
 8154SOL    HW135924   2.570   3.444   6.179  0.5367  0.8182  0.2344
 8154SOL    HW235925   2.512   3.576   6.224 -0.5951 -0.2748  1.3850
 8155SOL     OW35926   2.265   4.215   1.012 -0.2831 -0.5471  0.2057
 8155SOL    HW135927   2.228   4.295   1.048 -1.0328 -0.8518  0.1313
 8155SOL    HW235928   2.188   4.193   0.960  0.2696  0.3101 -0.9535
 8156SOL     OW35929   0.139   0.893   0.763 -0.3349 -0.1939 -0.1566
 8156SOL    HW135930   0.163   0.970   0.711  0.3298  1.4886  2.6835
 8156SOL    HW235931   0.045   0.905   0.774 -0.2392 -0.1707  0.6107
 8157SOL     OW35932   1.599   3.903   5.211 -0.5956 -0.8510 -0.3238
 8157SOL    HW135933   1.578   3.909   5.305 -0.7763 -0.9014 -0.3617
 8157SOL    HW235934   1.621   3.810   5.204 -1.3416 -1.1807  1.7197
 8158SOL     OW35935   1.379   1.955   5.561 -0.1273  0.3720  0.2061
 8158SOL    HW135936   1.470   1.955   5.590 -0.4714 -1.9953  1.2762
 8158SOL    HW235937   1.385   1.950   5.465  0.7029  1.0960  0.2232
 8159SOL     OW35938   1.704   1.194   0.725  0.3773  0.9629  0.0319
 8159SOL    HW135939   1.651   1.202   0.805  1.0396  2.5482  0.3110
 8159SOL    HW235940   1.663   1.113   0.693  1.3995  0.1487  0.7874
 8160SOL     OW35941   2.898   1.996   6.316  0.3335 -0.3783 -0.1836
 8160SOL    HW135942   2.951   2.075   6.307  1.1726 -0.9817 -0.6210
 8160SOL    HW235943   2.912   1.964   6.405  0.1427  3.0248  1.0510
 8161SOL     OW35944   3.202   2.551  10.072  0.1202  0.2423  0.0685
 8161SOL    HW135945   3.296   2.567  10.083  0.4290 -0.2606 -1.8293
 8161SOL    HW235946   3.177   2.642  10.091 -3.4933 -0.7794  0.1758
 8162SOL     OW35947   1.877   4.023  13.100  0.4254  0.7417  0.1501
 8162SOL    HW135948   1.815   4.096  13.094 -0.1720  0.1446 -0.8561
 8162SOL    HW235949   1.834   3.969  13.034 -0.7448 -1.0461  2.3905
 8163SOL     OW35950   3.497   3.358   5.750  0.2751  0.6013  0.5048
 8163SOL    HW135951   3.535   3.345   5.837 -0.7431 -0.7355  0.7472
 8163SOL    HW235952   3.529   3.445   5.728  0.3449  0.9098  1.8194
 8164SOL     OW35953   4.342   4.162  14.017 -0.1263 -0.6294  0.6034
 8164SOL    HW135954   4.316   4.247  14.054 -1.1193 -0.4688 -0.4745
 8164SOL    HW235955   4.309   4.103  14.084  0.2733  1.4840  2.6903
 8165SOL     OW35956   0.380   0.583   7.544  0.2105  0.1780  0.9560
 8165SOL    HW135957   0.334   0.638   7.480  0.4353  1.7664  2.1664
 8165SOL    HW235958   0.307   0.529   7.574 -0.9577  2.2759  1.8899
 8166SOL     OW35959   0.549   4.381   1.840  0.1962 -0.4640  0.1237
 8166SOL    HW135960   0.516   4.412   1.755 -2.0337  0.5658  1.3629
 8166SOL    HW235961   0.605   4.458   1.852  4.5084 -3.9016  2.2744
 8167SOL     OW35962   2.712   1.732  16.658  0.2961 -0.4809  0.0627
 8167SOL    HW135963   2.699   1.822  16.687  0.7002 -0.2069 -0.5951
 8167SOL    HW235964   2.725   1.683  16.739 -2.0635  0.0936  0.7862
 8168SOL     OW35965   3.799   0.478   6.734 -0.0620 -0.0475 -0.3471
 8168SOL    HW135966   3.797   0.469   6.829 -1.5131  0.6513 -0.3069
 8168SOL    HW235967   3.857   0.553   6.723 -0.7261  0.6992  1.2866
 8169SOL     OW35968   0.260   1.775   6.574  0.4530  0.0020  0.3135
 8169SOL    HW135969   0.351   1.752   6.554  0.3849  0.0440 -0.0506
 8169SOL    HW235970   0.272   1.870   6.572 -0.2461  0.0754 -0.3507
 8170SOL     OW35971   2.966   4.049  10.007  0.3645 -0.6436  0.2286
 8170SOL    HW135972   3.008   4.078  10.088 -1.1441 -1.3620  1.2504
 8170SOL    HW235973   2.961   3.955  10.025  2.1224 -0.3136  2.4136
 8171SOL     OW35974   0.667   3.356   6.606  0.6542  0.0279  0.1251
 8171SOL    HW135975   0.731   3.403   6.552  0.4090  0.1210 -0.0811
 8171SOL    HW235976   0.603   3.421   6.632  1.4596  1.4665 -1.5451
 8172SOL     OW35977   2.984   2.779  13.417  0.7107  0.5503 -0.1625
 8172SOL    HW135978   3.050   2.765  13.485  1.8618  0.3519 -1.3316
 8172SOL    HW235979   2.905   2.801  13.467 -1.3526 -2.4025 -2.0783
 8173SOL     OW35980   3.698   3.473  14.479 -0.2748 -0.0392  0.3792
 8173SOL    HW135981   3.665   3.525  14.406  1.6679 -0.2944 -0.6654
 8173SOL    HW235982   3.753   3.411  14.431 -0.7685 -1.2043  1.3211
 8174SOL     OW35983   4.025   1.815   2.958 -0.5819 -0.4571  0.2970
 8174SOL    HW135984   4.073   1.896   2.980  1.2780 -1.7746  1.1828
 8174SOL    HW235985   3.933   1.825   2.980 -0.6769 -1.0771  0.1766
 8175SOL     OW35986   0.833   1.484  11.234  0.0912 -0.2676 -0.0556
 8175SOL    HW135987   0.921   1.512  11.259 -0.8149  0.0486  2.7308
 8175SOL    HW235988   0.847   1.464  11.141 -1.4965  1.5442 -0.6850
 8176SOL     OW35989   4.672   2.216   0.190  0.2174  0.4018  0.1270
 8176SOL    HW135990   4.705   2.259   0.269  1.0633  0.2667 -0.1591
 8176SOL    HW235991   4.591   2.184   0.231 -0.1299 -0.9763 -1.6303
 8177SOL     OW35992   4.505   0.521   1.632  0.0748  0.2797 -0.1064
 8177SOL    HW135993   4.459   0.495   1.552 -0.2832  2.0347 -0.4748
 8177SOL    HW235994   4.517   0.432   1.666 -0.9230  0.5702  0.9909
 8178SOL     OW35995   3.140   3.786  11.079 -0.1064 -0.5492 -0.2018
 8178SOL    HW135996   3.075   3.832  11.132  0.4892  0.8631 -0.6765
 8178SOL    HW235997   3.210   3.851  11.071  0.2358 -0.9133 -0.1404
 8179SOL     OW35998   0.667   3.015   3.322 -0.3912 -0.2748 -0.3054
 8179SOL    HW135999   0.740   3.065   3.359 -0.5285  1.0100 -1.7440
 8179SOL    HW236000   0.727   2.963   3.269  0.3634  0.5637 -0.2797
 8180SOL     OW36001   0.198   3.206   8.213  0.6433 -0.0972 -0.2075
 8180SOL    HW136002   0.122   3.158   8.246  0.4692 -0.4155 -1.0668
 8180SOL    HW236003   0.158   3.292   8.201  0.0510 -0.0341  2.1430
 8181SOL     OW36004   3.325   1.166   8.283  0.0161  0.4985 -0.1827
 8181SOL    HW136005   3.302   1.119   8.363 -0.1552 -0.3609 -0.7294
 8181SOL    HW236006   3.415   1.134   8.274 -0.2731 -0.5503  0.5481
 8182SOL     OW36007   1.184   4.493   8.143  0.0412 -0.0864 -0.2227
 8182SOL    HW136008   1.184   4.398   8.136 -0.1018 -0.3283  3.2717
 8182SOL    HW236009   1.094   4.502   8.112  0.1843 -1.6763 -1.0998
 8183SOL     OW36010   4.481   0.820   4.912 -0.0844  0.1889  0.1069
 8183SOL    HW136011   4.521   0.873   4.844  0.6025  2.5243  2.3369
 8183SOL    HW236012   4.557   0.767   4.933 -0.9379 -1.8093 -1.8955
 8184SOL     OW36013   2.866   3.533  10.707 -0.4716  0.0822 -0.4396
 8184SOL    HW136014   2.906   3.600  10.764  0.6459 -0.7309 -0.2641
 8184SOL    HW236015   2.894   3.459  10.760  3.1489  1.3807 -0.5320
 8185SOL     OW36016   4.642   3.818   7.187  0.2826  0.5421 -0.4502
 8185SOL    HW136017   4.553   3.841   7.159 -0.8825 -0.1941  2.6322
 8185SOL    HW236018   4.691   3.825   7.105  0.3520 -1.6662 -0.6039
 8186SOL     OW36019   4.685   0.849  13.454  0.2449 -0.2212  0.1701
 8186SOL    HW136020   4.698   0.760  13.423 -1.6978 -0.5794  0.4122
 8186SOL    HW236021   0.001   0.897  13.381 -1.7134  0.6968 -0.2762
 8187SOL     OW36022   0.263   0.754  16.039 -0.2611 -0.5120  0.9085
 8187SOL    HW136023   0.339   0.774  15.984 -0.3954  0.5050  1.0847
 8187SOL    HW236024   0.243   0.667  16.006 -0.8119 -0.1725  0.3360
 8188SOL     OW36025   4.426   3.935   7.052  0.1701 -0.3393  0.2450
 8188SOL    HW136026   4.396   3.848   7.026  1.5764 -0.8709  0.4403
 8188SOL    HW236027   4.385   3.990   6.985 -0.9805 -1.2868  0.1696
 8189SOL     OW36028   1.288   4.221   7.520  0.0831 -0.1879 -0.0722
 8189SOL    HW136029   1.378   4.253   7.523 -0.6560  1.9884 -1.1787
 8189SOL    HW236030   1.244   4.303   7.540 -2.1253 -1.8521  1.9018
 8190SOL     OW36031   4.429   1.282   8.094 -0.0075  0.2041 -0.2872
 8190SOL    HW136032   4.417   1.348   8.026 -1.6873 -0.0871 -0.2823
 8190SOL    HW236033   4.468   1.216   8.037  2.4207  0.5698  0.9597
 8191SOL     OW36034   1.306   2.458  16.852 -0.5486 -0.9417 -0.4168
 8191SOL    HW136035   1.366   2.386  16.873 -1.8146 -1.1746  2.4587
 8191SOL    HW236036   1.349   2.509  16.783 -0.0172  0.6351  1.0675
 8192SOL     OW36037   2.776   4.040   4.989 -0.2032 -0.4187 -0.1166
 8192SOL    HW136038   2.702   4.053   4.930 -0.1458  1.9751  0.3316
 8192SOL    HW236039   2.845   4.066   4.927 -1.2490  2.2093 -0.2024
 8193SOL     OW36040   1.658   3.904   3.137 -0.0996 -1.0338 -0.5791
 8193SOL    HW136041   1.748   3.896   3.108 -0.9762 -1.0598 -3.3299
 8193SOL    HW236042   1.642   3.995   3.113 -1.0913 -0.8115  0.8559
 8194SOL     OW36043   2.958   1.173   5.354  0.7042 -0.4994 -0.3508
 8194SOL    HW136044   2.874   1.202   5.320 -0.1137 -0.8394  1.3275
 8194SOL    HW236045   2.936   1.208   5.441 -0.1618  0.9852 -1.1793
 8195SOL     OW36046   1.451   4.219  13.255  0.2947 -0.2713 -0.5971
 8195SOL    HW136047   1.421   4.310  13.252  1.7071  0.2205 -0.1056
 8195SOL    HW236048   1.388   4.189  13.319  0.8857  0.2835  0.2417
 8196SOL     OW36049   2.019   2.230   1.881 -0.0393 -0.2108  0.1484
 8196SOL    HW136050   1.943   2.243   1.824  0.4503 -1.1145 -0.7154
 8196SOL    HW236051   2.059   2.316   1.893 -1.2626  0.3321  0.3664
 8197SOL     OW36052   3.001   1.944   0.385  0.0155  0.1557  0.1604
 8197SOL    HW136053   2.977   1.853   0.370  3.2728 -0.6058 -0.4282
 8197SOL    HW236054   3.089   1.930   0.420 -0.0082  3.4591  1.5825
 8198SOL     OW36055   0.250   0.113  10.018 -0.5347  0.7625 -0.1319
 8198SOL    HW136056   0.169   0.139   9.975 -0.0981  0.5396 -1.0883
 8198SOL    HW236057   0.303   0.193  10.022 -1.2287  1.1832  0.6002
 8199SOL     OW36058   3.185   0.430  16.005  0.7132 -0.1226  0.6201
 8199SOL    HW136059   3.105   0.479  15.985 -0.1862 -2.0512 -0.6216
 8199SOL    HW236060   3.169   0.346  15.960  1.3159  1.3938 -2.4258
 8200SOL     OW36061   4.298   1.916   4.548 -0.7209  0.0029 -0.5122
 8200SOL    HW136062   4.227   1.896   4.487 -0.9212 -2.9262  0.6857
 8200SOL    HW236063   4.345   1.833   4.559  4.0789  2.7503 -0.5249
 8201SOL     OW36064   0.959   4.193  10.920  0.4107 -0.8219  0.4618
 8201SOL    HW136065   0.938   4.105  10.952 -2.1414  0.1113  1.3981
 8201SOL    HW236066   0.927   4.243  10.996  0.4882 -1.8180  1.1529
 8202SOL     OW36067   1.881   1.351   9.115 -0.3866 -0.7402  0.5858
 8202SOL    HW136068   1.799   1.375   9.159  0.5515 -0.3615  2.1306
 8202SOL    HW236069   1.922   1.316   9.193 -0.1417 -1.2118  0.2425
 8203SOL     OW36070   3.714   2.979   1.513 -0.3233 -0.6804 -0.6439
 8203SOL    HW136071   3.714   2.884   1.498 -3.0070 -0.8370  0.4015
 8203SOL    HW236072   3.803   3.004   1.487 -0.7303  1.1331 -0.2553
 8204SOL     OW36073   1.428   4.211  17.003 -0.4442 -0.3609 -0.1776
 8204SOL    HW136074   1.432   4.164  16.920  1.9293  2.5008 -1.6844
 8204SOL    HW236075   1.426   4.305  16.982  0.7390 -0.3611 -0.3031
 8205SOL     OW36076   3.244   2.247   7.219  0.0183  0.1736  0.1715
 8205SOL    HW136077   3.301   2.262   7.295 -0.2796 -0.4422  0.5160
 8205SOL    HW236078   3.281   2.308   7.156 -0.2220 -1.0269 -1.1247
 8206SOL     OW36079   2.963   4.419   5.169 -0.1833  0.3705  0.0395
 8206SOL    HW136080   2.943   4.512   5.167  0.4940  0.5200  0.2014
 8206SOL    HW236081   2.926   4.407   5.081  1.0946  1.8051 -0.6904
 8207SOL     OW36082   1.471   4.128   1.805 -0.3212 -0.0436  0.5743
 8207SOL    HW136083   1.405   4.183   1.848 -1.3318 -0.4437 -0.4699
 8207SOL    HW236084   1.500   4.178   1.729  0.5842 -0.2809  0.7603
 8208SOL     OW36085   2.244   4.101   2.402 -0.0744 -0.0841 -0.8612
 8208SOL    HW136086   2.308   4.122   2.334 -0.2845  0.4815 -0.8884
 8208SOL    HW236087   2.287   4.030   2.449 -2.1874  0.7023  2.3640
 8209SOL     OW36088   1.637   2.016   1.180  0.3318  0.3759 -0.4003
 8209SOL    HW136089   1.696   2.090   1.168 -0.4680  1.1446  0.4192
 8209SOL    HW236090   1.677   1.967   1.252  0.0670 -0.3145 -0.7227
 8210SOL     OW36091   1.276   1.795   3.164 -0.4078 -0.2253  0.2212
 8210SOL    HW136092   1.203   1.857   3.167 -1.0038 -0.9049 -0.4763
 8210SOL    HW236093   1.291   1.771   3.255  3.2059 -0.1614 -0.3516
 8211SOL     OW36094   4.483   4.432   2.992 -0.1168 -0.1903 -0.0591
 8211SOL    HW136095   4.446   4.407   2.908  1.6198 -0.1598 -0.8219
 8211SOL    HW236096   4.447   4.521   2.996  3.0884  1.0327  1.6869
 8212SOL     OW36097   3.717   2.395   2.727  0.0353 -0.5350  1.0926
 8212SOL    HW136098   3.692   2.405   2.635  5.2219 -1.2916 -0.3888
 8212SOL    HW236099   3.734   2.301   2.716  3.0587  0.2613 -0.9823
 8213SOL     OW36100   3.822   2.825  12.394 -0.1157  0.2604 -0.5311
 8213SOL    HW136101   3.868   2.762  12.339 -1.1576  0.0451 -1.1362
 8213SOL    HW236102   3.889   2.891  12.414 -2.1653  1.7126  1.5416
 8214SOL     OW36103   3.721   1.503   7.228 -0.4248  0.2026 -0.0314
 8214SOL    HW136104   3.660   1.470   7.294 -1.4092 -0.5423 -1.3396
 8214SOL    HW236105   3.686   1.480   7.143 -0.3158  2.5803 -0.7170
 8215SOL     OW36106   3.656   3.388   9.965 -0.9458  0.3709  0.4901
 8215SOL    HW136107   3.615   3.472   9.987 -2.3859  0.0334 -0.8920
 8215SOL    HW236108   3.640   3.333  10.041  3.7545 -1.7510 -0.0579
 8216SOL     OW36109   3.973   4.099  14.176  0.2852  0.4527 -0.4583
 8216SOL    HW136110   3.901   4.044  14.145 -0.1426  1.2334 -0.8746
 8216SOL    HW236111   4.036   4.080  14.106 -0.0652 -2.0995 -0.0735
 8217SOL     OW36112   1.999   3.301   5.926  0.3365 -0.1234  0.2477
 8217SOL    HW136113   1.963   3.245   5.995 -0.0794 -1.2082 -0.8315
 8217SOL    HW236114   2.046   3.225   5.891  1.3225  1.5001 -1.8998
 8218SOL     OW36115   0.816   3.538   3.605 -0.1931 -0.2736  0.2020
 8218SOL    HW136116   0.829   3.633   3.602 -1.7085 -0.0723 -0.3229
 8218SOL    HW236117   0.723   3.522   3.586  0.5264 -3.3898 -0.6455
 8219SOL     OW36118   1.692   3.021   5.882  0.2185  0.0509 -0.0030
 8219SOL    HW136119   1.752   3.066   5.823  0.5218  0.2207  0.4376
 8219SOL    HW236120   1.742   2.940   5.895 -1.0377 -0.9212 -1.1852
 8220SOL     OW36121   3.428   1.759  14.512  0.1712 -0.2939  0.6132
 8220SOL    HW136122   3.502   1.702  14.531 -0.9198 -2.2024 -0.9248
 8220SOL    HW236123   3.443   1.779  14.419  1.9562 -0.0470  0.9399
 8221SOL     OW36124   4.640   2.608   8.328 -0.2397 -0.4438 -0.4614
 8221SOL    HW136125   4.657   2.694   8.368  0.6793 -1.4953  1.3864
 8221SOL    HW236126   4.712   2.556   8.364  0.7057  1.3814  0.3407
 8222SOL     OW36127   2.910   2.634   8.420  0.5751 -0.6292  0.2026
 8222SOL    HW136128   2.907   2.629   8.325  1.9183  0.0499  0.1259
 8222SOL    HW236129   2.868   2.550   8.439  1.1258 -0.8151  0.5826
 8223SOL     OW36130   0.087   0.789  16.252 -0.1786  0.1417 -0.6850
 8223SOL    HW136131   0.080   0.873  16.207 -0.8748 -1.0754 -2.8490
 8223SOL    HW236132   0.159   0.756  16.197  0.8593  0.8546  0.2541
 8224SOL     OW36133   1.226   4.482   5.350 -0.4315  0.4202 -0.0713
 8224SOL    HW136134   1.245   4.512   5.261  0.4400  2.1579  0.6972
 8224SOL    HW236135   1.131   4.474   5.338 -0.1965 -0.8148 -1.0312
 8225SOL     OW36136   3.723   4.452  16.310  0.5024  0.3212 -0.2252
 8225SOL    HW136137   3.753   4.501  16.234  0.1527  1.5725  0.4359
 8225SOL    HW236138   3.741   4.514  16.381  0.3036 -1.4453  1.3616
 8226SOL     OW36139   0.613   0.630   0.913  0.1765 -0.4652 -0.0926
 8226SOL    HW136140   0.611   0.578   0.833 -1.0936  0.0625 -0.4001
 8226SOL    HW236141   0.611   0.718   0.874 -0.1849  0.0001  0.9623
 8227SOL     OW36142   3.270   0.966   6.228 -0.3110 -0.2910  0.1221
 8227SOL    HW136143   3.183   0.977   6.188 -0.6091 -1.7154  0.3750
 8227SOL    HW236144   3.254   0.916   6.308 -0.3153 -1.1547 -0.4142
 8228SOL     OW36145   1.347   0.534   8.902  0.0603  0.2137  0.1965
 8228SOL    HW136146   1.275   0.489   8.946 -0.2104 -0.6637 -1.1558
 8228SOL    HW236147   1.397   0.554   8.981  1.8232 -0.3524 -0.7949
 8229SOL     OW36148   1.562   0.812   8.827 -0.1462  0.2616  0.1692
 8229SOL    HW136149   1.479   0.857   8.810 -2.5858 -3.0291  3.3444
 8229SOL    HW236150   1.575   0.777   8.738 -2.0062  0.2000 -0.0711
 8230SOL     OW36151   0.881   0.223   5.286 -0.0915  0.0378 -0.5692
 8230SOL    HW136152   0.869   0.215   5.191 -1.7493  1.0763 -0.4377
 8230SOL    HW236153   0.957   0.165   5.289  0.4213  0.8480  1.8122
 8231SOL     OW36154   2.795   4.623   3.483 -0.6266 -0.2346  0.2234
 8231SOL    HW136155   2.852   4.644   3.409 -1.3803 -0.7422 -0.5067
 8231SOL    HW236156   2.711   4.620   3.438  0.1594  0.1609 -1.2748
 8232SOL     OW36157   1.912   3.689  17.433 -0.1032 -0.0775  0.5494
 8232SOL    HW136158   1.967   3.611  17.423  2.3432  1.8108 -0.7221
 8232SOL    HW236159   1.881   3.678  17.523  1.3975  1.8696  1.3080
 8233SOL     OW36160   3.249   4.026   8.523  0.0553 -0.7639  0.8508
 8233SOL    HW136161   3.175   4.006   8.579 -0.4378  0.1923  0.5266
 8233SOL    HW236162   3.326   4.006   8.577  0.0455  0.6463  1.3839
 8234SOL     OW36163   4.183   4.130   4.679 -0.1299 -0.2623 -0.5836
 8234SOL    HW136164   4.171   4.105   4.588  0.5332  1.4425 -1.1478
 8234SOL    HW236165   4.114   4.197   4.684  0.7879  0.6765 -0.5780
 8235SOL     OW36166   2.861   4.277  11.065 -0.2934 -0.8959  0.3037
 8235SOL    HW136167   2.786   4.335  11.049 -0.0962 -0.7494 -0.0965
 8235SOL    HW236168   2.926   4.320  11.009  1.2716 -1.2823  1.8501
 8236SOL     OW36169   1.223   1.082  13.275  0.3712  0.1716 -0.3077
 8236SOL    HW136170   1.245   1.110  13.364  0.8845 -0.8550 -0.1122
 8236SOL    HW236171   1.207   0.990  13.296  0.3241  0.4217  0.7719
 8237SOL     OW36172   0.983   0.888  12.482 -0.4319 -0.5406 -0.3270
 8237SOL    HW136173   1.064   0.925  12.515 -1.8145  1.5001  0.7586
 8237SOL    HW236174   1.014   0.798  12.475 -3.3035 -1.6081  0.8355
 8238SOL     OW36175   2.765   0.401   2.907 -0.2050 -0.4052  0.2890
 8238SOL    HW136176   2.726   0.442   2.830 -1.3781 -0.9515  0.5964
 8238SOL    HW236177   2.830   0.342   2.868  0.3624  0.1214  0.4464
 8239SOL     OW36178   3.743   0.179   7.404 -1.0316 -0.0580  0.1370
 8239SOL    HW136179   3.743   0.254   7.463  0.6630  0.1527 -0.1442
 8239SOL    HW236180   3.834   0.148   7.413 -0.7368  1.1401  1.2330
 8240SOL     OW36181   0.441   0.071   7.938  0.0494 -0.6525 -0.1183
 8240SOL    HW136182   0.468   4.704   7.952  0.3036 -0.3815  1.1337
 8240SOL    HW236183   0.360   0.079   7.988 -0.9471 -2.2649 -1.4756
 8241SOL     OW36184   1.251   3.665   4.716  1.0009 -0.1058  0.2172
 8241SOL    HW136185   1.271   3.610   4.640  0.3424  0.1120 -0.1222
 8241SOL    HW236186   1.258   3.749   4.670 -1.0835 -0.4460 -0.7175
 8242SOL     OW36187   1.913   4.005   4.233 -0.2745 -0.2305 -0.0067
 8242SOL    HW136188   1.947   3.921   4.263 -2.0608 -0.0886  2.4133
 8242SOL    HW236189   1.972   4.059   4.286 -0.1303  0.8053 -1.2299
 8243SOL     OW36190   0.832   3.984  11.059  0.3510 -0.5676 -0.1557
 8243SOL    HW136191   0.858   3.892  11.067 -2.4203 -1.3098  0.3351
 8243SOL    HW236192   0.762   3.993  11.123 -2.0659  0.8971 -3.0103
 8244SOL     OW36193   2.842   1.983  15.209  0.2090 -0.0708 -0.1358
 8244SOL    HW136194   2.749   1.971  15.191  0.0475 -1.2808  1.5072
 8244SOL    HW236195   2.887   1.962  15.127  2.0936 -0.3089  0.9455
 8245SOL     OW36196   0.138   4.242   8.932 -0.3033  0.1131 -0.1499
 8245SOL    HW136197   0.105   4.174   8.990  2.1500 -1.0741 -0.1466
 8245SOL    HW236198   0.087   4.225   8.853 -2.1346 -2.0268  1.4989
 8246SOL     OW36199   2.669   0.408  15.430  0.0935 -0.0456 -0.7440
 8246SOL    HW136200   2.621   0.338  15.474 -0.7533  0.4489 -0.8826
 8246SOL    HW236201   2.707   0.450  15.507 -1.1228  1.7247 -1.1270
 8247SOL     OW36202   4.608   0.298   5.702  0.1034 -0.8454  0.3460
 8247SOL    HW136203   4.593   0.374   5.758  0.2461 -1.2598  0.9574
 8247SOL    HW236204   4.633   0.233   5.769  0.7744  0.1020  1.0103
 8248SOL     OW36205   1.131   0.333   6.639  0.1437  0.2094 -0.1692
 8248SOL    HW136206   1.190   0.260   6.660 -0.9345 -0.7001 -0.3343
 8248SOL    HW236207   1.098   0.303   6.555  1.5426  1.2432 -1.0705
 8249SOL     OW36208   4.346   0.878   3.133  0.0730  0.5948  0.6483
 8249SOL    HW136209   4.441   0.881   3.127 -0.0103  1.0325 -0.4317
 8249SOL    HW236210   4.340   0.786   3.107 -1.1442  0.5173  1.2145
 8250SOL     OW36211   2.769   1.299   0.629 -0.1540 -0.2107 -0.3911
 8250SOL    HW136212   2.860   1.297   0.659  0.0683  0.8609 -0.9753
 8250SOL    HW236213   2.762   1.388   0.594  2.6968  0.8152  1.6282
 8251SOL     OW36214   4.676   1.299   4.450 -0.2409 -0.3679  0.1769
 8251SOL    HW136215   4.606   1.252   4.496 -2.0231  0.6899 -1.4432
 8251SOL    HW236216   4.713   1.223   4.406  2.3766  0.3734  1.0957
 8252SOL     OW36217   1.686   4.417   2.747 -0.6676  0.3007  0.4314
 8252SOL    HW136218   1.737   4.377   2.676  0.2821 -0.3504  1.4731
 8252SOL    HW236219   1.669   4.505   2.715 -0.7308 -0.2746 -1.1217
 8253SOL     OW36220   0.278   2.515   6.559  0.0947 -0.2596  0.5809
 8253SOL    HW136221   0.241   2.594   6.519  1.0871 -0.0796  0.0023
 8253SOL    HW236222   0.226   2.445   6.520 -0.9882  0.1482  1.3103
 8254SOL     OW36223   3.287   1.102   9.072  0.4289  0.8581 -0.4907
 8254SOL    HW136224   3.366   1.148   9.102 -0.7051  1.2130  1.9844
 8254SOL    HW236225   3.246   1.174   9.023 -1.0156 -0.7487 -1.6114
 8255SOL     OW36226   4.410   3.071   8.133 -0.0755 -0.3195 -0.0565
 8255SOL    HW136227   4.477   3.140   8.132 -0.4860  0.0968  0.8539
 8255SOL    HW236228   4.461   2.990   8.122 -0.3788 -1.0480  3.8565
 8256SOL     OW36229   0.250   3.426   9.936 -0.4069 -0.0405 -0.7256
 8256SOL    HW136230   0.316   3.490   9.911  0.0389 -0.2182  0.0130
 8256SOL    HW236231   0.171   3.476   9.916  0.4958  1.1892 -1.1581
 8257SOL     OW36232   0.671   3.853  12.240 -0.0664  0.2449 -0.1077
 8257SOL    HW136233   0.659   3.759  12.221 -1.8724  0.6829 -1.1548
 8257SOL    HW236234   0.594   3.872  12.294 -0.7705 -0.5700 -0.8003
 8258SOL     OW36235   0.541   3.426   1.994 -0.8407  0.2853 -0.1572
 8258SOL    HW136236   0.451   3.398   2.011 -0.4573  0.3491  1.9456
 8258SOL    HW236237   0.576   3.366   1.928 -0.4405  0.6070 -0.2407
 8259SOL     OW36238   2.989   4.594   1.531  0.1643  0.0736 -0.5010
 8259SOL    HW136239   2.928   4.645   1.476 -0.4279  0.2699  0.3422
 8259SOL    HW236240   3.066   4.602   1.474 -0.1802  0.3995 -0.9248
 8260SOL     OW36241   1.055   0.471   6.342 -0.2630  0.2393  0.0711
 8260SOL    HW136242   1.029   0.560   6.321 -0.6821  0.4906  1.6426
 8260SOL    HW236243   1.036   0.414   6.267  2.2393 -1.0043  0.3683
 8261SOL     OW36244   2.731   1.991   4.951 -0.1042  0.0509  0.4141
 8261SOL    HW136245   2.827   1.990   4.956 -0.1962 -1.2511  2.3479
 8261SOL    HW236246   2.715   2.057   4.884  1.0827 -0.4996 -0.4180
 8262SOL     OW36247   3.232   1.824   1.012  0.4728  0.7040 -0.0637
 8262SOL    HW136248   3.212   1.918   1.005 -1.2387  0.1713 -2.3540
 8262SOL    HW236249   3.227   1.798   0.920 -1.1259  0.5379  0.0763
 8263SOL     OW36250   4.108   2.509   5.953 -0.4444  0.3256  0.5273
 8263SOL    HW136251   4.189   2.502   5.902 -1.1804  0.3763 -0.6747
 8263SOL    HW236252   4.086   2.602   5.961  0.2471  0.5838 -0.5403
 8264SOL     OW36253   3.137   1.325   5.206 -0.4020  0.0794  0.1714
 8264SOL    HW136254   3.094   1.408   5.229  0.2772 -0.1128  2.1039
 8264SOL    HW236255   3.091   1.273   5.272 -0.1518  1.8205  1.7225
 8265SOL     OW36256   3.685   0.244  15.215  0.6228  0.0329 -0.1412
 8265SOL    HW136257   3.645   0.227  15.129 -1.0838 -0.2708  0.6973
 8265SOL    HW236258   3.754   0.309  15.203 -0.4801  1.4037  0.9291
 8266SOL     OW36259   2.254   3.311   9.188  0.9421  0.0516  0.0579
 8266SOL    HW136260   2.175   3.279   9.230  0.1081  0.4849 -1.1828
 8266SOL    HW236261   2.276   3.229   9.143  2.1292  1.6296 -2.2621
 8267SOL     OW36262   0.805   1.381   6.172  0.0437  0.0070  0.4575
 8267SOL    HW136263   0.795   1.367   6.266  0.7599  1.7936  0.7999
 8267SOL    HW236264   0.715   1.377   6.139  0.7908 -0.4713 -1.5505
 8268SOL     OW36265   3.509   1.105   0.451 -0.5670  0.1905  0.4243
 8268SOL    HW136266   3.521   1.166   0.378 -0.9461  1.5180  1.4783
 8268SOL    HW236267   3.591   1.106   0.501  0.3656 -0.6508 -1.0654
 8269SOL     OW36268   2.129   4.440   0.048  0.1189 -0.0640  0.3958
 8269SOL    HW136269   2.097   4.487  17.667 -1.4421 -0.4472  0.8054
 8269SOL    HW236270   2.195   4.386   0.006  0.9411  0.0243  1.5734
 8270SOL     OW36271   1.496   4.702  15.062  0.4036 -0.0717 -0.0646
 8270SOL    HW136272   1.406   4.677  15.082  0.4556 -0.0476  0.1928
 8270SOL    HW236273   1.493   4.684  14.968  0.1054  2.2378 -0.4968
 8271SOL     OW36274   3.788   1.740  11.300 -0.6320  0.3712 -0.1982
 8271SOL    HW136275   3.755   1.716  11.214  0.9654  0.9670 -0.9751
 8271SOL    HW236276   3.714   1.776  11.349 -0.1624 -0.6939  1.2804
 8272SOL     OW36277   2.811   4.587   2.640 -0.2545  0.3449 -0.6799
 8272SOL    HW136278   2.733   4.572   2.587  1.1554 -0.8957 -2.4080
 8272SOL    HW236279   2.826   4.503   2.682 -1.5785 -0.2378 -1.3782
 8273SOL     OW36280   0.017   3.524  13.603 -0.0056 -1.1478 -0.0704
 8273SOL    HW136281   0.014   3.457  13.535  0.5898 -0.5967 -0.6334
 8273SOL    HW236282   4.664   3.578  13.583  1.2116  0.1376 -1.2481
 8274SOL     OW36283   3.474   1.296  12.008  0.6018 -0.2736  0.3935
 8274SOL    HW136284   3.399   1.330  11.959  1.0107  1.6653  1.1148
 8274SOL    HW236285   3.500   1.372  12.060  0.5326  0.3253 -0.4542
 8275SOL     OW36286   0.083   0.776   5.596  0.2164  0.0746  0.4483
 8275SOL    HW136287   0.137   0.791   5.519 -1.7387  1.0116 -0.7525
 8275SOL    HW236288   0.014   0.714   5.570  0.8055 -1.3034  2.1547
 8276SOL     OW36289   0.737   4.358  10.273  0.1593  0.4448 -0.4619
 8276SOL    HW136290   0.672   4.387  10.338 -1.3720 -1.2030 -1.2376
 8276SOL    HW236291   0.783   4.441  10.271 -1.7616  1.6504  3.7870
 8277SOL     OW36292   2.075   1.811   0.910 -0.4005 -0.1725 -0.2728
 8277SOL    HW136293   2.026   1.840   0.833  1.5565 -0.9476 -1.8087
 8277SOL    HW236294   2.100   1.723   0.883  0.3057 -0.2077  0.5201
 8278SOL     OW36295   3.265   0.478   5.591  0.4937 -0.1113  0.0683
 8278SOL    HW136296   3.204   0.407   5.571  0.8932 -0.6129  0.6528
 8278SOL    HW236297   3.225   0.540   5.529  2.0386 -1.8340 -2.6223
 8279SOL     OW36298   3.269   3.247  17.568 -0.0903 -0.2673 -0.4021
 8279SOL    HW136299   3.309   3.311  17.509  2.0877 -2.8658 -1.7169
 8279SOL    HW236300   3.331   3.176  17.551 -0.7111 -0.8551 -0.1979
 8280SOL     OW36301   4.483   3.354   6.605  0.1173 -0.0186  0.0021
 8280SOL    HW136302   4.463   3.265   6.576  0.4129  0.2057 -0.9107
 8280SOL    HW236303   4.525   3.387   6.526 -0.7995 -2.2871 -1.4394
 8281SOL     OW36304   2.592   4.012  11.986  0.0401  0.1254 -0.2341
 8281SOL    HW136305   2.583   4.081  12.052 -0.7496  1.7313 -1.9789
 8281SOL    HW236306   2.643   4.055  11.918  0.8593  1.0535  0.9737
 8282SOL     OW36307   2.206   0.887   3.051  0.2076 -0.1469  0.5615
 8282SOL    HW136308   2.160   0.808   3.079  3.6378 -2.2775  0.2401
 8282SOL    HW236309   2.167   0.950   3.111 -2.9654 -0.8674 -0.7586
 8283SOL     OW36310   0.635   3.489   5.962  0.0752 -0.7748  0.4840
 8283SOL    HW136311   0.597   3.402   5.955 -1.2519  0.0184 -2.0429
 8283SOL    HW236312   0.563   3.548   5.987  1.6358  0.8491  1.1624
 8284SOL     OW36313   4.485   0.453   8.314 -0.1756 -0.2957 -0.7051
 8284SOL    HW136314   4.453   0.542   8.302 -0.1992 -0.0788  0.9845
 8284SOL    HW236315   4.578   0.459   8.290 -0.3126 -1.4268 -1.5214
 8285SOL     OW36316   1.270   0.397   7.890  0.2530  0.2375  0.1710
 8285SOL    HW136317   1.273   0.302   7.892 -1.1816  0.1932  0.1638
 8285SOL    HW236318   1.278   0.404   7.795  0.7407  2.2757  0.3569
 8286SOL     OW36319   1.015   3.472   0.677 -0.2656 -0.0920 -0.0050
 8286SOL    HW136320   0.992   3.419   0.601 -1.1422 -0.9423  0.8650
 8286SOL    HW236321   1.109   3.457   0.671 -0.3292 -0.6075  0.3335
 8287SOL     OW36322   0.631   4.158   7.906  0.1672  0.1543  1.0329
 8287SOL    HW136323   0.683   4.238   7.894  1.6113 -0.8655  0.3644
 8287SOL    HW236324   0.594   4.152   7.818  0.5410  2.2804  0.7220
 8288SOL     OW36325   4.269   4.332   5.625  0.5763  0.1411  0.5628
 8288SOL    HW136326   4.199   4.286   5.672 -0.9361  0.1216 -1.6723
 8288SOL    HW236327   4.272   4.406   5.686 -2.5804  1.2198 -0.5451
 8289SOL     OW36328   0.730   4.529   7.031 -0.1523 -0.1315  0.2050
 8289SOL    HW136329   0.806   4.581   7.058 -1.6704  1.2002  1.9056
 8289SOL    HW236330   0.684   4.543   7.114 -1.6229  0.9119 -0.7819
 8290SOL     OW36331   0.227   3.848  12.521 -0.0529 -0.0320  0.2209
 8290SOL    HW136332   0.276   3.902  12.583 -1.0486  0.0333  0.9630
 8290SOL    HW236333   0.242   3.765  12.565  0.6687  0.3362  0.6829
 8291SOL     OW36334   3.983   2.935   1.653  0.4445 -0.0592  0.3041
 8291SOL    HW136335   4.006   2.987   1.575  1.0600 -0.6919  0.0676
 8291SOL    HW236336   4.004   2.849   1.616 -0.3853 -0.1331  0.0156
 8292SOL     OW36337   4.039   2.356   3.228 -0.5909  0.1248 -0.5316
 8292SOL    HW136338   4.123   2.309   3.226 -1.4600 -1.4274 -0.3196
 8292SOL    HW236339   4.064   2.428   3.285  1.1262 -0.0045 -1.1142
 8293SOL     OW36340   2.222   2.568  11.146 -0.0660 -0.1653  0.8239
 8293SOL    HW136341   2.308   2.603  11.124 -1.0667  1.9290  0.2251
 8293SOL    HW236342   2.170   2.571  11.066  0.9260  1.3731  0.2386
 8294SOL     OW36343   2.577   1.728   4.136  0.1460  0.2630  0.0777
 8294SOL    HW136344   2.489   1.693   4.126  0.8069 -0.5064 -3.0489
 8294SOL    HW236345   2.587   1.800   4.074 -0.3906 -0.4870 -0.8688
 8295SOL     OW36346   3.729   2.094   2.817  0.2321  0.4184  0.1507
 8295SOL    HW136347   3.697   2.012   2.856 -2.4729  1.9368  1.1185
 8295SOL    HW236348   3.790   2.131   2.881  1.5069 -0.5223 -0.5301
 8296SOL     OW36349   4.427   2.173   6.616  0.5760 -0.8952 -0.0405
 8296SOL    HW136350   4.394   2.083   6.608 -2.0416 -0.0428  1.2761
 8296SOL    HW236351   4.484   2.179   6.539 -1.3346 -0.2103 -1.3951
 8297SOL     OW36352   4.244   2.201   8.093  0.2354  0.2401 -0.7125
 8297SOL    HW136353   4.210   2.258   8.161 -1.7838  0.4580 -1.8980
 8297SOL    HW236354   4.167   2.192   8.036 -0.0194 -0.3587 -0.2709
 8298SOL     OW36355   2.206   0.051   3.956  0.1755 -0.2918 -0.0653
 8298SOL    HW136356   2.214   0.051   4.052  1.6025 -1.5852 -0.1874
 8298SOL    HW236357   2.128   0.103   3.939  0.6876  0.5760  0.2539
 8299SOL     OW36358   4.129   1.777   8.185  0.0091 -0.1214 -0.1636
 8299SOL    HW136359   4.169   1.825   8.258 -1.9505  0.6119  0.4178
 8299SOL    HW236360   4.156   1.686   8.199  0.8107  0.5995  3.1274
 8300SOL     OW36361   4.273   4.084   6.834 -0.0551 -0.4343 -0.4286
 8300SOL    HW136362   4.202   4.029   6.800 -1.4849  0.5744  0.9065
 8300SOL    HW236363   4.245   4.176   6.828 -2.2402 -0.7481  4.2808
 8301SOL     OW36364   4.045   1.371   1.704 -0.2317 -0.1736  0.2006
 8301SOL    HW136365   4.054   1.281   1.674 -0.0638  0.6058 -2.0611
 8301SOL    HW236366   4.005   1.402   1.623  3.0559 -0.1806 -1.4310
 8302SOL     OW36367   3.407   0.122  11.195 -0.7549 -0.0096 -0.1843
 8302SOL    HW136368   3.416   0.209  11.234  0.1329 -0.9444  1.6853
 8302SOL    HW236369   3.496   0.087  11.193 -1.1207 -0.8848 -1.2749
 8303SOL     OW36370   3.800   2.276   7.200  0.3660  0.0100  0.0139
 8303SOL    HW136371   3.787   2.290   7.294 -2.7940  1.6956 -0.6479
 8303SOL    HW236372   3.805   2.180   7.194  0.0467 -0.0469  0.6503
 8304SOL     OW36373   0.152   2.456   4.333 -0.4699 -0.2982 -0.1290
 8304SOL    HW136374   0.089   2.388   4.309 -2.5483  1.2619  0.8650
 8304SOL    HW236375   0.104   2.496   4.405  0.9157  0.4801  0.3527
 8305SOL     OW36376   1.187   0.406  16.496  0.5246  0.1598  0.5592
 8305SOL    HW136377   1.154   0.495  16.506 -0.5078 -0.2097  0.4555
 8305SOL    HW236378   1.281   0.416  16.506  0.5713 -1.0167  1.2396
 8306SOL     OW36379   2.377   2.503   9.000 -0.5664 -0.0688  0.2503
 8306SOL    HW136380   2.451   2.465   8.952  1.1642  1.3513  1.8049
 8306SOL    HW236381   2.387   2.470   9.089  1.3047  0.8986  0.3934
 8307SOL     OW36382   2.557   3.498   5.392  0.1424 -0.1425  0.7070
 8307SOL    HW136383   2.578   3.573   5.335 -1.3363  1.3771  2.1632
 8307SOL    HW236384   2.615   3.511   5.467  0.2685 -1.0991  0.7714
 8308SOL     OW36385   1.252   4.578   5.008 -0.2445 -0.0670 -0.4343
 8308SOL    HW136386   1.172   4.529   4.990  0.4349 -1.5510  0.6304
 8308SOL    HW236387   1.313   4.508   4.986 -0.5417 -0.9295  1.4742
 8309SOL     OW36388   2.852   0.487   4.025  0.1028  0.5467 -0.1047
 8309SOL    HW136389   2.798   0.556   3.986 -0.7796  0.1372  0.4095
 8309SOL    HW236390   2.907   0.531   4.090  1.9712 -1.2384 -0.4668
 8310SOL     OW36391   4.330   3.839   9.583  0.2894 -0.1628  0.1243
 8310SOL    HW136392   4.413   3.796   9.564  0.3178 -1.1846  2.5403
 8310SOL    HW236393   4.314   3.884   9.501  2.3519  1.8688  0.8561
 8311SOL     OW36394   0.201   1.263  14.280 -0.2113 -0.1448  0.0375
 8311SOL    HW136395   0.235   1.345  14.244 -1.2647  0.0573 -0.4897
 8311SOL    HW236396   0.223   1.210  14.203  0.2128 -0.3440  0.2952
 8312SOL     OW36397   1.389   1.641   8.336  0.2830 -0.1786  0.1763
 8312SOL    HW136398   1.307   1.688   8.349  1.2185  1.8192 -1.0430
 8312SOL    HW236399   1.382   1.602   8.249  2.1708 -0.7199  0.2698
 8313SOL     OW36400   3.109   2.040  12.159 -0.1061 -0.4043 -0.0681
 8313SOL    HW136401   3.170   2.093  12.211  0.5610  0.2413 -1.4985
 8313SOL    HW236402   3.151   2.046  12.073 -0.3891 -1.9319 -0.3196
 8314SOL     OW36403   1.850   2.645  11.459 -0.0696  0.0421 -0.6066
 8314SOL    HW136404   1.917   2.694  11.412  1.3693  0.0497  1.4639
 8314SOL    HW236405   1.811   2.596  11.387 -0.3186 -3.3015  1.7984
 8315SOL     OW36406   2.974   2.507   4.261 -0.8304 -0.8760 -0.4006
 8315SOL    HW136407   2.901   2.556   4.224 -0.9487 -2.5150 -2.4049
 8315SOL    HW236408   2.958   2.418   4.228  1.1432 -1.6084  0.6473
 8316SOL     OW36409   1.616   0.004   7.014  0.4744  0.4123  0.7898
 8316SOL    HW136410   1.690   4.699   6.960  1.3651  2.7483  0.7712
 8316SOL    HW236411   1.539   0.002   6.956  1.5649  2.6403 -0.7725
 8317SOL     OW36412   1.244   4.471   6.995  0.1577 -0.1829  0.8196
 8317SOL    HW136413   1.149   4.482   6.993  0.5690  3.0601 -0.2257
 8317SOL    HW236414   1.270   4.546   6.941 -0.6130 -1.1088 -0.8347
 8318SOL     OW36415   0.507   2.919   7.823  0.5260 -0.1130  0.0628
 8318SOL    HW136416   0.451   2.977   7.875 -0.9520  0.1563 -1.8653
 8318SOL    HW236417   0.570   2.984   7.792 -1.0816  1.3440 -0.1481
 8319SOL     OW36418   0.414   2.837   4.853  0.4520 -0.3985  0.1219
 8319SOL    HW136419   0.448   2.780   4.784 -0.1519  0.0001 -0.4991
 8319SOL    HW236420   0.486   2.828   4.916 -0.6692 -1.7829  1.1951
 8320SOL     OW36421   0.780   2.432  16.284 -0.1743 -0.5150 -0.5460
 8320SOL    HW136422   0.759   2.360  16.224 -1.6148 -0.0878 -0.5699
 8320SOL    HW236423   0.813   2.495  16.221  1.2820  0.3898  1.1447
 8321SOL     OW36424   1.711   1.168   1.550  0.1663  0.3704 -0.3579
 8321SOL    HW136425   1.791   1.115   1.551  1.6504  2.6059 -1.4173
 8321SOL    HW236426   1.700   1.185   1.457  3.0071 -2.9476 -1.2718
 8322SOL     OW36427   3.411   1.244   5.756  0.3379 -0.2751 -0.2190
 8322SOL    HW136428   3.441   1.280   5.672  1.1141 -0.9437 -0.2298
 8322SOL    HW236429   3.388   1.153   5.736 -0.7601 -0.3601  1.4764
 8323SOL     OW36430   0.815   2.107   5.069 -0.2245 -0.1529  0.1142
 8323SOL    HW136431   0.797   2.124   4.976 -0.4243 -1.9835 -0.1831
 8323SOL    HW236432   0.758   2.168   5.115 -0.4926 -0.2075 -0.1430
 8324SOL     OW36433   2.196   1.649   5.857 -0.1934  0.0932  0.6359
 8324SOL    HW136434   2.271   1.626   5.802  0.1125  1.8774  0.2866
 8324SOL    HW236435   2.166   1.562   5.883  0.4054 -0.6838 -1.2084
 8325SOL     OW36436   3.959   0.467   4.884 -0.1004 -0.3280  0.3927
 8325SOL    HW136437   3.953   0.424   4.970 -0.5387  0.6088  0.8289
 8325SOL    HW236438   4.052   0.460   4.864 -0.3140 -3.1457  0.3069
 8326SOL     OW36439   0.820   3.770   0.911 -0.1040 -0.1562 -0.2144
 8326SOL    HW136440   0.823   3.732   0.999  0.1796  1.4995  0.5034
 8326SOL    HW236441   0.909   3.807   0.912  0.3059 -1.1612  0.6437
 8327SOL     OW36442   2.885   0.785   0.378  0.1372 -0.5629 -0.0487
 8327SOL    HW136443   2.906   0.717   0.315  2.0624  1.8890 -2.0523
 8327SOL    HW236444   2.960   0.778   0.437  0.2107 -0.1972 -0.1003
 8328SOL     OW36445   3.316   1.611  11.003  0.3056  0.0144  0.2252
 8328SOL    HW136446   3.308   1.678  11.071  1.1905  1.5360 -1.1687
 8328SOL    HW236447   3.392   1.561  11.032 -0.8118 -2.6110 -1.4867
 8329SOL     OW36448   2.571   1.220   5.148 -0.1841 -0.7239 -0.2210
 8329SOL    HW136449   2.658   1.238   5.114 -0.7468  2.2503 -0.0212
 8329SOL    HW236450   2.593   1.197   5.238 -0.4984 -0.9466 -0.1970
 8330SOL     OW36451   0.825   0.826   4.914 -0.2092 -0.5617  0.3270
 8330SOL    HW136452   0.777   0.844   4.995  0.7271 -0.1243  0.7929
 8330SOL    HW236453   0.785   0.747   4.879  0.3542 -1.7807  2.4453
 8331SOL     OW36454   2.834   4.154  16.056  0.1638  0.7183  0.8610
 8331SOL    HW136455   2.809   4.095  16.127  2.2685 -0.9594  0.1887
 8331SOL    HW236456   2.890   4.221  16.096  0.1592  1.6731 -0.7066
 8332SOL     OW36457   0.883   2.849  15.931 -0.5961 -0.4753  0.4856
 8332SOL    HW136458   0.878   2.938  15.967 -1.1566 -0.1589 -0.3782
 8332SOL    HW236459   0.974   2.828  15.911  0.0608  1.8039  1.0423
 8333SOL     OW36460   3.098   1.982   3.110  0.5135  0.0689 -0.2172
 8333SOL    HW136461   3.059   1.961   3.195 -0.6462 -1.0134 -1.0244
 8333SOL    HW236462   3.095   1.894   3.073  3.6441 -0.4898  0.8686
 8334SOL     OW36463   1.898   4.039   0.356 -0.2622 -0.0412 -0.5974
 8334SOL    HW136464   1.846   4.119   0.362  2.3321  1.6147  0.2168
 8334SOL    HW236465   1.949   4.071   0.282  2.8542 -0.1217  1.4991
 8335SOL     OW36466   4.123   1.533   6.230 -0.5386  0.1948 -0.3254
 8335SOL    HW136467   4.037   1.539   6.270 -0.0121 -3.3829  1.3016
 8335SOL    HW236468   4.128   1.614   6.179  0.7744  0.0639 -0.3993
 8336SOL     OW36469   0.243   4.419   5.479 -0.0612  0.5789 -0.0781
 8336SOL    HW136470   0.250   4.415   5.383  1.1834  1.5853 -0.0357
 8336SOL    HW236471   0.204   4.506   5.481 -1.0466  0.1177  0.3796
 8337SOL     OW36472   3.628   2.898  16.880 -0.4571 -0.1156  0.4050
 8337SOL    HW136473   3.719   2.891  16.850 -0.4026  1.1610  0.2653
 8337SOL    HW236474   3.585   2.946  16.809 -0.4440  0.7968  0.9973
 8338SOL     OW36475   4.284   1.686   3.527 -0.3932  0.1211  0.1172
 8338SOL    HW136476   4.322   1.693   3.440  0.3259 -1.4038  0.3016
 8338SOL    HW236477   4.191   1.695   3.506 -0.4950  0.1337  0.5711
 8339SOL     OW36478   0.289   1.959   2.093 -0.1210  0.6857  0.7639
 8339SOL    HW136479   0.320   1.989   2.008 -0.5780  1.9210  1.0388
 8339SOL    HW236480   0.369   1.935   2.140  1.7138  0.3798 -2.5193
 8340SOL     OW36481   1.170   1.717  12.115 -0.2176  0.4049  0.1501
 8340SOL    HW136482   1.253   1.758  12.141 -0.7877  0.2852  2.1067
 8340SOL    HW236483   1.106   1.779  12.149  0.0625 -0.4029  2.1235
 8341SOL     OW36484   0.792   2.717   4.647 -0.2977  0.5584  0.3973
 8341SOL    HW136485   0.707   2.683   4.618 -1.4169  2.3163  1.5700
 8341SOL    HW236486   0.832   2.640   4.687  1.7230 -0.2237 -3.1691
 8342SOL     OW36487   4.508   0.448   7.829  0.5354  0.3295 -0.1877
 8342SOL    HW136488   4.433   0.482   7.779 -0.1124  0.4817  0.8737
 8342SOL    HW236489   4.579   0.432   7.767  0.3374  1.6847 -0.7725
 8343SOL     OW36490   1.027   3.380   3.489  0.8848 -0.2481  0.0714
 8343SOL    HW136491   1.058   3.438   3.419  0.2114 -1.6149 -1.3644
 8343SOL    HW236492   0.958   3.435   3.526  1.1248  0.3906 -0.4281
 8344SOL     OW36493   2.820   1.153   2.544  0.0582 -0.2225  0.1718
 8344SOL    HW136494   2.868   1.230   2.575 -3.3652  1.3357  1.6323
 8344SOL    HW236495   2.830   1.170   2.451  0.1445 -0.6877  0.0945
 8345SOL     OW36496   0.062   2.021   8.827 -0.1584  0.7000 -0.1123
 8345SOL    HW136497   4.717   2.006   8.892 -0.9197  2.3494 -0.5254
 8345SOL    HW236498   0.135   1.964   8.853 -1.0999  0.0701  1.1654
 8346SOL     OW36499   1.485   1.573   4.537  0.3387  0.0312  0.1080
 8346SOL    HW136500   1.467   1.525   4.456 -3.5089  1.8977 -0.1649
 8346SOL    HW236501   1.452   1.659   4.512 -0.3927 -0.5983 -1.0780
 8347SOL     OW36502   0.740   1.593   1.045  1.0599 -0.1356  0.3392
 8347SOL    HW136503   0.682   1.525   1.082  1.0097  0.7094  1.8187
 8347SOL    HW236504   0.725   1.657   1.115  1.0076 -1.1092  1.2269
 8348SOL     OW36505   0.972   0.430   8.152  0.0503  0.4630 -0.5059
 8348SOL    HW136506   0.897   0.469   8.198 -0.7793 -0.0776 -1.4104
 8348SOL    HW236507   1.027   0.439   8.230 -0.1112  0.9277 -0.4402
 8349SOL     OW36508   4.471   2.479  11.490 -0.0403 -0.1024 -0.8991
 8349SOL    HW136509   4.476   2.558  11.544 -1.5435 -0.1196 -0.7345
 8349SOL    HW236510   4.535   2.501  11.422  0.6831 -1.3733 -0.6156
 8350SOL     OW36511   0.865   2.151   5.955 -0.0511  0.3027 -0.5119
 8350SOL    HW136512   0.952   2.128   5.989  0.1639  0.4278 -0.9703
 8350SOL    HW236513   0.870   2.095   5.877  0.5328  5.0134 -3.8643
 8351SOL     OW36514   0.289   3.990   1.877 -0.1302 -0.5323  0.2189
 8351SOL    HW136515   0.319   3.905   1.907  0.2461 -1.2680 -2.2019
 8351SOL    HW236516   0.254   4.035   1.953 -0.7997 -1.9648  0.7509
 8352SOL     OW36517   0.175   4.058  10.421  0.0120 -0.1240  0.2992
 8352SOL    HW136518   0.157   3.989  10.357 -0.0021  0.6886 -0.5646
 8352SOL    HW236519   0.252   4.104  10.386 -0.1882  0.5107  0.6860
 8353SOL     OW36520   0.710   1.010   4.302  0.7269  0.2433  0.0962
 8353SOL    HW136521   0.723   1.103   4.284  0.4528 -0.2540 -2.6383
 8353SOL    HW236522   0.789   0.977   4.344 -0.7974 -1.3871  1.6981
 8354SOL     OW36523   3.357   3.579   3.534  0.5031 -0.0296 -0.1994
 8354SOL    HW136524   3.374   3.505   3.592  2.9243  2.6050  2.4306
 8354SOL    HW236525   3.413   3.547   3.463  0.9221 -2.0549  1.0401
 8355SOL     OW36526   3.572   0.196   3.617  0.4951  0.2299 -0.3371
 8355SOL    HW136527   3.561   0.228   3.527  0.2132 -2.2614 -1.1790
 8355SOL    HW236528   3.559   0.102   3.606 -0.5664  0.4453 -0.9353
 8356SOL     OW36529   2.098   1.166   4.362 -0.3616  0.0124  0.5998
 8356SOL    HW136530   2.138   1.122   4.287 -1.9868 -1.8318  0.8053
 8356SOL    HW236531   2.143   1.250   4.354 -0.8771  0.3478  1.2023
 8357SOL     OW36532   1.042   3.066   4.997 -0.1680 -0.0147 -0.2853
 8357SOL    HW136533   1.092   3.011   5.057 -0.2506  0.7967  0.5257
 8357SOL    HW236534   1.029   3.006   4.923 -1.8244  0.8171 -0.6748
 8358SOL     OW36535   2.912   2.367   7.270  0.0122  0.1809  0.4091
 8358SOL    HW136536   2.997   2.361   7.315 -0.6233 -2.4587  1.2905
 8358SOL    HW236537   2.879   2.281   7.295 -2.2170  1.0626  0.4625
 8359SOL     OW36538   2.857   1.066   3.887 -0.0391  0.3048 -0.0110
 8359SOL    HW136539   2.862   0.975   3.919  0.5127  0.7765  1.2417
 8359SOL    HW236540   2.933   1.098   3.935  0.6283 -1.0566 -0.1447
 8360SOL     OW36541   4.321   2.056   2.167 -1.0823 -0.3548  0.0534
 8360SOL    HW136542   4.404   2.012   2.148 -0.4644  1.0276 -0.4035
 8360SOL    HW236543   4.325   2.074   2.261 -1.6705  1.9045 -0.3776
 8361SOL     OW36544   3.132   4.393  16.764 -0.1415 -0.1944 -0.3380
 8361SOL    HW136545   3.080   4.446  16.703  0.0660 -0.2704 -0.5837
 8361SOL    HW236546   3.222   4.424  16.757 -0.0985 -0.4751 -1.0220
 8362SOL     OW36547   0.545   3.688   7.397 -0.2184  0.0742 -0.4312
 8362SOL    HW136548   0.537   3.762   7.336 -1.7715 -1.1512 -1.7400
 8362SOL    HW236549   0.627   3.647   7.372  0.2936  0.5657  0.4744
 8363SOL     OW36550   2.237   4.634  13.461  0.0366 -0.3083 -0.3086
 8363SOL    HW136551   2.294   4.594  13.527 -0.5532 -0.2051  0.2653
 8363SOL    HW236552   2.191   4.700  13.513  1.9047  1.8175 -1.3596
 8364SOL     OW36553   0.428   1.512   2.927  0.4044 -0.2479  0.1538
 8364SOL    HW136554   0.341   1.491   2.893  0.4503 -0.3820  0.1148
 8364SOL    HW236555   0.483   1.441   2.894 -0.9515 -0.7364 -1.0819
 8365SOL     OW36556   3.836   0.244   4.724  0.4937  0.0564  0.7332
 8365SOL    HW136557   3.828   0.327   4.677 -0.8802 -0.4302  0.0820
 8365SOL    HW236558   3.901   0.259   4.792 -1.3956 -0.4706  2.6758
 8366SOL     OW36559   2.697   1.944   8.493 -0.6920 -0.2970 -0.2564
 8366SOL    HW136560   2.721   1.997   8.417  1.5504  2.6450  2.4808
 8366SOL    HW236561   2.661   1.868   8.447 -0.1153  0.4374 -1.9151
 8367SOL     OW36562   1.385   1.853  12.208  0.5189  0.5521  0.5548
 8367SOL    HW136563   1.480   1.844  12.198  0.5282  2.4844 -1.0540
 8367SOL    HW236564   1.373   1.832  12.300  3.3029  0.2018  0.8573
 8368SOL     OW36565   1.117   0.469   8.415  0.1032  0.0635  0.7400
 8368SOL    HW136566   1.093   0.480   8.507  0.3864  1.2205  0.6830
 8368SOL    HW236567   1.163   0.386   8.414  0.2909  0.1357  2.9525
 8369SOL     OW36568   0.630   2.692   7.312 -0.3342  0.4310  0.6577
 8369SOL    HW136569   0.710   2.727   7.352 -0.4007  1.6924 -0.3271
 8369SOL    HW236570   0.663   2.644   7.236 -0.7639  0.7350  0.2846
 8370SOL     OW36571   0.891   0.174   2.848 -0.2562  0.1139  0.2312
 8370SOL    HW136572   0.876   0.099   2.905  1.8043 -1.1887 -0.9492
 8370SOL    HW236573   0.814   0.221   2.878 -1.4959 -0.7761 -1.5455
 8371SOL     OW36574   4.020   0.196   0.659  0.0303 -0.5994  0.0915
 8371SOL    HW136575   3.935   0.173   0.622  0.3798 -0.7413 -0.6091
 8371SOL    HW236576   4.044   0.271   0.604 -0.2646 -0.0725  0.6725
 8372SOL     OW36577   1.358   3.164   6.056  0.7916  0.0508  0.7073
 8372SOL    HW136578   1.278   3.184   6.104  2.5770  3.7977  2.1735
 8372SOL    HW236579   1.377   3.083   6.103  2.5649 -0.6184 -1.1906
 8373SOL     OW36580   3.097   3.998   6.733  0.0580 -0.0995  0.4582
 8373SOL    HW136581   3.074   3.989   6.825 -0.8739  0.3052  0.2633
 8373SOL    HW236582   3.094   4.093   6.721 -3.0548 -0.8166 -4.3385
 8374SOL     OW36583   4.030   4.690  16.841 -0.1736 -0.2285 -0.3390
 8374SOL    HW136584   4.028   4.597  16.864  0.3539 -0.6847 -2.0902
 8374SOL    HW236585   4.058   4.693  16.749 -0.7910  1.2917 -0.4820
 8375SOL     OW36586   3.382   3.524   8.293 -0.2588  0.0170 -0.3815
 8375SOL    HW136587   3.399   3.572   8.374  1.9180  0.2996 -1.0042
 8375SOL    HW236588   3.410   3.442   8.334 -0.1950  0.9019  1.3274
 8376SOL     OW36589   3.792   2.780  15.598  0.0851  0.1175 -0.5454
 8376SOL    HW136590   3.835   2.742  15.521  2.5723  0.8538  0.4879
 8376SOL    HW236591   3.757   2.710  15.652  0.5550  1.4575  1.4902
 8377SOL     OW36592   2.526   2.228   3.043  0.3417  0.2051  0.1653
 8377SOL    HW136593   2.555   2.312   3.008  0.2312  0.1578 -0.0424
 8377SOL    HW236594   2.454   2.253   3.101  1.8623 -0.5953  2.3795
 8378SOL     OW36595   3.244   2.528   5.567  0.1727  0.3007  0.5216
 8378SOL    HW136596   3.193   2.608   5.577  1.0111  0.8074  0.7820
 8378SOL    HW236597   3.306   2.545   5.638  0.6607 -0.0348  0.1768
 8379SOL     OW36598   0.294   3.029   5.047  0.6154  0.2974  0.2933
 8379SOL    HW136599   0.327   2.952   5.001 -1.2502  0.0191 -0.5731
 8379SOL    HW236600   0.270   2.997   5.134 -0.0105 -0.3558 -0.1211
 8380SOL     OW36601   0.824   1.092   3.801 -0.4614  0.0784 -0.2756
 8380SOL    HW136602   0.816   1.181   3.837  0.1265 -0.1836  0.5051
 8380SOL    HW236603   0.808   1.105   3.708  1.5154 -0.7217 -0.7261
 8381SOL     OW36604   1.896   0.176   7.719  0.5145 -0.5358 -0.0800
 8381SOL    HW136605   1.941   0.246   7.671  0.0556 -0.3989 -0.3107
 8381SOL    HW236606   1.820   0.163   7.661  1.1943 -0.6241 -0.9571
 8382SOL     OW36607   0.563   0.100   6.080  0.0387  0.3535  0.0467
 8382SOL    HW136608   0.574   0.015   6.122  1.3941  0.5331  0.0370
 8382SOL    HW236609   0.622   0.096   6.005  1.1651 -1.2836  1.0195
 8383SOL     OW36610   2.618   2.754   1.969 -0.4424  0.0369  0.4800
 8383SOL    HW136611   2.663   2.757   2.054 -0.2581  0.2475  0.3747
 8383SOL    HW236612   2.621   2.847   1.948 -1.9505  0.5439  2.4588
 8384SOL     OW36613   1.416   0.709  12.782  0.8172  0.2773 -0.7381
 8384SOL    HW136614   1.476   0.664  12.724 -0.3471 -0.4083 -1.4149
 8384SOL    HW236615   1.410   0.652  12.859  0.9854 -0.6370 -1.4004
 8385SOL     OW36616   2.862   2.488   7.691 -0.3893  0.3259 -0.1484
 8385SOL    HW136617   2.864   2.489   7.787  1.1439  1.3906 -0.1963
 8385SOL    HW236618   2.868   2.581   7.670  1.4945  0.1330 -0.4392
 8386SOL     OW36619   1.657   3.692  17.296 -0.4291 -0.1029  0.5703
 8386SOL    HW136620   1.586   3.644  17.338  2.1287 -0.9128  3.9168
 8386SOL    HW236621   1.709   3.721  17.371  0.9729  2.0673 -1.2208
 8387SOL     OW36622   1.201   0.191  13.084 -0.2310 -0.6736 -0.3943
 8387SOL    HW136623   1.219   0.254  13.154 -1.9476 -1.0641  0.3889
 8387SOL    HW236624   1.251   0.222  13.008 -2.1200 -1.8665 -2.1371
 8388SOL     OW36625   2.104   4.630  11.449 -0.4546 -0.4163 -0.0969
 8388SOL    HW136626   2.053   4.649  11.370  0.3861 -0.2787 -0.6051
 8388SOL    HW236627   2.038   4.585  11.502  1.1117 -0.9443  1.3691
 8389SOL     OW36628   2.886   4.212  12.114  0.7267 -0.1003 -0.5852
 8389SOL    HW136629   2.879   4.124  12.077 -2.8875 -0.6168  1.3692
 8389SOL    HW236630   2.808   4.255  12.078 -1.3424 -2.0808  1.5442
 8390SOL     OW36631   2.467   0.120  12.616 -0.2225  0.3366  0.0924
 8390SOL    HW136632   2.534   0.064  12.577 -0.3416 -0.3600  0.8915
 8390SOL    HW236633   2.400   0.138  12.550 -1.3813 -0.3606  1.0789
 8391SOL     OW36634   0.382   2.747   7.194 -0.6267 -0.1795  0.0736
 8391SOL    HW136635   0.466   2.730   7.235 -0.4970  1.1813  0.3704
 8391SOL    HW236636   0.348   2.658   7.203  0.0662 -0.4584 -0.1045
 8392SOL     OW36637   3.701   4.323   4.059 -0.0018 -0.0661 -0.2019
 8392SOL    HW136638   3.666   4.234   4.061  0.1946 -0.1286  0.4355
 8392SOL    HW236639   3.621   4.372   4.039  0.8388  0.7274 -1.6148
 8393SOL     OW36640   1.178   1.863   8.135  0.6300 -0.2998 -0.2941
 8393SOL    HW136641   1.177   1.958   8.141 -0.7776 -0.1811 -2.7597
 8393SOL    HW236642   1.118   1.847   8.062 -1.6268  0.5410  1.3879
 8394SOL     OW36643   3.078   0.765   2.299  0.6000  0.6792 -0.0243
 8394SOL    HW136644   3.131   0.844   2.296  2.0518 -0.3143 -0.5898
 8394SOL    HW236645   2.995   0.807   2.322 -0.8405 -1.6426 -0.9158
 8395SOL     OW36646   2.469   3.008   0.091  0.0768  0.3878  0.3937
 8395SOL    HW136647   2.438   2.968   0.010 -2.3001 -0.9116  1.9344
 8395SOL    HW236648   2.489   3.094   0.056 -0.3857  0.2537 -0.1974
 8396SOL     OW36649   1.508   3.680  12.642 -0.9772 -0.7668  0.2754
 8396SOL    HW136650   1.470   3.604  12.599 -2.3211  1.8849 -3.2151
 8396SOL    HW236651   1.582   3.676  12.581 -1.9940  0.7302 -1.0404
 8397SOL     OW36652   2.595   0.408   8.853 -0.2322  0.0071  0.0974
 8397SOL    HW136653   2.558   0.478   8.907  0.0299 -0.0212  0.3146
 8397SOL    HW236654   2.546   0.420   8.772 -1.0386 -1.5303  0.3669
 8398SOL     OW36655   3.110   3.758  11.488 -0.1026  0.0852 -0.0653
 8398SOL    HW136656   3.056   3.691  11.531 -2.4311 -0.1357 -3.3520
 8398SOL    HW236657   3.039   3.791  11.432  0.8572  1.1157 -0.6663
 8399SOL     OW36658   2.942   4.017   7.001 -0.2945 -0.5959  0.0326
 8399SOL    HW136659   2.885   3.953   7.044 -1.0772 -0.2583 -0.4926
 8399SOL    HW236660   2.880   4.067   6.948 -0.2788 -0.2310  0.3629
 8400SOL     OW36661   1.141   1.726  10.226 -0.1103  0.2244  0.2060
 8400SOL    HW136662   1.114   1.727  10.134 -0.5326 -0.4246  0.3224
 8400SOL    HW236663   1.228   1.766  10.228 -0.7234  1.5369  0.6480
 8401SOL     OW36664   0.988   3.101  12.565 -0.0834  0.3723 -0.0274
 8401SOL    HW136665   1.048   3.161  12.607  1.8414 -0.0815 -2.1336
 8401SOL    HW236666   0.905   3.146  12.580  0.4041  1.1398  0.3571
 8402SOL     OW36667   0.545   0.328  15.977 -0.1714 -0.0772  0.1755
 8402SOL    HW136668   0.535   0.280  16.059 -1.5272 -2.7161 -1.5188
 8402SOL    HW236669   0.627   0.375  15.993  1.1466 -2.1506 -0.4148
 8403SOL     OW36670   4.465   1.691   4.594 -0.0698  0.7113  0.0397
 8403SOL    HW136671   4.489   1.632   4.523 -0.1419  0.8085 -0.0662
 8403SOL    HW236672   4.557   1.709   4.615  0.3413  0.3439 -1.4851
 8404SOL     OW36673   2.403   2.632   3.489 -0.1709  0.6123 -0.3772
 8404SOL    HW136674   2.462   2.573   3.443  0.1406  0.2279  0.5132
 8404SOL    HW236675   2.321   2.608   3.445 -0.1908  2.4632 -1.3733
 8405SOL     OW36676   3.014   1.000   8.360 -0.5508  0.0670 -0.1411
 8405SOL    HW136677   3.096   1.029   8.399 -0.0557  0.2964 -1.3480
 8405SOL    HW236678   2.963   1.080   8.349  0.9195  1.2314  1.7422
 8406SOL     OW36679   2.772   1.033   2.934 -0.5416 -0.1058 -0.0648
 8406SOL    HW136680   2.738   1.012   3.020  0.6808  0.5348  0.5751
 8406SOL    HW236681   2.800   1.124   2.949  1.3967 -0.9675  1.4987
 8407SOL     OW36682   2.720   0.313   6.099 -0.3155  0.0816 -0.1534
 8407SOL    HW136683   2.741   0.344   6.187  0.3803  0.9487 -0.6235
 8407SOL    HW236684   2.744   0.393   6.053 -0.5975 -0.2519 -0.8741
 8408SOL     OW36685   0.807   3.186   6.776 -0.0552 -0.2491 -0.4827
 8408SOL    HW136686   0.843   3.251   6.836  0.5042  1.1331 -2.3383
 8408SOL    HW236687   0.751   3.232   6.713 -2.8765 -0.1491  2.0928
 8409SOL     OW36688   4.683   4.053  15.978  0.1220 -0.0045 -0.2586
 8409SOL    HW136689   4.677   4.068  15.883  0.5376 -0.6288 -0.3856
 8409SOL    HW236690   0.027   3.986  15.987  0.1550 -0.2246 -2.0738
 8410SOL     OW36691   3.634   1.093   6.495 -0.4874 -0.3212  0.2274
 8410SOL    HW136692   3.548   1.134   6.500  0.3048  1.1896  1.2700
 8410SOL    HW236693   3.611   1.006   6.461 -2.1272  0.8421 -1.5965
 8411SOL     OW36694   1.563   4.229   5.376  0.1208  0.2254  0.1722
 8411SOL    HW136695   1.618   4.248   5.300  0.8743 -2.8502 -0.0647
 8411SOL    HW236696   1.602   4.156   5.425 -1.3339  0.7900  2.1666
 8412SOL     OW36697   1.034   0.750   7.624 -0.2688 -0.0757  0.0742
 8412SOL    HW136698   0.995   0.723   7.707  0.5336 -2.5043 -0.3340
 8412SOL    HW236699   0.978   0.822   7.597 -2.0049 -0.9082  1.4349
 8413SOL     OW36700   2.188   1.929  16.848  0.2954  0.0181 -0.3427
 8413SOL    HW136701   2.097   1.957  16.855  0.1152 -0.1596 -2.1978
 8413SOL    HW236702   2.240   2.006  16.870  1.8293 -1.2194  0.4441
 8414SOL     OW36703   0.514   3.488   8.434 -0.7072  0.0393  0.6384
 8414SOL    HW136704   0.441   3.518   8.380  0.0958 -1.8915 -1.5470
 8414SOL    HW236705   0.556   3.573   8.443 -0.4896  0.0050 -0.0515
 8415SOL     OW36706   2.395   3.798   9.256  0.1577  0.5081 -0.0988
 8415SOL    HW136707   2.463   3.778   9.320 -0.9717  2.9969  1.8762
 8415SOL    HW236708   2.384   3.713   9.214 -1.1351  0.9154 -0.5977
 8416SOL     OW36709   2.094   1.978   4.519 -0.1238  0.2799 -0.6121
 8416SOL    HW136710   2.164   1.964   4.583 -0.7872 -1.8378 -0.3258
 8416SOL    HW236711   2.117   2.059   4.475 -1.3178  0.9434 -0.0215
 8417SOL     OW36712   2.581   1.441  12.823 -0.0860  0.9163 -0.2738
 8417SOL    HW136713   2.671   1.437  12.791  0.4253  4.0238  0.7601
 8417SOL    HW236714   2.537   1.452  12.739 -0.5518  1.4101  0.0333
 8418SOL     OW36715   1.079   0.136   3.137  0.3947 -0.3397 -0.0809
 8418SOL    HW136716   1.070   0.190   3.216 -1.8476  0.7637 -1.0783
 8418SOL    HW236717   0.996   0.088   3.137  1.3598 -2.0061  0.2752
 8419SOL     OW36718   3.938   0.469   3.578 -0.2991  0.1660 -0.9051
 8419SOL    HW136719   3.864   0.447   3.635  1.3452 -0.6988  0.8985
 8419SOL    HW236720   3.902   0.431   3.499 -3.3993  2.2236 -0.4794
 8420SOL     OW36721   3.028   1.172   4.408 -0.2263 -0.1486 -0.3332
 8420SOL    HW136722   3.115   1.209   4.422  0.5392 -1.5128 -1.5122
 8420SOL    HW236723   2.963   1.228   4.451  1.0500  0.7367  0.4452
 8421SOL     OW36724   2.256   1.140   9.474  0.0688  0.7817  0.1946
 8421SOL    HW136725   2.307   1.219   9.492 -1.1464  2.0548 -1.9984
 8421SOL    HW236726   2.220   1.157   9.387  1.7542  0.8432 -0.4891
 8422SOL     OW36727   1.582   4.332   3.614 -0.2885 -0.8638  0.6716
 8422SOL    HW136728   1.627   4.337   3.529 -0.3800 -0.7836  0.6278
 8422SOL    HW236729   1.531   4.252   3.601 -1.5228 -0.0302  0.4112
 8423SOL     OW36730   1.466   0.859  14.687 -0.1798  0.2724 -0.2117
 8423SOL    HW136731   1.379   0.860  14.726 -0.9188  1.0030 -1.8910
 8423SOL    HW236732   1.459   0.803  14.610  0.3091 -0.8329  0.5333
 8424SOL     OW36733   0.733   3.010   1.998  0.1281 -0.3101  0.5238
 8424SOL    HW136734   0.720   2.951   1.923  3.0393 -2.3919  1.6704
 8424SOL    HW236735   0.663   3.072   1.978 -1.3504 -2.2867 -0.4632
 8425SOL     OW36736   4.599   0.861  15.528 -0.0579  0.5664  0.2918
 8425SOL    HW136737   4.649   0.781  15.543 -0.5173 -0.1905 -2.2011
 8425SOL    HW236738   4.618   0.883  15.437 -2.4818 -0.2498 -0.4045
 8426SOL     OW36739   3.683   1.813   2.834  0.2377 -0.9407  0.1871
 8426SOL    HW136740   3.744   1.740   2.843 -1.0849 -1.6373  3.9254
 8426SOL    HW236741   3.643   1.781   2.753  0.3336  2.0691 -1.0603
 8427SOL     OW36742   1.689   1.961   2.340  0.2535  0.8631 -0.2826
 8427SOL    HW136743   1.749   2.035   2.330  1.2089  0.2342  0.6938
 8427SOL    HW236744   1.606   2.005   2.328 -0.7358 -0.4626  1.6866
 8428SOL     OW36745   3.797   4.723  11.552 -0.1623  0.5629 -0.3120
 8428SOL    HW136746   3.715   4.708  11.599  1.0548  1.6398  2.1547
 8428SOL    HW236747   3.815   4.641  11.505  1.7830  0.7709  0.0668
 8429SOL     OW36748   1.139   1.520   4.787 -0.5970  0.3333 -0.0644
 8429SOL    HW136749   1.133   1.615   4.783 -1.6253  0.2846  0.2143
 8429SOL    HW236750   1.048   1.503   4.813  0.6368 -2.2623  2.5180
 8430SOL     OW36751   4.396   0.832   3.799 -0.2164 -0.2429  0.3482
 8430SOL    HW136752   4.310   0.867   3.823  0.1922  2.3836 -1.9545
 8430SOL    HW236753   4.378   0.795   3.713 -0.0643  0.2562  0.1032
 8431SOL     OW36754   3.314   2.108  10.908 -0.3359 -0.0839 -0.3121
 8431SOL    HW136755   3.354   2.160  10.839 -0.7745 -0.4281 -0.8260
 8431SOL    HW236756   3.375   2.142  10.974  1.0759 -2.3967 -0.4435
 8432SOL     OW36757   2.609   3.338   4.142 -0.0944 -0.2340  1.1336
 8432SOL    HW136758   2.690   3.388   4.125 -1.0153  0.6196 -0.7848
 8432SOL    HW236759   2.642   3.250   4.159  1.9919 -0.0059 -1.7591
 8433SOL     OW36760   2.101   0.337   5.907  0.1365 -0.5960 -0.1515
 8433SOL    HW136761   2.148   0.415   5.876  0.3995 -0.9580 -0.6492
 8433SOL    HW236762   2.171   0.289   5.950  1.3742  0.2627 -1.2104
 8434SOL     OW36763   2.805   2.400   8.471  0.5071  0.0144  0.4142
 8434SOL    HW136764   2.859   2.397   8.551 -0.9340  0.1821  1.3950
 8434SOL    HW236765   2.726   2.437   8.511  0.2585  2.5585 -2.4715
 8435SOL     OW36766   0.014   4.277   1.882 -0.5204 -0.1280  0.5896
 8435SOL    HW136767   0.101   4.245   1.858 -0.0009  0.6162  1.4703
 8435SOL    HW236768   4.694   4.205   1.838  0.7292  0.3026 -1.3712
 8436SOL     OW36769   0.998   1.896  12.970  0.1512  0.0043 -0.6223
 8436SOL    HW136770   0.986   1.804  12.947 -1.6692  0.6015 -2.0589
 8436SOL    HW236771   0.908   1.929  12.965 -0.6359 -1.9932  0.4825
 8437SOL     OW36772   1.165   3.411   8.504 -0.5408  0.4533  0.0786
 8437SOL    HW136773   1.165   3.316   8.489 -0.7736  0.2138  1.5618
 8437SOL    HW236774   1.255   3.424   8.534 -0.8382 -0.0068  1.1435
 8438SOL     OW36775   0.253   3.727   3.008 -0.5009  0.2459 -0.4071
 8438SOL    HW136776   0.234   3.671   2.933 -0.7106 -0.0500 -0.1314
 8438SOL    HW236777   0.348   3.717   3.014 -0.6956 -1.2681  0.0702
 8439SOL     OW36778   0.565   0.329   8.014 -0.0867  0.1570 -0.5838
 8439SOL    HW136779   0.478   0.367   8.025  0.2027  0.2219  1.4950
 8439SOL    HW236780   0.547   0.238   7.990 -0.8755 -0.0973  0.9547
 8440SOL     OW36781   2.863   4.491   3.979  0.2569 -0.6066  0.6776
 8440SOL    HW136782   2.834   4.531   3.897  1.4944 -1.7448 -0.3226
 8440SOL    HW236783   2.862   4.575   4.025  0.8883  0.6045 -1.4966
 8441SOL     OW36784   1.720   4.556   0.029 -0.3606 -0.5678  0.4459
 8441SOL    HW136785   1.788   4.579   0.092  0.3987 -1.3783 -0.0847
 8441SOL    HW236786   1.719   4.639  17.678 -1.0111 -0.5044  0.5767
 8442SOL     OW36787   2.981   3.791  10.077 -0.1207  0.1932  0.1000
 8442SOL    HW136788   2.933   3.743  10.144 -0.9105  0.5613 -0.1976
 8442SOL    HW236789   3.035   3.725  10.035 -0.5505  0.5993 -1.1081
 8443SOL     OW36790   1.152   1.642  17.693  0.3237 -0.7129 -0.4434
 8443SOL    HW136791   1.094   1.604  17.628 -1.2158 -0.5709  0.8441
 8443SOL    HW236792   1.091   1.697   0.046 -0.3431 -2.7859  1.0635
 8444SOL     OW36793   3.695   1.129   2.537  0.1114  0.8864  0.3473
 8444SOL    HW136794   3.790   1.129   2.530  0.0388 -0.5660 -0.5970
 8444SOL    HW236795   3.672   1.172   2.455  3.1393 -1.0800 -1.5177
 8445SOL     OW36796   3.231   1.413   7.838 -0.1841  0.2975  0.1459
 8445SOL    HW136797   3.199   1.408   7.928 -0.2212 -1.7520  0.0203
 8445SOL    HW236798   3.316   1.456   7.848  1.7013 -2.7786 -2.6741
 8446SOL     OW36799   2.644   4.414   9.297  0.3535  0.0162 -0.1797
 8446SOL    HW136800   2.736   4.395   9.313  0.0303  0.2178  1.8131
 8446SOL    HW236801   2.608   4.327   9.281 -0.5324  0.6449 -1.6633
 8447SOL     OW36802   2.970   1.000   8.691  0.3559 -0.6768  0.0593
 8447SOL    HW136803   3.044   0.987   8.630  0.2896  1.3416 -0.4634
 8447SOL    HW236804   2.994   1.089   8.717  1.0032 -0.5993 -0.7820
 8448SOL     OW36805   4.382   3.565   0.081  0.2334 -0.5939  0.1517
 8448SOL    HW136806   4.347   3.487   0.125 -1.6819  0.3822  0.3535
 8448SOL    HW236807   4.375   3.542  17.684  0.2343  2.7588 -0.6557
 8449SOL     OW36808   3.461   3.667  16.032 -0.0642  0.3005  0.9619
 8449SOL    HW136809   3.493   3.622  15.954  0.5734  2.6284 -0.1309
 8449SOL    HW236810   3.542   3.705  16.064 -1.2449  3.9763 -0.4387
 8450SOL     OW36811   0.032   0.618   7.440 -0.5634  0.5429 -0.2785
 8450SOL    HW136812   4.699   0.642   7.514 -0.1928  2.7675 -0.7185
 8450SOL    HW236813   4.707   0.670   7.377  0.9895  0.6645 -1.3738
 8451SOL     OW36814   3.811   0.433   6.043 -0.3624 -0.0183 -0.1922
 8451SOL    HW136815   3.801   0.475   6.129  1.5596 -0.5498  0.2933
 8451SOL    HW236816   3.739   0.470   5.993 -0.9648  0.5927  1.1243
 8452SOL     OW36817   4.519   0.717   1.837  0.4778 -0.2170  0.1136
 8452SOL    HW136818   4.485   0.661   1.767 -2.6554  1.1049  0.5775
 8452SOL    HW236819   4.489   0.797   1.793 -1.5696 -2.4847 -2.6672
 8453SOL     OW36820   3.716   3.404   7.079 -0.2921 -0.4438 -0.5665
 8453SOL    HW136821   3.784   3.386   7.014 -1.0153 -0.9243 -1.1811
 8453SOL    HW236822   3.725   3.338   7.147  1.3625  0.8374  0.4897
 8454SOL     OW36823   3.807   2.662   2.793  0.4681  0.0875 -0.1439
 8454SOL    HW136824   3.894   2.700   2.780  1.7684 -2.5723  0.7637
 8454SOL    HW236825   3.826   2.568   2.797  0.6317  0.1322  0.1113
 8455SOL     OW36826   2.840   0.244  13.219  0.6530  0.1137 -0.3266
 8455SOL    HW136827   2.891   0.192  13.281  0.1585  0.1586  0.1106
 8455SOL    HW236828   2.862   0.333  13.246  1.0926  0.1625 -0.8351
 8456SOL     OW36829   0.191   0.080  12.571 -0.1177 -0.1497 -0.2529
 8456SOL    HW136830   0.221   0.008  12.627 -0.2709 -1.2655 -1.6083
 8456SOL    HW236831   0.127   0.126  12.624  0.6450 -0.1176  0.6341
 8457SOL     OW36832   2.522   1.805   4.853  0.0408 -0.4495  0.4115
 8457SOL    HW136833   2.594   1.867   4.867  0.2903 -0.8542  0.9523
 8457SOL    HW236834   2.472   1.819   4.934 -0.7551  1.7147 -0.4496
 8458SOL     OW36835   1.263   4.180  13.426  0.4592 -0.2422 -0.2766
 8458SOL    HW136836   1.239   4.089  13.443 -1.2606  0.3934  0.6077
 8458SOL    HW236837   1.180   4.223  13.446  0.8039  0.1777  0.2487
 8459SOL     OW36838   3.750   0.363  12.492 -0.4492  0.2836 -0.1337
 8459SOL    HW136839   3.717   0.274  12.483  0.5032 -0.0596 -0.2601
 8459SOL    HW236840   3.736   0.379  12.586 -0.6202 -0.4773 -0.0347
 8460SOL     OW36841   4.694   1.839   5.346 -0.7559  0.6419  0.3129
 8460SOL    HW136842   4.647   1.922   5.351  0.1009  1.1841 -0.6168
 8460SOL    HW236843   4.693   1.821   5.252 -3.3694  1.2602  0.2249
 8461SOL     OW36844   1.948   2.251   5.580 -1.0236  0.3880 -0.7825
 8461SOL    HW136845   1.884   2.302   5.530 -2.6994 -0.7286  0.2209
 8461SOL    HW236846   1.885   2.199   5.629 -0.0458 -1.3761 -1.4042
 8462SOL     OW36847   2.174   0.567   5.267 -0.1600  0.6004  0.2518
 8462SOL    HW136848   2.252   0.619   5.280  1.2980 -1.1628 -1.3867
 8462SOL    HW236849   2.202   0.477   5.285  0.1979  0.9748  1.5214
 8463SOL     OW36850   4.674   1.424   7.775 -0.5313  0.4773 -0.6690
 8463SOL    HW136851   4.665   1.340   7.730  1.1039 -0.7901  1.3698
 8463SOL    HW236852   4.601   1.471   7.736 -0.4327 -0.3125 -1.8152
 8464SOL     OW36853   1.850   0.860  13.481  0.0485 -0.3417 -0.3040
 8464SOL    HW136854   1.817   0.915  13.552 -0.1531 -0.6417 -0.1604
 8464SOL    HW236855   1.892   0.926  13.426 -0.2107  0.9188  1.0085
 8465SOL     OW36856   1.708   0.079  17.635  0.2067 -0.1337 -0.2641
 8465SOL    HW136857   1.739   0.152  17.582 -1.8372 -1.2806 -3.0182
 8465SOL    HW236858   1.624   0.116  17.664 -0.2779 -0.8684 -0.7428
 8466SOL     OW36859   3.085   4.379  15.644 -0.2842  0.2541  0.0274
 8466SOL    HW136860   3.150   4.380  15.714  0.5506 -0.6868 -0.7156
 8466SOL    HW236861   3.021   4.311  15.663  0.8079 -1.0069 -0.7633
 8467SOL     OW36862   0.371   4.586   3.995 -0.1680 -0.3913 -0.3080
 8467SOL    HW136863   0.380   4.646   4.069  2.0858  0.4856 -1.3039
 8467SOL    HW236864   0.296   4.533   4.021  0.8744 -1.6115  0.2514
 8468SOL     OW36865   4.621   0.280   1.659 -0.2681 -0.0212 -0.3108
 8468SOL    HW136866   4.711   0.250   1.670 -0.2317  0.5894  1.1197
 8468SOL    HW236867   4.570   0.220   1.715 -1.0620  0.0555 -0.9452
 8469SOL     OW36868   0.429   0.991   8.905 -0.7315 -0.2914 -0.0259
 8469SOL    HW136869   0.371   0.982   8.829 -0.5701 -1.2498 -0.0320
 8469SOL    HW236870   0.386   0.938   8.971 -0.3429 -0.0963  0.3866
 8470SOL     OW36871   1.104   1.252   4.284  0.3838  0.0879 -0.0308
 8470SOL    HW136872   1.127   1.200   4.206 -0.2356  0.2494 -0.3223
 8470SOL    HW236873   1.013   1.233   4.307 -0.8940  1.7012 -3.6539
 8471SOL     OW36874   2.815   0.185   0.106  0.3293  0.3690 -0.0581
 8471SOL    HW136875   2.765   0.263   0.128 -1.5607 -0.7343 -0.4224
 8471SOL    HW236876   2.755   0.156   0.037  2.1909 -1.2287 -1.0127
 8472SOL     OW36877   4.687   3.548  17.272  0.8727  0.2421  0.2149
 8472SOL    HW136878   4.599   3.584  17.260  0.9349  0.1933 -0.3532
 8472SOL    HW236879   0.014   3.612  17.221  0.3008  0.4874 -0.0462
 8473SOL     OW36880   2.893   1.749   2.572 -0.9381  0.3633  0.1741
 8473SOL    HW136881   2.802   1.754   2.543 -1.3892 -0.6655  1.4281
 8473SOL    HW236882   2.927   1.803   2.501 -1.1542  3.6364  2.5398
 8474SOL     OW36883   0.044   1.244   4.028 -0.3578 -0.3961  0.5445
 8474SOL    HW136884   0.120   1.302   4.027 -0.4218 -0.3392 -0.8560
 8474SOL    HW236885   0.021   1.234   3.936  0.3952 -1.9272  0.5125
 8475SOL     OW36886   2.591   1.554   5.097 -0.4520 -0.1552 -0.4383
 8475SOL    HW136887   2.565   1.618   5.031  0.3961 -0.4442 -1.0541
 8475SOL    HW236888   2.546   1.474   5.070 -0.1212  0.4013 -2.6349
 8476SOL     OW36889   2.338   3.085  10.068 -0.3362  0.4371 -0.1210
 8476SOL    HW136890   2.396   3.154  10.036 -0.2052  0.4920  0.2342
 8476SOL    HW236891   2.336   3.109  10.161 -0.4238  2.2279 -0.5864
 8477SOL     OW36892   3.336   1.109  11.658  0.6769 -0.9285 -0.1523
 8477SOL    HW136893   3.352   1.056  11.736  1.3670  1.3190  1.2464
 8477SOL    HW236894   3.240   1.110  11.655  0.7313  2.1872 -0.6940
 8478SOL     OW36895   4.675   3.799   1.216  0.2739  0.3990  0.5146
 8478SOL    HW136896   0.002   3.826   1.139 -0.6358 -2.5254 -1.0963
 8478SOL    HW236897   4.710   3.712   1.234 -0.7877 -0.1755 -0.1813
 8479SOL     OW36898   3.883   3.664   3.045  0.6907  0.4342 -0.4932
 8479SOL    HW136899   3.865   3.754   3.018  0.3615  0.7520  0.7972
 8479SOL    HW236900   3.886   3.620   2.960 -1.2554  0.5638 -0.6379
 8480SOL     OW36901   1.673   1.660   1.990 -0.2989  0.2103  0.3389
 8480SOL    HW136902   1.694   1.632   1.901  1.0927 -0.9700  1.0544
 8480SOL    HW236903   1.735   1.731   2.004 -0.2715  0.2436  0.0555
 8481SOL     OW36904   2.017   2.210   7.193 -0.5487 -0.4970  0.7030
 8481SOL    HW136905   2.016   2.165   7.109  2.6039 -1.1090  1.0192
 8481SOL    HW236906   2.084   2.274   7.168 -2.2140  1.7892  2.0579
 8482SOL     OW36907   0.242   4.359   0.201  0.0429 -0.4606 -0.0386
 8482SOL    HW136908   0.304   4.369   0.128 -2.1501  2.6141 -1.4722
 8482SOL    HW236909   0.217   4.269   0.180  0.0140 -0.1376 -1.3988
 8483SOL     OW36910   1.191   4.158   7.009  0.4291 -0.1746  0.4250
 8483SOL    HW136911   1.186   4.241   6.962 -0.9246 -1.0163 -0.9164
 8483SOL    HW236912   1.144   4.175   7.091  0.7932  0.0132  0.5942
 8484SOL     OW36913   4.460   3.668   6.993  0.0903 -0.8210 -0.7085
 8484SOL    HW136914   4.463   3.635   6.903 -0.3555 -1.4558 -0.4915
 8484SOL    HW236915   4.537   3.621   7.025  1.5432  2.4645  0.5352
 8485SOL     OW36916   0.227   0.375   7.628 -0.5860  0.4099 -0.3709
 8485SOL    HW136917   0.295   0.308   7.634 -0.0535  1.0381  0.5957
 8485SOL    HW236918   0.162   0.350   7.694  0.5744  3.4573  1.9312
 8486SOL     OW36919   3.195   1.720   8.095  0.2294  0.2155 -0.1648
 8486SOL    HW136920   3.227   1.801   8.135 -0.8968  1.2333 -1.3177
 8486SOL    HW236921   3.272   1.667   8.077 -0.8354 -1.3460 -0.1031
 8487SOL     OW36922   0.760   3.038   0.298 -0.7319  0.4809  0.2108
 8487SOL    HW136923   0.768   2.944   0.313  2.2312  0.5570 -0.8437
 8487SOL    HW236924   0.765   3.037   0.202 -1.2269 -2.3098  0.2197
 8488SOL     OW36925   3.677   4.591   2.961 -0.1409 -0.0562  0.3326
 8488SOL    HW136926   3.679   4.538   2.882 -0.0047  0.6065 -0.1061
 8488SOL    HW236927   3.743   4.658   2.942 -1.2114  1.0416  0.4919
 8489SOL     OW36928   0.678   4.330  16.340 -0.4634 -0.1685 -0.3832
 8489SOL    HW136929   0.725   4.386  16.278 -0.0872 -0.1048 -0.0433
 8489SOL    HW236930   0.706   4.241  16.317 -1.4853 -0.9171  1.2709
 8490SOL     OW36931   4.341   3.100   7.197  1.0801 -0.3966  0.5626
 8490SOL    HW136932   4.352   3.150   7.279  0.5366 -2.2597  1.7710
 8490SOL    HW236933   4.258   3.146   7.181  0.1801 -2.2163  0.0385
 8491SOL     OW36934   0.806   0.479   1.063 -0.2454  0.3612 -0.2784
 8491SOL    HW136935   0.840   0.538   1.131 -0.4413  0.5168 -0.3156
 8491SOL    HW236936   0.747   0.542   1.021  0.9006  1.7043  0.1165
 8492SOL     OW36937   3.413   3.484  15.610  0.1846 -0.0220  0.7662
 8492SOL    HW136938   3.465   3.517  15.683  0.9672 -0.0950  0.2396
 8492SOL    HW236939   3.457   3.535  15.542 -1.0638 -2.4957 -1.9422
 8493SOL     OW36940   0.174   2.852   4.676  0.1322  0.2578  0.0184
 8493SOL    HW136941   0.253   2.836   4.624  0.8890 -1.5246  1.7003
 8493SOL    HW236942   0.212   2.878   4.759  1.6352  2.5120 -1.3848
 8494SOL     OW36943   3.489   2.509  11.025 -0.2684 -0.0260 -0.1430
 8494SOL    HW136944   3.523   2.552  10.947 -2.0846  0.7286 -0.5001
 8494SOL    HW236945   3.434   2.577  11.063 -0.8596 -1.7340  2.0861
 8495SOL     OW36946   0.849   0.819   3.780  0.2482 -0.4696  0.2339
 8495SOL    HW136947   0.939   0.823   3.813  0.2501 -1.4991  0.3621
 8495SOL    HW236948   0.843   0.913   3.764  0.0203 -1.0049 -2.8324
 8496SOL     OW36949   2.585   1.216   7.635 -0.0421  0.4708  0.2960
 8496SOL    HW136950   2.599   1.231   7.729  0.2480 -0.6380  0.4382
 8496SOL    HW236951   2.629   1.295   7.604  1.0531 -0.1787  0.1951
 8497SOL     OW36952   1.442   4.565  10.124 -0.3175  0.3027 -0.5063
 8497SOL    HW136953   1.439   4.540  10.216 -2.2760  0.1107 -0.6211
 8497SOL    HW236954   1.512   4.503  10.103 -0.7095 -0.1204 -0.5572
 8498SOL     OW36955   2.078   3.509   2.632  0.0673  0.4675 -0.3622
 8498SOL    HW136956   2.004   3.465   2.590  0.3309 -0.6559  0.3485
 8498SOL    HW236957   2.042   3.597   2.622 -1.9191 -0.2327  0.5120
 8499SOL     OW36958   0.760   1.047   2.087  0.6615  0.1245  0.0914
 8499SOL    HW136959   0.821   1.121   2.092 -0.8406  1.2430  2.0101
 8499SOL    HW236960   0.795   0.996   2.160  1.8377 -0.3756 -0.8234
 8500SOL     OW36961   2.080   0.051   0.466 -0.1196 -0.2897  0.4133
 8500SOL    HW136962   1.998   0.028   0.509 -0.6012 -0.2122 -0.4503
 8500SOL    HW236963   2.095   4.695   0.416 -2.4134 -0.6587  0.2978
 8501SOL     OW36964   2.676   2.421  10.021 -0.2699 -0.5085  0.1397
 8501SOL    HW136965   2.665   2.374  10.103  2.5055 -1.1531  0.1435
 8501SOL    HW236966   2.739   2.487  10.048  0.4256 -1.2957  0.4185
 8502SOL     OW36967   3.133   2.838  10.696  0.5013  0.3322  0.1931
 8502SOL    HW136968   3.179   2.855  10.613 -0.4862 -1.1204 -0.6602
 8502SOL    HW236969   3.124   2.929  10.726 -1.1702 -0.3716  1.7970
 8503SOL     OW36970   4.275   2.594  10.958 -1.1237  0.1104 -0.0753
 8503SOL    HW136971   4.292   2.572  11.049  0.2963  0.4241 -0.2605
 8503SOL    HW236972   4.269   2.689  10.957  0.9218  0.2331 -1.8023
 8504SOL     OW36973   2.729   3.363   6.779 -0.2175  0.0379  0.6578
 8504SOL    HW136974   2.772   3.321   6.705 -2.0761 -1.2612  0.3126
 8504SOL    HW236975   2.774   3.319   6.852  0.2415 -1.6777 -0.6628
 8505SOL     OW36976   0.846   4.011  12.554 -0.0519  0.2363  0.1045
 8505SOL    HW136977   0.871   4.005  12.646 -0.8722  0.3913  0.3306
 8505SOL    HW236978   0.905   3.947  12.513 -0.4197  0.3240 -0.5512
 8506SOL     OW36979   3.090   2.997   9.782  0.5051 -0.7638  0.3594
 8506SOL    HW136980   3.159   3.044   9.735  0.9906 -1.1741  0.6638
 8506SOL    HW236981   3.061   2.944   9.707 -2.4876 -1.5397  2.0625
 8507SOL     OW36982   2.466   3.317   9.938  0.2758 -0.2185 -0.1535
 8507SOL    HW136983   2.450   3.302   9.844  2.5242 -3.5115  0.0143
 8507SOL    HW236984   2.494   3.408   9.927  1.8568 -1.0951 -3.3867
 8508SOL     OW36985   2.463   1.584   4.711  0.2155 -0.3231  0.0046
 8508SOL    HW136986   2.485   1.613   4.623 -1.4346 -1.9731 -0.9515
 8508SOL    HW236987   2.484   1.665   4.757  1.6911 -0.1920 -0.8888
 8509SOL     OW36988   3.552   2.853   6.291  0.0233  0.1917  0.5495
 8509SOL    HW136989   3.586   2.832   6.204  0.0902 -0.2975  0.6906
 8509SOL    HW236990   3.514   2.935   6.262 -0.0769  0.7230  2.1920
 8510SOL     OW36991   2.629   2.046  12.131  0.2261 -0.0907  0.0936
 8510SOL    HW136992   2.698   2.051  12.196 -0.3658  1.6669  0.5920
 8510SOL    HW236993   2.667   2.103  12.064  0.3911  0.5359  0.7179
 8511SOL     OW36994   0.617   0.159   5.398 -0.1098  0.2654 -0.3444
 8511SOL    HW136995   0.688   0.193   5.344 -0.5027  1.2687 -0.2207
 8511SOL    HW236996   0.662   0.103   5.462 -3.0180 -1.6149  0.0698
 8512SOL     OW36997   4.111   1.566   8.558 -0.3091  0.3569 -0.2687
 8512SOL    HW136998   4.090   1.516   8.637  1.1803  0.0153 -0.0925
 8512SOL    HW236999   4.029   1.608   8.531 -2.1004 -1.6992  1.9363
 8513SOL     OW37000   4.152   0.035   2.329 -0.3531  0.0979 -0.2663
 8513SOL    HW137001   4.188   0.008   2.414  0.8241 -2.0354 -1.4501
 8513SOL    HW237002   4.083   4.694   2.318 -0.5837  0.2967 -0.0051
 8514SOL     OW37003   3.760   3.053  15.626  0.0332  0.0913 -0.0376
 8514SOL    HW137004   3.763   2.962  15.598  2.4077 -0.5075  2.1574
 8514SOL    HW237005   3.668   3.068  15.645 -0.3677  2.2503 -3.6614
 8515SOL     OW37006   1.907   0.706  11.717  0.2536 -0.5927  0.1499
 8515SOL    HW137007   1.869   0.701  11.630  0.2891 -0.2737  0.1194
 8515SOL    HW237008   1.868   0.789  11.745  2.4506  0.4038  0.2474
 8516SOL     OW37009   0.642   4.114  11.906 -0.1723  0.1699  0.6085
 8516SOL    HW137010   0.626   4.204  11.935 -0.3455  0.3141  0.0542
 8516SOL    HW237011   0.671   4.089  11.994  0.9479  1.0555  0.4883
 8517SOL     OW37012   0.932   0.776  11.373 -0.2997 -0.4695  0.5786
 8517SOL    HW137013   0.908   0.867  11.356  0.2784 -0.3187  0.5835
 8517SOL    HW237014   1.023   0.772  11.344 -0.8616 -1.9228 -0.9524
 8518SOL     OW37015   3.891   3.785   9.396  0.2117  0.0402 -0.2382
 8518SOL    HW137016   3.928   3.702   9.426 -0.3477  0.7379  2.3784
 8518SOL    HW237017   3.896   3.825   9.483 -0.6944 -1.5613  0.5446
 8519SOL     OW37018   2.572   2.143   9.400  0.6135 -0.1327 -0.2535
 8519SOL    HW137019   2.511   2.145   9.474  1.1185 -0.6199  0.1828
 8519SOL    HW237020   2.642   2.204   9.424  1.1861 -1.1185  0.6405
 8520SOL     OW37021   3.977   1.105   8.730  0.0524 -0.1402  0.2928
 8520SOL    HW137022   3.999   1.042   8.799 -1.8735 -0.8348  0.2647
 8520SOL    HW237023   4.031   1.080   8.655 -0.7448 -0.5311 -0.1446
 8521SOL     OW37024   0.996   0.831   1.474 -0.6665 -0.0625  0.0377
 8521SOL    HW137025   0.962   0.842   1.385  0.0488 -0.9754 -0.3476
 8521SOL    HW237026   1.086   0.800   1.462 -0.6465  0.2890 -0.7260
 8522SOL     OW37027   3.257   0.357   2.432  0.2677  0.3516 -0.0406
 8522SOL    HW137028   3.249   0.453   2.433 -0.7264  0.2412  1.6188
 8522SOL    HW237029   3.252   0.348   2.337 -0.5232  0.3906  0.0011
 8523SOL     OW37030   3.470   0.489   2.927 -0.5088 -0.6932 -0.7807
 8523SOL    HW137031   3.384   0.528   2.911  0.0225  1.2130  0.9742
 8523SOL    HW237032   3.458   0.403   2.966  0.8285 -0.4487  0.1856
 8524SOL     OW37033   1.316   3.678   8.661  0.2031 -0.4613 -0.0481
 8524SOL    HW137034   1.377   3.729   8.607  0.1597  1.0018  1.3165
 8524SOL    HW237035   1.329   3.591   8.622 -1.3557 -1.1458  0.9556
 8525SOL     OW37036   0.178   4.669  10.776  0.5065  0.2913  0.3347
 8525SOL    HW137037   0.220   0.029  10.755  1.8578 -0.2037  1.0483
 8525SOL    HW237038   0.132   4.708  10.850  1.6336  2.2705 -0.0182
 8526SOL     OW37039   4.723   1.725   4.688  0.4379  0.9552 -0.3112
 8526SOL    HW137040   0.080   1.707   4.641 -1.0651  2.3277 -3.4049
 8526SOL    HW237041   0.022   1.727   4.781  2.0334 -0.4940 -0.6813
 8527SOL     OW37042   0.152   4.075   5.788 -0.2036 -0.1537  0.1841
 8527SOL    HW137043   0.210   4.033   5.725  0.3838  2.3016 -0.9156
 8527SOL    HW237044   0.105   4.130   5.725  1.0232 -1.1092 -1.5463
 8528SOL     OW37045   3.031   0.995   1.086 -0.1878 -0.6910  0.3140
 8528SOL    HW137046   3.070   0.922   1.038  0.7988  1.9347 -2.9390
 8528SOL    HW237047   2.959   1.017   1.027  1.2107 -0.1207 -1.1805
 8529SOL     OW37048   0.638   4.457   3.591 -0.9764  0.3170  0.0691
 8529SOL    HW137049   0.685   4.422   3.667 -0.5396  1.4169  0.3077
 8529SOL    HW237050   0.554   4.489   3.623 -0.4233  0.1844  1.6460
 8530SOL     OW37051   3.694   1.100   6.809 -0.0561  0.1754 -0.4347
 8530SOL    HW137052   3.604   1.133   6.809  0.2023  0.8721 -0.6007
 8530SOL    HW237053   3.675   1.006   6.806 -0.9949  0.3960 -1.4118
 8531SOL     OW37054   0.780   3.023   4.094 -0.2686  0.2511  0.5922
 8531SOL    HW137055   0.746   3.051   4.009  0.5864  3.5844  1.3755
 8531SOL    HW237056   0.805   3.113   4.113  0.3797  0.6880 -2.2549
 8532SOL     OW37057   3.013   4.306   0.292  0.3036  0.0895  0.1000
 8532SOL    HW137058   2.922   4.328   0.312  0.1118  0.6535 -1.3446
 8532SOL    HW237059   3.026   4.317   0.197 -0.1955 -0.9500 -0.0924
 8533SOL     OW37060   4.349   2.820   4.385  0.0458 -0.1099  0.1701
 8533SOL    HW137061   4.346   2.724   4.384 -1.3383 -0.0617  0.2167
 8533SOL    HW237062   4.401   2.830   4.305 -1.5118  0.9825 -0.7088
 8534SOL     OW37063   2.990   3.967   0.949  0.1594 -0.1699  0.0285
 8534SOL    HW137064   2.933   4.030   0.906 -0.2292 -2.1010 -2.2957
 8534SOL    HW237065   2.980   3.903   0.878 -0.0929  0.4994 -0.5348
 8535SOL     OW37066   0.955   1.235   9.353 -0.1878 -0.1674  0.6613
 8535SOL    HW137067   0.880   1.231   9.413 -0.7898  0.1974 -0.0650
 8535SOL    HW237068   1.032   1.205   9.401 -1.5593 -0.9108  2.3994
 8536SOL     OW37069   1.896   0.655   6.696  0.4829  0.1443  0.4009
 8536SOL    HW137070   1.885   0.597   6.772  0.1605 -1.0646 -0.5647
 8536SOL    HW237071   1.842   0.609   6.632  1.5476 -1.7601  0.8598
 8537SOL     OW37072   4.048   2.992  17.014 -0.4947  0.0470  0.3679
 8537SOL    HW137073   3.954   3.003  17.021 -1.0513 -3.6473 -1.4802
 8537SOL    HW237074   4.076   2.954  17.098 -0.1134 -0.1598  0.1511
 8538SOL     OW37075   2.682   2.702   0.606 -0.2206 -0.1463  0.4988
 8538SOL    HW137076   2.602   2.737   0.645 -0.1529  0.7818 -0.2136
 8538SOL    HW237077   2.721   2.770   0.551 -1.9626 -0.1663 -0.7501
 8539SOL     OW37078   0.699   1.068   8.928 -0.3146  0.1809 -0.0520
 8539SOL    HW137079   0.709   1.086   9.021  1.6587 -3.5408  0.4226
 8539SOL    HW237080   0.604   1.059   8.923 -0.1283 -1.9946  0.5931
 8540SOL     OW37081   3.981   3.348   4.313 -0.1734 -0.0959  0.4407
 8540SOL    HW137082   3.927   3.398   4.252  2.8804  0.3675 -1.8966
 8540SOL    HW237083   4.061   3.332   4.263 -0.7808  0.8785 -0.8403
 8541SOL     OW37084   2.982   1.608   8.247  0.0619 -0.0802 -0.1143
 8541SOL    HW137085   3.027   1.647   8.172 -0.4697  0.5349 -0.1194
 8541SOL    HW237086   2.944   1.524   8.221  2.0338 -1.4180  1.3809
 8542SOL     OW37087   0.064   1.043   0.265 -0.8893 -0.4127 -0.2477
 8542SOL    HW137088   0.121   1.046   0.188  1.8042 -4.0418  1.5686
 8542SOL    HW237089   4.707   1.060   0.217 -2.3408 -1.4461  1.8048
 8543SOL     OW37090   1.880   3.945   3.968  0.3943 -0.2332 -0.5058
 8543SOL    HW137091   1.912   3.974   4.053 -0.4275  1.8606 -0.9256
 8543SOL    HW237092   1.955   3.906   3.922 -0.4614  0.1228 -2.2098
 8544SOL     OW37093   2.620   1.345  17.461 -0.0450  0.3853 -0.2689
 8544SOL    HW137094   2.699   1.297  17.438 -0.1677  0.6650 -1.2463
 8544SOL    HW237095   2.549   1.301  17.414  0.4769  0.3827 -1.0498
 8545SOL     OW37096   0.814   4.215   3.024  0.0244 -0.7078 -0.1861
 8545SOL    HW137097   0.776   4.210   2.937  2.0387  0.8844 -1.1554
 8545SOL    HW237098   0.793   4.301   3.060  0.0230 -0.1696 -1.5084
 8546SOL     OW37099   0.712   2.411  16.548 -0.3409  0.4672  0.7691
 8546SOL    HW137100   0.790   2.465  16.557 -0.2868  1.0208 -2.9175
 8546SOL    HW237101   0.698   2.422  16.454  1.2966 -0.0429  0.4718
 8547SOL     OW37102   4.071   0.814   8.674  0.8122  0.2791 -0.3387
 8547SOL    HW137103   4.099   0.856   8.755 -0.0699  0.1926  0.0066
 8547SOL    HW237104   3.976   0.814   8.683  0.9048  1.5999  0.7437
 8548SOL     OW37105   1.127   0.854  11.021  0.6788 -0.4143 -0.9964
 8548SOL    HW137106   1.200   0.793  11.034  1.3786  0.7402  0.5151
 8548SOL    HW237107   1.053   0.797  11.042  0.4978 -0.5406 -1.9921
 8549SOL     OW37108   0.505   4.496   5.398  0.5641  0.3032  0.5121
 8549SOL    HW137109   0.444   4.475   5.468  0.0481 -2.6199 -0.8547
 8549SOL    HW237110   0.450   4.544   5.336  0.0811  1.4954  1.8464
 8550SOL     OW37111   3.022   1.357  15.714  0.1251 -0.1165  0.1192
 8550SOL    HW137112   2.934   1.375  15.747  0.2174 -0.7451  0.7097
 8550SOL    HW237113   3.055   1.446  15.722  0.0349 -0.0862  0.1524
 8551SOL     OW37114   3.688   1.578   0.024 -0.0252  0.2058  0.5534
 8551SOL    HW137115   3.689   1.485   0.002  0.6491  0.1807  0.7109
 8551SOL    HW237116   3.650   1.609  17.638 -0.4461  1.2752  1.1482
 8552SOL     OW37117   1.712   1.891   4.138  0.3748  0.6876 -0.0319
 8552SOL    HW137118   1.728   1.948   4.063  1.1845  0.6952  0.1547
 8552SOL    HW237119   1.764   1.931   4.207  1.6796 -1.3842  0.1871
 8553SOL     OW37120   4.302   0.587   3.338  0.6340  0.6136 -0.2233
 8553SOL    HW137121   4.232   0.595   3.273 -0.5595  0.9609  1.1074
 8553SOL    HW237122   4.321   0.493   3.340 -2.2851  0.0060 -0.7908
 8554SOL     OW37123   4.653   1.555   1.906 -0.0867  0.0969 -0.3049
 8554SOL    HW137124   4.677   1.618   1.974  2.0640 -1.0198 -0.0620
 8554SOL    HW237125   4.559   1.576   1.905 -0.1916 -0.3427  0.4434
 8555SOL     OW37126   3.429   1.416  13.657  0.4077  0.0841  0.2628
 8555SOL    HW137127   3.521   1.433  13.638 -0.0865  0.2828 -1.9116
 8555SOL    HW237128   3.411   1.475  13.730  4.4615 -0.2467  1.5206
 8556SOL     OW37129   1.412   1.863   2.902  0.5000  0.4619  0.1106
 8556SOL    HW137130   1.362   1.848   2.982 -1.4997  1.9492 -0.8677
 8556SOL    HW237131   1.356   1.816   2.840 -0.4507  0.9891  0.5903
 8557SOL     OW37132   0.236   2.068   7.760  0.3205 -0.4260  0.2600
 8557SOL    HW137133   0.287   2.008   7.705 -0.3183 -0.0443 -0.7559
 8557SOL    HW237134   0.149   2.037   7.736  0.8281 -0.6358 -1.3053
 8558SOL     OW37135   3.729   3.560  10.964 -0.0642 -0.6186 -0.7926
 8558SOL    HW137136   3.663   3.499  10.998 -1.9414  1.9643  0.1363
 8558SOL    HW237137   3.704   3.637  11.014  2.8620 -0.2558  0.1414
 8559SOL     OW37138   2.620   2.458   2.948 -0.3669 -0.1361 -0.6275
 8559SOL    HW137139   2.669   2.529   2.990  0.3340 -1.3599  0.5974
 8559SOL    HW237140   2.587   2.508   2.872 -0.4385  0.7634 -0.0052
 8560SOL     OW37141   2.386   1.711   8.972 -0.3215  0.0926  0.3097
 8560SOL    HW137142   2.393   1.804   8.953 -1.1240  0.0353 -0.2571
 8560SOL    HW237143   2.311   1.713   9.030 -0.0544 -0.2575  0.6696
 8561SOL     OW37144   1.565   4.522   8.348 -0.0180 -0.1069 -0.7304
 8561SOL    HW137145   1.524   4.602   8.381  0.2594 -1.3155  2.5371
 8561SOL    HW237146   1.554   4.467   8.426 -0.8991  1.3125  0.1404
 8562SOL     OW37147   4.648   4.200   8.725  0.8440 -0.3421 -0.1128
 8562SOL    HW137148   4.553   4.197   8.740  0.9589  1.4925  1.0689
 8562SOL    HW237149   4.661   4.255   8.648 -1.8897  0.0402 -0.2944
 8563SOL     OW37150   1.964   0.740   9.624 -0.6219 -0.1044 -0.0111
 8563SOL    HW137151   1.929   0.829   9.616 -0.3059 -0.0835 -1.1345
 8563SOL    HW237152   2.056   0.758   9.645 -1.2401  1.3271  1.5876
 8564SOL     OW37153   3.568   0.346  16.671  0.1798 -0.1385  0.2835
 8564SOL    HW137154   3.549   0.390  16.588  1.1305 -2.5916 -1.2243
 8564SOL    HW237155   3.611   0.414  16.723 -0.6896  2.0085 -1.7779
 8565SOL     OW37156   3.099   4.276   8.311 -0.1482 -0.4076  0.2925
 8565SOL    HW137157   3.049   4.282   8.230 -0.4456 -1.0415  0.4223
 8565SOL    HW237158   3.166   4.216   8.279  0.2219  1.4006 -2.3450
 8566SOL     OW37159   3.757   2.472   8.080 -0.0259 -0.1388 -0.4515
 8566SOL    HW137160   3.786   2.445   8.167 -1.1104 -1.6638 -0.5646
 8566SOL    HW237161   3.736   2.384   8.049 -0.7178  0.5808 -1.9751
 8567SOL     OW37162   2.184   2.083   7.391  0.1083  0.5025 -0.2424
 8567SOL    HW137163   2.202   2.159   7.446 -0.6805 -0.6592  1.6425
 8567SOL    HW237164   2.139   2.128   7.320 -0.2464 -0.7121 -0.7894
 8568SOL     OW37165   1.232   4.597   3.166  0.1223  0.0076  0.0408
 8568SOL    HW137166   1.259   4.664   3.103  1.7245 -0.0999  0.6203
 8568SOL    HW237167   1.262   4.516   3.123 -0.5522 -0.4147  0.3766
 8569SOL     OW37168   1.593   0.914   2.675  0.5879  0.0967  0.1056
 8569SOL    HW137169   1.569   0.821   2.675  2.9513 -0.5057  2.3491
 8569SOL    HW237170   1.510   0.948   2.709 -0.0250  1.4351 -2.7799
 8570SOL     OW37171   1.792   1.618   2.536 -0.2069  0.1109  0.0410
 8570SOL    HW137172   1.710   1.665   2.554  0.1711  1.5767 -2.1169
 8570SOL    HW237173   1.763   1.550   2.476 -0.4185  0.4995 -0.2985
 8571SOL     OW37174   1.774   4.385   2.438 -0.3130 -0.0411  0.2997
 8571SOL    HW137175   1.811   4.473   2.426 -0.8477 -0.1177 -1.8193
 8571SOL    HW237176   1.820   4.337   2.369  0.6838 -0.2199  1.0855
 8572SOL     OW37177   3.687   3.665   6.760 -0.1864 -0.1654 -0.1893
 8572SOL    HW137178   3.637   3.636   6.684  1.0827  0.3938 -1.2418
 8572SOL    HW237179   3.779   3.669   6.734 -0.8947  0.3516 -2.5549
 8573SOL     OW37180   0.156   0.505   0.162  0.4667 -0.0729 -0.8783
 8573SOL    HW137181   0.085   0.483   0.101 -1.8203 -1.0061  2.1078
 8573SOL    HW237182   0.160   0.598   0.141 -0.2895  0.1534 -0.0123
 8574SOL     OW37183   2.771   1.419   8.115 -0.0098  0.3044  0.7902
 8574SOL    HW137184   2.754   1.478   8.041  0.5475  0.7614  1.0198
 8574SOL    HW237185   2.689   1.428   8.162 -0.5653  1.3890 -0.3943
 8575SOL     OW37186   4.184   1.652   1.865 -0.3409  0.3585 -0.1706
 8575SOL    HW137187   4.136   1.668   1.946 -1.1412 -0.1808 -0.5421
 8575SOL    HW237188   4.117   1.678   1.802 -0.6823 -2.8654 -1.1120
 8576SOL     OW37189   0.160   0.036   7.335  0.6889 -0.3992 -0.1295
 8576SOL    HW137190   0.143   4.696   7.405  0.9067  2.2143  2.2722
 8576SOL    HW237191   0.206   4.706   7.269  0.2219 -0.0559 -0.7364
 8577SOL     OW37192   2.759   3.311   7.965  0.3559  0.4123 -0.0383
 8577SOL    HW137193   2.789   3.402   7.962 -0.5205  0.7067  0.0349
 8577SOL    HW237194   2.692   3.309   8.033  0.5278 -0.2897  0.1068
 8578SOL     OW37195   1.521   3.987   2.272  0.1433  0.9382 -0.4630
 8578SOL    HW137196   1.453   3.919   2.267 -0.2213  1.1645  1.3069
 8578SOL    HW237197   1.496   4.054   2.209 -0.0038  0.2664 -1.1212
 8579SOL     OW37198   1.949   4.431   4.943  0.1553  0.0643  0.5642
 8579SOL    HW137199   1.947   4.343   4.979  1.0460 -0.6594 -1.1216
 8579SOL    HW237200   2.042   4.449   4.930 -0.2026  1.1359 -0.5388
 8580SOL     OW37201   2.933   2.167   9.205 -0.1553 -0.0972  0.1570
 8580SOL    HW137202   2.947   2.076   9.227 -0.6979 -0.0772  0.5887
 8580SOL    HW237203   2.965   2.164   9.115 -3.5380  0.3241 -1.0593
 8581SOL     OW37204   2.768   2.285   3.178 -0.4072  0.0117 -0.1628
 8581SOL    HW137205   2.811   2.237   3.107 -1.8728 -0.9077 -0.4412
 8581SOL    HW237206   2.675   2.271   3.156 -0.2584  0.6441 -1.2122
 8582SOL     OW37207   1.098   1.221   5.365  0.1719  0.6231  0.0314
 8582SOL    HW137208   1.093   1.169   5.284 -0.7456 -1.4377  1.4162
 8582SOL    HW237209   1.017   1.272   5.356 -0.1724 -0.0141 -0.5073
 8583SOL     OW37210   0.361   1.680   1.219  0.7854  0.1206  0.7784
 8583SOL    HW137211   0.323   1.599   1.187  1.8713 -0.4273  0.8603
 8583SOL    HW237212   0.339   1.682   1.312  0.0803  1.7851  0.5709
 8584SOL     OW37213   0.407   0.225   7.038  0.3073 -0.2397  0.0632
 8584SOL    HW137214   0.324   0.248   7.079  0.6658 -0.9485  1.1906
 8584SOL    HW237215   0.467   0.239   7.112 -0.1832  0.7414  0.2798
 8585SOL     OW37216   4.657   1.555   8.217 -0.0655 -0.2158 -0.4351
 8585SOL    HW137217   4.659   1.634   8.271  0.9688  0.4379 -1.4336
 8585SOL    HW237218   4.614   1.591   8.140  0.7707 -0.5887 -1.0696
 8586SOL     OW37219   2.992   4.506   4.617 -0.2329 -0.4475  0.4759
 8586SOL    HW137220   3.067   4.470   4.569  0.5617 -0.1325  1.4810
 8586SOL    HW237221   2.918   4.446   4.607  0.7708 -1.5498 -0.3439
 8587SOL     OW37222   3.911   3.092   4.379  0.5805  0.2363 -0.3184
 8587SOL    HW137223   3.982   3.068   4.320 -1.2822  1.0729 -2.9157
 8587SOL    HW237224   3.923   3.187   4.376 -1.9125  0.5053 -1.8498
 8588SOL     OW37225   0.054   0.880   3.871  0.6008 -0.1023  0.1262
 8588SOL    HW137226   4.718   0.899   3.943  0.0623 -1.0152 -0.0790
 8588SOL    HW237227   0.037   0.789   3.845  0.4833 -0.3100  0.9160
 8589SOL     OW37228   2.382   1.406   7.137 -0.3342  0.2175  0.5454
 8589SOL    HW137229   2.317   1.474   7.119 -1.0502 -0.3351  1.0416
 8589SOL    HW237230   2.361   1.378   7.226 -1.0309 -1.1434 -0.0541
 8590SOL     OW37231   1.252   3.080  10.284 -0.2491  0.1591 -0.1524
 8590SOL    HW137232   1.186   3.024  10.325  1.7788  1.1125  4.4297
 8590SOL    HW237233   1.321   3.073  10.350  0.6901 -2.1728 -1.3908
 8591SOL     OW37234   0.476   4.488   6.562  0.3931 -0.4366  0.6124
 8591SOL    HW137235   0.542   4.485   6.632 -0.0079  1.0056  1.0430
 8591SOL    HW237236   0.399   4.519   6.610 -0.7744  1.9070 -2.8156
 8592SOL     OW37237   1.494   3.882   8.464 -1.1589 -0.1492  0.1579
 8592SOL    HW137238   1.448   3.909   8.385  0.4417 -0.1907 -0.7792
 8592SOL    HW237239   1.520   3.971   8.488 -1.2634  0.1314 -0.7604
 8593SOL     OW37240   1.448   0.040   6.257 -0.1603  0.1867 -0.7294
 8593SOL    HW137241   1.477   0.009   6.343 -1.1307  0.2862 -0.3544
 8593SOL    HW237242   1.412   0.121   6.293 -1.4277 -0.0954 -1.3655
 8594SOL     OW37243   3.444   4.564   4.873  0.3511 -0.1362 -0.4426
 8594SOL    HW137244   3.499   4.640   4.890  1.7268 -1.2371  0.0635
 8594SOL    HW237245   3.366   4.592   4.920 -0.2571 -0.3790 -1.2990
 8595SOL     OW37246   0.908   3.865   7.366 -0.1078  0.9511  0.4312
 8595SOL    HW137247   0.855   3.919   7.308 -0.7957  0.8315  0.9476
 8595SOL    HW237248   0.978   3.927   7.385 -0.2656  0.9198  1.1243
 8596SOL     OW37249   2.291   0.984   2.242 -0.2694 -0.4387  0.4775
 8596SOL    HW137250   2.298   0.900   2.288  1.6887 -0.0082  0.9814
 8596SOL    HW237251   2.343   0.955   2.167  0.7399  0.8361  0.6793
 8597SOL     OW37252   2.995   2.454  13.638 -0.2055 -0.6730 -0.1745
 8597SOL    HW137253   3.057   2.525  13.653 -1.7472  0.8913 -1.3406
 8597SOL    HW237254   3.059   2.383  13.627 -1.1920 -1.4073 -1.1503
 8598SOL     OW37255   2.349   1.887   1.165 -0.2444  0.1959 -0.0524
 8598SOL    HW137256   2.338   1.881   1.260  0.5420  0.1920  0.0351
 8598SOL    HW237257   2.289   1.958   1.142 -0.4509 -0.7143 -2.2256
 8599SOL     OW37258   0.288   4.241   1.736  0.9047  0.6207 -0.5333
 8599SOL    HW137259   0.329   4.161   1.769 -4.3470 -1.5446  0.6919
 8599SOL    HW237260   0.360   4.302   1.754  1.8161 -1.8350  4.1363
 8600SOL     OW37261   2.836   2.540  13.858 -0.7045 -0.3281 -0.4321
 8600SOL    HW137262   2.842   2.631  13.830 -1.2783 -0.6329 -1.5549
 8600SOL    HW237263   2.900   2.504  13.797  0.6951  1.6414 -0.1398
 8601SOL     OW37264   0.467   4.155   5.571  0.2800  0.5274  0.2271
 8601SOL    HW137265   0.548   4.190   5.533  0.8680 -1.6869 -0.5206
 8601SOL    HW237266   0.396   4.197   5.523 -0.5996 -0.2392  0.8596
 8602SOL     OW37267   2.346   4.298   0.740 -0.3309 -0.4332 -0.0389
 8602SOL    HW137268   2.402   4.221   0.731 -0.6666 -0.7461  0.5846
 8602SOL    HW237269   2.302   4.276   0.822 -1.0769 -2.1051 -0.8854
 8603SOL     OW37270   4.129   3.721   5.223  0.2466 -0.4278  0.3936
 8603SOL    HW137271   4.211   3.721   5.176  0.1336  1.2051  0.2070
 8603SOL    HW237272   4.096   3.809   5.202  2.4047  0.6089  1.3902
 8604SOL     OW37273   3.742   3.562   6.480 -0.0127  0.0685  0.3973
 8604SOL    HW137274   3.785   3.647   6.464  0.5293 -0.6207 -1.8186
 8604SOL    HW237275   3.791   3.527   6.555  1.2168 -0.9044 -0.8634
 8605SOL     OW37276   1.972   0.139   6.392 -0.3038 -0.1278 -0.2151
 8605SOL    HW137277   1.930   0.078   6.332  2.1596 -1.7197 -0.3561
 8605SOL    HW237278   1.997   0.215   6.339 -1.3918  0.1342 -0.3405
 8606SOL     OW37279   1.368   3.036   7.495 -0.2236 -0.0339  0.3087
 8606SOL    HW137280   1.367   3.112   7.437 -1.1428 -0.4950 -0.2851
 8606SOL    HW237281   1.274   3.027   7.508 -0.4301  0.5311 -0.8182
 8607SOL     OW37282   3.081   2.277   1.244  0.2795 -0.0885 -0.0070
 8607SOL    HW137283   3.095   2.372   1.252 -2.6423  0.2560  1.0321
 8607SOL    HW237284   3.009   2.267   1.307  0.5732  0.6468  0.4514
 8608SOL     OW37285   1.147   0.060   2.121  0.2181  0.2025 -0.1071
 8608SOL    HW137286   1.128   4.692   2.140 -0.6995  0.1144 -1.4292
 8608SOL    HW237287   1.151   0.055   2.025 -2.7842  0.1382 -0.2092
 8609SOL     OW37288   0.970   2.935  14.146 -0.0827  0.9994 -0.6742
 8609SOL    HW137289   0.967   2.997  14.219 -6.7265  0.5420 -0.5392
 8609SOL    HW237290   1.007   2.994  14.080 -0.6519  0.8361 -1.1408
 8610SOL     OW37291   1.564   0.265   7.816  0.3282  0.3596 -0.4208
 8610SOL    HW137292   1.584   0.180   7.856 -1.8694 -0.7415 -1.6580
 8610SOL    HW237293   1.516   0.246   7.735  0.4066 -1.0542 -0.1303
 8611SOL     OW37294   2.802   1.660   7.664  0.4970 -0.3194  0.2529
 8611SOL    HW137295   2.713   1.629   7.653 -0.0083  1.4480 -0.7512
 8611SOL    HW237296   2.856   1.599   7.613 -0.6687 -2.0406  1.0873
 8612SOL     OW37297   1.229   1.297  13.974 -0.1442 -0.3858 -0.0870
 8612SOL    HW137298   1.181   1.216  13.954 -0.9195  0.2013 -0.6336
 8612SOL    HW237299   1.265   1.323  13.889  1.0833 -1.0170  0.2481
 8613SOL     OW37300   1.325   1.024   3.226 -0.0431  0.5827 -0.1893
 8613SOL    HW137301   1.408   1.060   3.256 -0.1411 -0.7257  1.6814
 8613SOL    HW237302   1.357   0.953   3.170 -1.8513 -1.4014  1.2590
 8614SOL     OW37303   4.520   0.357  16.546 -0.0401  0.0697  0.1816
 8614SOL    HW137304   4.584   0.301  16.503 -0.3023  1.6768 -2.3209
 8614SOL    HW237305   4.441   0.320  16.506 -1.2828  2.1316  0.7065
 8615SOL     OW37306   4.524   0.047   4.825  0.6506  0.3849  0.4394
 8615SOL    HW137307   4.446   0.083   4.782  1.0137  0.4570 -0.1552
 8615SOL    HW237308   4.535   0.102   4.903  0.3847 -0.1195  0.8364
 8616SOL     OW37309   0.658   2.842   4.263  0.1606 -0.4626 -0.0382
 8616SOL    HW137310   0.701   2.897   4.197 -2.7817  0.8153 -0.8829
 8616SOL    HW237311   0.720   2.867   4.332  0.2027  0.8910 -0.5558
 8617SOL     OW37312   3.530   0.245   6.813  1.0163  0.1917  0.3294
 8617SOL    HW137313   3.560   0.310   6.877 -0.8002  1.7723 -0.4203
 8617SOL    HW237314   3.601   0.181   6.817  0.7897 -0.0298  0.8729
 8618SOL     OW37315   2.583   0.298   3.581 -0.5134 -0.2552  0.0441
 8618SOL    HW137316   2.618   0.368   3.525 -0.6755 -1.6808 -1.8378
 8618SOL    HW237317   2.548   0.338   3.661  1.8579 -2.3298  2.0890
 8619SOL     OW37318   3.257   1.093  12.093  0.1171 -0.4465 -0.2845
 8619SOL    HW137319   3.337   1.066  12.047  0.4705  1.2851 -0.7204
 8619SOL    HW237320   3.186   1.098  12.029  0.4496  1.1555 -0.5333
 8620SOL     OW37321   4.013   4.540   6.034 -0.4870 -0.1236 -0.1655
 8620SOL    HW137322   4.048   4.451   6.031 -0.0124  0.1063 -1.4692
 8620SOL    HW237323   4.092   4.592   6.020 -0.4383 -0.1323  0.0771
 8621SOL     OW37324   2.712   2.283  10.916 -0.2198  0.0741  0.6111
 8621SOL    HW137325   2.766   2.362  10.908 -0.9154  0.7903  3.0343
 8621SOL    HW237326   2.637   2.338  10.940 -2.8376 -3.3339  0.1435
 8622SOL     OW37327   2.015   2.228   9.018 -0.3554  0.2042 -0.4171
 8622SOL    HW137328   2.066   2.303   8.989 -1.3645  1.2176  0.4185
 8622SOL    HW237329   2.054   2.214   9.104 -0.0692 -1.2682 -0.7763
 8623SOL     OW37330   1.527   2.148   2.057  0.4070  0.3172 -0.3118
 8623SOL    HW137331   1.546   2.061   2.021  0.9327  0.2515  0.1334
 8623SOL    HW237332   1.503   2.188   1.974 -1.6523  0.5127  0.3798
 8624SOL     OW37333   4.679   0.235  12.253 -0.1716  0.1435 -0.2614
 8624SOL    HW137334   4.607   0.253  12.192 -0.4898 -2.2273 -0.5859
 8624SOL    HW237335   4.623   0.247  12.330  0.1688 -0.7556  0.1298
 8625SOL     OW37336   2.141   4.071   6.426 -0.6918 -0.3058 -0.7149
 8625SOL    HW137337   2.076   4.137   6.452 -3.7543 -3.0686 -1.3403
 8625SOL    HW237338   2.199   4.125   6.373 -0.8616 -1.9855 -2.5863
 8626SOL     OW37339   1.541   1.381   2.720  0.0338  0.2968  0.0332
 8626SOL    HW137340   1.626   1.386   2.675 -0.3833  1.4294 -0.6273
 8626SOL    HW237341   1.494   1.330   2.654  0.4070 -1.1216  0.8754
 8627SOL     OW37342   2.347   1.174  14.799  0.0151 -0.3298 -0.1033
 8627SOL    HW137343   2.327   1.119  14.875  0.1802 -3.2492 -2.1774
 8627SOL    HW237344   2.319   1.120  14.725  0.4082  0.0416 -0.5268
 8628SOL     OW37345   1.661   0.719  10.425  0.3530 -0.0373  0.1421
 8628SOL    HW137346   1.566   0.705  10.430  0.1628  0.7267 -1.4778
 8628SOL    HW237347   1.686   0.775  10.499 -0.1455 -1.2274  1.2167
 8629SOL     OW37348   3.249   2.434   4.218 -0.2830  0.0030  0.2578
 8629SOL    HW137349   3.170   2.462   4.265  1.2905 -0.8952  3.4074
 8629SOL    HW237350   3.211   2.387   4.143 -0.9750  0.6830  0.1845
 8630SOL     OW37351   1.565   2.426  12.642  0.3683 -0.1732 -0.3883
 8630SOL    HW137352   1.615   2.388  12.569  0.7676 -0.2044 -0.0987
 8630SOL    HW237353   1.630   2.486  12.679 -0.4373 -0.9570  2.2796
 8631SOL     OW37354   4.416   0.970  14.799  0.3495  0.2892  0.1735
 8631SOL    HW137355   4.350   0.995  14.864  0.0710 -1.1402  0.4305
 8631SOL    HW237356   4.358   0.974  14.722 -0.1518 -2.1289  0.4189
 8632SOL     OW37357   2.836   4.119   0.765  0.0586  0.0683  0.6724
 8632SOL    HW137358   2.911   4.119   0.705 -0.5148 -0.3028 -0.0437
 8632SOL    HW237359   2.771   4.058   0.729  0.0009  0.8502 -0.5352
 8633SOL     OW37360   4.259   1.223   8.743 -0.3440  0.2847 -0.0473
 8633SOL    HW137361   4.288   1.139   8.779 -0.2328  1.0640  1.6763
 8633SOL    HW237362   4.322   1.251   8.677  2.7989 -1.9222  2.0220
 8634SOL     OW37363   0.539   1.753   8.519 -0.0233  0.1416  0.2110
 8634SOL    HW137364   0.530   1.800   8.602  0.5638 -0.4217  0.5921
 8634SOL    HW237365   0.628   1.782   8.501 -0.2620  0.2619 -0.7698
 8635SOL     OW37366   1.688   3.719   5.598  0.9632 -0.0024 -0.4940
 8635SOL    HW137367   1.741   3.655   5.551 -1.2518 -0.5175 -2.3550
 8635SOL    HW237368   1.675   3.669   5.679 -2.0612  1.8777  0.1883
 8636SOL     OW37369   1.929   4.037  14.507 -0.2117 -0.2448  0.2117
 8636SOL    HW137370   1.924   3.943  14.493 -1.2544 -0.3492  1.3228
 8636SOL    HW237371   1.852   4.072  14.461 -2.7319 -2.0064  3.1217
 8637SOL     OW37372   1.206   2.138   8.318 -0.1709  0.0798 -0.2612
 8637SOL    HW137373   1.164   2.222   8.338 -1.9389 -0.8423 -0.0419
 8637SOL    HW237374   1.257   2.153   8.239  1.6928  0.6856  1.0616
 8638SOL     OW37375   1.671   1.314   8.612  0.4178  0.1777  0.1869
 8638SOL    HW137376   1.637   1.395   8.573  1.1124  0.7459  0.7401
 8638SOL    HW237377   1.719   1.343   8.689  2.4856  0.3876 -1.1810
 8639SOL     OW37378   0.983   0.451  10.973  0.0301 -0.0785  0.1085
 8639SOL    HW137379   0.949   0.364  10.952  0.0116  0.3982 -1.8659
 8639SOL    HW237380   0.917   0.490  11.029  0.6496  0.9904  0.0954
 8640SOL     OW37381   0.057   3.539   5.422  0.2005  0.2036  0.0119
 8640SOL    HW137382   0.050   3.578   5.335 -3.6140  0.0569  0.2614
 8640SOL    HW237383   0.140   3.572   5.458 -0.2113  2.0863 -0.7611
 8641SOL     OW37384   3.532   3.356   6.645  0.0810  0.4501 -0.3515
 8641SOL    HW137385   3.450   3.308   6.649 -0.4386  1.4728  1.0881
 8641SOL    HW237386   3.595   3.290   6.672  0.9425  1.1539 -0.6313
 8642SOL     OW37387   2.478   1.226   2.750  0.1372  0.6947 -0.0659
 8642SOL    HW137388   2.428   1.198   2.826 -0.7374 -0.6654 -1.1441
 8642SOL    HW237389   2.541   1.159   2.722  0.7441  0.7177  1.2099
 8643SOL     OW37390   2.747   4.231   6.641 -0.3241  0.5474 -0.0226
 8643SOL    HW137391   2.694   4.178   6.700  0.8312 -0.3004  0.2587
 8643SOL    HW237392   2.771   4.313   6.684  1.0805  0.9371 -1.5314
 8644SOL     OW37393   1.216   3.734   7.393  0.2298 -0.3286  0.6721
 8644SOL    HW137394   1.225   3.650   7.437  0.0527 -0.5923  0.2044
 8644SOL    HW237395   1.126   3.746   7.421  0.5075  0.4712  1.2230
 8645SOL     OW37396   2.845   0.481  12.785  0.4787 -0.2540 -0.2268
 8645SOL    HW137397   2.782   0.411  12.765  1.2227 -1.3594  1.3099
 8645SOL    HW237398   2.908   0.435  12.840  0.5056 -1.0640 -0.9257
 8646SOL     OW37399   0.687   2.476  17.544  0.1234  0.1880  0.2340
 8646SOL    HW137400   0.686   2.558  17.593 -0.6781 -0.9273  2.0901
 8646SOL    HW237401   0.617   2.424  17.584 -0.1697  0.5837  0.2339
 8647SOL     OW37402   3.553   0.509   4.027 -0.4031  0.5081 -0.3619
 8647SOL    HW137403   3.511   0.433   4.066  2.6828 -0.3361  1.2529
 8647SOL    HW237404   3.622   0.462   3.981 -0.8300  1.6349 -2.1995
 8648SOL     OW37405   0.613   3.474  14.453  0.2185  0.0733 -0.4258
 8648SOL    HW137406   0.650   3.483  14.540  1.0499  0.5543 -0.8261
 8648SOL    HW237407   0.665   3.404  14.412  0.3984  0.5517 -1.0136
 8649SOL     OW37408   4.653   1.593   7.419  0.3442  0.0483  0.0046
 8649SOL    HW137409   4.710   1.521   7.391 -2.2360 -1.7988 -0.4742
 8649SOL    HW237410   4.595   1.585   7.343  1.2922 -2.6933 -0.4468
 8650SOL     OW37411   2.986   0.119   6.117  0.2244 -0.1790  0.6596
 8650SOL    HW137412   3.073   0.118   6.078  0.3509  1.3573  0.9000
 8650SOL    HW237413   2.928   0.146   6.046  2.6950  1.9960 -0.5001
 8651SOL     OW37414   0.158   3.484   3.741 -0.2035 -0.1143  0.1528
 8651SOL    HW137415   0.101   3.408   3.730  0.4448 -0.7027  0.8894
 8651SOL    HW237416   0.091   3.550   3.724  0.4314  0.9728  1.8310
 8652SOL     OW37417   1.892   2.174   2.266 -0.1465 -0.2236 -0.1413
 8652SOL    HW137418   1.939   2.106   2.219 -0.8695  0.1037 -1.3354
 8652SOL    HW237419   1.932   2.257   2.238  1.4352 -0.7860  0.4380
 8653SOL     OW37420   1.942   3.938   4.544 -0.4072  0.1541 -0.5028
 8653SOL    HW137421   1.982   3.856   4.515  1.6756  0.8565  0.3788
 8653SOL    HW237422   2.021   3.976   4.583 -0.7375  0.0446  0.2710
 8654SOL     OW37423   2.025   1.081   3.164 -0.1242 -0.5829 -0.6706
 8654SOL    HW137424   1.948   1.028   3.186 -0.5667 -0.5305 -2.0953
 8654SOL    HW237425   1.985   1.138   3.098 -3.3037 -0.2148  1.5941
 8655SOL     OW37426   2.603   1.659   8.627  0.5483 -0.4987 -0.3194
 8655SOL    HW137427   2.616   1.678   8.534  0.1773  1.4647  0.0532
 8655SOL    HW237428   2.653   1.730   8.667  1.0885 -1.9907  1.6593
 8656SOL     OW37429   1.289   3.635  11.948  0.0746  0.1039  0.2340
 8656SOL    HW137430   1.370   3.649  11.898  1.0189 -3.2573  0.7734
 8656SOL    HW237431   1.315   3.549  11.984 -1.1587 -0.2527  0.2688
 8657SOL     OW37432   1.288   0.545   7.152  0.2338 -0.1625 -0.7703
 8657SOL    HW137433   1.309   0.532   7.060 -0.6413 -1.4976 -0.7871
 8657SOL    HW237434   1.368   0.584   7.187 -0.0300  0.6850 -1.1205
 8658SOL     OW37435   2.264   1.478   9.193 -0.3576 -0.7557 -0.2416
 8658SOL    HW137436   2.231   1.556   9.147  0.5112 -1.2249 -1.6550
 8658SOL    HW237437   2.303   1.447   9.112 -0.3730 -0.5729 -0.3188
 8659SOL     OW37438   4.397   1.146  13.198 -0.3610 -0.0791 -0.3064
 8659SOL    HW137439   4.492   1.141  13.184 -0.2392 -0.0806  0.5567
 8659SOL    HW237440   4.374   1.205  13.126  0.7790  0.9305  0.1387
 8660SOL     OW37441   2.719   4.132  16.423  0.2779  0.3573 -0.5384
 8660SOL    HW137442   2.732   4.082  16.504 -0.5796  0.3707 -0.3862
 8660SOL    HW237443   2.647   4.085  16.379 -0.8332  1.2648  0.3238
 8661SOL     OW37444   3.177   3.467   6.217 -0.3642  0.1024 -0.8847
 8661SOL    HW137445   3.175   3.375   6.191 -1.8366  0.0121 -0.4673
 8661SOL    HW237446   3.132   3.461   6.302 -1.2742 -0.7078 -1.4193
 8662SOL     OW37447   0.424   3.069   6.451 -0.2179  0.4705  0.3271
 8662SOL    HW137448   0.406   3.034   6.364 -0.7530  2.1974 -0.2450
 8662SOL    HW237449   0.506   3.117   6.443 -0.9599  1.6175 -0.4024
 8663SOL     OW37450   1.352   0.885   1.927  0.2123 -0.0619 -0.1798
 8663SOL    HW137451   1.395   0.825   1.867 -2.5145  0.7929 -3.0118
 8663SOL    HW237452   1.388   0.971   1.905  2.1635 -0.8163  0.0770
 8664SOL     OW37453   3.706   2.217  10.897 -0.0500 -0.3671  0.2240
 8664SOL    HW137454   3.788   2.242  10.856  0.9146  0.9910  2.9688
 8664SOL    HW237455   3.683   2.133  10.858 -3.2613 -0.6992  2.7478
 8665SOL     OW37456   2.539   1.899   7.140 -0.6548 -0.1018  0.1762
 8665SOL    HW137457   2.515   1.813   7.104  0.9626  0.6542 -2.7840
 8665SOL    HW237458   2.560   1.945   7.058  1.3306  0.9837  1.3085
 8666SOL     OW37459   0.853   3.983   0.725 -0.2016  0.0433  0.1689
 8666SOL    HW137460   0.793   3.946   0.789 -1.1557 -1.6331 -1.7110
 8666SOL    HW237461   0.897   3.905   0.692  1.3054  0.8425  0.2773
 8667SOL     OW37462   3.950   2.142   9.712 -0.7483  0.6934  0.3472
 8667SOL    HW137463   3.961   2.122   9.619  0.7049 -1.7233  1.0363
 8667SOL    HW237464   3.881   2.081   9.739  2.1594 -2.1139  1.4052
 8668SOL     OW37465   1.184   2.051  13.082 -0.5472 -0.2794 -0.3532
 8668SOL    HW137466   1.250   1.981  13.078 -1.3056 -0.8660 -2.4294
 8668SOL    HW237467   1.106   2.012  13.044  1.4953 -3.1823 -1.6048
 8669SOL     OW37468   2.580   1.839   9.602 -0.3408 -0.5678 -0.0761
 8669SOL    HW137469   2.612   1.925   9.630  0.2849 -1.7273  2.7794
 8669SOL    HW237470   2.502   1.863   9.552  0.3452  0.0419 -0.8580
 8670SOL     OW37471   0.007   3.607   8.784 -0.0779  0.4965 -0.7938
 8670SOL    HW137472   4.640   3.636   8.770 -0.0654  1.0941  0.3206
 8670SOL    HW237473   0.042   3.690   8.818  0.2469 -0.0729  0.2533
 8671SOL     OW37474   0.087   3.442  12.724  0.0134  0.4621  0.0820
 8671SOL    HW137475   0.135   3.396  12.792 -3.3851 -1.9783  0.8217
 8671SOL    HW237476   0.014   3.384  12.705 -2.2865  3.3863 -0.0373
 8672SOL     OW37477   0.616   4.045  12.836 -0.0384 -0.2634  0.3375
 8672SOL    HW137478   0.671   4.056  12.913  0.9510 -0.9672 -0.2606
 8672SOL    HW237479   0.643   4.122  12.786 -0.1628  0.4104  1.3042
 8673SOL     OW37480   3.410   2.344   0.259 -0.0946 -0.5810  0.2831
 8673SOL    HW137481   3.468   2.373   0.189 -2.6998  1.9983 -0.8228
 8673SOL    HW237482   3.412   2.428   0.306 -1.0381 -1.4118  1.8234
 8674SOL     OW37483   4.028   2.877   2.535 -0.1586  0.5072 -0.5305
 8674SOL    HW137484   3.961   2.837   2.481  0.9217 -0.3195 -1.2679
 8674SOL    HW237485   4.022   2.965   2.498  1.1527  0.9397  0.2929
 8675SOL     OW37486   3.447   2.553   4.966 -0.1340  0.5491  0.1923
 8675SOL    HW137487   3.421   2.479   4.912  2.8163 -0.5280  0.2632
 8675SOL    HW237488   3.472   2.610   4.892  0.8201 -0.1823 -0.0539
 8676SOL     OW37489   0.265   3.077   2.575  0.5902 -0.0558 -0.2664
 8676SOL    HW137490   0.228   3.120   2.652 -0.0217  1.5584 -1.4505
 8676SOL    HW237491   0.341   3.028   2.603  0.6149 -0.7385 -1.5040
 8677SOL     OW37492   4.121   1.809   5.896 -0.0686 -0.2149 -0.1571
 8677SOL    HW137493   4.144   1.837   5.808  2.2500 -0.4363  0.3818
 8677SOL    HW237494   4.080   1.723   5.882  0.8113 -0.8025  0.8816
 8678SOL     OW37495   2.785   1.887  14.435  0.7198  0.6158  0.1914
 8678SOL    HW137496   2.848   1.861  14.502  1.2347  0.2717 -0.4270
 8678SOL    HW237497   2.775   1.804  14.389  1.0700  1.1159 -0.7915
 8679SOL     OW37498   3.689   1.722   4.579 -0.4009  0.1348 -0.4638
 8679SOL    HW137499   3.679   1.814   4.553 -1.6650 -0.6075 -2.5826
 8679SOL    HW237500   3.610   1.703   4.630  0.5727 -4.8769 -0.8310
 8680SOL     OW37501   2.752   3.920  13.059 -0.6195  0.3951 -0.2848
 8680SOL    HW137502   2.750   3.838  13.009 -0.9509 -0.3162  0.9020
 8680SOL    HW237503   2.709   3.888  13.138 -0.4006  3.5731  1.1222
 8681SOL     OW37504   1.877   0.193   7.162 -0.3422  0.3161  0.4040
 8681SOL    HW137505   1.944   0.137   7.124 -0.4964  0.9281 -0.7807
 8681SOL    HW237506   1.860   0.154   7.248 -1.7903 -0.8720 -0.4218
 8682SOL     OW37507   4.258   3.885   3.832  0.3715 -0.3479  0.0873
 8682SOL    HW137508   4.291   3.845   3.752  1.2653  2.7619 -1.0822
 8682SOL    HW237509   4.297   3.972   3.827 -0.0947 -0.1910 -0.7776
 8683SOL     OW37510   1.168   1.468   7.406 -0.0576  0.1123 -0.4523
 8683SOL    HW137511   1.140   1.422   7.327  0.0486 -1.2849  0.3139
 8683SOL    HW237512   1.093   1.474   7.465 -0.1751  1.4515 -0.7388
 8684SOL     OW37513   2.304   0.070   3.030  0.0263  0.1985  0.4506
 8684SOL    HW137514   2.377   0.070   3.092  0.4168  2.6754  0.0173
 8684SOL    HW237515   2.333   0.143   2.974 -0.0092 -1.0355 -1.1978
 8685SOL     OW37516   0.786   2.330  14.079  0.0258 -0.0206  0.8047
 8685SOL    HW137517   0.745   2.244  14.090  0.9891 -0.4963  0.6561
 8685SOL    HW237518   0.709   2.379  14.111  0.6793  0.0009  2.3383
 8686SOL     OW37519   2.327   1.953  16.106  0.1565  0.6068 -0.3741
 8686SOL    HW137520   2.371   1.869  16.091  1.1616  0.7495  1.8621
 8686SOL    HW237521   2.265   1.934  16.176 -0.2221 -0.0600 -0.8929
 8687SOL     OW37522   2.586   0.994   2.300  0.0037  0.1954  0.2265
 8687SOL    HW137523   2.495   0.966   2.305  0.3902 -0.4711  3.8538
 8687SOL    HW237524   2.586   1.086   2.272 -1.2763 -0.3476 -1.5293
 8688SOL     OW37525   1.407   1.188   0.785  0.1302  0.0441 -0.0233
 8688SOL    HW137526   1.395   1.268   0.836  1.0576  0.1069  0.0894
 8688SOL    HW237527   1.406   1.122   0.853 -0.0577 -0.9902 -1.0300
 8689SOL     OW37528   1.995   0.983   6.338  0.3025 -0.5646  0.8902
 8689SOL    HW137529   1.910   0.949   6.311  0.4355 -1.0436  1.0875
 8689SOL    HW237530   1.968   1.036   6.413  0.1462  1.4917 -0.6180
 8690SOL     OW37531   0.929   0.147   2.379  0.4745 -0.1563 -0.2900
 8690SOL    HW137532   0.881   0.229   2.393 -2.9601 -2.3313  0.8517
 8690SOL    HW237533   0.868   0.107   2.317 -1.8149  3.4944 -0.4051
 8691SOL     OW37534   3.774   3.741   4.207 -0.3951 -0.7891  0.6311
 8691SOL    HW137535   3.833   3.673   4.173 -1.3379 -1.0792 -0.4218
 8691SOL    HW237536   3.758   3.705   4.294  0.7734  0.0516  1.1877
 8692SOL     OW37537   3.846   3.799  14.432  0.1397  0.2219 -0.2513
 8692SOL    HW137538   3.839   3.742  14.509 -0.5557  1.5490  0.6788
 8692SOL    HW237539   3.875   3.876  14.481  1.6594  0.2444 -1.2158
 8693SOL     OW37540   0.121   4.477   7.981  0.0812  0.2444  0.0901
 8693SOL    HW137541   0.146   4.425   8.058  3.7319  0.4741 -0.9752
 8693SOL    HW237542   0.160   4.424   7.912 -1.5038  0.5259 -1.0189
 8694SOL     OW37543   3.359   4.329   1.133 -0.3428  0.3640 -0.2155
 8694SOL    HW137544   3.324   4.299   1.050  0.5819  1.9087 -1.1639
 8694SOL    HW237545   3.323   4.417   1.136  0.3936  0.6959 -1.1256
 8695SOL     OW37546   0.599   2.280   7.857  0.1307 -0.0382 -0.3164
 8695SOL    HW137547   0.608   2.375   7.859  1.3979 -0.1490 -0.8602
 8695SOL    HW237548   0.508   2.274   7.828 -0.8689 -0.5940  2.9720
 8696SOL     OW37549   1.977   3.322   6.989 -0.2141 -0.0157  0.0975
 8696SOL    HW137550   1.931   3.405   6.997  0.0414  0.2265 -0.8555
 8696SOL    HW237551   2.066   3.350   6.969  0.6196 -2.3885  0.4283
 8697SOL     OW37552   1.758   3.221   7.938  0.0053  0.2871 -0.0105
 8697SOL    HW137553   1.766   3.303   7.888 -0.7964  1.1096  1.2068
 8697SOL    HW237554   1.728   3.248   8.025 -0.8238 -1.2155  0.1689
 8698SOL     OW37555   4.130   0.604   7.895  0.1090  0.2733 -0.0936
 8698SOL    HW137556   4.214   0.583   7.854 -0.4887  1.3069 -1.8167
 8698SOL    HW237557   4.138   0.699   7.902 -5.5498  0.6999  1.0272
 8699SOL     OW37558   2.959   0.590   7.046  0.4937 -0.0362  0.4903
 8699SOL    HW137559   2.912   0.516   7.009  1.0321 -0.5511  0.8425
 8699SOL    HW237560   2.889   0.594   7.111  0.0875 -0.1434  0.0625
 8700SOL     OW37561   2.918   2.695   2.772 -0.6127 -0.6129 -0.1505
 8700SOL    HW137562   3.002   2.660   2.801  1.0585  2.3545 -1.3680
 8700SOL    HW237563   2.879   2.710   2.858 -1.1673 -1.1075 -0.3146
 8701SOL     OW37564   1.628   1.636   3.448 -0.2043 -0.4558  0.3194
 8701SOL    HW137565   1.657   1.561   3.501 -1.9430 -2.2982 -1.3187
 8701SOL    HW237566   1.567   1.591   3.389 -0.4702 -0.3941  0.5505
 8702SOL     OW37567   0.307   3.777   6.896  0.4587  0.6983  0.1125
 8702SOL    HW137568   0.328   3.684   6.888  0.4392  0.7897 -0.9649
 8702SOL    HW237569   0.341   3.808   6.813 -0.1784 -1.7086 -1.0551
 8703SOL     OW37570   4.052   0.963   2.974  0.4008 -0.3748  0.4362
 8703SOL    HW137571   4.067   1.057   2.966 -0.8000 -0.1710  0.6586
 8703SOL    HW237572   4.101   0.934   2.897 -0.9374 -0.9226 -0.1956
 8704SOL     OW37573   1.996   0.055   8.573 -0.0444 -0.0443 -0.4260
 8704SOL    HW137574   1.955   0.015   8.650  3.6930 -2.7490  0.1595
 8704SOL    HW237575   1.991   4.707   8.510  0.8442 -1.6596  1.3468
 8705SOL     OW37576   0.594   2.589   1.884  0.5535  0.4560  0.4530
 8705SOL    HW137577   0.609   2.683   1.871  0.2404  0.4265 -0.1213
 8705SOL    HW237578   0.668   2.547   1.839 -1.5219  0.3079 -2.7996
 8706SOL     OW37579   0.283   4.404  14.590  0.0899  0.2014 -0.0860
 8706SOL    HW137580   0.200   4.440  14.560 -0.1502  1.4525  2.1254
 8706SOL    HW237581   0.268   4.366  14.676  1.6690 -2.0168 -0.7805
 8707SOL     OW37582   4.475   4.551   1.456 -0.1586  0.4364 -0.3876
 8707SOL    HW137583   4.423   4.548   1.376 -0.3567  0.0625 -0.2430
 8707SOL    HW237584   4.411   4.588   1.517  0.6370  1.3617 -0.1083
 8708SOL     OW37585   0.669   0.338   2.917 -0.0510 -0.7662 -0.6893
 8708SOL    HW137586   0.659   0.387   2.999  2.6603 -1.3492 -0.0030
 8708SOL    HW237587   0.603   0.380   2.861 -2.4538 -1.1213  1.8535
 8709SOL     OW37588   1.644   3.265   4.147  0.1776  0.2056 -0.4530
 8709SOL    HW137589   1.580   3.267   4.075  0.7031 -0.2051 -0.9315
 8709SOL    HW237590   1.595   3.213   4.210  1.4579  0.6034  0.8584
 8710SOL     OW37591   1.451   3.820  12.879 -0.5446  0.3028  0.1125
 8710SOL    HW137592   1.540   3.825  12.913 -1.1890 -3.1918  2.3131
 8710SOL    HW237593   1.457   3.776  12.794  1.6886  2.6080 -0.9283
 8711SOL     OW37594   4.256   3.195   6.373  0.6788  0.1055 -0.5036
 8711SOL    HW137595   4.220   3.135   6.308 -0.4476 -1.9634  2.0463
 8711SOL    HW237596   4.173   3.234   6.400  1.3213  1.1069  0.0293
 8712SOL     OW37597   1.361   2.036  16.362 -0.4202  0.3780 -0.1585
 8712SOL    HW137598   1.278   2.052  16.317 -1.5233  1.7641  2.4119
 8712SOL    HW237599   1.336   2.052  16.453 -2.5201  0.6708 -0.7775
 8713SOL     OW37600   2.756   3.787  12.151  0.1047 -0.9270 -0.5549
 8713SOL    HW137601   2.815   3.850  12.109 -0.0879  0.1489  0.7931
 8713SOL    HW237602   2.817   3.720  12.183  0.0612 -1.8986 -2.4991
 8714SOL     OW37603   1.823   4.364  14.691 -0.1473  0.1329  0.3938
 8714SOL    HW137604   1.848   4.452  14.719  0.7717  0.0843 -0.2828
 8714SOL    HW237605   1.822   4.383  14.597  0.0667 -3.2929 -0.2949
 8715SOL     OW37606   4.494   2.203   6.355  0.0736 -0.3681  0.5347
 8715SOL    HW137607   4.582   2.202   6.319 -0.7653  0.9136 -1.6030
 8715SOL    HW237608   4.493   2.294   6.383  0.5069 -0.3607  0.5157
 8716SOL     OW37609   4.588   3.206   3.984  0.7700  0.1176  0.3494
 8716SOL    HW137610   4.504   3.166   3.960  0.4381 -0.1428  1.9958
 8716SOL    HW237611   4.557   3.296   3.976  1.1583  0.1355 -1.0669
 8717SOL     OW37612   2.394   1.578   8.000 -0.1696 -0.3980 -0.4713
 8717SOL    HW137613   2.359   1.666   8.006  0.1698 -0.2531 -0.6249
 8717SOL    HW237614   2.317   1.525   8.020 -1.3249  1.7531  0.7552
 8718SOL     OW37615   1.329   1.976   8.492  0.7088 -0.4471 -0.1321
 8718SOL    HW137616   1.262   1.907   8.497  1.5361 -1.0976  1.7892
 8718SOL    HW237617   1.297   2.036   8.424 -1.2317  0.9579  2.0294
 8719SOL     OW37618   0.272   4.567  12.694  0.1185  0.3288 -0.2625
 8719SOL    HW137619   0.337   4.497  12.699  0.4295  0.4183 -3.1207
 8719SOL    HW237620   0.188   4.525  12.711  0.2721 -0.3771 -1.2329
 8720SOL     OW37621   3.501   1.103   0.888  0.3622  0.0826 -0.1675
 8720SOL    HW137622   3.507   1.163   0.962 -0.2688 -2.1240  1.6588
 8720SOL    HW237623   3.522   1.023   0.935 -1.1343 -0.1718  0.0639
 8721SOL     OW37624   3.331   2.438   1.877  0.1613  0.0465  0.4545
 8721SOL    HW137625   3.339   2.347   1.905 -0.4330  0.2991  1.4753
 8721SOL    HW237626   3.237   2.437   1.857 -0.0444 -0.6545  1.4310
 8722SOL     OW37627   0.229   1.725   5.435  0.1209 -0.1680  1.0276
 8722SOL    HW137628   0.243   1.820   5.444  1.5377 -0.3713  0.9115
 8722SOL    HW237629   0.152   1.733   5.378  1.6413  1.4686 -0.7851
 8723SOL     OW37630   1.275   0.393  11.265 -0.0919  0.1099 -0.1998
 8723SOL    HW137631   1.269   0.303  11.232 -0.4603  0.1041 -0.1145
 8723SOL    HW237632   1.273   0.376  11.360  0.9415 -0.2221 -0.2339
 8724SOL     OW37633   2.828   1.906   7.277 -0.1026  0.0085 -0.1381
 8724SOL    HW137634   2.853   1.984   7.327  0.3331 -0.6429  0.6580
 8724SOL    HW237635   2.734   1.899   7.292 -0.3279 -0.2124 -1.6870
 8725SOL     OW37636   3.182   0.811  14.226  0.2895 -0.1218 -0.2924
 8725SOL    HW137637   3.274   0.834  14.212  0.6052 -2.3516 -1.9553
 8725SOL    HW237638   3.155   0.824  14.135 -1.7368  1.3101  0.5151
 8726SOL     OW37639   1.238   1.850   3.699 -0.5561  0.0977 -0.1853
 8726SOL    HW137640   1.254   1.944   3.698 -3.5002  0.6219  1.2668
 8726SOL    HW237641   1.319   1.826   3.743 -0.7100  1.2055  0.6895
 8727SOL     OW37642   4.669   2.554   5.128  0.0258  0.0968  0.7393
 8727SOL    HW137643   4.622   2.479   5.092 -2.4068  0.3050  3.4660
 8727SOL    HW237644   4.598   2.617   5.120 -0.6474 -0.4940  2.0681
 8728SOL     OW37645   3.653   3.386   1.291 -0.3446 -0.3688 -0.3710
 8728SOL    HW137646   3.599   3.307   1.284  0.1662 -0.6452 -1.1962
 8728SOL    HW237647   3.709   3.363   1.366 -0.4520  1.5822  0.2900
 8729SOL     OW37648   1.196   3.152   4.309 -0.0299  0.0551  0.1185
 8729SOL    HW137649   1.187   3.198   4.392 -1.0408 -1.5569  0.8975
 8729SOL    HW237650   1.151   3.212   4.250 -0.9129 -1.0967 -0.3777
 8730SOL     OW37651   4.417   0.766  16.473 -0.3696 -0.4101 -0.1932
 8730SOL    HW137652   4.396   0.792  16.563  0.2405 -2.0347  0.4226
 8730SOL    HW237653   4.326   0.755  16.445 -0.2696  2.2286 -1.5458
 8731SOL     OW37654   1.249   4.349   3.824  0.2538 -0.1325 -0.2916
 8731SOL    HW137655   1.169   4.370   3.775 -1.7778 -1.3429  2.4482
 8731SOL    HW237656   1.236   4.256   3.844 -0.6855  0.0464 -0.0743
 8732SOL     OW37657   2.075   3.579   9.368  0.4999 -0.2808 -0.4685
 8732SOL    HW137658   2.001   3.547   9.316  0.3737 -0.7630  0.0149
 8732SOL    HW237659   2.032   3.644   9.423  1.1810  1.8408 -2.4357
 8733SOL     OW37660   3.450   1.273   2.292 -0.1602  0.2831  0.4569
 8733SOL    HW137661   3.504   1.259   2.215 -0.6778  0.1140  0.1305
 8733SOL    HW237662   3.369   1.281   2.242 -0.5497 -1.5205  0.7900
 8734SOL     OW37663   0.332   1.116  14.749  0.2595  0.2976  0.1393
 8734SOL    HW137664   0.384   1.196  14.753 -0.5993  0.7654  1.8516
 8734SOL    HW237665   0.398   1.051  14.722  1.2815 -0.0798  3.4872
 8735SOL     OW37666   3.672   2.709  10.834 -0.2834 -0.2135  0.2444
 8735SOL    HW137667   3.717   2.688  10.752  0.6691 -1.7607  1.1603
 8735SOL    HW237668   3.745   2.707  10.896  0.5381  1.2455 -0.6908
 8736SOL     OW37669   4.676   0.282  13.044 -0.6714 -0.4884 -0.1237
 8736SOL    HW137670   0.012   0.352  13.018 -0.2146 -0.9203 -0.2247
 8736SOL    HW237671   4.599   0.331  13.072 -0.1505 -0.2880  0.9557
 8737SOL     OW37672   1.844   0.401  10.568  0.2324 -0.3329  0.2806
 8737SOL    HW137673   1.797   0.446  10.639 -1.1943  2.6518 -2.5978
 8737SOL    HW237674   1.885   0.481  10.535 -2.2575  1.7666  2.1950
 8738SOL     OW37675   4.477   4.717   7.267  0.3472 -0.3090 -0.2671
 8738SOL    HW137676   4.465   0.045   7.187 -1.1086  1.0770  0.8612
 8738SOL    HW237677   4.490   4.626   7.238 -0.9349 -0.8878  0.9575
 8739SOL     OW37678   0.643   4.556  15.371 -0.2446  0.0059 -0.2363
 8739SOL    HW137679   0.589   4.604  15.308  0.7871 -2.1167 -2.7652
 8739SOL    HW237680   0.572   4.515  15.420  1.1545 -0.1857  1.6249
 8740SOL     OW37681   0.501   3.555   6.763 -0.4418  0.0688 -0.4002
 8740SOL    HW137682   0.466   3.561   6.674  1.6227 -0.6406 -1.2621
 8740SOL    HW237683   0.477   3.463   6.780  1.0045 -0.4211 -1.0000
 8741SOL     OW37684   0.658   0.237   8.359 -0.2432  0.5504  0.7752
 8741SOL    HW137685   0.565   0.212   8.367 -0.5406  1.1573 -0.9469
 8741SOL    HW237686   0.679   0.193   8.442 -2.8352 -1.5644  0.3270
 8742SOL     OW37687   4.314   4.369  14.206 -0.2924  0.2225  0.2206
 8742SOL    HW137688   4.339   4.426  14.279  0.5819  1.6551 -1.2038
 8742SOL    HW237689   4.225   4.343  14.229 -1.6036  4.3711 -0.1911
 8743SOL     OW37690   1.888   1.851  10.520  0.5217 -0.2888 -0.1004
 8743SOL    HW137691   1.960   1.897  10.563 -1.3289  2.5455 -0.0336
 8743SOL    HW237692   1.904   1.853  10.425  0.0142 -2.2019 -0.2139
 8744SOL     OW37693   1.710   1.952   2.745  0.1970  0.4035 -0.5349
 8744SOL    HW137694   1.804   1.942   2.756  0.1513 -0.7795 -1.2054
 8744SOL    HW237695   1.689   1.894   2.671 -0.7226  0.9098 -0.6666
 8745SOL     OW37696   0.421   0.291  12.568  0.6227 -0.0655  0.5280
 8745SOL    HW137697   0.343   0.239  12.548  0.8402 -0.5690  1.0114
 8745SOL    HW237698   0.484   0.222  12.587  1.7690  0.4895 -1.2052
 8746SOL     OW37699   2.878   0.130  16.857  0.0622  0.4527  0.1594
 8746SOL    HW137700   2.822   0.207  16.846 -2.7081 -1.0873  3.6186
 8746SOL    HW237701   2.907   0.140  16.948 -1.1439  3.5831  0.2153
 8747SOL     OW37702   0.219   4.449   4.184 -0.3483  0.6037 -0.3513
 8747SOL    HW137703   0.128   4.476   4.173 -0.7111 -0.3260  0.3799
 8747SOL    HW237704   0.199   4.358   4.203  2.7273  0.1491  0.7555
 8748SOL     OW37705   2.521   4.488   6.566 -0.1230  0.4276  0.0762
 8748SOL    HW137706   2.561   4.558   6.617  0.3066  0.5163 -0.3859
 8748SOL    HW237707   2.602   4.438   6.554 -0.2214  0.2981 -0.0611
 8749SOL     OW37708   3.921   1.028  11.021 -0.0610  0.2970 -0.5510
 8749SOL    HW137709   3.959   1.042  10.934 -0.3335 -0.7853 -0.8396
 8749SOL    HW237710   3.986   0.973  11.064 -0.9214 -1.2666 -1.2522
 8750SOL     OW37711   1.090   2.950   2.765  0.4142  0.0544 -0.6698
 8750SOL    HW137712   1.151   3.014   2.801  0.4970 -0.4154  0.0190
 8750SOL    HW237713   1.149   2.917   2.697 -1.7713  0.3861 -2.7444
 8751SOL     OW37714   2.341   3.882   3.935  0.1267  0.3088  0.4911
 8751SOL    HW137715   2.327   3.795   3.899 -0.6862  0.3428  0.7289
 8751SOL    HW237716   2.250   3.908   3.945  0.1738 -0.0055  1.7456
 8752SOL     OW37717   0.597   3.540   0.980 -0.0339 -0.3535 -0.2714
 8752SOL    HW137718   0.567   3.452   0.960 -0.3744 -0.4274  0.5365
 8752SOL    HW237719   0.688   3.527   1.007  0.3605  2.0254 -0.4347
 8753SOL     OW37720   4.276   1.438   1.367  0.4258 -0.8342  0.7257
 8753SOL    HW137721   4.301   1.445   1.275  1.2921  2.0970  1.1767
 8753SOL    HW237722   4.203   1.377   1.366 -1.3007  1.2282 -0.6584
 8754SOL     OW37723   4.050   0.139  17.612 -0.1107 -0.0431 -0.1105
 8754SOL    HW137724   3.985   0.143  17.541 -0.2884  1.5918  0.1539
 8754SOL    HW237725   4.001   0.166  17.689 -0.5194  0.8811 -0.6887
 8755SOL     OW37726   1.360   1.585   2.748 -0.0237  0.6189  0.0280
 8755SOL    HW137727   1.337   1.564   2.658  0.4584  0.8039 -0.1371
 8755SOL    HW237728   1.404   1.502   2.765  1.2451  1.1057 -0.9581
 8756SOL     OW37729   3.027   1.564   2.141 -0.2351 -0.0810 -0.6354
 8756SOL    HW137730   2.955   1.556   2.078  1.1026  0.5547 -2.2325
 8756SOL    HW237731   2.960   1.548   2.208  0.3865  0.8448  0.2067
 8757SOL     OW37732   4.345   2.916   2.294 -0.1216 -0.4596  0.8303
 8757SOL    HW137733   4.403   2.961   2.355 -0.6078 -1.0502  1.7298
 8757SOL    HW237734   4.301   2.852   2.351  0.1068 -1.9176 -0.6166
 8758SOL     OW37735   0.385   0.236   1.537 -0.2702  0.4391 -0.0008
 8758SOL    HW137736   0.374   0.242   1.442  0.7718 -0.1477 -0.1593
 8758SOL    HW237737   0.465   0.283   1.560 -0.6605 -0.3298  2.9480
 8759SOL     OW37738   2.644   4.299  16.813  0.3536 -0.0583 -0.0756
 8759SOL    HW137739   2.630   4.317  16.906 -0.5556 -3.1007  0.3611
 8759SOL    HW237740   2.580   4.233  16.788  0.1326 -0.5323  1.7753
 8760SOL     OW37741   2.946   2.806   6.697  0.3878  0.1150 -0.7219
 8760SOL    HW137742   2.993   2.725   6.720 -1.0114 -0.3398  0.5198
 8760SOL    HW237743   2.899   2.823   6.778  0.4785 -0.3150 -0.5747
 8761SOL     OW37744   4.720   4.176   6.546 -0.3472  0.9612  0.3453
 8761SOL    HW137745   4.641   4.207   6.591 -2.1894 -0.0088 -2.2029
 8761SOL    HW237746   4.694   4.187   6.454 -0.3124  1.0514  0.3457
 8762SOL     OW37747   0.407   1.251   8.380  0.1550 -0.1950  0.5612
 8762SOL    HW137748   0.418   1.333   8.429  1.0892 -0.6678  1.1375
 8762SOL    HW237749   0.331   1.219   8.430  0.8412 -1.7517  0.6046
 8763SOL     OW37750   1.026   3.076   8.521 -0.0369  0.3531 -0.7146
 8763SOL    HW137751   1.095   3.052   8.583  0.6063 -0.7105 -1.8330
 8763SOL    HW237752   1.072   3.085   8.437 -0.9915 -0.3964 -1.3159
 8764SOL     OW37753   1.290   3.226   3.482 -0.2996 -0.0935 -0.0443
 8764SOL    HW137754   1.206   3.201   3.521  0.8107 -0.9095  1.8315
 8764SOL    HW237755   1.266   3.303   3.432 -2.5572 -2.0937 -2.0524
 8765SOL     OW37756   3.267   1.057   9.518  0.3197  0.1800  0.5207
 8765SOL    HW137757   3.236   1.012   9.440  0.7614 -2.1976  1.7110
 8765SOL    HW237758   3.320   1.125   9.476 -2.2143  2.5034  1.0619
 8766SOL     OW37759   1.447   0.638   6.506 -0.0313 -0.1318  0.2286
 8766SOL    HW137760   1.397   0.574   6.456  0.7305 -1.1872  0.8249
 8766SOL    HW237761   1.378   0.656   6.570 -0.0449  1.6312 -0.2884
 8767SOL     OW37762   3.070   1.619   6.342 -0.0426 -0.2420  0.2300
 8767SOL    HW137763   3.130   1.619   6.417 -0.2103  2.3271  0.3513
 8767SOL    HW237764   3.099   1.694   6.292 -0.5853 -1.1595 -1.4708
 8768SOL     OW37765   3.889   1.939  15.765 -0.4195  0.9152 -0.0804
 8768SOL    HW137766   3.917   1.920  15.675 -1.1193 -0.0034 -0.1003
 8768SOL    HW237767   3.969   1.928  15.817 -1.2378 -1.1710  0.7078
 8769SOL     OW37768   1.817   0.298   4.809 -0.4087 -0.3182 -0.3296
 8769SOL    HW137769   1.868   0.230   4.765  0.3544 -0.0585  0.1513
 8769SOL    HW237770   1.889   0.360   4.820  1.1628 -2.0895 -0.7742
 8770SOL     OW37771   2.341   0.375   4.421  0.3956  0.3021  0.2820
 8770SOL    HW137772   2.283   0.368   4.345 -0.5938  0.4660  1.0172
 8770SOL    HW237773   2.424   0.398   4.379 -1.0830  0.7372 -2.4086
 8771SOL     OW37774   0.972   2.167   7.277  0.0135 -0.2963  0.0970
 8771SOL    HW137775   1.047   2.201   7.227  1.5032 -1.7890  1.3223
 8771SOL    HW237776   0.931   2.253   7.291 -0.1704 -0.2951 -0.4234
 8772SOL     OW37777   3.548   2.703   8.101 -0.0436  0.1169  0.1743
 8772SOL    HW137778   3.627   2.649   8.097  0.6736  1.2903 -1.6775
 8772SOL    HW237779   3.574   2.764   8.170 -1.1996  0.5802  0.1990
 8773SOL     OW37780   4.607   3.355   7.393  0.1362  0.2279  0.0201
 8773SOL    HW137781   4.684   3.301   7.372  1.0864  1.3132  0.6909
 8773SOL    HW237782   4.615   3.431   7.335 -0.3693  1.2656  1.3019
 8774SOL     OW37783   4.647   3.424   2.971  0.0713  0.3640  0.4284
 8774SOL    HW137784   4.686   3.381   2.895 -0.1940 -0.4464  0.7433
 8774SOL    HW237785   4.651   3.362   3.044 -0.6331  1.8424  1.7302
 8775SOL     OW37786   0.373   2.012   1.838 -0.5990 -0.2116  0.2522
 8775SOL    HW137787   0.382   1.976   1.750 -1.6498 -0.3516  0.2111
 8775SOL    HW237788   0.425   2.092   1.827 -2.7442  0.9385 -1.4507
 8776SOL     OW37789   1.352   0.844   6.988 -0.0354 -0.7514 -0.3868
 8776SOL    HW137790   1.402   0.765   7.008 -1.3602 -1.5885 -0.3633
 8776SOL    HW237791   1.272   0.801   6.960  0.0662 -0.4470 -1.1364
 8777SOL     OW37792   2.367   2.549   4.867  0.4090 -0.4911  0.1841
 8777SOL    HW137793   2.300   2.616   4.858  3.2002  2.1658 -0.5661
 8777SOL    HW237794   2.400   2.560   4.956 -0.4667 -1.3582  0.6177
 8778SOL     OW37795   1.901   2.230  12.857 -0.2207  0.1126 -0.0397
 8778SOL    HW137796   1.887   2.145  12.900  0.0680 -0.3917 -0.9402
 8778SOL    HW237797   1.817   2.272  12.877 -1.0566 -0.7634 -1.7276
 8779SOL     OW37798   3.280   1.885   3.635  0.3329 -0.2681 -0.2246
 8779SOL    HW137799   3.269   1.815   3.571 -0.7754 -1.1569  0.9372
 8779SOL    HW237800   3.339   1.841   3.695  0.8592  1.8104  0.8010
 8780SOL     OW37801   1.554   0.801  13.247 -0.1127  0.7841 -0.3381
 8780SOL    HW137802   1.581   0.721  13.202 -1.1519 -1.2352  2.6318
 8780SOL    HW237803   1.540   0.770  13.336  0.6644 -0.9262 -0.7982
 8781SOL     OW37804   4.407   2.292   4.496  0.3217 -0.2000 -0.1193
 8781SOL    HW137805   4.466   2.220   4.474 -0.0816  0.1069 -2.2232
 8781SOL    HW237806   4.330   2.242   4.522 -0.3806  0.3927 -1.0356
 8782SOL     OW37807   2.316   3.208   8.206  0.0700 -0.1812 -0.1412
 8782SOL    HW137808   2.274   3.125   8.182  1.8763 -1.1385 -0.0233
 8782SOL    HW237809   2.354   3.182   8.290  0.6874 -1.0273 -0.6743
 8783SOL     OW37810   2.190   0.902  16.467  0.6173  0.9637  0.3638
 8783SOL    HW137811   2.148   0.830  16.514 -1.5168  0.7637 -1.8461
 8783SOL    HW237812   2.213   0.965  16.535 -0.4576  2.0309 -0.2440
 8784SOL     OW37813   3.421   3.826  17.271  0.0612 -0.3220 -0.4634
 8784SOL    HW137814   3.356   3.854  17.336  0.1710 -1.1746  0.0119
 8784SOL    HW237815   3.378   3.847  17.188 -0.3324  1.6362  0.2369
 8785SOL     OW37816   0.606   2.173   6.019 -0.6456 -0.0867 -0.4383
 8785SOL    HW137817   0.702   2.170   6.010 -0.7530  0.6950 -1.9412
 8785SOL    HW237818   0.603   2.146   6.111  1.5824 -1.9798 -0.9033
 8786SOL     OW37819   3.464   1.613  13.859 -0.3948  0.0435 -0.0286
 8786SOL    HW137820   3.411   1.652  13.929 -1.3693 -0.4903 -0.4753
 8786SOL    HW237821   3.528   1.683  13.843  0.0428 -0.6493 -1.2729
 8787SOL     OW37822   1.539   0.062   8.442 -0.4531  0.4589 -0.4870
 8787SOL    HW137823   1.450   0.081   8.470 -0.3901  1.5420 -1.0328
 8787SOL    HW237824   1.582   0.068   8.528 -0.7992 -4.4106  0.0216
 8788SOL     OW37825   4.102   0.533   6.274  0.4665 -0.1868 -0.7121
 8788SOL    HW137826   4.196   0.529   6.294  0.1570 -1.0917  0.5439
 8788SOL    HW237827   4.077   0.441   6.259 -0.0436 -0.0082 -0.9466
 8789SOL     OW37828   0.825   4.544   5.423 -0.3469  0.0180  0.3370
 8789SOL    HW137829   0.742   4.527   5.379 -1.2693  0.8564  1.7426
 8789SOL    HW237830   0.862   4.455   5.425  0.1720  0.1982 -1.0989
 8790SOL     OW37831   2.975   0.305   3.402 -0.1950  0.0623 -0.5030
 8790SOL    HW137832   3.023   0.356   3.337 -0.4440  1.6611  0.5751
 8790SOL    HW237833   3.031   0.229   3.388  0.0259  0.1363 -0.0027
 8791SOL     OW37834   3.290   4.477  12.074  0.4585 -0.0630  0.5825
 8791SOL    HW137835   3.285   4.559  12.026 -0.3210  0.3243  1.3458
 8791SOL    HW237836   3.346   4.498  12.148  0.2390  1.9382  0.1676
 8792SOL     OW37837   1.338   2.745   5.404  0.1564 -0.6674 -0.1631
 8792SOL    HW137838   1.307   2.832   5.428  0.7403 -0.7468  0.8819
 8792SOL    HW237839   1.255   2.698   5.415  1.1077 -1.9449  1.6387
 8793SOL     OW37840   1.762   1.441   6.941  0.2086  0.1910  0.5371
 8793SOL    HW137841   1.718   1.357   6.939  2.3780 -0.8850 -4.1464
 8793SOL    HW237842   1.717   1.488   7.011 -0.6871 -0.4809  0.3965
 8794SOL     OW37843   0.364   1.174  15.444  0.2030  0.1861 -0.4406
 8794SOL    HW137844   0.316   1.215  15.515  2.1455  0.6398  0.6258
 8794SOL    HW237845   0.301   1.110  15.411 -0.6765  0.8165  0.0248
 8795SOL     OW37846   0.940   4.020   3.149  0.5880 -0.4152  0.4268
 8795SOL    HW137847   0.883   3.948   3.123 -1.1470  1.2621 -0.4749
 8795SOL    HW237848   0.883   4.093   3.125 -0.4108 -0.7073  1.8989
 8796SOL     OW37849   3.746   2.775   8.329 -0.6007  0.1725 -0.5912
 8796SOL    HW137850   3.760   2.865   8.360  0.8127  0.2535 -1.4780
 8796SOL    HW237851   3.725   2.727   8.409  0.1821  0.1799 -0.3747
 8797SOL     OW37852   0.252   3.086   2.885 -0.3744  0.3653  0.0736
 8797SOL    HW137853   0.287   2.997   2.874 -2.3681 -0.4557  0.3647
 8797SOL    HW237854   0.304   3.116   2.959  0.7875 -0.5647 -0.3576
 8798SOL     OW37855   1.854   2.122   6.116  0.0922 -0.2797 -0.2904
 8798SOL    HW137856   1.850   2.041   6.167  0.7483  0.4992  0.9998
 8798SOL    HW237857   1.933   2.105   6.065 -0.0594  0.9586 -0.9289
 8799SOL     OW37858   4.061   2.599   4.105 -0.4773  0.5934 -0.0806
 8799SOL    HW137859   4.029   2.681   4.143 -2.1244  0.5097 -1.2996
 8799SOL    HW237860   3.986   2.581   4.048 -0.1650  0.8664 -0.5709
 8800SOL     OW37861   1.965   4.297   3.546  0.1148 -0.5472  0.2471
 8800SOL    HW137862   1.941   4.268   3.458 -2.2169  1.4853  0.2080
 8800SOL    HW237863   1.912   4.240   3.603  0.3915 -1.7143 -0.6555
 8801SOL     OW37864   2.938   1.566   9.094 -0.5043 -0.1834 -0.1291
 8801SOL    HW137865   2.906   1.532   9.010  0.2050  1.0014 -0.8700
 8801SOL    HW237866   2.900   1.653   9.101  1.0498  0.5405 -0.7243
 8802SOL     OW37867   3.824   0.996   2.136  0.8601 -0.8714  0.1909
 8802SOL    HW137868   3.765   0.929   2.102 -0.2806 -0.3825  1.1930
 8802SOL    HW237869   3.861   1.021   2.051  1.7710  0.1246  0.8692
 8803SOL     OW37870   0.834   2.186   6.246  0.0603 -0.2977 -0.9199
 8803SOL    HW137871   0.925   2.180   6.275 -0.0811  3.5967  0.4272
 8803SOL    HW237872   0.825   2.100   6.206 -1.7830 -0.5637  0.0740
 8804SOL     OW37873   4.696   0.575  13.436  0.0923  0.3104 -0.3265
 8804SOL    HW137874   0.057   0.535  13.414  0.8195  0.5089  2.0673
 8804SOL    HW237875   4.689   0.538  13.524 -0.7523  0.6308 -0.2631
 8805SOL     OW37876   2.988   3.073  11.137 -0.3004 -0.4896 -0.0460
 8805SOL    HW137877   3.025   3.047  11.222 -0.8830  2.0855  1.0029
 8805SOL    HW237878   2.978   3.166  11.159  0.3585 -0.0755 -1.4937
 8806SOL     OW37879   2.684   3.921   0.616 -0.1711 -0.2731 -0.4440
 8806SOL    HW137880   2.703   3.897   0.526 -0.6119  1.1724 -0.9202
 8806SOL    HW237881   2.741   3.867   0.671 -0.7048 -0.5525 -0.1622
 8807SOL     OW37882   0.085   4.202   7.178 -0.3386 -0.4027 -0.2419
 8807SOL    HW137883   0.094   4.113   7.145  2.4862  0.0268 -0.7082
 8807SOL    HW237884   4.721   4.224   7.146  0.5642  1.6371 -1.3371
 8808SOL     OW37885   1.302   3.048   3.806  0.3277 -0.7961 -0.5870
 8808SOL    HW137886   1.370   3.024   3.869 -0.7059  1.3289  1.3722
 8808SOL    HW237887   1.283   2.972   3.752  2.8844 -0.1925 -2.3199
 8809SOL     OW37888   2.780   1.045  10.462 -0.0018  0.3436  0.2859
 8809SOL    HW137889   2.820   0.959  10.479  1.2314  0.4642 -2.0179
 8809SOL    HW237890   2.696   1.038  10.507  0.5439 -0.1057  1.2309
 8810SOL     OW37891   0.418   2.054  15.127 -0.6596  0.0495  0.1823
 8810SOL    HW137892   0.344   2.031  15.182 -0.9461 -2.3578 -1.2006
 8810SOL    HW237893   0.375   2.097  15.053  2.0433  0.6640 -1.0186
 8811SOL     OW37894   2.765   3.740   1.548  0.0083  0.3233 -0.5260
 8811SOL    HW137895   2.822   3.817   1.558  2.1132 -1.2933  0.0019
 8811SOL    HW237896   2.743   3.717   1.638  0.5983 -1.0277 -0.7388
 8812SOL     OW37897   4.306   4.680   0.279  0.2860  0.0239 -0.0807
 8812SOL    HW137898   4.223   4.640   0.306 -0.3356  1.5443  0.2871
 8812SOL    HW237899   4.336   0.002   0.358 -0.1159  3.0788 -1.6766
 8813SOL     OW37900   4.280   2.351  11.374 -0.3323  0.4806  0.5956
 8813SOL    HW137901   4.329   2.276  11.341  0.9204  0.1943  3.0807
 8813SOL    HW237902   4.343   2.397  11.429  1.1852 -1.8071  0.7404
 8814SOL     OW37903   4.516   2.785   8.139  0.4758 -0.1777  0.2692
 8814SOL    HW137904   4.528   2.690   8.133 -1.2765 -0.4139  0.3369
 8814SOL    HW237905   4.465   2.798   8.219  3.2623 -0.0202  2.0006
 8815SOL     OW37906   1.037   0.826   2.180 -0.0256 -0.3982 -0.0782
 8815SOL    HW137907   0.966   0.853   2.238 -2.0348 -3.7751 -0.9761
 8815SOL    HW237908   1.044   0.733   2.201 -0.9641 -0.0944  1.5188
 8816SOL     OW37909   0.216   2.963   1.749 -0.4110 -0.0548 -0.4717
 8816SOL    HW137910   0.214   2.913   1.668  0.3073  2.4775 -2.0640
 8816SOL    HW237911   0.209   3.048   1.705  0.1299  0.0386 -0.3745
 8817SOL     OW37912   2.571   4.060   8.907 -0.1004 -0.1292  0.7907
 8817SOL    HW137913   2.624   4.136   8.880  0.5278 -1.1262 -0.7766
 8817SOL    HW237914   2.531   4.038   8.822  0.9253  0.9642  0.0192
 8818SOL     OW37915   1.860   1.406   2.125 -0.0613  0.6845  0.7983
 8818SOL    HW137916   1.892   1.317   2.110  0.4375  1.2489 -1.5394
 8818SOL    HW237917   1.933   1.454   2.086  0.0605  0.9335  1.3348
 8819SOL     OW37918   0.266   1.089  13.366  0.2156 -0.4307  0.7685
 8819SOL    HW137919   0.224   1.123  13.287  0.6388 -0.3030  0.5997
 8819SOL    HW237920   0.296   1.171  13.405  0.0103 -0.2023  0.4457
 8820SOL     OW37921   3.134   0.603   2.531 -0.0987  0.0489 -0.3557
 8820SOL    HW137922   3.120   0.660   2.456  2.2233  0.1069 -0.7526
 8820SOL    HW237923   3.208   0.644   2.577 -0.2610 -0.7598  0.6346
 8821SOL     OW37924   3.821   3.240   3.628 -0.8834 -0.1956  0.1651
 8821SOL    HW137925   3.869   3.242   3.712 -0.0600 -0.0182 -0.3100
 8821SOL    HW237926   3.872   3.169   3.590  0.2536  0.9885 -0.5397
 8822SOL     OW37927   0.472   4.408  10.400 -0.2511  0.3555  0.5331
 8822SOL    HW137928   0.411   4.454  10.457 -1.8874 -0.1310 -0.8270
 8822SOL    HW237929   0.424   4.420  10.318 -0.0742  0.2819  0.4199
 8823SOL     OW37930   2.804   3.575   4.598  0.2075  0.0544 -0.3535
 8823SOL    HW137931   2.784   3.484   4.575  1.2141 -0.0234 -0.8964
 8823SOL    HW237932   2.859   3.561   4.675 -1.1394 -2.3137  0.1913
 8824SOL     OW37933   4.287   4.296   3.328  0.0634 -0.3167  0.0163
 8824SOL    HW137934   4.227   4.369   3.317 -1.5201 -1.6495 -0.1269
 8824SOL    HW237935   4.226   4.222   3.334  1.6225 -1.5499  0.7514
 8825SOL     OW37936   4.603   0.889   4.688 -0.0094  0.1369 -0.0835
 8825SOL    HW137937   4.659   0.822   4.649 -1.3795  0.5531 -2.7729
 8825SOL    HW237938   4.541   0.904   4.616 -1.1229 -0.2427  0.7895
 8826SOL     OW37939   0.034   1.931   8.556  0.0477  0.5044 -0.1081
 8826SOL    HW137940   0.059   1.839   8.553 -0.9646  0.2764 -1.5916
 8826SOL    HW237941   0.033   1.948   8.650 -0.7948  3.2204 -0.6209
 8827SOL     OW37942   1.443   4.493   8.010 -0.1058  0.2171 -0.0999
 8827SOL    HW137943   1.376   4.519   8.073 -2.9260 -0.7622 -2.7327
 8827SOL    HW237944   1.389   4.425   7.971 -0.7257  0.4645  0.3246
 8828SOL     OW37945   0.982   1.987   5.742  0.1975  0.8382 -1.0305
 8828SOL    HW137946   0.983   1.896   5.772 -0.0382  1.2438  0.1948
 8828SOL    HW237947   1.074   2.009   5.756  0.0625  1.0972 -0.5513
 8829SOL     OW37948   0.104   3.148   9.113  0.4659 -0.6943  0.5299
 8829SOL    HW137949   0.103   3.237   9.077  0.5626 -0.4620  1.0984
 8829SOL    HW237950   0.117   3.167   9.206  1.4966  2.4616 -0.2542
 8830SOL     OW37951   1.500   3.765   6.483  0.1434  0.8964 -0.3724
 8830SOL    HW137952   1.486   3.790   6.574  0.5445 -1.6845  0.3798
 8830SOL    HW237953   1.594   3.777   6.472  0.3890 -2.4226 -1.9555
 8831SOL     OW37954   1.497   0.591   2.934 -0.7094 -0.2495 -0.0331
 8831SOL    HW137955   1.550   0.586   2.855 -0.4327 -0.2019  0.1457
 8831SOL    HW237956   1.425   0.533   2.910 -1.1636  1.5494 -2.9268
 8832SOL     OW37957   1.440   1.726   2.120 -0.0632  0.2126  0.1890
 8832SOL    HW137958   1.478   1.677   2.047 -2.8155  1.5124 -2.1247
 8832SOL    HW237959   1.516   1.751   2.173 -0.5782  1.3700  0.3842
 8833SOL     OW37960   4.438   3.379  13.570  0.1570 -0.3077 -0.2752
 8833SOL    HW137961   4.477   3.466  13.564 -0.6249 -0.1227 -2.7837
 8833SOL    HW237962   4.362   3.394  13.513 -0.7886 -0.1298  1.0444
 8834SOL     OW37963   3.852   1.347   5.902  0.0969  0.1048  0.1601
 8834SOL    HW137964   3.856   1.265   5.951  0.7626 -0.7729 -1.3439
 8834SOL    HW237965   3.757   1.346   5.897  0.1399 -1.1137 -0.4566
 8835SOL     OW37966   0.819   0.067  14.800  0.3766  0.3074 -0.3185
 8835SOL    HW137967   0.761   0.019  14.741  0.8518 -0.6370 -0.0211
 8835SOL    HW237968   0.766   0.095  14.874 -1.1872 -0.8853 -0.9834
 8836SOL     OW37969   4.458   0.958   1.745  0.1796  0.1570 -0.4976
 8836SOL    HW137970   4.419   0.968   1.658 -0.9072  1.3124  0.1188
 8836SOL    HW237971   4.460   1.049   1.776 -0.1799  0.5149 -1.4984
 8837SOL     OW37972   4.289   3.732  13.371 -0.4855 -0.2951  0.0398
 8837SOL    HW137973   4.194   3.727  13.384 -0.4339  0.4950  0.7761
 8837SOL    HW237974   4.289   3.750  13.277 -0.7463  0.5370  0.2018
 8838SOL     OW37975   1.809   1.633  12.061 -0.6373 -0.0353  0.5018
 8838SOL    HW137976   1.887   1.614  12.112  0.5069  0.3384 -1.1121
 8838SOL    HW237977   1.851   1.669  11.983  1.5722  0.3717  1.8840
 8839SOL     OW37978   0.240   2.007   5.383  0.1651 -0.2356  0.3048
 8839SOL    HW137979   0.252   2.024   5.289 -1.1302 -1.9764 -0.1854
 8839SOL    HW237980   0.145   2.010   5.390  0.2028 -0.0072  0.6904
 8840SOL     OW37981   1.337   3.717   4.956  0.3440 -0.8278 -0.5630
 8840SOL    HW137982   1.355   3.648   5.020  3.7564 -0.6306 -1.3025
 8840SOL    HW237983   1.287   3.681   4.882 -0.5033  0.6890 -0.7148
 8841SOL     OW37984   2.384   4.697   5.767  0.3503  0.7047 -0.5528
 8841SOL    HW137985   2.378   0.068   5.763  0.5903  0.7866  1.2166
 8841SOL    HW237986   2.476   4.683   5.744  0.4974  1.2340 -0.2887
 8842SOL     OW37987   0.453   1.003   8.020  0.5231  0.3655  0.1487
 8842SOL    HW137988   0.409   1.084   8.047 -0.4904 -0.1720  0.1250
 8842SOL    HW237989   0.495   1.030   7.938  0.4895 -0.9269 -0.2911
 8843SOL     OW37990   0.330   4.298   6.898  0.2968 -0.0277  0.5549
 8843SOL    HW137991   0.286   4.252   6.970  1.8452  0.3015  1.7195
 8843SOL    HW237992   0.310   4.241   6.825 -0.4473 -0.3652  1.0193
 8844SOL     OW37993   3.416   0.891  14.131 -0.1815 -0.1259 -0.2883
 8844SOL    HW137994   3.493   0.835  14.123 -0.6643 -1.0684  1.8755
 8844SOL    HW237995   3.446   0.971  14.089  3.4989 -0.5548  1.5819
 8845SOL     OW37996   4.206   4.456   7.756  0.1040 -0.0457  0.2364
 8845SOL    HW137997   4.157   4.448   7.839 -2.1412  0.3066 -1.0481
 8845SOL    HW237998   4.213   4.551   7.747 -1.5250  0.0255 -0.2380
 8846SOL     OW37999   3.362   4.416  17.454 -0.0711 -0.5003  0.0180
 8846SOL    HW138000   3.305   4.383  17.523 -0.3175  0.3400  0.2144
 8846SOL    HW238001   3.403   4.335  17.423  1.0769 -0.0917  0.4756
 8847SOL     OW38002   2.045   2.586   2.743  0.4823  0.0652  0.0384
 8847SOL    HW138003   2.016   2.501   2.709 -1.4104  0.3505  0.9321
 8847SOL    HW238004   2.030   2.639   2.665  2.2372 -0.0647 -0.3805
 8848SOL     OW38005   3.579   0.995   8.764  0.1382 -0.2767  0.1643
 8848SOL    HW138006   3.488   0.989   8.793  0.1842  1.1599  0.6022
 8848SOL    HW238007   3.588   0.927   8.697 -1.6599 -0.3315 -0.0183
 8849SOL     OW38008   4.631   0.153   8.775  0.6126  0.0234 -0.2424
 8849SOL    HW138009   4.641   0.247   8.761 -0.3876  0.5201  2.4312
 8849SOL    HW238010   4.720   0.140   8.807  0.3836 -2.6105 -0.6135
 8850SOL     OW38011   3.189   3.464   1.723 -0.1665  0.1842 -0.5819
 8850SOL    HW138012   3.140   3.533   1.768  1.5580  0.6678  0.5396
 8850SOL    HW238013   3.123   3.402   1.691 -0.3213 -0.5902  1.2184
 8851SOL     OW38014   2.260   2.156   5.393 -0.4415 -0.0902  0.6821
 8851SOL    HW138015   2.217   2.241   5.389  1.7805  1.0471  1.3649
 8851SOL    HW238016   2.198   2.097   5.351  1.8730 -0.9463 -1.5127
 8852SOL     OW38017   1.187   2.061  10.049  0.1294  0.7794  0.0529
 8852SOL    HW138018   1.151   2.149  10.062  1.6473  1.5322 -0.8351
 8852SOL    HW238019   1.224   2.048  10.136  0.3452 -0.5582 -0.2390
 8853SOL     OW38020   1.191   1.897   2.724  0.7639  0.3628 -0.0823
 8853SOL    HW138021   1.099   1.917   2.737  0.5725 -0.1604 -0.6652
 8853SOL    HW238022   1.229   1.984   2.736  1.6177  0.2733 -2.1589
 8854SOL     OW38023   4.275   0.120   3.737 -0.0554 -0.3907 -0.3461
 8854SOL    HW138024   4.272   0.098   3.643 -1.3571 -0.8614 -0.1921
 8854SOL    HW238025   4.263   0.214   3.733  0.6145 -0.3575 -1.7892
 8855SOL     OW38026   1.831   0.833   8.927  0.2636  0.4413  0.1641
 8855SOL    HW138027   1.859   0.919   8.897  0.9428  1.0281  2.4704
 8855SOL    HW238028   1.737   0.826   8.911  0.2759 -0.4422  0.4804
 8856SOL     OW38029   3.927   4.607   2.398 -0.8312  0.3741  0.1610
 8856SOL    HW138030   3.956   4.528   2.442 -0.9893  0.0917 -0.2428
 8856SOL    HW238031   3.857   4.570   2.344 -0.7609  0.6945 -0.1530
 8857SOL     OW38032   0.294   4.006  11.255  0.7094 -0.3397 -0.1371
 8857SOL    HW138033   0.357   4.068  11.294  0.6600 -0.3408 -0.0543
 8857SOL    HW238034   0.290   4.045  11.168  1.2401  0.6309  0.2674
 8858SOL     OW38035   1.530   2.266   3.171 -0.2882 -0.1229 -0.1222
 8858SOL    HW138036   1.531   2.190   3.113  0.0873 -0.4519  0.3167
 8858SOL    HW238037   1.498   2.220   3.248  1.2334 -1.7649 -0.4733
 8859SOL     OW38038   1.412   1.826  10.105 -0.4599  0.0742  0.2594
 8859SOL    HW138039   1.448   1.739  10.123  0.4300  0.9154  2.5738
 8859SOL    HW238040   1.492   1.872  10.132 -0.2498  0.8215 -1.5816
 8860SOL     OW38041   3.618   4.037   1.415 -0.0154  0.6206  0.0050
 8860SOL    HW138042   3.623   4.035   1.319  1.8947  0.7935  0.0983
 8860SOL    HW238043   3.528   4.059   1.438  0.2417  1.6440  0.0280
 8861SOL     OW38044   4.393   4.046   8.490  0.7580  0.3018 -0.1509
 8861SOL    HW138045   4.453   3.977   8.462  0.0283  0.4254 -1.9966
 8861SOL    HW238046   4.314   4.023   8.442 -0.0778 -0.6842  1.6839
 8862SOL     OW38047   3.169   0.717   6.892 -0.3340  0.4949 -0.1587
 8862SOL    HW138048   3.254   0.677   6.874 -0.0463  0.2970  1.6697
 8862SOL    HW238049   3.128   0.648   6.943  0.3121  0.6989  0.6224
 8863SOL     OW38050   4.688   0.928   2.746 -0.8485  0.3084  0.7855
 8863SOL    HW138051   4.721   0.863   2.807  1.2845 -0.2012 -0.9067
 8863SOL    HW238052   4.619   0.878   2.702  0.2863  1.1761 -2.0083
 8864SOL     OW38053   0.915   3.695  13.323  0.8869 -0.4953  0.5444
 8864SOL    HW138054   0.854   3.629  13.356 -0.7596  1.3863  1.3618
 8864SOL    HW238055   0.851   3.766  13.334 -2.8408 -3.5935 -1.2130
 8865SOL     OW38056   4.110   0.756  10.533 -0.1317 -0.3356 -0.2599
 8865SOL    HW138057   4.032   0.780  10.483  0.0529  0.7238 -0.0440
 8865SOL    HW238058   4.073   0.704  10.604 -0.4617 -0.1679 -0.3108
 8866SOL     OW38059   1.657   2.039   7.993  0.3653 -0.4262  0.1411
 8866SOL    HW138060   1.657   1.943   7.989 -1.6080 -0.4723  1.1810
 8866SOL    HW238061   1.609   2.061   7.913 -0.6648 -1.8753  0.3571
 8867SOL     OW38062   4.578   1.952   9.877 -0.2090 -0.1646 -0.0328
 8867SOL    HW138063   4.506   2.004   9.914  0.3137  0.8090 -0.3773
 8867SOL    HW238064   4.584   2.001   9.795  0.4476  0.7527  0.5633
 8868SOL     OW38065   2.044   0.223   8.376  0.0344 -0.1061 -0.2231
 8868SOL    HW138066   1.994   0.173   8.312 -0.6127 -1.2958  1.2338
 8868SOL    HW238067   2.031   0.171   8.455 -0.1119  0.5898  0.2145
 8869SOL     OW38068   3.198   3.189   6.170 -0.2172 -0.5022 -0.2296
 8869SOL    HW138069   3.222   3.113   6.116  0.4615 -0.7063  0.3494
 8869SOL    HW238070   3.103   3.188   6.161 -0.1791  2.3367 -0.8801
 8870SOL     OW38071   2.420   2.153   5.778 -0.1313  0.1640 -0.3152
 8870SOL    HW138072   2.424   2.137   5.872 -3.3355  0.1720 -0.1763
 8870SOL    HW238073   2.326   2.146   5.761 -0.1276 -0.6292 -0.0113
 8871SOL     OW38074   0.013   0.579   6.166  0.3812  0.2217  0.3280
 8871SOL    HW138075   4.660   0.614   6.212  2.2770  2.0377  2.1090
 8871SOL    HW238076   0.054   0.516   6.226 -0.1219 -1.9555 -1.5920
 8872SOL     OW38077   3.767   0.810   8.612  0.0420 -0.2503 -0.1544
 8872SOL    HW138078   3.703   0.741   8.628  0.4279 -0.5003  0.3322
 8872SOL    HW238079   3.779   0.813   8.517  2.4011  1.9234  0.2125
 8873SOL     OW38080   2.640   2.409   7.479  0.0678 -0.1273  0.3901
 8873SOL    HW138081   2.706   2.478   7.473  0.8615 -0.9905 -0.9773
 8873SOL    HW238082   2.639   2.404   7.574 -2.7217  1.3736  0.4245
 8874SOL     OW38083   0.835   3.917  13.525 -0.6426  0.1265 -0.0412
 8874SOL    HW138084   0.744   3.922  13.555 -0.7450  0.0871 -0.3398
 8874SOL    HW238085   0.873   3.977  13.590 -0.4707 -1.1826  1.0521
 8875SOL     OW38086   1.989   0.058  10.983  0.6147  0.1960  0.1114
 8875SOL    HW138087   1.975   0.113  10.906 -1.3023 -1.0494 -0.4308
 8875SOL    HW238088   2.008   4.694  10.949 -0.1211  0.2025 -0.3203
 8876SOL     OW38089   3.903   0.587   5.520 -0.0018 -0.0461  0.0925
 8876SOL    HW138090   3.991   0.557   5.544  0.6545  1.7112 -0.1621
 8876SOL    HW238091   3.852   0.511   5.547  1.6686 -1.4923 -0.7685
 8877SOL     OW38092   0.189   0.367   6.290  0.3567 -0.2994 -0.3130
 8877SOL    HW138093   0.149   0.280   6.293 -0.8456  0.2195 -1.3518
 8877SOL    HW238094   0.260   0.349   6.228  0.5926  1.2756 -0.5047
 8878SOL     OW38095   2.022   0.208   0.219  0.2143  0.2241  0.0613
 8878SOL    HW138096   2.009   0.134   0.278 -2.1822  1.3772  0.9592
 8878SOL    HW238097   1.928   0.223   0.208  0.7228  2.6622 -0.9311
 8879SOL     OW38098   0.822   2.484   7.732 -0.0817  0.4971 -0.7296
 8879SOL    HW138099   0.745   2.520   7.776  0.5313  0.4753  0.3585
 8879SOL    HW238100   0.885   2.489   7.804  0.4298  1.9715 -1.2712
 8880SOL     OW38101   2.368   3.566   5.684 -0.3011  0.0539 -0.4205
 8880SOL    HW138102   2.401   3.598   5.768 -0.5560  0.4835 -0.4790
 8880SOL    HW238103   2.357   3.653   5.646 -0.2249  1.1922  2.1479
 8881SOL     OW38104   2.655   2.861  11.858 -0.2477  0.5385 -0.0867
 8881SOL    HW138105   2.570   2.864  11.814 -0.2488 -0.0691 -0.1192
 8881SOL    HW238106   2.685   2.780  11.819  1.1617  0.7104  0.6584
 8882SOL     OW38107   1.711   3.141   3.264 -0.3818  0.2787  0.1604
 8882SOL    HW138108   1.781   3.076   3.264 -1.6661 -1.0799 -0.1534
 8882SOL    HW238109   1.760   3.213   3.304  0.1503 -0.3531  0.6518
 8883SOL     OW38110   3.572   2.126   6.426 -0.2321  0.1383  0.3659
 8883SOL    HW138111   3.631   2.186   6.472 -0.9604  1.3005 -0.2014
 8883SOL    HW238112   3.630   2.083   6.363 -1.0735  2.7227 -2.2038
 8884SOL     OW38113   2.478   1.668   7.021 -0.5549  0.0896  0.5781
 8884SOL    HW138114   2.520   1.582   7.028 -1.5308 -0.6471 -2.2286
 8884SOL    HW238115   2.416   1.663   6.948 -0.0812  0.8513  0.1239
 8885SOL     OW38116   3.426   4.656   3.029 -0.1967  0.6520  0.0137
 8885SOL    HW138117   3.390   4.665   2.941 -0.2676  0.2576  0.0049
 8885SOL    HW238118   3.506   4.606   3.012 -1.5137 -0.8008 -1.8418
 8886SOL     OW38119   2.500   2.505   0.348 -0.5696  0.3859  0.3010
 8886SOL    HW138120   2.594   2.489   0.359 -0.9374 -1.5956  0.5790
 8886SOL    HW238121   2.484   2.497   0.254  0.9215 -0.1249  0.0790
 8887SOL     OW38122   1.379   4.108   0.612  0.4020  0.4583  0.3771
 8887SOL    HW138123   1.297   4.081   0.571 -0.1715 -1.7344  2.9489
 8887SOL    HW238124   1.405   4.046   0.680 -1.7671 -0.7601  0.0918
 8888SOL     OW38125   3.698   3.739  12.261  0.9044  0.1143  0.3351
 8888SOL    HW138126   3.716   3.772  12.349  0.1217  1.9886 -0.2236
 8888SOL    HW238127   3.781   3.707  12.226  0.2478 -1.4506  0.2102
 8889SOL     OW38128   2.501   3.611   7.598 -0.0345  0.4487 -0.0912
 8889SOL    HW138129   2.477   3.682   7.657  0.0472 -0.6250  1.2374
 8889SOL    HW238130   2.482   3.532   7.649  1.3218  2.2093  3.1929
 8890SOL     OW38131   0.280   3.399   3.076  0.3430 -0.7830 -0.0470
 8890SOL    HW138132   0.220   3.340   3.122 -1.7215  0.6928 -0.8399
 8890SOL    HW238133   0.302   3.466   3.141 -0.5811 -1.5485  1.0613
 8891SOL     OW38134   2.642   3.451  10.295  0.2987  0.1314  0.3008
 8891SOL    HW138135   2.654   3.513  10.367  1.0738  1.5702 -1.0710
 8891SOL    HW238136   2.623   3.369  10.341  1.7176 -0.1577  0.3440
 8892SOL     OW38137   3.337   0.742   1.699 -0.0315  0.3136 -0.0501
 8892SOL    HW138138   3.361   0.653   1.726  0.8229  0.3692 -0.6472
 8892SOL    HW238139   3.390   0.757   1.621 -1.6751  1.3679 -0.9751
 8893SOL     OW38140   1.548   2.055   0.934 -0.5463 -0.3120  0.0060
 8893SOL    HW138141   1.488   2.126   0.958 -1.3357 -1.1881  0.5948
 8893SOL    HW238142   1.567   2.016   1.019  0.3607  0.5065  0.1821
 8894SOL     OW38143   2.292   0.384   1.084  0.4564 -0.0539 -0.2774
 8894SOL    HW138144   2.226   0.358   1.019 -0.7747 -0.2967  1.0656
 8894SOL    HW238145   2.281   0.478   1.071 -0.1260 -0.4343 -2.6031
 8895SOL     OW38146   0.668   1.135   8.353 -0.2481  0.2197  0.3336
 8895SOL    HW138147   0.704   1.221   8.330  2.7054 -0.0646  3.7226
 8895SOL    HW238148   0.579   1.161   8.374 -1.0454 -2.6250  0.3943
 8896SOL     OW38149   4.036   3.155   5.351 -0.0506 -0.1211  0.4157
 8896SOL    HW138150   4.011   3.208   5.427 -0.1304  0.1965  0.1702
 8896SOL    HW238151   4.101   3.213   5.313  1.2417 -1.2080  0.9683
 8897SOL     OW38152   1.786   0.958  15.645  0.2397  0.4080 -0.1137
 8897SOL    HW138153   1.824   0.989  15.563  1.8348  1.3755  1.0033
 8897SOL    HW238154   1.860   0.962  15.706 -0.4027 -1.2540  0.7645
 8898SOL     OW38155   2.865   1.072   7.737 -0.0009  0.2155 -0.3720
 8898SOL    HW138156   2.932   1.135   7.712  0.8129 -1.0638 -1.4372
 8898SOL    HW238157   2.916   1.016   7.796 -2.0363  0.6535  1.8007
 8899SOL     OW38158   0.092   4.521  16.755  0.2772 -0.3928 -0.0316
 8899SOL    HW138159   0.087   4.614  16.734  1.3467 -0.3879 -0.2469
 8899SOL    HW238160   0.057   4.519  16.844  0.4980 -3.8141 -0.0225
 8900SOL     OW38161   2.210   0.321   4.190 -0.4201 -0.1747 -0.1019
 8900SOL    HW138162   2.195   0.227   4.195  0.0864 -0.3991 -2.7712
 8900SOL    HW238163   2.119   0.348   4.202 -0.2346  0.1595  0.5786
 8901SOL     OW38164   4.034   1.247   4.035  0.4341 -0.1171 -0.3296
 8901SOL    HW138165   3.984   1.236   4.117 -0.3880 -1.3438 -0.9896
 8901SOL    HW238166   3.969   1.278   3.972 -0.6625 -0.0791  0.8219
 8902SOL     OW38167   1.099   0.400   2.531 -0.1287 -0.4140 -0.2777
 8902SOL    HW138168   1.010   0.420   2.504 -0.0751  2.7628  1.9010
 8902SOL    HW238169   1.145   0.481   2.509  0.0416 -0.6894 -0.9482
 8903SOL     OW38170   0.719   1.150   7.895  0.3567 -0.2899  0.4811
 8903SOL    HW138171   0.782   1.209   7.937 -0.0495  0.1711  0.4566
 8903SOL    HW238172   0.646   1.207   7.869 -1.1942 -2.8551 -0.7273
 8904SOL     OW38173   1.202   4.314   1.550 -0.4403 -0.6111 -0.0023
 8904SOL    HW138174   1.220   4.277   1.636  0.1949  0.8643  0.4980
 8904SOL    HW238175   1.110   4.289   1.543 -0.6091  0.0397 -0.0645
 8905SOL     OW38176   3.038   4.014   0.433 -0.6908  0.2173  0.0630
 8905SOL    HW138177   2.999   4.074   0.369  2.2009  2.8961  0.7750
 8905SOL    HW238178   3.055   4.064   0.513  0.2624  0.4898 -0.3022
 8906SOL     OW38179   3.306   1.480   9.955  0.2841  0.4088 -0.5504
 8906SOL    HW138180   3.243   1.422   9.996  1.8446 -1.8227 -1.3198
 8906SOL    HW238181   3.381   1.421   9.947 -0.0915 -0.0286 -0.8360
 8907SOL     OW38182   3.559   1.899   4.923 -0.2257  0.1524  0.7965
 8907SOL    HW138183   3.465   1.888   4.910  0.0527  2.4911 -3.3158
 8907SOL    HW238184   3.585   1.813   4.891  0.7683  0.4640  0.7328
 8908SOL     OW38185   2.248   2.364  11.304 -0.2757 -0.1858  0.3688
 8908SOL    HW138186   2.251   2.447  11.255  1.1870 -0.2641  0.3374
 8908SOL    HW238187   2.263   2.296  11.239  0.9538  0.0947  0.3522
 8909SOL     OW38188   0.512   3.258   7.810 -0.7416 -0.3423 -0.0104
 8909SOL    HW138189   0.489   3.199   7.738 -2.0124 -1.2840  1.1661
 8909SOL    HW238190   0.583   3.307   7.768 -0.4386  0.0027  0.8949
 8910SOL     OW38191   4.217   1.603  13.333 -0.0845  0.8963  0.2429
 8910SOL    HW138192   4.258   1.670  13.388 -1.3510 -0.2283  2.5636
 8910SOL    HW238193   4.289   1.587  13.272 -0.3208 -0.8710  0.4244
 8911SOL     OW38194   1.069   1.191  11.611  0.2669  0.3594  0.2031
 8911SOL    HW138195   0.987   1.208  11.657 -1.0318 -2.0131 -1.2096
 8911SOL    HW238196   1.109   1.278  11.613 -2.5905  1.6499  2.0667
 8912SOL     OW38197   3.956   4.078   3.844  0.3864  0.2529 -0.3566
 8912SOL    HW138198   3.967   4.029   3.925 -2.1080  2.2756  1.2048
 8912SOL    HW238199   3.951   4.003   3.785  0.8579 -1.0534  1.2764
 8913SOL     OW38200   2.062   0.894   6.709  0.8106 -0.3176  0.2402
 8913SOL    HW138201   2.012   0.966   6.745  1.6185  0.0739  0.5933
 8913SOL    HW238202   2.001   0.820   6.710  0.2962  0.1068 -0.1525
 8914SOL     OW38203   3.558   2.737   7.646 -0.1357  0.2387  0.0688
 8914SOL    HW138204   3.473   2.774   7.623 -1.1974  0.8089  5.0516
 8914SOL    HW238205   3.543   2.670   7.713 -1.7379 -0.2185 -0.7452
 8915SOL     OW38206   0.980   1.556   0.908  0.0383 -0.3707  0.5822
 8915SOL    HW138207   1.013   1.468   0.927  2.1914 -0.1871 -2.2516
 8915SOL    HW238208   0.901   1.559   0.961 -0.3310 -1.3769  0.0948
 8916SOL     OW38209   4.585   0.887  11.494 -0.4344  0.1715 -0.6321
 8916SOL    HW138210   4.496   0.882  11.527 -0.4684 -1.0942 -0.9065
 8916SOL    HW238211   4.607   0.980  11.492 -0.2703  0.1168 -1.8196
 8917SOL     OW38212   2.505   1.109   8.805 -0.8753 -0.2683  0.4659
 8917SOL    HW138213   2.592   1.095   8.767 -0.6949 -1.1764  1.2250
 8917SOL    HW238214   2.449   1.096   8.729 -0.8774 -0.7886  0.5605
 8918SOL     OW38215   1.620   0.395   1.823 -0.3337 -0.3027 -0.4728
 8918SOL    HW138216   1.591   0.329   1.760  1.5494 -0.8626 -0.7558
 8918SOL    HW238217   1.690   0.345   1.865  0.3940  1.7197  0.7590
 8919SOL     OW38218   4.039   4.701   8.134  0.3852  0.2343  0.1166
 8919SOL    HW138219   4.038   0.045   8.066  0.5407 -0.9737 -1.0869
 8919SOL    HW238220   4.105   0.014   8.193 -0.5596  0.3551  1.0919
 8920SOL     OW38221   0.823   3.219   4.741  0.2168  0.2113  0.5545
 8920SOL    HW138222   0.865   3.195   4.658  2.2956  0.6298  1.4965
 8920SOL    HW238223   0.834   3.143   4.798  3.5490 -1.4575 -2.3445
 8921SOL     OW38224   0.344   0.899  12.836  0.0416  0.5684 -0.1707
 8921SOL    HW138225   0.286   0.844  12.783 -0.1716 -0.2690  0.9332
 8921SOL    HW238226   0.429   0.854  12.834 -0.5207 -0.4251 -2.2974
 8922SOL     OW38227   1.823   2.450  14.720 -0.2825 -0.2616  0.1688
 8922SOL    HW138228   1.886   2.434  14.649  1.1443  0.9578  1.1588
 8922SOL    HW238229   1.869   2.487  14.795  1.6615 -0.1180 -1.0830
 8923SOL     OW38230   1.188   0.898   4.546 -0.2090 -0.6816  0.0258
 8923SOL    HW138231   1.192   0.986   4.585 -1.2534 -1.6495  2.3047
 8923SOL    HW238232   1.206   0.837   4.617  0.2875 -3.1807 -2.2522
 8924SOL     OW38233   4.094   2.117   8.357  0.0541  0.1372  0.1199
 8924SOL    HW138234   4.180   2.155   8.373  0.0307  0.1554  0.1999
 8924SOL    HW238235   4.101   2.031   8.399 -0.1137  1.3555  2.6375
 8925SOL     OW38236   2.003   3.371   8.303  0.2398 -0.0447  0.4033
 8925SOL    HW138237   1.992   3.322   8.384  1.2912 -1.7132 -0.4612
 8925SOL    HW238238   2.071   3.423   8.344 -0.8916  0.4872  1.6138
 8926SOL     OW38239   4.611   1.561  16.986 -0.6933  0.2593 -0.2447
 8926SOL    HW138240   4.545   1.604  16.931 -0.1660  0.3895 -0.7844
 8926SOL    HW238241   4.569   1.478  17.008  1.7455 -1.3466 -1.6539
 8927SOL     OW38242   0.956   1.405   1.602 -0.2718  0.2169  0.3674
 8927SOL    HW138243   0.901   1.418   1.525 -1.7830  0.1015  1.4218
 8927SOL    HW238244   0.947   1.310   1.608 -0.6882  0.1606 -1.1207
 8928SOL     OW38245   3.913   0.514   4.617 -0.3216  0.2228 -0.3297
 8928SOL    HW138246   3.928   0.505   4.711  1.3690 -1.0323 -0.7419
 8928SOL    HW238247   3.867   0.598   4.606 -0.5663  0.2136  0.6375
 8929SOL     OW38248   4.268   1.300   5.322  0.2083  0.1973 -0.2934
 8929SOL    HW138249   4.194   1.359   5.333  1.3045  1.5189  0.0831
 8929SOL    HW238250   4.335   1.351   5.277 -0.5380  2.2145  0.8968
 8930SOL     OW38251   2.861   2.343   0.601 -0.7690  0.2359 -0.1670
 8930SOL    HW138252   2.940   2.289   0.598 -0.2448  1.0445 -1.4735
 8930SOL    HW238253   2.818   2.285   0.663  2.0489  0.0343  1.5931
 8931SOL     OW38254   0.125   0.671   8.526 -0.0217  0.4139  0.2726
 8931SOL    HW138255   0.074   0.657   8.606  1.2238  0.3857  1.0638
 8931SOL    HW238256   0.164   0.757   8.541 -0.8320  0.5443  1.6276
 8932SOL     OW38257   4.134   4.121   0.527  0.0025  0.6124  0.2870
 8932SOL    HW138258   4.074   4.195   0.539 -0.8811 -0.1310  0.4159
 8932SOL    HW238259   4.079   4.045   0.510  2.9854 -0.9746 -2.3652
 8933SOL     OW38260   3.006   0.056  16.635 -0.2782  0.6708  0.0411
 8933SOL    HW138261   2.995   0.142  16.594  1.0186  0.7808 -0.0923
 8933SOL    HW238262   2.979   0.079  16.724  0.2822 -0.5866  0.5489
 8934SOL     OW38263   4.222   1.369   8.966  0.5633 -0.4669 -0.2029
 8934SOL    HW138264   4.128   1.361   8.957  0.4728  3.3693 -2.5713
 8934SOL    HW238265   4.245   1.325   8.883 -2.0710  0.9329 -1.6433
 8935SOL     OW38266   1.730   2.956  15.238  0.0341  0.4402  0.1485
 8935SOL    HW138267   1.771   3.037  15.267 -1.6829  0.9911  1.0068
 8935SOL    HW238268   1.804   2.918  15.191  0.3653  0.1080  0.9312
 8936SOL     OW38269   3.515   3.193   1.471 -0.3584  0.1390 -0.1122
 8936SOL    HW138270   3.605   3.169   1.492  0.3728  2.0291 -1.0476
 8936SOL    HW238271   3.475   3.107   1.457 -2.0851  0.6151  1.8433
 8937SOL     OW38272   1.507   4.353  13.647  0.0941  0.2918 -0.3232
 8937SOL    HW138273   1.468   4.364  13.560 -1.9273 -0.9283  0.4052
 8937SOL    HW238274   1.532   4.442  13.670  1.1682 -0.6133  2.0120
 8938SOL     OW38275   2.924   1.597   5.588  0.3264  0.2449  0.2320
 8938SOL    HW138276   3.013   1.623   5.562  0.6498  2.0902  3.1772
 8938SOL    HW238277   2.870   1.664   5.547  0.3498  0.0598 -0.1046
 8939SOL     OW38278   0.820   2.980   6.229  0.0792 -0.0052  0.6158
 8939SOL    HW138279   0.803   3.061   6.180  2.0093  0.4241  0.6896
 8939SOL    HW238280   0.768   2.992   6.309 -3.4653 -3.4794 -1.1699
 8940SOL     OW38281   2.063   1.508   2.378 -0.8187  0.3282  0.5587
 8940SOL    HW138282   1.970   1.499   2.399 -0.8253 -0.0172  0.3887
 8940SOL    HW238283   2.086   1.417   2.357 -0.9717  0.0784  1.4637
 8941SOL     OW38284   3.340   3.786   7.169  0.5376 -0.0478  0.3751
 8941SOL    HW138285   3.274   3.855   7.170  2.2964  1.6205 -0.4386
 8941SOL    HW238286   3.334   3.754   7.259  0.1714  1.8003  1.0103
 8942SOL     OW38287   3.418   3.760  12.318 -0.2162 -0.4761 -0.4399
 8942SOL    HW138288   3.472   3.699  12.268 -0.5089 -0.5832 -0.6246
 8942SOL    HW238289   3.452   3.735  12.404 -0.3461  0.3800 -0.1365
 8943SOL     OW38290   0.289   3.763  14.454 -0.3794 -0.1094  0.3705
 8943SOL    HW138291   0.266   3.724  14.538  2.1247 -0.9818  0.6316
 8943SOL    HW238292   0.300   3.690  14.393  0.6696  0.1856  0.2106
 8944SOL     OW38293   2.025   2.274   4.132  0.0785 -0.5356  0.2370
 8944SOL    HW138294   1.985   2.361   4.125 -0.1878 -0.7639 -1.0154
 8944SOL    HW238295   2.085   2.282   4.058 -0.3974  0.9492  0.0100
 8945SOL     OW38296   1.537   1.181   5.081  0.3099  0.1601  0.3282
 8945SOL    HW138297   1.633   1.180   5.089  0.1499  0.1211  2.2035
 8945SOL    HW238298   1.522   1.169   5.175 -1.2218 -0.1266  0.0417
 8946SOL     OW38299   4.050   2.246   5.367  0.3059  0.1083  0.8939
 8946SOL    HW138300   3.965   2.290   5.368  1.2617  1.9824 -0.2037
 8946SOL    HW238301   4.107   2.297   5.423  1.6359 -0.2250 -0.1615
 8947SOL     OW38302   3.046   0.584  17.081  0.2919 -0.1310 -0.2106
 8947SOL    HW138303   3.129   0.605  17.123 -0.7646 -0.8700  2.2104
 8947SOL    HW238304   3.046   0.488  17.080 -2.2210 -0.1497  1.0403
 8948SOL     OW38305   0.628   3.820   3.750 -0.3590  0.0826  0.1029
 8948SOL    HW138306   0.542   3.848   3.717  1.0070  2.0582 -1.7137
 8948SOL    HW238307   0.670   3.810   3.665 -0.1007  0.6837  0.1627
 8949SOL     OW38308   1.580   2.855   4.806 -0.5200 -0.0840 -0.2591
 8949SOL    HW138309   1.527   2.901   4.872  0.9979  0.9423  0.2405
 8949SOL    HW238310   1.517   2.860   4.734 -2.0500  0.6556  1.0990
 8950SOL     OW38311   4.185   2.425   8.338 -0.5171 -0.1434 -0.4128
 8950SOL    HW138312   4.156   2.516   8.328 -0.3801  0.3919  3.8657
 8950SOL    HW238313   4.263   2.435   8.394  0.6980  0.1529 -2.1489
 8951SOL     OW38314   0.711   4.014   7.232  0.3183 -1.1193  0.5971
 8951SOL    HW138315   0.642   3.963   7.189 -1.0852  2.4126 -1.3922
 8951SOL    HW238316   0.751   4.046   7.151  1.9502  1.3878  2.3739
 8952SOL     OW38317   3.582   3.211  14.070  0.4196 -0.4194  0.1845
 8952SOL    HW138318   3.613   3.296  14.039 -1.4325  0.2080  0.0657
 8952SOL    HW238319   3.565   3.169  13.985  2.9679  1.7771 -1.4085
 8953SOL     OW38320   3.832   1.201   5.009 -0.1567  0.4615  0.0785
 8953SOL    HW138321   3.801   1.115   4.981 -0.1417 -0.3414  2.4833
 8953SOL    HW238322   3.763   1.216   5.073  0.0005 -1.5431  0.7398
 8954SOL     OW38323   2.159   1.419   1.524 -0.8629 -0.0410 -0.3152
 8954SOL    HW138324   2.141   1.328   1.551 -0.9636  0.3093  0.7888
 8954SOL    HW238325   2.248   1.411   1.491 -0.5304  0.2952  0.5012
 8955SOL     OW38326   3.943   2.416   2.192  0.1017 -0.5260 -0.1796
 8955SOL    HW138327   3.858   2.372   2.197 -0.2881  0.3561  0.9761
 8955SOL    HW238328   3.942   2.456   2.105 -1.7754  0.9277  0.5179
 8956SOL     OW38329   4.711   4.515  13.949 -0.7211 -1.2079  0.1256
 8956SOL    HW138330   0.067   4.522  14.002 -0.1193  0.9347 -1.0387
 8956SOL    HW238331   4.676   4.427  13.962 -3.3242 -0.6315 -3.1878
 8957SOL     OW38332   4.365   2.882   4.898 -0.3930 -0.8244 -1.0029
 8957SOL    HW138333   4.308   2.954   4.925  0.4487  0.3597 -2.3357
 8957SOL    HW238334   4.374   2.903   4.805 -1.5422 -0.4772 -1.0284
 8958SOL     OW38335   0.094   2.296   8.746 -0.1278  0.4131 -0.6529
 8958SOL    HW138336   0.064   2.209   8.770 -0.2381  0.3533 -1.0003
 8958SOL    HW238337   0.093   2.356   8.820  0.7673 -1.9017  1.2329
 8959SOL     OW38338   0.338   2.015   3.183  0.3014 -0.0760 -0.3904
 8959SOL    HW138339   0.433   2.006   3.186  0.4242  1.0897 -0.8736
 8959SOL    HW238340   0.339   2.023   3.088 -0.4251  0.6566 -0.3390
 8960SOL     OW38341   2.879   1.756   3.807  0.2430 -0.4953  0.3834
 8960SOL    HW138342   2.906   1.814   3.878 -0.6049 -1.6695  1.6653
 8960SOL    HW238343   2.788   1.774   3.786  0.8075 -0.3688 -1.9172
 8961SOL     OW38344   2.332   1.147   6.348  0.0206  0.7091 -0.0426
 8961SOL    HW138345   2.348   1.164   6.441 -1.6653  1.3200  0.1378
 8961SOL    HW238346   2.298   1.059   6.356 -0.2550  0.7850 -0.3854
 8962SOL     OW38347   1.398   0.214   6.471 -0.2389 -0.4447  0.0128
 8962SOL    HW138348   1.482   0.248   6.501 -1.0041 -0.4129  2.1434
 8962SOL    HW238349   1.374   0.285   6.412 -2.2240 -1.7294 -0.7115
 8963SOL     OW38350   2.023   1.936   9.020  0.5599 -0.3323 -0.1854
 8963SOL    HW138351   1.992   2.026   9.008 -0.7011 -0.7916 -0.3904
 8963SOL    HW238352   1.970   1.887   8.957 -1.1320 -0.6432  1.4598
 8964SOL     OW38353   3.636   3.447   2.646 -0.0342  0.2912 -0.0748
 8964SOL    HW138354   3.629   3.359   2.608  0.3096  0.3351 -0.2446
 8964SOL    HW238355   3.548   3.483   2.639 -0.9017 -1.5357  1.4172
 8965SOL     OW38356   1.337   2.683  11.441 -0.0740  0.3772  1.3870
 8965SOL    HW138357   1.429   2.704  11.457 -0.2370  2.2337 -0.1487
 8965SOL    HW238358   1.308   2.748  11.377 -0.5286  1.0692  2.3021
 8966SOL     OW38359   1.139   2.759   7.050  0.3276  0.1955 -0.2227
 8966SOL    HW138360   1.134   2.669   7.018 -0.3035  0.5598 -1.1706
 8966SOL    HW238361   1.174   2.807   6.975  0.5825  1.8297  0.9285
 8967SOL     OW38362   2.357   2.902   4.863  0.2385  0.0641  0.5873
 8967SOL    HW138363   2.304   2.866   4.793 -1.4075  0.8428  1.4220
 8967SOL    HW238364   2.291   2.908   4.932  1.4461  0.6938  1.7004
 8968SOL     OW38365   0.944   0.542   7.377 -0.1304  0.5252  0.1133
 8968SOL    HW138366   0.883   0.579   7.441 -1.9279  0.0920 -1.3428
 8968SOL    HW238367   1.013   0.603   7.402  1.3840  0.1813 -3.2007
 8969SOL     OW38368   3.673   3.510   8.389 -0.4512  0.3020 -0.3497
 8969SOL    HW138369   3.614   3.471   8.324 -1.1308 -0.8721  0.9657
 8969SOL    HW238370   3.732   3.559   8.333 -0.7112  0.5850 -0.3727
 8970SOL     OW38371   3.978   2.858  11.398  0.0985  0.6707  0.0213
 8970SOL    HW138372   3.977   2.812  11.482  1.4516 -1.0881 -0.9503
 8970SOL    HW238373   3.982   2.949  11.429 -1.3614  0.2722  1.4047
 8971SOL     OW38374   3.919   2.063   4.620 -0.1967  0.6113  0.3326
 8971SOL    HW138375   3.859   1.998   4.583 -0.1081  2.1048 -2.4236
 8971SOL    HW238376   3.860   2.137   4.628  1.5118  1.9704  0.4232
 8972SOL     OW38377   3.270   3.300   2.525 -0.3798 -0.0425  0.1937
 8972SOL    HW138378   3.191   3.246   2.527 -0.2531 -0.2290  0.2296
 8972SOL    HW238379   3.325   3.238   2.573  1.3156  0.8354 -0.6207
 8973SOL     OW38380   0.966   2.675  14.860 -0.0986 -0.4144  0.3643
 8973SOL    HW138381   0.886   2.650  14.813 -0.3734  3.8575 -1.4272
 8973SOL    HW238382   0.928   2.697  14.945 -0.7027 -0.1258  0.0215
 8974SOL     OW38383   1.647   3.558   0.772  0.7506 -0.1009 -0.4283
 8974SOL    HW138384   1.632   3.533   0.864  0.7483 -1.4044 -0.7777
 8974SOL    HW238385   1.738   3.587   0.779  0.7236  0.0290 -0.6285
 8975SOL     OW38386   0.614   3.905   1.100 -0.5425 -0.6171 -0.5774
 8975SOL    HW138387   0.677   3.857   1.046  0.1096  0.1877 -0.5296
 8975SOL    HW238388   0.537   3.848   1.097 -1.7710  0.9469  1.9821
 8976SOL     OW38389   0.672   0.304   6.597 -0.2960 -0.0087  0.2257
 8976SOL    HW138390   0.577   0.292   6.585 -0.1610 -0.4391 -0.4259
 8976SOL    HW238391   0.712   0.298   6.510  0.6144 -2.0491  0.7801
 8977SOL     OW38392   2.726   2.717   2.510  0.8515 -0.0097  0.6871
 8977SOL    HW138393   2.812   2.720   2.551  0.7313 -1.0009  1.0122
 8977SOL    HW238394   2.681   2.793   2.548  0.3249 -0.5189  1.0825
 8978SOL     OW38395   1.046   1.487   6.276 -0.5417 -0.2301 -0.4970
 8978SOL    HW138396   1.074   1.549   6.208  1.1181  0.7151  1.0308
 8978SOL    HW238397   0.982   1.436   6.227 -0.1157 -1.2363 -0.0098
 8979SOL     OW38398   1.226   2.719  14.363 -0.3436  0.1635  0.2771
 8979SOL    HW138399   1.180   2.803  14.370 -1.0803 -0.2188  0.0199
 8979SOL    HW238400   1.306   2.739  14.412 -0.4791  1.1703  0.0905
 8980SOL     OW38401   3.353   0.871   7.065 -0.1076  0.1724  0.3836
 8980SOL    HW138402   3.336   0.963   7.044  1.0388  0.0936 -0.8741
 8980SOL    HW238403   3.300   0.828   6.998  2.9931  0.5940 -2.3726
 8981SOL     OW38404   1.258   0.554  11.004  0.4855 -0.5697 -0.4433
 8981SOL    HW138405   1.298   0.553  11.091 -1.2034  0.8955  0.3316
 8981SOL    HW238406   1.171   0.516  11.017 -0.1607  0.6740 -1.1157
 8982SOL     OW38407   4.632   1.971  14.965  0.0078 -0.6748  0.2795
 8982SOL    HW138408   4.539   1.949  14.972  0.2533 -2.1642 -1.1858
 8982SOL    HW238409   4.677   1.899  15.009 -0.7205 -0.8704  0.7150
 8983SOL     OW38410   3.647   0.383   2.725  0.8457 -0.6500 -0.7685
 8983SOL    HW138411   3.632   0.289   2.724  1.9334 -0.8120 -0.9442
 8983SOL    HW238412   3.582   0.419   2.785  1.7865  1.8778 -1.2615
 8984SOL     OW38413   4.017   0.847   7.077  0.7354 -0.2260  1.2472
 8984SOL    HW138414   4.110   0.851   7.056  0.9402 -1.1500  2.0042
 8984SOL    HW238415   4.021   0.757   7.110 -3.5273 -0.0938  2.1182
 8985SOL     OW38416   4.014   4.603   4.524 -0.2949 -0.1941 -0.5962
 8985SOL    HW138417   4.070   4.535   4.486  0.8706  0.4470  0.0124
 8985SOL    HW238418   4.059   4.629   4.604  0.5700 -0.0323 -1.1348
 8986SOL     OW38419   1.002   1.088   8.828  0.9566 -0.0830 -0.4511
 8986SOL    HW138420   1.035   1.153   8.889 -0.0390  1.0503 -1.1103
 8986SOL    HW238421   1.048   1.007   8.851  0.2368 -0.0029  1.2824
 8987SOL     OW38422   1.964   3.283  11.727  0.1234 -0.1418  0.9331
 8987SOL    HW138423   2.010   3.365  11.741 -1.9455  0.8394  2.0827
 8987SOL    HW238424   1.926   3.258  11.811 -0.8751 -1.5579  0.0679
 8988SOL     OW38425   1.571   4.142   8.456  0.0415 -0.5786 -0.0084
 8988SOL    HW138426   1.618   4.220   8.486 -0.8091 -0.1770  0.2968
 8988SOL    HW238427   1.493   4.190   8.425 -0.6133 -0.2457  2.1880
 8989SOL     OW38428   3.483   1.720   3.425 -0.1164 -0.1837  0.3630
 8989SOL    HW138429   3.401   1.705   3.378  1.3688 -1.4373 -1.8828
 8989SOL    HW238430   3.481   1.656   3.496  1.1692 -1.5289 -0.8095
 8990SOL     OW38431   0.578   4.369  13.033 -0.3543  0.0770  0.3629
 8990SOL    HW138432   0.531   4.286  13.022  0.6230  0.2982 -5.3065
 8990SOL    HW238433   0.619   4.347  13.117  0.7010  0.6348 -0.0128
 8991SOL     OW38434   0.098   3.280   1.480 -0.8360 -0.4105 -0.0203
 8991SOL    HW138435   0.015   3.315   1.448 -0.9348  2.5411  3.5676
 8991SOL    HW238436   0.093   3.196   1.435  0.7636  0.0420 -1.0568
 8992SOL     OW38437   3.195   2.651  13.671  0.4299  0.8442  0.0947
 8992SOL    HW138438   3.289   2.640  13.683  0.6483  2.9246  0.2645
 8992SOL    HW238439   3.178   2.737  13.709  0.9043  1.4943 -1.1380
 8993SOL     OW38440   4.106   4.276   6.031 -0.2602 -0.6664  0.1683
 8993SOL    HW138441   4.186   4.233   6.003 -1.7088 -3.0550 -0.2812
 8993SOL    HW238442   4.079   4.248   6.119 -0.3441  0.6992  0.5796
 8994SOL     OW38443   4.536   4.004   9.781  0.2841  0.1435  0.1124
 8994SOL    HW138444   4.555   3.926   9.730  2.2111 -0.7538  2.2162
 8994SOL    HW238445   4.485   4.059   9.721  0.8302 -0.4156 -0.8670
 8995SOL     OW38446   4.186   2.222   9.792  0.4371  0.2602 -0.0449
 8995SOL    HW138447   4.095   2.194   9.780 -0.6234  2.8091  1.9926
 8995SOL    HW238448   4.220   2.238   9.704 -2.0224  2.4797 -0.5854
 8996SOL     OW38449   4.079   3.712   2.144 -0.0651 -0.1374 -0.4526
 8996SOL    HW138450   4.014   3.747   2.083 -0.6134 -1.2118 -0.4784
 8996SOL    HW238451   4.039   3.635   2.183  0.8549 -0.3162  0.1399
 8997SOL     OW38452   1.484   0.694  10.093 -0.8369 -0.2618  0.0027
 8997SOL    HW138453   1.421   0.749  10.139  0.0895  0.5725  0.2675
 8997SOL    HW238454   1.534   0.658  10.167 -0.6043 -0.3002 -0.1716
 8998SOL     OW38455   4.647   1.589   3.816 -0.4138 -0.2177 -0.0949
 8998SOL    HW138456   4.633   1.515   3.757  1.8757 -1.5160  1.0249
 8998SOL    HW238457   4.558   1.624   3.820 -1.2786 -2.3315 -1.1213
 8999SOL     OW38458   0.220   2.415   5.651 -0.1631 -0.1379 -0.5681
 8999SOL    HW138459   0.135   2.422   5.694 -0.5924  0.1593 -1.4624
 8999SOL    HW238460   0.197   2.439   5.561  0.1574 -1.1110 -0.9118
 9000SOL     OW38461   3.711   0.230   8.669  0.2982 -0.3149 -0.6181
 9000SOL    HW138462   3.735   0.311   8.712 -2.1329  0.9713 -1.6819
 9000SOL    HW238463   3.692   0.255   8.579  0.4765 -1.9457 -1.1206
 9001SOL     OW38464   3.039   4.720   7.560 -0.6747 -0.1566  0.4925
 9001SOL    HW138465   3.118   0.033   7.520 -0.1981  1.4797  2.9467
 9001SOL    HW238466   3.016   0.073   7.612 -2.3281 -0.4160  0.1458
 9002SOL     OW38467   0.430   2.283   5.619  0.1331 -0.4545  0.1430
 9002SOL    HW138468   0.490   2.305   5.689  0.8380  4.0496 -1.9024
 9002SOL    HW238469   0.357   2.343   5.634  0.1525 -0.0844 -1.2085
 9003SOL     OW38470   1.325   0.433   6.315  0.6502  0.5503 -0.3823
 9003SOL    HW138471   1.352   0.498   6.250  0.5345  2.1196  1.1690
 9003SOL    HW238472   1.232   0.417   6.301  1.2333 -4.2902  1.1645
 9004SOL     OW38473   3.397   1.885  10.702  0.0578  0.3563  0.3605
 9004SOL    HW138474   3.473   1.943  10.697  0.0460  0.3197 -0.3110
 9004SOL    HW238475   3.341   1.936  10.761 -0.8506  0.0503 -0.2306
 9005SOL     OW38476   4.453   1.673  13.613 -0.3505 -0.0024 -0.1779
 9005SOL    HW138477   4.414   1.587  13.598 -0.8504  0.3636 -1.0139
 9005SOL    HW238478   4.543   1.642  13.619 -0.6637 -0.9897 -0.6573
 9006SOL     OW38479   1.874   3.267  11.990  0.1032 -0.2070 -0.5873
 9006SOL    HW138480   1.778   3.262  11.997  0.2602 -1.6524  0.4618
 9006SOL    HW238481   1.913   3.210  12.057  1.8627  1.2037 -0.4414
 9007SOL     OW38482   2.438   0.496   2.792  0.8031  0.1564 -0.7964
 9007SOL    HW138483   2.356   0.545   2.796  0.1866 -0.8304 -1.5083
 9007SOL    HW238484   2.485   0.548   2.728  0.3427  2.7940  1.0136
 9008SOL     OW38485   3.081   0.717  12.939 -1.0569  0.0881 -0.2007
 9008SOL    HW138486   2.987   0.734  12.935 -0.8640  0.3764 -3.3638
 9008SOL    HW238487   3.103   0.805  12.969 -0.6524 -0.0995  0.0571
 9009SOL     OW38488   4.125   3.454   5.731 -0.1553  0.2027 -0.1895
 9009SOL    HW138489   4.180   3.381   5.703  2.0097  1.2294  1.3089
 9009SOL    HW238490   4.106   3.504   5.651  1.1490  2.2789  0.7753
 9010SOL     OW38491   3.378   4.482  17.068  0.2850 -0.5234  0.0508
 9010SOL    HW138492   3.362   4.536  17.146  0.9399  1.1086 -0.9515
 9010SOL    HW238493   3.354   4.539  16.996 -0.8675 -1.0479  0.0294
 9011SOL     OW38494   1.337   3.608   1.319 -0.0956  0.2772 -0.3163
 9011SOL    HW138495   1.259   3.554   1.331 -0.1112  0.2753 -0.4293
 9011SOL    HW238496   1.404   3.541   1.334 -0.8101 -0.1989  0.8214
 9012SOL     OW38497   4.071   2.212   0.948  0.0767 -0.6300 -0.0870
 9012SOL    HW138498   4.010   2.149   0.987  0.4378 -1.8169 -1.4675
 9012SOL    HW238499   4.055   2.204   0.854  1.6712 -0.0632 -0.4141
 9013SOL     OW38500   0.708   1.727   7.725  0.7584  0.1921 -0.0021
 9013SOL    HW138501   0.631   1.699   7.676  1.0853 -0.8031  0.0479
 9013SOL    HW238502   0.676   1.811   7.758  0.6087 -2.2220  5.9195
 9014SOL     OW38503   2.027   1.140   5.282 -0.2202 -0.2999  0.2948
 9014SOL    HW138504   2.024   1.089   5.363 -2.3548 -0.5820  0.0390
 9014SOL    HW238505   1.992   1.222   5.319 -2.9502 -1.6577  0.7371
 9015SOL     OW38506   2.011   3.252  15.134 -0.6179 -0.2921  0.4169
 9015SOL    HW138507   2.062   3.320  15.179  0.0458  0.5759 -1.6652
 9015SOL    HW238508   1.974   3.207  15.210  0.0743 -0.0620  0.8866
 9016SOL     OW38509   2.896   0.469   7.794 -0.4216  0.3767 -0.5683
 9016SOL    HW138510   2.844   0.417   7.855  2.0575 -0.8203  0.5528
 9016SOL    HW238511   2.934   0.533   7.855 -0.5948  0.8063 -0.9149
 9017SOL     OW38512   1.271   0.093   6.669 -0.2819 -0.2397  0.0575
 9017SOL    HW138513   1.273   0.006   6.629  0.0439 -2.0650  4.1048
 9017SOL    HW238514   1.314   0.135   6.594  0.3600  0.6552  0.9310
 9018SOL     OW38515   3.063   3.640   7.626 -0.3716 -0.5397  0.0028
 9018SOL    HW138516   3.095   3.550   7.634 -0.7090 -0.6271  0.3914
 9018SOL    HW238517   3.046   3.655   7.719  0.2428  0.6849 -0.0858
 9019SOL     OW38518   0.148   1.554   6.064  0.1814 -0.3266  0.0849
 9019SOL    HW138519   0.092   1.605   6.005  0.9072 -2.6583 -2.6162
 9019SOL    HW238520   0.223   1.549   6.005 -1.3154  0.1287 -1.9000
 9020SOL     OW38521   2.350   4.635   4.380 -0.6095  0.1061  0.0224
 9020SOL    HW138522   2.342   4.567   4.447  0.4021 -0.1956 -0.1610
 9020SOL    HW238523   2.375   4.581   4.305  1.5014 -1.5690  1.9161
 9021SOL     OW38524   2.602   1.188   8.314 -0.4029 -0.3500 -0.0609
 9021SOL    HW138525   2.571   1.264   8.363 -0.9344 -0.2707 -0.5178
 9021SOL    HW238526   2.537   1.176   8.245 -0.1445  1.2753 -0.5897
 9022SOL     OW38527   2.423   3.350   4.906 -0.1632 -0.8294  0.3229
 9022SOL    HW138528   2.374   3.376   4.984  0.4092 -0.0547  0.4190
 9022SOL    HW238529   2.418   3.255   4.914  1.0821 -1.1010 -2.3090
 9023SOL     OW38530   0.558   4.338  12.053 -0.5574 -0.6778 -0.7148
 9023SOL    HW138531   0.568   4.301  12.140  3.6091 -0.9342 -1.2714
 9023SOL    HW238532   0.589   4.428  12.066 -0.6530 -0.6908 -0.4093
 9024SOL     OW38533   2.017   0.883   6.995 -0.4122  0.6854  0.5816
 9024SOL    HW138534   2.035   0.965   6.949  2.2951  1.3652  2.8126
 9024SOL    HW238535   1.924   0.877   6.976 -0.0426 -0.4265 -0.8542
 9025SOL     OW38536   3.431   0.366   7.231 -0.0813  0.2411 -0.1351
 9025SOL    HW138537   3.377   0.385   7.155 -1.2871  0.9767  0.9093
 9025SOL    HW238538   3.483   0.298   7.188 -1.6196  0.1169 -1.7608
 9026SOL     OW38539   2.467   4.188   8.134  0.2098  1.2062 -0.0861
 9026SOL    HW138540   2.560   4.172   8.148 -0.0726 -0.5231 -0.1728
 9026SOL    HW238541   2.470   4.282   8.155 -1.9430  1.6182 -1.4681
 9027SOL     OW38542   4.615   0.596  15.878 -0.1778  0.9040 -0.4925
 9027SOL    HW138543   4.700   0.555  15.894 -0.1884  1.4389  0.9279
 9027SOL    HW238544   4.613   0.587  15.782 -2.8542 -4.4841  0.1088
 9028SOL     OW38545   4.439   2.816   9.978 -0.0142  0.0016  0.0669
 9028SOL    HW138546   4.424   2.776   9.893 -0.0067 -0.0339  0.0821
 9028SOL    HW238547   4.498   2.750  10.016 -0.5098 -0.8783 -0.6851
 9029SOL     OW38548   1.829   2.794  14.787 -0.5804  0.1664  0.0130
 9029SOL    HW138549   1.848   2.785  14.693  1.8006 -0.1819  0.5417
 9029SOL    HW238550   1.808   2.705  14.814  1.8181 -0.4723 -0.2439
 9030SOL     OW38551   1.860   2.200   8.036  0.1894 -0.1384 -0.3497
 9030SOL    HW138552   1.780   2.148   8.027  1.2022 -1.8655  0.6814
 9030SOL    HW238553   1.839   2.266   7.970 -0.5182  0.9788  1.0028
 9031SOL     OW38554   3.737   1.401   0.366 -0.0889  0.4877 -0.8239
 9031SOL    HW138555   3.789   1.436   0.438 -2.2458  2.2250 -0.1045
 9031SOL    HW238556   3.793   1.437   0.298 -0.0624 -0.9552 -1.5704
 9032SOL     OW38557   2.587   4.431   0.630 -0.5257 -0.5072  0.4949
 9032SOL    HW138558   2.593   4.371   0.704 -0.9250 -0.5548  0.4867
 9032SOL    HW238559   2.597   4.521   0.659 -2.2928  0.2248 -1.1298
 9033SOL     OW38560   4.462   4.089   4.705 -0.1290 -0.1503 -0.0194
 9033SOL    HW138561   4.368   4.095   4.686 -0.2116 -0.9983  0.1470
 9033SOL    HW238562   4.496   4.171   4.669 -0.1562  1.1450  2.8949
 9034SOL     OW38563   0.892   1.513   4.062 -0.0025  0.2188  0.2130
 9034SOL    HW138564   0.895   1.543   4.153  0.7906  1.2702 -0.1625
 9034SOL    HW238565   0.984   1.523   4.038 -0.6506  0.1248 -2.2504
 9035SOL     OW38566   2.810   2.508   7.068 -0.5695 -0.0162 -0.5939
 9035SOL    HW138567   2.847   2.465   7.145 -2.0623  0.0554  0.1642
 9035SOL    HW238568   2.726   2.464   7.053  0.3080 -2.2549  1.0450
 9036SOL     OW38569   2.131   0.261   7.915 -0.0890  0.1197  0.0937
 9036SOL    HW138570   2.166   0.229   7.998 -1.6943  3.9195  2.2438
 9036SOL    HW238571   2.072   0.192   7.886  0.6666 -0.2662 -0.5322
 9037SOL     OW38572   1.608   0.102   4.217  0.4028 -0.1457  0.1947
 9037SOL    HW138573   1.541   0.075   4.154 -0.1974  0.0349  0.7691
 9037SOL    HW238574   1.601   0.197   4.223 -4.3983 -0.5950  1.5971
 9038SOL     OW38575   4.713   2.989   5.258  0.3430  0.5474 -0.4965
 9038SOL    HW138576   4.716   3.075   5.301 -1.6543  0.1332  0.4531
 9038SOL    HW238577   4.665   3.015   5.180  0.8081  0.2167 -0.8902
 9039SOL     OW38578   4.662   3.474   2.583  0.1737  0.3273  0.6747
 9039SOL    HW138579   4.686   3.482   2.491  0.0733 -0.3778  0.5866
 9039SOL    HW238580   4.689   3.386   2.609  3.0547  0.7005 -1.0846
 9040SOL     OW38581   4.549   3.942   2.613  0.4315  0.0220 -0.0178
 9040SOL    HW138582   4.560   3.960   2.520  1.1113 -1.2473 -0.1818
 9040SOL    HW238583   4.634   3.905   2.637 -0.2803 -0.4010  1.8642
 9041SOL     OW38584   4.236   0.022   5.989  0.2277 -0.6045  0.0031
 9041SOL    HW138585   4.168   0.084   5.962  0.1561 -0.3233  0.8240
 9041SOL    HW238586   4.309   0.083   5.982 -1.9823  2.0300 -0.2493
 9042SOL     OW38587   4.406   3.025   9.557 -0.4785 -0.0323 -0.6309
 9042SOL    HW138588   4.404   2.938   9.517  2.9405  0.2148 -1.3492
 9042SOL    HW238589   4.370   3.083   9.490  1.4257  1.1081 -0.6626
 9043SOL     OW38590   1.202   2.579   7.831 -0.1602  0.1893  0.1300
 9043SOL    HW138591   1.128   2.518   7.840 -1.3928  1.4898 -1.1716
 9043SOL    HW238592   1.247   2.569   7.915 -1.4331 -0.0598  0.7872
 9044SOL     OW38593   3.682   4.272  16.875  0.0337 -0.1953 -0.3429
 9044SOL    HW138594   3.632   4.345  16.912  0.7454  0.4329 -0.6399
 9044SOL    HW238595   3.636   4.272  16.791 -2.4326  2.0029  0.9943
 9045SOL     OW38596   0.124   3.585   8.506 -0.0544 -0.4342  0.0846
 9045SOL    HW138597   0.197   3.560   8.563 -0.6662  1.2970  1.6399
 9045SOL    HW238598   0.058   3.607   8.572 -1.6045 -1.4237 -1.1566
 9046SOL     OW38599   2.857   1.206   6.345  0.3119 -0.1085  0.0056
 9046SOL    HW138600   2.786   1.183   6.405  0.2681 -0.9723 -0.3730
 9046SOL    HW238601   2.806   1.248   6.276 -1.1672 -2.4484 -0.3261
 9047SOL     OW38602   4.319   4.703  12.146  0.1277  0.4522 -0.2459
 9047SOL    HW138603   4.413   4.696  12.132  0.8471  2.0192  3.9578
 9047SOL    HW238604   4.294   0.007  12.058  2.2660 -1.2626 -1.4041
 9048SOL     OW38605   3.012   3.840   4.738 -0.2005 -0.0800 -0.2134
 9048SOL    HW138606   3.020   3.935   4.726 -0.5524 -0.1308 -0.8772
 9048SOL    HW238607   2.925   3.835   4.698 -1.4583  0.7044  2.4566
 9049SOL     OW38608   2.354   1.687   5.553  0.1806 -0.9454 -0.2340
 9049SOL    HW138609   2.427   1.688   5.615  0.7164  0.7608 -0.8737
 9049SOL    HW238610   2.383   1.732   5.473 -2.6936  1.2181 -0.0909
 9050SOL     OW38611   3.853   2.610  14.985 -0.2110  0.1976 -0.1266
 9050SOL    HW138612   3.845   2.524  14.945 -1.6458  0.5550 -0.6236
 9050SOL    HW238613   3.947   2.612  15.000 -0.0738 -3.0206 -0.6133
 9051SOL     OW38614   2.920   0.937   1.349 -0.5031 -0.0714 -0.3090
 9051SOL    HW138615   2.934   0.842   1.343 -0.4161 -0.1630  1.4739
 9051SOL    HW238616   2.963   0.959   1.266 -1.6097 -1.5164 -1.2809
 9052SOL     OW38617   4.113   3.491   8.138  0.0882  0.5778 -0.0366
 9052SOL    HW138618   4.179   3.549   8.100  1.3979  0.4366  2.0047
 9052SOL    HW238619   4.164   3.414   8.163 -1.6598 -0.6381 -0.2510
 9053SOL     OW38620   4.207   4.367  10.932  0.5632 -0.2709 -0.1564
 9053SOL    HW138621   4.207   4.274  10.955  0.9846 -0.5805 -1.4083
 9053SOL    HW238622   4.211   4.401  11.021  1.5009 -0.0984 -0.2715
 9054SOL     OW38623   3.074   3.366   5.261 -0.4131 -0.6367 -0.1154
 9054SOL    HW138624   3.059   3.446   5.310 -1.8993 -0.7500 -0.3926
 9054SOL    HW238625   3.148   3.325   5.306  0.3855  2.1795  1.0959
 9055SOL     OW38626   3.148   0.325   6.750  0.0811  0.0105  0.3037
 9055SOL    HW138627   3.061   0.362   6.738  0.9913  1.5316 -1.5330
 9055SOL    HW238628   3.122   0.236   6.725  2.0921 -0.4818 -0.0824
 9056SOL     OW38629   3.588   4.215   7.648 -0.2697  0.1400  0.1356
 9056SOL    HW138630   3.573   4.304   7.680  0.7975  0.5259 -0.4726
 9056SOL    HW238631   3.519   4.164   7.692 -0.1644 -0.3569 -0.2646
 9057SOL     OW38632   1.614   3.024  11.403 -1.0799  0.1536 -0.0718
 9057SOL    HW138633   1.604   2.946  11.347 -0.5133  0.6731 -0.9078
 9057SOL    HW238634   1.704   3.053  11.390 -1.2660  0.5199 -0.5501
 9058SOL     OW38635   2.196   0.325   3.114  0.3874  0.0654 -0.0104
 9058SOL    HW138636   2.183   0.256   3.179 -0.2550  1.2560  1.1154
 9058SOL    HW238637   2.286   0.352   3.130  0.2287  1.1485 -0.9361
 9059SOL     OW38638   3.771   0.832  15.328  0.0863 -0.1416  0.5959
 9059SOL    HW138639   3.766   0.907  15.268  1.2363 -0.7871 -0.3029
 9059SOL    HW238640   3.865   0.822  15.316  0.5465  2.8156  1.5971
 9060SOL     OW38641   3.704   4.323   4.616  0.0840 -0.3257  0.1939
 9060SOL    HW138642   3.721   4.402   4.667  2.2978  0.4496 -1.7456
 9060SOL    HW238643   3.641   4.289   4.679  1.5851 -0.6991  1.4924
 9061SOL     OW38644   2.272   3.395  11.194 -0.6610 -0.3247 -0.2218
 9061SOL    HW138645   2.260   3.436  11.279 -1.2412 -0.4950 -0.2174
 9061SOL    HW238646   2.204   3.327  11.191  0.3883 -1.4349  1.6089
 9062SOL     OW38647   4.705   0.790   6.745 -0.0381  0.1411  0.1871
 9062SOL    HW138648   4.703   0.788   6.649  1.2470  1.4969  0.1221
 9062SOL    HW238649   0.038   0.718   6.772  2.2077  1.0134 -2.2172
 9063SOL     OW38650   2.996   1.623   7.946 -0.1783 -0.1493 -0.3646
 9063SOL    HW138651   3.037   1.570   7.878 -2.1647 -0.7547 -1.0622
 9063SOL    HW238652   3.077   1.669   7.971 -1.5658  2.7381 -1.1732
 9064SOL     OW38653   4.331   0.072   0.040  0.3394 -0.0804 -0.0497
 9064SOL    HW138654   4.321   0.029   0.124 -2.4375 -0.2757 -0.5025
 9064SOL    HW238655   4.249   0.058  17.689 -0.5839 -0.1890  1.5836
 9065SOL     OW38656   4.434   1.644   2.077  0.0477  0.2353  0.0237
 9065SOL    HW138657   4.450   1.675   2.166 -0.0409 -0.3319  0.2354
 9065SOL    HW238658   4.358   1.587   2.090 -1.7202  2.0986 -2.1777
 9066SOL     OW38659   3.270   2.292   2.349 -0.3982  0.0399  0.3683
 9066SOL    HW138660   3.300   2.381   2.367 -3.5293  0.8709  1.4409
 9066SOL    HW238661   3.354   2.252   2.324 -0.2978 -0.1667  1.0341
 9067SOL     OW38662   0.904   1.449  12.184  0.3939 -0.8788 -0.0863
 9067SOL    HW138663   0.865   1.367  12.215 -0.1720 -0.4603  0.3066
 9067SOL    HW238664   0.936   1.496  12.262 -2.6884 -1.0825  1.2947
 9068SOL     OW38665   3.924   3.935   0.589  0.0353  0.5807  0.0989
 9068SOL    HW138666   3.946   3.921   0.681 -1.3394  0.0548  0.3564
 9068SOL    HW238667   3.848   3.994   0.588 -1.3792 -1.2417 -0.8151
 9069SOL     OW38668   2.794   4.710   8.918 -0.2461 -0.1207  0.2387
 9069SOL    HW138669   2.745   4.679   8.994 -0.0902  2.5967  1.4761
 9069SOL    HW238670   2.877   4.696   8.964 -0.1831  0.2180  0.2344
 9070SOL     OW38671   3.661   4.496  17.241  0.0749  0.9173 -0.5616
 9070SOL    HW138672   3.603   4.565  17.209  0.4558  1.6191  0.2422
 9070SOL    HW238673   3.593   4.430  17.250  0.5386  1.0519  4.3282
 9071SOL     OW38674   3.476   0.214   4.572 -0.2683 -0.2134  0.0349
 9071SOL    HW138675   3.432   0.253   4.648  2.9630  0.0222  1.7548
 9071SOL    HW238676   3.515   0.294   4.535  1.8531 -0.0213  2.7702
 9072SOL     OW38677   3.244   1.007   8.502 -0.3576  0.0664  0.0712
 9072SOL    HW138678   3.272   0.915   8.504 -0.0413  0.0894 -2.4393
 9072SOL    HW238679   3.276   1.051   8.580  1.8027 -1.0161 -0.2231
 9073SOL     OW38680   1.024   1.268   7.285 -0.1512  0.2248  0.0250
 9073SOL    HW138681   1.019   1.175   7.306 -0.4865 -0.2982 -2.3451
 9073SOL    HW238682   0.935   1.287   7.256 -0.4840  0.1016  0.9842
 9074SOL     OW38683   0.910   3.594   6.174  0.0025 -1.3628  0.8646
 9074SOL    HW138684   0.815   3.603   6.180  0.1843  0.8366  0.2242
 9074SOL    HW238685   0.930   3.644   6.095 -0.9657 -0.1641  1.3871
 9075SOL     OW38686   3.481   0.755   7.488 -0.4165  0.2356  0.0156
 9075SOL    HW138687   3.499   0.782   7.398 -1.1816 -1.8259 -0.7412
 9075SOL    HW238688   3.502   0.838   7.531 -1.5750 -0.1363  1.2861
 9076SOL     OW38689   0.264   1.176   8.651 -0.0772 -0.3599  0.0701
 9076SOL    HW138690   0.184   1.206   8.606  0.9588 -0.0365 -1.5464
 9076SOL    HW238691   0.247   1.200   8.742  1.3909 -2.5965  0.9009
 9077SOL     OW38692   2.422   2.801   6.517  0.6893 -0.5145  0.0246
 9077SOL    HW138693   2.453   2.816   6.428  0.2552  1.7867  0.2572
 9077SOL    HW238694   2.501   2.768   6.562  0.9360  0.0456  0.0043
 9078SOL     OW38695   3.742   1.606   7.756  0.1950 -0.1245  0.1539
 9078SOL    HW138696   3.794   1.573   7.830  1.0292 -1.5064 -1.0478
 9078SOL    HW238697   3.798   1.679   7.730  1.7516 -0.7715  1.6680
 9079SOL     OW38698   4.592   0.398   7.569 -0.1573  0.2624 -0.1336
 9079SOL    HW138699   4.621   0.316   7.530 -1.5671  0.1946 -1.0659
 9079SOL    HW238700   4.534   0.425   7.498  0.5349 -0.8132 -1.1107
 9080SOL     OW38701   1.214   2.341   2.755 -0.7969 -0.2282 -0.0735
 9080SOL    HW138702   1.288   2.341   2.694  1.6886  2.0205  2.9617
 9080SOL    HW238703   1.160   2.408   2.713 -0.1573 -1.0568 -2.2358
 9081SOL     OW38704   3.695   1.739   5.822 -0.0316 -0.0298  0.1098
 9081SOL    HW138705   3.658   1.707   5.740  0.9861 -0.1967 -0.2907
 9081SOL    HW238706   3.728   1.824   5.793 -0.9685  0.3464  0.1439
 9082SOL     OW38707   2.553   0.524   5.098  0.1690 -0.1169 -0.0396
 9082SOL    HW138708   2.593   0.555   5.017  0.2222 -0.4655 -0.1445
 9082SOL    HW238709   2.463   0.512   5.068 -1.0628  1.5623  2.9043
 9083SOL     OW38710   4.502   3.627   6.327 -0.1829 -0.1609  0.4323
 9083SOL    HW138711   4.498   3.537   6.360  1.6700 -0.5508 -0.3952
 9083SOL    HW238712   4.465   3.616   6.239  0.8727 -1.6806  0.1774
 9084SOL     OW38713   1.631   0.518   5.103 -0.0756  0.4993 -0.0019
 9084SOL    HW138714   1.572   0.490   5.173  0.3833 -1.3457 -0.3449
 9084SOL    HW238715   1.714   0.476   5.126 -0.7833 -1.3236 -0.7127
 9085SOL     OW38716   3.775   4.512  16.747 -0.0154 -0.6527 -0.2299
 9085SOL    HW138717   3.745   4.569  16.819 -1.2482 -0.0170 -1.2506
 9085SOL    HW238718   3.707   4.447  16.729  0.3708 -1.2018  0.2769
 9086SOL     OW38719   0.524   1.769   5.150  0.1247  0.5247 -0.0560
 9086SOL    HW138720   0.619   1.766   5.143  0.2180 -0.5802  1.8708
 9086SOL    HW238721   0.502   1.849   5.103 -0.8160 -0.2364 -0.9252
 9087SOL     OW38722   4.149   4.011   3.515  0.5968 -0.3532 -0.2333
 9087SOL    HW138723   4.088   3.995   3.587 -0.3146  0.0881 -0.9200
 9087SOL    HW238724   4.119   4.096   3.485  0.5537  0.0947  1.0877
 9088SOL     OW38725   1.250   4.092   4.349 -0.5181 -0.6128  0.2816
 9088SOL    HW138726   1.332   4.118   4.391  0.1351 -2.4478  0.1438
 9088SOL    HW238727   1.274   4.000   4.336 -0.1558 -0.3979 -0.6525
 9089SOL     OW38728   1.721   0.171   1.933 -0.2218  0.5118 -0.7508
 9089SOL    HW138729   1.734   0.095   1.877  0.7184  0.5973 -0.6457
 9089SOL    HW238730   1.698   0.134   2.018 -1.3713  2.6016 -0.1484
 9090SOL     OW38731   3.785   4.517   5.860  0.5777  0.3162  0.1149
 9090SOL    HW138732   3.843   4.461   5.808 -2.5870 -0.0983 -2.9517
 9090SOL    HW238733   3.849   4.562   5.916  0.3663 -0.9057  1.3376
 9091SOL     OW38734   0.665   1.391   4.787  0.1494 -0.1413  0.2536
 9091SOL    HW138735   0.619   1.473   4.800 -0.4163 -0.0121 -2.6822
 9091SOL    HW238736   0.715   1.383   4.869  0.8718  0.2226 -0.1473
 9092SOL     OW38737   0.838   3.741   1.931 -0.1254  0.0277 -0.6300
 9092SOL    HW138738   0.835   3.836   1.933  1.8892  0.0769  0.7122
 9092SOL    HW238739   0.767   3.719   1.990  1.8996 -1.4658  1.2496
 9093SOL     OW38740   2.113   4.073   0.551  0.3941 -0.2424  0.4937
 9093SOL    HW138741   2.180   4.004   0.546  1.1447  0.1497  4.7298
 9093SOL    HW238742   2.051   4.048   0.482 -0.2332 -1.4579  1.4725
 9094SOL     OW38743   0.545   3.358   4.994 -1.1890  0.3158  0.7144
 9094SOL    HW138744   0.478   3.341   5.060 -0.8830  1.0530  1.2072
 9094SOL    HW238745   0.619   3.319   5.040 -0.4576 -0.2604 -0.9625
 9095SOL     OW38746   3.103   0.661  14.470  0.3094 -0.3623  0.3087
 9095SOL    HW138747   3.131   0.732  14.412  0.7793  1.8345  3.2471
 9095SOL    HW238748   3.019   0.699  14.494  0.6551  0.0961  0.8008
 9096SOL     OW38749   2.605   2.037   1.123  0.5989  0.7394 -0.4646
 9096SOL    HW138750   2.595   2.095   1.199  2.1743  0.0616  0.2433
 9096SOL    HW238751   2.541   1.968   1.140  1.0162  0.7610  1.2257
 9097SOL     OW38752   4.673   1.460  13.068 -0.0028 -0.0686  0.4890
 9097SOL    HW138753   4.691   1.374  13.106 -1.6038 -0.5961  0.0521
 9097SOL    HW238754   0.039   1.493  13.075 -0.9427  2.2070  1.8728
 9098SOL     OW38755   3.713   1.130  11.187 -0.2099  0.5532 -0.4354
 9098SOL    HW138756   3.793   1.113  11.138 -0.7332 -2.4515 -0.2194
 9098SOL    HW238757   3.714   1.225  11.197 -2.6620  0.5899 -0.3625
 9099SOL     OW38758   0.532   0.824   2.275 -0.3521  0.3880  0.5003
 9099SOL    HW138759   0.511   0.800   2.185  0.0539  2.4845 -0.1425
 9099SOL    HW238760   0.489   0.908   2.291  1.7173  1.7411 -1.0675
 9100SOL     OW38761   3.021   2.449   1.899 -0.8736  0.3242 -0.5567
 9100SOL    HW138762   2.967   2.517   1.858 -1.2948  0.6512  0.5358
 9100SOL    HW238763   3.045   2.493   1.981  0.3196  0.2550 -0.8684
 9101SOL     OW38764   3.055   4.242   2.052 -0.5356 -0.8451  0.1344
 9101SOL    HW138765   3.020   4.224   1.965 -1.4371 -1.0674  0.5459
 9101SOL    HW238766   3.016   4.329   2.065  0.0289 -0.3903 -1.2500
 9102SOL     OW38767   4.527   3.725  10.242 -0.2157  0.8807 -0.1686
 9102SOL    HW138768   4.446   3.775  10.258 -0.1055  0.9962  0.0285
 9102SOL    HW238769   4.527   3.716  10.147 -0.7390  0.7634 -0.1619
 9103SOL     OW38770   1.615   2.639   1.219  0.6177 -0.2053 -0.2897
 9103SOL    HW138771   1.687   2.689   1.257 -0.2940  2.1712 -1.6630
 9103SOL    HW238772   1.555   2.629   1.293 -0.1079 -0.4421 -0.9117
 9104SOL     OW38773   4.387   3.829   7.927 -0.4815  0.0132  0.0504
 9104SOL    HW138774   4.476   3.840   7.961 -1.1592  0.9172  1.5479
 9104SOL    HW238775   4.407   3.834   7.834 -0.0206  1.3330  0.2291
 9105SOL     OW38776   1.732   1.257   0.314 -0.4658 -0.4216  0.0792
 9105SOL    HW138777   1.772   1.280   0.398 -0.7119 -0.1988  0.1325
 9105SOL    HW238778   1.715   1.336   0.264  0.0516 -0.5954 -0.3677
 9106SOL     OW38779   1.422   0.064  11.435 -0.1062 -0.1523 -0.7159
 9106SOL    HW138780   1.504   0.024  11.407  0.1931  1.4293 -2.1848
 9106SOL    HW238781   1.379   4.710  11.468 -0.6343  0.4751  0.0730
 9107SOL     OW38782   0.045   1.024   7.955  0.3544 -0.2092 -0.6297
 9107SOL    HW138783   0.072   0.961   7.888  1.7588 -0.5380  0.2380
 9107SOL    HW238784   0.051   0.970   8.034 -0.8252  0.2194 -0.2503
 9108SOL     OW38785   1.898   3.006   3.093  0.3353  0.4598 -0.0858
 9108SOL    HW138786   1.880   3.035   3.004  0.0350  1.3674  0.2678
 9108SOL    HW238787   1.976   3.052   3.125  1.7745 -1.4868 -0.8314
 9109SOL     OW38788   1.596   0.050   8.055  0.5617 -0.3100  0.4173
 9109SOL    HW138789   1.658   0.027   7.987  0.8946  0.3205  0.5069
 9109SOL    HW238790   1.548   4.691   8.060  0.6719 -0.5484 -2.3579
 9110SOL     OW38791   0.398   0.025   6.856  0.1368  0.2677 -0.2744
 9110SOL    HW138792   0.411   0.094   6.921  1.1837 -0.9849  0.8391
 9110SOL    HW238793   0.412   0.072   6.774  0.6103  0.9561  0.2004
 9111SOL     OW38794   0.330   2.336   9.333  0.1193  0.0350 -0.3275
 9111SOL    HW138795   0.413   2.380   9.313  1.0320 -0.8220  1.5287
 9111SOL    HW238796   0.350   2.282   9.409  3.7573  1.7686 -0.0185
 9112SOL     OW38797   3.157   1.207  10.701 -0.1431  0.1611 -0.3121
 9112SOL    HW138798   3.220   1.267  10.739 -0.1834 -0.7590  1.1876
 9112SOL    HW238799   3.085   1.213  10.764 -0.8233  0.5872 -1.1297
 9113SOL     OW38800   1.067   1.063   3.306  0.4618  0.3356 -0.0924
 9113SOL    HW138801   1.144   1.063   3.250  0.5786  1.4214  0.0511
 9113SOL    HW238802   1.101   1.031   3.390  1.0239  0.9384 -0.0876
 9114SOL     OW38803   3.464   0.436   5.311 -0.5388 -0.1036 -0.6670
 9114SOL    HW138804   3.538   0.496   5.305  0.8849 -1.3612  3.9716
 9114SOL    HW238805   3.405   0.484   5.370  1.5642 -0.2545  1.5703
 9115SOL     OW38806   4.057   2.781  10.779  0.0215  0.0561 -0.1814
 9115SOL    HW138807   4.001   2.771  10.855 -0.0761  0.7006 -0.1697
 9115SOL    HW238808   4.096   2.696  10.758  2.8251  1.0023  1.0934
 9116SOL     OW38809   0.726   4.193   3.736  0.0595 -0.2130  0.3301
 9116SOL    HW138810   0.809   4.153   3.711 -1.0880 -1.0228 -2.1804
 9116SOL    HW238811   0.735   4.220   3.828  2.7967 -1.9706  0.5703
 9117SOL     OW38812   2.424   1.007   0.604  0.3334  0.2467 -0.0595
 9117SOL    HW138813   2.400   0.916   0.585 -0.4028  0.1608  1.2800
 9117SOL    HW238814   2.368   1.059   0.547 -1.1180 -1.0699  0.1377
 9118SOL     OW38815   4.267   2.662   7.325  0.2871  0.3304  0.2912
 9118SOL    HW138816   4.193   2.679   7.384  0.6554 -0.2334  0.9178
 9118SOL    HW238817   4.260   2.566   7.322 -1.9645  0.4752  0.6730
 9119SOL     OW38818   4.551   1.923   5.851 -0.5362 -0.5533  0.0658
 9119SOL    HW138819   4.518   2.005   5.889  0.7310  0.6746 -1.5044
 9119SOL    HW238820   4.639   1.952   5.828 -0.2471  0.1557  2.0656
 9120SOL     OW38821   2.558   4.129   3.721 -0.8660  0.2388  0.5221
 9120SOL    HW138822   2.549   4.075   3.800 -1.0383 -0.7215 -0.1487
 9120SOL    HW238823   2.486   4.110   3.661 -0.3777 -0.3226  0.1142
 9121SOL     OW38824   3.667   3.614  12.622 -0.2928  0.3421  0.0612
 9121SOL    HW138825   3.700   3.541  12.569  1.7326  1.0901  0.2827
 9121SOL    HW238826   3.710   3.695  12.592 -0.8014  1.7182  3.0672
 9122SOL     OW38827   2.919   0.179   5.279  0.1378  0.4262  0.0915
 9122SOL    HW138828   2.942   0.224   5.197 -0.5358 -3.1842 -2.0512
 9122SOL    HW238829   2.990   0.115   5.290  0.9892  1.5555  1.1895
 9123SOL     OW38830   0.053   3.887   5.079  0.6108  0.4106 -0.4259
 9123SOL    HW138831   0.122   3.901   5.013  1.1624 -1.3812 -0.2193
 9123SOL    HW238832   4.696   3.925   5.042  0.9733  0.1239 -1.5158
 9124SOL     OW38833   2.914   0.872   4.939  0.1980 -0.1901 -0.4951
 9124SOL    HW138834   2.869   0.787   4.948 -0.2396 -0.1412 -2.3411
 9124SOL    HW238835   2.998   0.851   4.981 -0.0756  1.3123  0.7910
 9125SOL     OW38836   4.464   0.664  13.268 -0.1413 -0.8274  0.9035
 9125SOL    HW138837   4.542   0.653  13.323  0.6216  0.7125  0.1179
 9125SOL    HW238838   4.439   0.754  13.289  0.8251 -0.3178 -0.1412
 9126SOL     OW38839   0.487   4.064   4.196 -0.1960  0.0230  0.1269
 9126SOL    HW138840   0.483   4.026   4.109 -1.3871  1.6971 -0.5421
 9126SOL    HW238841   0.399   4.052   4.230  0.2924 -2.0632  0.6746
 9127SOL     OW38842   0.989   1.985  12.166  0.3276  0.5138 -0.2439
 9127SOL    HW138843   1.005   2.037  12.244 -0.7647 -1.2136  1.1312
 9127SOL    HW238844   1.024   2.045  12.101  1.2751  1.1256  0.8265
 9128SOL     OW38845   3.104   1.562   7.382  0.1875  0.5390 -0.0742
 9128SOL    HW138846   3.055   1.481   7.394  0.7860  0.0891 -0.6171
 9128SOL    HW238847   3.030   1.596   7.332 -0.3039  1.9870  1.6761
 9129SOL     OW38848   0.987   1.093  10.919  0.3544 -0.5050 -0.1796
 9129SOL    HW138849   1.041   1.015  10.935  2.2539  0.7454 -0.4216
 9129SOL    HW238850   1.051   1.143  10.868 -0.3408 -0.8846 -1.4311
 9130SOL     OW38851   1.103   0.113   1.803 -0.1850  0.3977  0.3638
 9130SOL    HW138852   1.144   0.200   1.802  1.3955 -0.3513 -0.6242
 9130SOL    HW238853   1.132   0.066   1.725 -0.2294 -0.9477  1.1599
 9131SOL     OW38854   3.110   3.952   8.768  0.0960 -0.5268  0.5851
 9131SOL    HW138855   3.048   3.934   8.838 -0.9213 -0.6746 -0.3487
 9131SOL    HW238856   3.195   3.960   8.812 -0.4224  0.1740  1.4336
 9132SOL     OW38857   4.006   1.892  16.036 -0.4172  1.0119  0.0396
 9132SOL    HW138858   4.066   1.867  15.966  1.5522  1.4075  1.5804
 9132SOL    HW238859   4.064   1.937  16.098  1.1693 -0.2807 -0.4800
 9133SOL     OW38860   2.725   2.149   8.326  0.8257 -0.1581  0.5918
 9133SOL    HW138861   2.642   2.158   8.374  0.2336 -0.9936 -0.2682
 9133SOL    HW238862   2.743   2.242   8.332 -1.1579  0.2253  0.4924
 9134SOL     OW38863   2.096   3.424  15.601 -0.3654 -0.3915 -0.3397
 9134SOL    HW138864   2.147   3.496  15.565 -1.2578  0.7808  0.7657
 9134SOL    HW238865   2.031   3.413  15.533 -1.7614 -0.9502  1.0798
 9135SOL     OW38866   0.860   3.787  10.408  0.0532 -0.3643  0.2701
 9135SOL    HW138867   0.782   3.823  10.451 -0.9612  0.3727 -2.1908
 9135SOL    HW238868   0.896   3.741  10.483 -0.8097  1.7001  1.9393
 9136SOL     OW38869   1.043   3.096   1.368 -0.3652 -0.3943  0.0929
 9136SOL    HW138870   0.955   3.101   1.406  0.0346  0.6225  0.8789
 9136SOL    HW238871   1.035   3.031   1.298  1.2895  0.1537 -0.6043
 9137SOL     OW38872   0.905   1.360   8.920  0.1294  0.1299 -0.3309
 9137SOL    HW138873   0.840   1.398   8.978 -1.1706  1.3051 -2.5823
 9137SOL    HW238874   0.972   1.328   8.980 -0.2586  0.9622  0.5297
 9138SOL     OW38875   4.454   1.066   4.294  0.1596  0.4568  0.0747
 9138SOL    HW138876   4.420   1.084   4.206 -1.3367 -1.1343  0.3408
 9138SOL    HW238877   4.545   1.091   4.273 -0.7648  1.8195 -2.3659
 9139SOL     OW38878   0.558   2.395   5.822 -0.6165  0.1229  0.6699
 9139SOL    HW138879   0.586   2.326   5.882 -0.7660 -0.8951 -0.4156
 9139SOL    HW238880   0.590   2.467   5.875 -0.7447  0.2944  0.5165
 9140SOL     OW38881   0.500   2.472   8.194 -0.5331 -0.0907  0.3128
 9140SOL    HW138882   0.544   2.472   8.280 -0.3404  0.9627  0.2119
 9140SOL    HW238883   0.504   2.379   8.171  1.3435 -0.2097  1.0866
 9141SOL     OW38884   3.827   0.983  12.853  0.2803  0.0372 -0.0223
 9141SOL    HW138885   3.813   1.070  12.892 -1.6183 -0.0283 -0.5350
 9141SOL    HW238886   3.919   0.976  12.831  0.9887  0.6208  2.7823
 9142SOL     OW38887   1.630   2.936   6.424  0.4088  0.4122 -0.0815
 9142SOL    HW138888   1.722   2.913   6.429  0.4707  0.9810  1.7024
 9142SOL    HW238889   1.624   2.904   6.334  0.1348 -1.4164  0.5959
 9143SOL     OW38890   4.177   3.952   8.066 -0.6727  0.0214 -0.2055
 9143SOL    HW138891   4.239   3.895   8.020 -0.8520  0.5623 -1.1068
 9143SOL    HW238892   4.101   3.922   8.017 -0.5105 -0.3036 -0.2547
 9144SOL     OW38893   2.345   3.810   7.715 -0.3568  0.2907  0.0616
 9144SOL    HW138894   2.286   3.875   7.753  1.6579  0.7780  2.2973
 9144SOL    HW238895   2.284   3.781   7.647 -0.3808 -1.1657  0.7024
 9145SOL     OW38896   0.430   1.130   5.972  0.2503  0.2847 -0.2353
 9145SOL    HW138897   0.387   1.055   6.012 -0.7691  1.7202  1.3282
 9145SOL    HW238898   0.368   1.147   5.901 -1.3704  0.7204  1.3059
 9146SOL     OW38899   0.031   3.988   1.784 -0.1515  0.1135  0.1748
 9146SOL    HW138900   0.121   3.967   1.809  0.3432  2.0851  0.0496
 9146SOL    HW238901   4.717   3.904   1.812  0.2176 -1.1241 -3.0100
 9147SOL     OW38902   3.434   4.294   2.796 -0.3875 -0.2895 -0.2143
 9147SOL    HW138903   3.409   4.223   2.855  0.6524 -1.4620 -1.1886
 9147SOL    HW238904   3.378   4.367   2.822 -3.1732 -2.8912  1.0896
 9148SOL     OW38905   4.106   1.624  13.002  0.3725  0.0390 -0.3774
 9148SOL    HW138906   4.061   1.709  12.999 -1.3730 -0.9376 -2.5653
 9148SOL    HW238907   4.032   1.563  13.009 -0.4163  1.0398 -0.0119
 9149SOL     OW38908   0.843   2.887   9.268  0.4133  0.1511  0.5350
 9149SOL    HW138909   0.929   2.889   9.226  1.0566 -0.6111  1.8347
 9149SOL    HW238910   0.782   2.928   9.206  1.4959 -1.0348 -1.3129
 9150SOL     OW38911   0.756   4.474  16.980 -0.3732  1.1821 -0.0118
 9150SOL    HW138912   0.822   4.456  16.913 -0.2637  1.0449  0.1336
 9150SOL    HW238913   0.805   4.545  17.022  0.7098 -0.2523  1.1251
 9151SOL     OW38914   3.994   3.275   6.647  0.6983  0.0532  0.2114
 9151SOL    HW138915   4.074   3.275   6.699  1.5757  1.2281 -1.1729
 9151SOL    HW238916   3.980   3.368   6.632 -0.0317 -0.6057 -3.2474
 9152SOL     OW38917   0.247   1.701   4.580 -0.1283  0.1569  0.3147
 9152SOL    HW138918   0.297   1.735   4.506  1.5419  0.5903  1.6701
 9152SOL    HW238919   0.240   1.610   4.551  0.7959  0.3274 -0.4346
 9153SOL     OW38920   1.643   4.248   3.358  0.1351 -0.0303  0.3745
 9153SOL    HW138921   1.730   4.269   3.324 -0.4072  1.5876  0.0130
 9153SOL    HW238922   1.619   4.181   3.294  0.3610  0.4800 -0.2431
 9154SOL     OW38923   2.864   1.549   9.707 -0.3535 -0.0672 -0.4660
 9154SOL    HW138924   2.781   1.596   9.722  0.2462  0.6499  0.5978
 9154SOL    HW238925   2.851   1.468   9.757  2.0097 -0.8299 -1.1163
 9155SOL     OW38926   0.929   1.041  13.711  0.4898  0.1926 -0.2831
 9155SOL    HW138927   0.872   1.113  13.735 -2.3950 -1.0853 -3.1865
 9155SOL    HW238928   1.013   1.051  13.757  1.0484  3.0579 -1.9702
 9156SOL     OW38929   3.629   2.530   7.855 -0.2386  0.0293  0.0823
 9156SOL    HW138930   3.671   2.515   7.940  1.6766 -0.4367 -0.9432
 9156SOL    HW238931   3.541   2.506   7.884 -0.5297  1.3223  0.2782
 9157SOL     OW38932   0.702   3.521   7.865 -0.7701  0.2886 -0.2661
 9157SOL    HW138933   0.626   3.477   7.903 -0.5840  1.2021  1.1585
 9157SOL    HW238934   0.660   3.599   7.828  0.1311  0.7786 -0.2534
 9158SOL     OW38935   0.238   4.384   4.986 -0.1362  0.2069  0.8056
 9158SOL    HW138936   0.224   4.296   5.021 -1.0162  0.4794  1.1374
 9158SOL    HW238937   0.150   4.394   4.950 -1.0227 -1.6103  2.4401
 9159SOL     OW38938   0.021   1.743   7.176 -0.5449 -0.6132  0.5658
 9159SOL    HW138939   0.069   1.761   7.257 -1.7460 -1.0019  1.3595
 9159SOL    HW238940   0.047   1.828   7.142 -1.5787 -0.5785 -0.1345
 9160SOL     OW38941   3.045   3.699   8.477  0.7433  0.1607 -0.1718
 9160SOL    HW138942   3.082   3.651   8.551 -1.0678  0.1737  0.7463
 9160SOL    HW238943   2.953   3.691   8.504  0.5119 -2.0081 -1.5438
 9161SOL     OW38944   3.535   4.297   7.146  0.4790  0.3046 -0.2914
 9161SOL    HW138945   3.443   4.274   7.130  0.6582  0.1158 -1.0680
 9161SOL    HW238946   3.547   4.270   7.237 -1.0328  0.3530 -0.0714
 9162SOL     OW38947   0.563   2.987  15.612  0.2303 -0.6139 -0.3001
 9162SOL    HW138948   0.591   2.934  15.686 -1.4691 -0.2873  0.5747
 9162SOL    HW238949   0.475   2.956  15.590  0.9387 -0.2418 -3.6435
 9163SOL     OW38950   3.525   2.128   1.558  0.3871  0.3795 -0.1344
 9163SOL    HW138951   3.602   2.077   1.583 -0.0885 -0.1077  0.3393
 9163SOL    HW238952   3.542   2.202   1.616  0.5842 -0.8848  1.4168
 9164SOL     OW38953   3.154   4.673   8.686 -0.0697 -0.6751 -0.2582
 9164SOL    HW138954   3.075   4.683   8.633 -1.1172 -0.4446  1.3486
 9164SOL    HW238955   3.117   4.708   8.767  1.0270 -3.0806  1.3001
 9165SOL     OW38956   3.400   0.675   4.627  0.1880  0.6423 -0.1330
 9165SOL    HW138957   3.426   0.765   4.650  0.1272  0.5040  0.4796
 9165SOL    HW238958   3.325   0.694   4.571 -0.1290 -2.6708 -0.7885
 9166SOL     OW38959   0.843   0.475   8.683  0.1854  0.1605 -0.0540
 9166SOL    HW138960   0.912   0.409   8.673 -0.7506 -0.5590 -1.9136
 9166SOL    HW238961   0.771   0.423   8.721  1.3167 -0.9940  0.5293
 9167SOL     OW38962   4.041   2.329  14.982 -0.4546 -0.2568 -0.5091
 9167SOL    HW138963   4.061   2.379  15.061  3.9479 -2.4757 -0.1839
 9167SOL    HW238964   4.061   2.395  14.915 -1.7432 -1.0213 -1.6392
 9168SOL     OW38965   2.680   1.702   8.348 -0.2634  0.4322 -0.1053
 9168SOL    HW138966   2.759   1.704   8.294 -0.7576  0.8900 -0.8128
 9168SOL    HW238967   2.616   1.652   8.298  0.3227 -1.1852  0.7552
 9169SOL     OW38968   0.550   3.321   4.732  0.0053 -0.0337  0.4387
 9169SOL    HW138969   0.546   3.310   4.827  0.2414  0.0545  0.4570
 9169SOL    HW238970   0.636   3.286   4.710  0.0320  0.3456 -0.0646
 9170SOL     OW38971   0.980   2.559  14.431  0.2653 -0.4098 -0.5661
 9170SOL    HW138972   0.927   2.638  14.440  1.0627  0.0561  0.0218
 9170SOL    HW238973   0.994   2.542  14.524  0.6839 -0.3258 -0.6171
 9171SOL     OW38974   2.689   1.381   1.770 -0.2340  0.3778  0.7831
 9171SOL    HW138975   2.661   1.289   1.769 -0.6790  0.5114  2.8647
 9171SOL    HW238976   2.753   1.381   1.698 -1.2109 -0.7837 -0.0794
 9172SOL     OW38977   3.015   3.968   2.113  1.0446 -0.3337 -0.0677
 9172SOL    HW138978   2.947   4.003   2.170  0.4335  0.4352 -1.2773
 9172SOL    HW238979   3.054   4.041   2.065  1.8756 -0.0553  1.0375
 9173SOL     OW38980   1.393   1.811   4.449 -0.2777 -0.3616  0.0968
 9173SOL    HW138981   1.394   1.906   4.461 -0.7955 -0.2895 -0.4143
 9173SOL    HW238982   1.474   1.801   4.399 -0.6667  2.7133 -1.1049
 9174SOL     OW38983   2.798   2.145   2.110 -0.5782 -0.5691  0.1217
 9174SOL    HW138984   2.726   2.083   2.117 -0.4274 -0.6733  0.7826
 9174SOL    HW238985   2.754   2.224   2.079  2.5424  1.3707  0.5271
 9175SOL     OW38986   3.426   3.070   9.704  1.2711  0.2179  0.2469
 9175SOL    HW138987   3.510   3.095   9.665  0.6882  1.6427 -0.1157
 9175SOL    HW238988   3.378   3.067   9.621  1.7899 -0.3952 -0.0242
 9176SOL     OW38989   2.864   3.600   6.484  0.1497 -0.0634  0.5433
 9176SOL    HW138990   2.822   3.625   6.566  1.7719 -1.2947  1.7544
 9176SOL    HW238991   2.913   3.678   6.456  1.3670 -1.2785 -0.7241
 9177SOL     OW38992   3.954   1.201  11.836  0.3016  0.3928  0.3353
 9177SOL    HW138993   3.933   1.112  11.865  0.0055  0.5646  0.6526
 9177SOL    HW238994   3.964   1.195  11.741  0.0138 -0.2551  0.3461
 9178SOL     OW38995   2.299   3.856  12.059 -0.5360  0.4033  0.1640
 9178SOL    HW138996   2.221   3.846  12.114 -0.6795  1.2376  0.1079
 9178SOL    HW238997   2.246   3.881  11.984  1.2575  1.4686 -0.7253
 9179SOL     OW38998   2.905   1.520   6.744  0.0003  0.0158 -0.5289
 9179SOL    HW138999   2.916   1.435   6.701  1.6627  0.5409 -1.1489
 9179SOL    HW239000   2.876   1.499   6.832 -0.2688 -0.6526 -0.7768
 9180SOL     OW39001   1.336   2.454  12.774  0.3019  0.0947 -0.0595
 9180SOL    HW139002   1.315   2.529  12.719 -0.2311  0.2207  0.3122
 9180SOL    HW239003   1.417   2.428  12.731  0.6998  1.7017 -0.2647
 9181SOL     OW39004   1.923   3.060   0.954  0.6286  0.3904 -0.0578
 9181SOL    HW139005   2.006   3.065   1.000 -0.7810 -1.0066  2.6126
 9181SOL    HW239006   1.942   3.102   0.870 -0.8530  1.1455 -0.0347
 9182SOL     OW39007   4.298   2.090   2.881 -0.2640  0.5463  0.2674
 9182SOL    HW139008   4.229   2.089   2.946 -0.1728  0.1577  0.3540
 9182SOL    HW239009   4.276   2.176   2.844  0.4302  0.5590 -0.1238
 9183SOL     OW39010   0.821   4.684   2.975 -0.2905 -0.2263  0.2825
 9183SOL    HW139011   0.865   4.634   3.044  1.9588  1.5953  0.1913
 9183SOL    HW239012   0.746   4.627   2.961 -1.5806  0.6286  3.5983
 9184SOL     OW39013   3.092   3.652  14.591 -0.7610  0.6185 -0.2244
 9184SOL    HW139014   3.158   3.582  14.600  0.0887  1.6093  1.2105
 9184SOL    HW239015   3.083   3.672  14.684  2.4379 -0.5901  0.3688
 9185SOL     OW39016   0.765   3.887   7.945 -0.1839 -0.0013 -0.4503
 9185SOL    HW139017   0.763   3.977   7.915  0.1511 -0.4252 -1.7612
 9185SOL    HW239018   0.859   3.877   7.963  0.2570  4.1148 -0.6681
 9186SOL     OW39019   3.419   4.081   2.975  0.4309  0.6072 -0.0230
 9186SOL    HW139020   3.478   4.040   2.912  1.3489  2.5514 -0.4387
 9186SOL    HW239021   3.388   4.006   3.025  0.4121 -0.4295 -1.5768
 9187SOL     OW39022   0.662   4.419   8.144  0.8311 -0.5078  0.0691
 9187SOL    HW139023   0.575   4.400   8.176  0.9677  0.3040  0.9231
 9187SOL    HW239024   0.661   4.515   8.147 -0.8011 -0.5509  0.5145
 9188SOL     OW39025   2.303   0.491   3.624 -0.0037 -0.4241  0.1246
 9188SOL    HW139026   2.382   0.461   3.669 -0.6310 -2.9775 -0.4532
 9188SOL    HW239027   2.264   0.413   3.585  2.1608 -2.2938  1.7260
 9189SOL     OW39028   0.793   4.423  12.502 -0.1196  0.0386 -0.5555
 9189SOL    HW139029   0.878   4.379  12.509  0.6347  1.5960 -0.0554
 9189SOL    HW239030   0.796   4.467  12.417  1.0867 -0.2472 -0.6666
 9190SOL     OW39031   3.334   0.921   5.308  0.3179  0.1361  0.1116
 9190SOL    HW139032   3.353   0.847   5.365  0.7679  0.7908  0.8025
 9190SOL    HW239033   3.391   0.988   5.346 -0.7693 -0.1693  2.2808
 9191SOL     OW39034   4.722   2.313   1.758 -0.1777  0.2214  0.2679
 9191SOL    HW139035   0.029   2.223   1.746 -0.9044  0.0593 -0.3627
 9191SOL    HW239036   0.054   2.336   1.832 -0.6797 -3.2404  1.7303
 9192SOL     OW39037   3.386   3.972   8.808  0.3368  0.6276  0.5922
 9192SOL    HW139038   3.451   3.902   8.806  1.2383  1.4916 -0.9348
 9192SOL    HW239039   3.433   4.050   8.839  0.4289  1.2256 -1.0492
 9193SOL     OW39040   0.066   2.131  13.518  0.0407 -0.2881  0.3470
 9193SOL    HW139041   0.048   2.206  13.574  0.7682 -1.4496  2.1335
 9193SOL    HW239042   0.035   2.062  13.576 -0.2077 -1.3654 -1.0719
 9194SOL     OW39043   2.550   3.242  17.667 -0.7185  0.0737  0.0310
 9194SOL    HW139044   2.640   3.233  17.634 -0.6128 -1.3733  0.6916
 9194SOL    HW239045   2.538   3.331  17.634  3.1347  0.9662  0.9289
 9195SOL     OW39046   3.244   3.823   3.062  0.0151  0.1602 -0.3053
 9195SOL    HW139047   3.263   3.730   3.067  0.2866  0.2406  0.1093
 9195SOL    HW239048   3.260   3.844   3.154 -2.8849 -0.9572  0.4730
 9196SOL     OW39049   3.254   4.036   1.883 -0.1252  0.2565 -0.4061
 9196SOL    HW139050   3.319   3.966   1.879 -1.2122 -0.6427 -2.2382
 9196SOL    HW239051   3.206   4.020   1.801  3.8206  0.0394 -2.6880
 9197SOL     OW39052   0.869   0.429  12.083  0.1710 -0.9136 -0.2761
 9197SOL    HW139053   0.855   0.502  12.022  1.5734 -0.5545 -0.1539
 9197SOL    HW239054   0.782   0.426  12.123 -0.3424  2.4952 -1.1330
 9198SOL     OW39055   3.094   1.256  11.619  0.0143  0.4033 -0.3062
 9198SOL    HW139056   3.000   1.251  11.634  0.3478 -1.1764  1.2784
 9198SOL    HW239057   3.109   1.281  11.528 -0.6161 -0.2983 -0.6096
 9199SOL     OW39058   0.173   3.023  10.617 -0.4877  0.3754  0.0013
 9199SOL    HW139059   0.228   2.988  10.547 -1.5382 -1.4725  0.1122
 9199SOL    HW239060   0.244   3.064  10.667  0.4923  1.2590 -2.1254
 9200SOL     OW39061   4.653   0.982  15.243 -0.1934 -0.4653 -0.5075
 9200SOL    HW139062   4.630   1.072  15.265 -1.8704 -1.2318  0.9018
 9200SOL    HW239063   4.635   0.985  15.149 -1.9368 -1.7227 -0.2192
 9201SOL     OW39064   1.727   4.516   4.835 -0.2647 -0.7230 -0.1981
 9201SOL    HW139065   1.770   4.590   4.791 -3.0076  0.4418 -0.9148
 9201SOL    HW239066   1.802   4.459   4.851 -1.0008 -1.0669  1.9695
 9202SOL     OW39067   0.976   4.568   2.780  0.1589  0.1264 -0.4834
 9202SOL    HW139068   0.911   4.601   2.842  0.2862  0.4821 -0.5365
 9202SOL    HW239069   1.010   4.482   2.805  1.8672  2.3417  4.7661
 9203SOL     OW39070   0.370   0.394   6.808 -0.4926 -0.0974 -0.1874
 9203SOL    HW139071   0.361   0.319   6.750  0.3452  0.0842 -0.5600
 9203SOL    HW239072   0.385   0.340   6.886 -1.1132  0.9641  0.6714
 9204SOL     OW39073   4.510   0.065   6.305 -0.0564  0.1419  0.1315
 9204SOL    HW139074   4.525   0.057   6.399 -1.3699 -0.0564  0.3237
 9204SOL    HW239075   4.417   0.041   6.306  0.2485 -1.2348 -5.0652
 9205SOL     OW39076   0.979   4.515   1.725  0.1624  0.2411  0.0857
 9205SOL    HW139077   0.952   4.451   1.660 -0.3418  1.7935 -1.2474
 9205SOL    HW239078   0.994   4.460   1.802 -2.3559 -1.7949 -0.8833
 9206SOL     OW39079   2.887   2.703   1.843  0.3118  0.3656 -0.3183
 9206SOL    HW139080   2.794   2.681   1.848  0.2306  0.5716 -0.9770
 9206SOL    HW239081   2.914   2.719   1.934  1.4064 -0.0567 -0.5751
 9207SOL     OW39082   3.057   2.617  12.398  0.2707 -0.0525 -0.2900
 9207SOL    HW139083   3.089   2.551  12.460  2.0602  0.7419 -0.3916
 9207SOL    HW239084   3.003   2.669  12.458  0.3856  0.1168 -0.3349
 9208SOL     OW39085   4.580   2.319   5.024 -0.1509  0.0342 -0.3989
 9208SOL    HW139086   4.591   2.304   4.930 -0.3814  0.2520 -0.4612
 9208SOL    HW239087   4.487   2.336   5.015  0.0594  2.0393  1.1331
 9209SOL     OW39088   0.448   4.269   7.395 -0.2934  0.0937 -0.4129
 9209SOL    HW139089   0.377   4.237   7.340  0.2872 -0.6360 -0.7389
 9209SOL    HW239090   0.416   4.359   7.406 -0.4289  0.3173 -2.6132
 9210SOL     OW39091   4.041   0.553   7.101  0.0438  0.4073 -0.2204
 9210SOL    HW139092   3.987   0.552   7.022  0.1873  1.3007 -0.3238
 9210SOL    HW239093   4.004   0.488   7.161 -0.0848  0.8704  0.2005
 9211SOL     OW39094   2.804   2.013  10.362  0.0519  0.0424 -0.0339
 9211SOL    HW139095   2.808   2.096  10.409 -1.2585 -0.2566  0.5995
 9211SOL    HW239096   2.857   2.035  10.285  1.1296 -0.8460  0.4561
 9212SOL     OW39097   3.112   4.690   8.093 -0.5801 -0.0013 -0.2613
 9212SOL    HW139098   3.202   4.703   8.065 -0.7094  1.0775 -0.2032
 9212SOL    HW239099   3.087   0.045   8.143 -0.1007  1.0029 -1.5867
 9213SOL     OW39100   2.953   0.889   9.736  0.0452  0.5202  0.3149
 9213SOL    HW139101   2.957   0.984   9.725  1.1014  0.2777 -1.3620
 9213SOL    HW239102   2.932   0.883   9.829  1.0816 -0.7949  0.4718
 9214SOL     OW39103   1.460   2.949   3.115  0.4695  0.1200  0.5096
 9214SOL    HW139104   1.532   3.011   3.102  0.0558  0.3400 -0.7249
 9214SOL    HW239105   1.397   2.983   3.051  1.5429 -0.0673 -0.6569
 9215SOL     OW39106   2.896   4.700   8.573  0.0568  0.2905 -0.3599
 9215SOL    HW139107   2.942   4.667   8.496  0.4475 -2.6934  1.1472
 9215SOL    HW239108   2.845   0.044   8.528 -0.0991 -0.7295 -1.7237
 9216SOL     OW39109   3.039   4.599   6.470  0.3402 -0.2191  0.2205
 9216SOL    HW139110   3.118   4.548   6.454 -0.1893 -0.9981  0.0883
 9216SOL    HW239111   2.976   4.534   6.503  0.5602 -0.5802 -0.0692
 9217SOL     OW39112   1.154   3.300   7.737 -0.3632 -0.6077  0.0452
 9217SOL    HW139113   1.127   3.293   7.828 -2.1558  2.0674 -0.2905
 9217SOL    HW239114   1.139   3.390   7.708  1.8149 -0.7947 -1.6924
 9218SOL     OW39115   0.341   2.331   3.711  0.4922 -0.0839 -0.0884
 9218SOL    HW139116   0.376   2.390   3.778  1.9983 -0.0780 -0.8965
 9218SOL    HW239117   0.421   2.328   3.658  2.7480 -0.5581  3.3333
 9219SOL     OW39118   4.107   2.587   3.364 -0.3321 -0.1802  0.3532
 9219SOL    HW139119   4.030   2.640   3.342 -1.5847 -2.0325  0.3003
 9219SOL    HW239120   4.094   2.574   3.458  0.2326  2.3137  0.7921
 9220SOL     OW39121   2.783   4.306   4.675  0.2600  0.4658 -0.2086
 9220SOL    HW139122   2.703   4.255   4.661  2.0563 -1.7916 -2.2506
 9220SOL    HW239123   2.735   4.379   4.714 -1.5565 -1.9197  1.9733
 9221SOL     OW39124   1.785   2.639   9.008 -0.1497 -0.4419 -0.2370
 9221SOL    HW139125   1.841   2.625   9.085 -1.1782  0.8386  0.7612
 9221SOL    HW239126   1.836   2.612   8.932  1.5290  0.7125  0.4604
 9222SOL     OW39127   4.164   2.774   6.392  0.5592 -0.4758 -0.3494
 9222SOL    HW139128   4.138   2.866   6.396  1.0388 -0.3794  0.7152
 9222SOL    HW239129   4.116   2.742   6.469  0.7488 -1.7885 -0.7849
 9223SOL     OW39130   2.120   1.502   7.169 -0.3075  0.1440  0.3348
 9223SOL    HW139131   2.059   1.430   7.162 -0.4918  0.2959  0.3918
 9223SOL    HW239132   2.055   1.568   7.145 -0.7282  0.1306  1.4224
 9224SOL     OW39133   2.197   2.871   6.673  0.3453 -0.6617  0.1686
 9224SOL    HW139134   2.281   2.880   6.628 -0.7530  1.8570 -1.3591
 9224SOL    HW239135   2.213   2.915   6.756 -3.7724 -0.1697  0.7367
 9225SOL     OW39136   4.223   2.138   1.917 -0.0447  0.1424  0.7719
 9225SOL    HW139137   4.281   2.097   1.982  1.2195  0.2918 -0.2597
 9225SOL    HW239138   4.273   2.214   1.886  0.9303 -1.8993 -2.6266
 9226SOL     OW39139   3.977   2.003   2.088 -0.3443  1.1302  0.4834
 9226SOL    HW139140   3.926   2.036   2.014  0.5900  1.6510  0.0719
 9226SOL    HW239141   4.033   1.934   2.052 -0.9038  0.1794  1.4211
 9227SOL     OW39142   0.847   2.889   4.456  0.5126 -0.1624 -0.2623
 9227SOL    HW139143   0.815   2.816   4.510  0.3452  0.3818  0.3733
 9227SOL    HW239144   0.940   2.874   4.440  0.4232 -1.0207  0.0160
 9228SOL     OW39145   3.628   4.398   2.375 -0.2291 -0.1563  0.2118
 9228SOL    HW139146   3.573   4.326   2.404  0.3201  0.1258  1.9808
 9228SOL    HW239147   3.661   4.371   2.290 -1.7783  0.7224 -0.6601
 9229SOL     OW39148   3.905   2.984  11.731  0.0313 -0.3058 -0.0882
 9229SOL    HW139149   3.885   2.894  11.705 -1.2865 -0.5267  1.6798
 9229SOL    HW239150   3.987   2.969  11.777 -0.3044 -3.5446 -0.5983
 9230SOL     OW39151   3.850   4.245  17.528 -0.6089 -0.1804  0.2804
 9230SOL    HW139152   3.763   4.211  17.550  0.1355 -2.4404 -0.2439
 9230SOL    HW239153   3.884   4.244  17.617  1.7470 -0.0898 -0.6279
 9231SOL     OW39154   3.553   1.319   5.522 -0.6761  0.6551  0.1860
 9231SOL    HW139155   3.564   1.230   5.491  0.0465  1.4683 -1.8792
 9231SOL    HW239156   3.642   1.341   5.550  0.0840 -0.8501 -1.0761
 9232SOL     OW39157   4.535   0.529   7.184 -0.0118  0.6817  0.2430
 9232SOL    HW139158   4.591   0.485   7.121 -2.4896 -1.1065 -0.7025
 9232SOL    HW239159   4.572   0.617   7.184  0.0749  0.6451  0.4734
 9233SOL     OW39160   2.412   2.587   5.273 -0.3697 -0.3087  0.6932
 9233SOL    HW139161   2.354   2.630   5.335 -0.7581  1.1072 -0.6393
 9233SOL    HW239162   2.418   2.661   5.211  0.9672 -0.3973  0.7225
 9234SOL     OW39163   0.688   4.223   5.055  0.1028 -0.3874  0.0587
 9234SOL    HW139164   0.754   4.154   5.047  0.3727 -0.0499 -0.5873
 9234SOL    HW239165   0.728   4.304   5.026 -1.0006 -0.2368 -1.0688
 9235SOL     OW39166   2.139   1.162   7.003 -0.2149 -0.5360  0.1139
 9235SOL    HW139167   2.084   1.222   7.053 -0.4846  0.4270 -1.3425
 9235SOL    HW239168   2.211   1.148   7.065  0.6613  0.2858 -0.7141
 9236SOL     OW39169   3.737   0.693  12.856 -0.1238 -0.2270  0.2414
 9236SOL    HW139170   3.757   0.782  12.826 -0.5898 -0.0824  0.3443
 9236SOL    HW239171   3.669   0.704  12.923 -1.6097 -0.4119 -1.2359
 9237SOL     OW39172   0.124   3.417   9.029 -0.1666  0.0403  0.3912
 9237SOL    HW139173   0.216   3.438   9.048  0.6331 -1.6448 -1.7289
 9237SOL    HW239174   0.107   3.477   8.957  2.3811  0.3292  0.0165
 9238SOL     OW39175   0.971   1.435   7.001 -0.8159  0.0820  0.0493
 9238SOL    HW139176   0.896   1.469   7.050 -0.5028 -1.8495  1.8755
 9238SOL    HW239177   1.022   1.509   6.967  1.2311 -1.5415 -0.4417
 9239SOL     OW39178   2.282   2.807  10.594  0.3243  0.2750  0.1465
 9239SOL    HW139179   2.227   2.771  10.524 -0.3667 -0.7136  1.2040
 9239SOL    HW239180   2.318   2.732  10.641 -1.6009 -2.1867 -2.3086
 9240SOL     OW39181   3.514   0.473   1.575 -0.1336 -0.0322  0.1562
 9240SOL    HW139182   3.427   0.472   1.614  0.5467 -2.5927  1.6092
 9240SOL    HW239183   3.501   0.412   1.501  1.7957 -1.7282  1.1991
 9241SOL     OW39184   2.443   2.289   4.157 -0.1445  0.0325  0.9375
 9241SOL    HW139185   2.483   2.210   4.193  1.0722  0.4015  0.3724
 9241SOL    HW239186   2.466   2.354   4.223 -0.2316  1.9315 -0.8892
 9242SOL     OW39187   2.216   1.891   3.624  0.4661 -0.0167  0.3718
 9242SOL    HW139188   2.215   1.851   3.537  2.1673 -1.5623  1.0804
 9242SOL    HW239189   2.270   1.970   3.627 -0.4796  0.7580 -2.7549
 9243SOL     OW39190   0.449   1.280   4.189 -0.0809  0.3642  0.3459
 9243SOL    HW139191   0.516   1.347   4.192  0.1513  0.0234  2.9633
 9243SOL    HW239192   0.385   1.318   4.129 -1.6964 -1.0522  1.1601
 9244SOL     OW39193   1.508   3.035  14.595 -0.1455  0.1882  0.1024
 9244SOL    HW139194   1.562   3.034  14.674  1.4450 -0.0780 -0.9874
 9244SOL    HW239195   1.515   2.946  14.562  0.5517  0.1725  0.3009
 9245SOL     OW39196   1.956   3.128   1.323 -0.0898 -0.2885  0.2177
 9245SOL    HW139197   1.997   3.133   1.236  2.1462 -1.1127  1.2320
 9245SOL    HW239198   2.018   3.067   1.362  2.3539  1.3450 -1.1631
 9246SOL     OW39199   3.445   2.608   5.246 -0.4885  0.3412 -0.2139
 9246SOL    HW139200   3.418   2.596   5.155  0.0962  1.9003 -0.5776
 9246SOL    HW239201   3.539   2.597   5.235 -0.6228 -0.5504 -0.4700
 9247SOL     OW39202   3.936   2.352   8.242 -0.2566 -0.5406 -0.0869
 9247SOL    HW139203   4.017   2.398   8.265 -0.2192  0.1020 -1.4921
 9247SOL    HW239204   3.944   2.270   8.290 -0.2925 -0.2104  0.4778
 9248SOL     OW39205   2.369   0.283  13.318 -0.1958  0.1927 -1.1099
 9248SOL    HW139206   2.305   0.244  13.258 -0.3938 -0.6880 -0.3214
 9248SOL    HW239207   2.454   0.262  13.279  0.8517  0.1685  1.1690
 9249SOL     OW39208   4.256   2.951   5.652  0.6190 -0.7632 -0.3195
 9249SOL    HW139209   4.290   2.887   5.715 -1.7016 -0.2822  1.4507
 9249SOL    HW239210   4.207   3.011   5.709  1.4111 -2.2168  1.9061
 9250SOL     OW39211   3.667   1.499  15.029  0.0383  0.6611 -0.4857
 9250SOL    HW139212   3.625   1.515  15.114  1.2580  2.4231 -0.2075
 9250SOL    HW239213   3.604   1.439  14.990  1.2606  0.5003 -2.1931
 9251SOL     OW39214   2.020   4.258   4.355 -0.1837 -0.0808  0.0913
 9251SOL    HW139215   1.940   4.296   4.320 -1.3430 -2.0779  0.5697
 9251SOL    HW239216   2.045   4.333   4.410  0.3822 -0.0454 -0.2105
 9252SOL     OW39217   1.566   2.335  16.511 -0.0119  0.5120  0.4590
 9252SOL    HW139218   1.594   2.264  16.568 -1.3618  0.5511  1.1497
 9252SOL    HW239219   1.554   2.286  16.430 -3.1397 -1.5358  2.1714
 9253SOL     OW39220   3.227   4.567   1.075 -0.6133 -0.5740  0.3990
 9253SOL    HW139221   3.165   4.579   1.003  1.7181 -0.1051 -1.5330
 9253SOL    HW239222   3.303   4.565   1.017 -0.2727  0.0057  0.8307
 9254SOL     OW39223   2.303   1.911   9.576  0.3769 -0.1836 -0.1860
 9254SOL    HW139224   2.228   1.969   9.561 -0.0039 -1.3865 -2.8430
 9254SOL    HW239225   2.290   1.875   9.664 -2.8097 -0.0627 -0.5886
 9255SOL     OW39226   1.768   4.055   1.657  0.2707  0.3423 -0.3820
 9255SOL    HW139227   1.749   3.972   1.614  2.1907 -0.7938  0.9488
 9255SOL    HW239228   1.861   4.046   1.680 -0.0535 -1.8557  0.0266
 9256SOL     OW39229   2.550   0.161   7.687  0.7006  0.0054  0.2919
 9256SOL    HW139230   2.521   0.239   7.734  2.0921 -0.1208  1.3757
 9256SOL    HW239231   2.605   0.192   7.614  1.3796 -2.4999 -0.2558
 9257SOL     OW39232   4.455   2.381  17.095 -0.3339 -0.6610 -0.3204
 9257SOL    HW139233   4.435   2.396  17.187 -1.1123  0.6734 -0.7091
 9257SOL    HW239234   4.551   2.380  17.093 -0.3701  0.3705 -2.5982
 9258SOL     OW39235   4.241   0.486  10.803 -0.0201 -0.2070  0.3375
 9258SOL    HW139236   4.295   0.455  10.876  0.2723  0.0432  0.2279
 9258SOL    HW239237   4.226   0.577  10.829  1.0743 -0.0494  0.4036
 9259SOL     OW39238   2.813   1.478   2.297 -0.2699  0.1283  0.1470
 9259SOL    HW139239   2.765   1.489   2.215  0.8004  0.0349 -0.4895
 9259SOL    HW239240   2.844   1.387   2.301 -0.0965  0.0893 -2.1005
 9260SOL     OW39241   2.107   4.198  14.345 -0.0119  0.2381  0.1065
 9260SOL    HW139242   2.047   4.204  14.271 -1.7082 -1.7184  1.2896
 9260SOL    HW239243   2.057   4.138  14.402 -3.0061  2.2275 -0.4268
 9261SOL     OW39244   2.894   4.021   3.325  0.2201  0.7039  0.1373
 9261SOL    HW139245   2.839   4.005   3.248 -0.3872  3.5542 -0.0176
 9261SOL    HW239246   2.907   3.932   3.357 -0.9849  0.2078 -0.7500
 9262SOL     OW39247   3.864   3.096   5.751 -0.0940 -0.4168 -0.2555
 9262SOL    HW139248   3.786   3.087   5.805  0.8236  0.4898  1.1938
 9262SOL    HW239249   3.828   3.147   5.679 -0.1730  1.0977  0.8734
 9263SOL     OW39250   3.144   1.206   8.857 -0.4972  0.2551  0.0880
 9263SOL    HW139251   3.083   1.271   8.891 -0.9437  1.5412 -3.1309
 9263SOL    HW239252   3.191   1.266   8.799  0.5572  0.5309  1.2337
 9264SOL     OW39253   1.444   2.234   7.795  0.2669  0.0103 -0.3277
 9264SOL    HW139254   1.360   2.229   7.749  0.9807 -4.1821 -1.1334
 9264SOL    HW239255   1.514   2.236   7.730 -0.0796 -0.4875 -0.7231
 9265SOL     OW39256   1.699   2.087  12.414 -0.4554 -0.6266 -0.1339
 9265SOL    HW139257   1.721   2.180  12.414 -0.9209 -0.5366 -2.1144
 9265SOL    HW239258   1.728   2.061  12.502 -1.1242  0.5226  0.4214
 9266SOL     OW39259   4.266   2.372   7.368  0.3326  0.1927 -0.0357
 9266SOL    HW139260   4.344   2.390   7.315  0.0594  2.1735  0.2637
 9266SOL    HW239261   4.308   2.361   7.453 -0.7957  2.1626  0.7692
 9267SOL     OW39262   3.253   1.755   9.962 -0.4168 -0.4926  0.5752
 9267SOL    HW139263   3.259   1.660   9.955  1.3919 -0.2565 -1.0881
 9267SOL    HW239264   3.312   1.756  10.037  0.8021  0.1305 -0.3822
 9268SOL     OW39265   2.763   0.817  14.308  0.1404  0.3220 -0.1021
 9268SOL    HW139266   2.740   0.753  14.241  0.0557  1.2853 -0.9887
 9268SOL    HW239267   2.773   0.768  14.390  0.1370  1.1387  0.3847
 9269SOL     OW39268   4.498   3.499   1.971 -0.4922  0.4826 -0.6715
 9269SOL    HW139269   4.414   3.500   2.018 -0.3406 -2.9117 -0.3112
 9269SOL    HW239270   4.467   3.463   1.888  1.9818 -2.7145 -0.1922
 9270SOL     OW39271   1.234   3.680   8.933  0.3292 -0.5919 -0.1985
 9270SOL    HW139272   1.155   3.716   8.892  0.1840 -0.1206  0.4925
 9270SOL    HW239273   1.273   3.644   8.854  1.9850  2.0030 -0.5644
 9271SOL     OW39274   0.516   1.650   3.139  0.3785 -0.0457  0.0645
 9271SOL    HW139275   0.425   1.657   3.168  0.3831 -2.1519  0.5870
 9271SOL    HW239276   0.503   1.619   3.050 -0.9899  0.0963  0.2075
 9272SOL     OW39277   3.726   0.815   8.933  0.3395 -0.3510 -0.0582
 9272SOL    HW139278   3.676   0.734   8.921  1.2445 -0.5374 -2.4340
 9272SOL    HW239279   3.680   0.868   8.868  1.6907  0.1262 -0.6166
 9273SOL     OW39280   1.222   3.256  15.773  0.1831 -0.0149  0.2068
 9273SOL    HW139281   1.262   3.300  15.849  2.4157 -0.4860 -0.6879
 9273SOL    HW239282   1.282   3.280  15.702  0.4837 -0.9056  0.1602
 9274SOL     OW39283   4.377   1.517   8.575  0.0790  1.0878  0.4481
 9274SOL    HW139284   4.400   1.458   8.504  1.4231  1.3140  0.7038
 9274SOL    HW239285   4.285   1.540   8.559 -0.0270 -1.6383 -2.7256
 9275SOL     OW39286   2.520   1.340   1.075  0.1116 -0.2518  0.1994
 9275SOL    HW139287   2.585   1.403   1.041 -0.6067  0.1067 -0.5198
 9275SOL    HW239288   2.514   1.275   1.005  0.1902  0.1805 -0.2158
 9276SOL     OW39289   0.063   0.734   9.908  0.0555  0.2254 -0.5135
 9276SOL    HW139290   0.069   0.688   9.992 -1.1849  2.4151  0.7591
 9276SOL    HW239291   0.008   0.669   9.863  0.7478  0.5298 -1.7799
 9277SOL     OW39292   2.595   1.945   8.749  0.2117  0.4253 -0.3414
 9277SOL    HW139293   2.503   1.966   8.763  0.0413  1.7859 -3.5187
 9277SOL    HW239294   2.594   1.949   8.653  2.1953  1.1854 -0.3282
 9278SOL     OW39295   2.306   2.188   4.555  0.3715 -0.3139  0.2043
 9278SOL    HW139296   2.279   2.275   4.586 -1.3155 -1.4403  1.9158
 9278SOL    HW239297   2.291   2.186   4.461 -2.1790  1.6907  0.5675
 9279SOL     OW39298   1.060   3.304  13.968  0.0710  0.1893  0.1786
 9279SOL    HW139299   0.966   3.315  13.952  0.8449  2.6571 -2.8970
 9279SOL    HW239300   1.063   3.208  13.964  1.1889  0.2919 -1.4804
 9280SOL     OW39301   1.534   1.070   8.639 -0.1877  0.1649 -0.0478
 9280SOL    HW139302   1.506   1.059   8.730 -1.2987  2.5817 -0.0934
 9280SOL    HW239303   1.578   1.155   8.635 -1.0932  0.6356  0.1345
 9281SOL     OW39304   1.075   3.393   8.902 -0.3088 -0.3538 -0.4802
 9281SOL    HW139305   1.017   3.326   8.865  0.3793 -0.6915 -0.9562
 9281SOL    HW239306   1.130   3.408   8.825  3.0843  0.7261  2.1460
 9282SOL     OW39307   0.022   4.413   3.929 -0.0466 -0.3491 -0.1111
 9282SOL    HW139308   4.660   4.372   3.920  0.0608 -0.5446 -0.2390
 9282SOL    HW239309   0.025   4.431   4.023 -0.9505  1.3124 -0.4105
 9283SOL     OW39310   1.198   1.294   1.902  0.5042 -0.5675 -0.0809
 9283SOL    HW139311   1.279   1.315   1.855 -0.4103  3.6064  0.2311
 9283SOL    HW239312   1.157   1.214   1.868  0.1593 -0.6390  0.4902
 9284SOL     OW39313   1.485   2.352   0.456  0.2242  0.6352  0.2357
 9284SOL    HW139314   1.470   2.337   0.549 -0.2056  0.2758  0.1081
 9284SOL    HW239315   1.396   2.374   0.430  0.4101  1.8769  0.6276
 9285SOL     OW39316   3.233   4.497   5.193  0.5444 -0.2186  0.3549
 9285SOL    HW139317   3.296   4.425   5.204  2.7259  1.7394  0.5020
 9285SOL    HW239318   3.153   4.444   5.189  0.4894 -0.0743 -0.4798
 9286SOL     OW39319   0.198   0.610   1.386 -0.1042 -0.1390  0.0561
 9286SOL    HW139320   0.120   0.617   1.442  1.8300  1.8185  2.4945
 9286SOL    HW239321   0.259   0.665   1.435  0.1708 -0.1596 -0.2686
 9287SOL     OW39322   0.677   1.179   7.449 -0.5796 -0.1927  0.2014
 9287SOL    HW139323   0.719   1.234   7.383  3.4630 -1.6610  1.5568
 9287SOL    HW239324   0.724   1.208   7.527  1.4458 -0.7543 -0.8134
 9288SOL     OW39325   2.234   3.363  14.716  0.4626 -0.2168 -0.2524
 9288SOL    HW139326   2.156   3.415  14.733  0.6538 -0.0038 -0.0119
 9288SOL    HW239327   2.198   3.275  14.725 -4.2520  1.8769  0.8700
 9289SOL     OW39328   2.192   2.254   0.421  0.2385 -0.2766  0.3630
 9289SOL    HW139329   2.164   2.210   0.502 -1.0451 -1.3245 -0.6522
 9289SOL    HW239330   2.278   2.214   0.403  0.7400  0.9984 -0.0951
 9290SOL     OW39331   0.913   0.588   4.433  0.2669  0.7247 -0.1430
 9290SOL    HW139332   1.000   0.585   4.474  0.4481  1.7895 -0.4473
 9290SOL    HW239333   0.899   0.680   4.412  1.0472  0.7973 -0.3432
 9291SOL     OW39334   2.936   0.117  13.423  0.0342  0.3713 -0.4425
 9291SOL    HW139335   2.923   0.104  13.517 -1.2662 -0.7137 -0.7763
 9291SOL    HW239336   3.018   0.067  13.421  0.4834  1.0359  2.0320
 9292SOL     OW39337   1.238   2.096  16.615 -0.4823 -0.0989 -0.1054
 9292SOL    HW139338   1.222   2.025  16.677 -1.0181  1.5500  1.6663
 9292SOL    HW239339   1.161   2.086  16.559 -0.0990 -2.2113 -0.2331
 9293SOL     OW39340   3.912   3.180  15.096  0.1717  0.0243  0.4503
 9293SOL    HW139341   3.958   3.205  15.015  1.0103  0.6535  1.1289
 9293SOL    HW239342   3.822   3.176  15.061  0.5673 -0.5880 -0.5050
 9294SOL     OW39343   3.296   3.997  11.042  0.4825 -0.0709 -0.1068
 9294SOL    HW139344   3.263   4.061  10.980  0.3838  0.1325  0.1563
 9294SOL    HW239345   3.391   3.999  11.030  0.5275 -1.5135  0.0352
 9295SOL     OW39346   3.364   2.681   4.254 -0.3612 -0.4315 -0.2595
 9295SOL    HW139347   3.459   2.695   4.259 -0.3261  0.0847 -2.2860
 9295SOL    HW239348   3.350   2.588   4.235  0.8465 -0.9273  1.3359
 9296SOL     OW39349   1.363   3.091  16.790  0.3032  0.1068 -0.3283
 9296SOL    HW139350   1.298   3.158  16.768  0.3897  0.1855 -0.3390
 9296SOL    HW239351   1.405   3.128  16.867  0.3531 -0.3336 -0.1431
 9297SOL     OW39352   1.391   2.015   1.310  0.0992  1.1145 -0.1648
 9297SOL    HW139353   1.412   2.049   1.397 -2.0976  1.7043  0.1439
 9297SOL    HW239354   1.477   2.005   1.270 -0.0542 -2.2692  0.4039
 9298SOL     OW39355   2.686   2.394   1.753  0.0359 -0.1293 -0.0583
 9298SOL    HW139356   2.682   2.423   1.845 -1.6620 -0.6609  0.0431
 9298SOL    HW239357   2.780   2.375   1.756  0.1614  0.5949  0.7299
 9299SOL     OW39358   4.336   1.834  13.428 -0.3623  0.0361 -0.2415
 9299SOL    HW139359   4.261   1.878  13.468 -0.5160  0.7443 -1.3204
 9299SOL    HW239360   4.370   1.786  13.504 -1.9779 -1.6334 -0.5977
 9300SOL     OW39361   1.595   3.304  15.963  0.3276 -0.0675 -0.2090
 9300SOL    HW139362   1.509   3.344  15.976 -0.3841 -1.3966 -0.7090
 9300SOL    HW239363   1.621   3.300  16.055 -0.1084  1.1827 -0.0352
 9301SOL     OW39364   0.849   4.261   8.674 -0.2082  0.2523  0.1603
 9301SOL    HW139365   0.803   4.299   8.599 -0.1446 -2.6905 -1.3765
 9301SOL    HW239366   0.823   4.310   8.752  2.6008 -0.5652  1.6066
 9302SOL     OW39367   1.277   0.418  13.246 -0.3911  0.1498 -0.0249
 9302SOL    HW139368   1.321   0.431  13.330  0.1034  2.5921 -0.6811
 9302SOL    HW239369   1.183   0.424  13.263 -0.1620 -2.6223  2.3467
 9303SOL     OW39370   3.234   0.216   8.308 -0.1074  0.5404 -0.2063
 9303SOL    HW139371   3.147   0.217   8.269 -0.6947 -1.1514  1.0418
 9303SOL    HW239372   3.224   0.301   8.349 -1.9248 -0.2490  0.9986
 9304SOL     OW39373   2.515   4.450   9.527  0.0894 -0.0249 -0.0911
 9304SOL    HW139374   2.586   4.444   9.464  0.9156  0.0375  0.8458
 9304SOL    HW239375   2.443   4.451   9.463 -0.8858  0.4444  1.0008
 9305SOL     OW39376   0.057   1.676  17.661 -0.6065  0.3799  0.6538
 9305SOL    HW139377   0.101   1.746   0.014  1.7440  0.7848 -1.9903
 9305SOL    HW239378   0.105   1.598  17.688 -1.2972  0.1548  1.2137
 9306SOL     OW39379   1.791   3.630   6.263  0.3253  0.5031 -0.7479
 9306SOL    HW139380   1.820   3.610   6.173  1.6549 -0.0328 -0.2117
 9306SOL    HW239381   1.783   3.540   6.293  1.9288  0.6163  0.0356
 9307SOL     OW39382   0.152   4.034  17.539  0.2327 -0.2207 -0.4463
 9307SOL    HW139383   0.126   3.960  17.594 -0.8718  0.9778  0.6277
 9307SOL    HW239384   0.068   4.078  17.527 -0.3325 -1.3755 -0.8084
 9308SOL     OW39385   2.281   0.000   9.764 -0.3500  0.2932 -0.0466
 9308SOL    HW139386   2.213   4.692   9.823  1.0152 -2.1504  0.1942
 9308SOL    HW239387   2.236   0.056   9.700  0.1170 -2.0899 -2.4288
 9309SOL     OW39388   3.220   1.461   2.501 -0.4459  0.2900 -0.5379
 9309SOL    HW139389   3.316   1.453   2.504 -0.3450  1.4726 -0.6260
 9309SOL    HW239390   3.205   1.555   2.512 -0.5980  0.1598  0.3048
 9310SOL     OW39391   1.029   2.483  12.172  0.1323 -0.0589  0.5286
 9310SOL    HW139392   1.052   2.465  12.081 -1.2046  0.1090  0.1492
 9310SOL    HW239393   1.117   2.513  12.195 -0.1379 -1.3040  3.1503
 9311SOL     OW39394   3.532   4.636   3.632  0.3057 -0.8097 -0.6696
 9311SOL    HW139395   3.534   4.607   3.723 -1.4810 -1.3137 -0.8034
 9311SOL    HW239396   3.438   4.640   3.618  0.4901  3.0263 -0.9242
 9312SOL     OW39397   3.493   1.947   1.362 -0.2115  0.0063  0.7720
 9312SOL    HW139398   3.427   2.014   1.345  0.9945  0.5551 -1.7475
 9312SOL    HW239399   3.498   1.969   1.455  0.2096  0.1380  0.7206
 9313SOL     OW39400   3.169   0.097   2.180  0.0082 -0.4723 -0.3324
 9313SOL    HW139401   3.159   0.065   2.269  0.6613  1.3767  0.4141
 9313SOL    HW239402   3.264   0.107   2.175  0.0220 -0.6480 -0.4083
 9314SOL     OW39403   1.930   1.669   3.865 -0.0536 -0.0170 -0.0858
 9314SOL    HW139404   1.897   1.707   3.784 -1.8114  0.5814  0.9066
 9314SOL    HW239405   1.964   1.753   3.897  0.1991 -0.1142 -0.0995
 9315SOL     OW39406   3.839   2.429  11.066  0.3932  0.0653  1.0287
 9315SOL    HW139407   3.866   2.517  11.041  2.7789 -0.5254  1.5242
 9315SOL    HW239408   3.877   2.422  11.154 -0.0253 -1.5799  1.0802
 9316SOL     OW39409   2.330   3.230   8.746  0.2154  0.0356  0.2421
 9316SOL    HW139410   2.285   3.313   8.735  0.2945  0.2757  1.6669
 9316SOL    HW239411   2.423   3.253   8.748  0.0299  0.8656 -0.7617
 9317SOL     OW39412   3.260   1.472  14.871 -0.4321  0.0854 -0.3505
 9317SOL    HW139413   3.331   1.422  14.830  1.1411  0.5843  1.7454
 9317SOL    HW239414   3.191   1.416  14.836 -0.6372 -0.0125  0.2155
 9318SOL     OW39415   1.069   0.505   3.976  0.3532  0.2389 -0.2021
 9318SOL    HW139416   0.976   0.521   3.958  0.5490  3.3448  1.4355
 9318SOL    HW239417   1.097   0.424   3.933  3.6019  0.6038  1.2328
 9319SOL     OW39418   0.665   3.579   1.315 -0.0533  0.2989 -0.0695
 9319SOL    HW139419   0.707   3.493   1.309  1.2515  0.9554 -0.2339
 9319SOL    HW239420   0.739   3.623   1.274  0.1139  0.0214 -0.0685
 9320SOL     OW39421   1.680   1.254  11.727  0.0743 -0.0991  0.2684
 9320SOL    HW139422   1.586   1.242  11.717  0.0489  0.2200  0.1311
 9320SOL    HW239423   1.707   1.313  11.657  0.6147 -1.4646 -0.6861
 9321SOL     OW39424   0.198   0.418  13.292  0.1233 -0.5402  0.3176
 9321SOL    HW139425   0.250   0.481  13.243  2.0368 -3.1443 -1.0069
 9321SOL    HW239426   0.238   0.341  13.252 -0.9079  0.3823 -2.4653
 9322SOL     OW39427   1.096   2.466   8.360 -0.5086 -0.2537  0.1508
 9322SOL    HW139428   1.013   2.419   8.354  0.2433 -1.4542 -0.5345
 9322SOL    HW239429   1.087   2.529   8.288  0.7804  0.9047  0.9940
 9323SOL     OW39430   3.687   0.526   7.242  0.2746 -0.1569 -0.6080
 9323SOL    HW139431   3.662   0.618   7.234  2.3563  0.5536  1.0197
 9323SOL    HW239432   3.599   0.490   7.247  0.5388 -0.3668  2.5688
 9324SOL     OW39433   1.540   3.150   3.541 -0.0707  0.0867 -0.6137
 9324SOL    HW139434   1.576   3.209   3.475  0.8883 -1.3042 -1.3416
 9324SOL    HW239435   1.446   3.166   3.529  0.0849  0.9157 -0.7307
 9325SOL     OW39436   4.012   4.374  14.181  0.5674  0.6731  0.3788
 9325SOL    HW139437   3.981   4.426  14.255  0.4233  1.2538 -0.0861
 9325SOL    HW239438   3.958   4.296  14.170 -0.0917  1.1217  0.4022
 9326SOL     OW39439   3.421   2.020  16.561  0.3833 -0.0310  0.1587
 9326SOL    HW139440   3.383   2.108  16.556 -2.4468 -1.3488 -1.5135
 9326SOL    HW239441   3.341   1.969  16.550  0.6666 -0.9274  2.2546
 9327SOL     OW39442   1.691   0.527   6.085  0.0081 -0.3983 -0.5347
 9327SOL    HW139443   1.730   0.608   6.117 -2.1477  0.8679 -1.0688
 9327SOL    HW239444   1.732   0.458   6.136  1.5620  0.4212 -0.6994
 9328SOL     OW39445   2.599   3.828   7.021 -0.4703 -0.2090  0.9424
 9328SOL    HW139446   2.615   3.759   6.956 -0.0088 -0.7991  1.6743
 9328SOL    HW239447   2.504   3.835   7.021 -0.4135  0.5368  0.4776
 9329SOL     OW39448   1.424   2.715   7.949  0.0325 -0.2989 -1.0193
 9329SOL    HW139449   1.458   2.628   7.928  1.7952  0.0726  0.2411
 9329SOL    HW239450   1.498   2.756   7.995  1.3745  0.9686 -4.2969
 9330SOL     OW39451   3.715   1.834   1.867 -0.0192 -0.3432  0.0575
 9330SOL    HW139452   3.704   1.839   1.961  1.2246  1.6578  0.1010
 9330SOL    HW239453   3.806   1.815   1.844 -0.3699 -3.0641  0.9210
 9331SOL     OW39454   0.857   0.877   6.646 -0.5310  0.5317 -0.6150
 9331SOL    HW139455   0.817   0.815   6.707  0.6356  0.2051 -0.1885
 9331SOL    HW239456   0.800   0.850   6.573 -0.7515  1.3260 -0.7361
 9332SOL     OW39457   2.785   0.484   6.349  0.2503  0.0058  0.0840
 9332SOL    HW139458   2.739   0.565   6.328 -1.4248 -1.2552 -1.1474
 9332SOL    HW239459   2.876   0.510   6.335  0.0638  1.0991  0.8965
 9333SOL     OW39460   1.971   0.488   4.236 -0.2560  0.2825  0.1134
 9333SOL    HW139461   2.034   0.554   4.265  0.9702 -0.7906 -0.0678
 9333SOL    HW239462   1.896   0.542   4.212  0.2576 -0.2446 -2.6485
 9334SOL     OW39463   1.481   1.520   3.197  0.3545 -0.0675  0.8530
 9334SOL    HW139464   1.391   1.496   3.175 -0.0905 -0.5455  3.2203
 9334SOL    HW239465   1.530   1.462   3.139 -1.1682 -2.1811  1.6791
 9335SOL     OW39466   0.617   1.939   8.697 -0.3755  0.1192 -0.1821
 9335SOL    HW139467   0.600   2.009   8.634 -1.9875  1.5567  1.8923
 9335SOL    HW239468   0.598   1.986   8.778  0.6301 -0.7807  0.5690
 9336SOL     OW39469   1.546   2.243  16.270 -0.3046 -0.4266 -0.2139
 9336SOL    HW139470   1.511   2.251  16.182 -1.6724 -1.6003  0.2299
 9336SOL    HW239471   1.516   2.153  16.278 -2.6831  0.3881  0.0115
 9337SOL     OW39472   4.563   3.993   4.939  0.1178  0.3561  0.6540
 9337SOL    HW139473   4.528   3.989   4.849  1.8792  2.4268 -0.1305
 9337SOL    HW239474   4.533   4.080   4.966  1.1384  0.6259  0.9130
 9338SOL     OW39475   2.481   0.581   8.032 -0.0498 -0.0184 -0.1708
 9338SOL    HW139476   2.551   0.605   8.093 -1.3098 -0.6606  1.5172
 9338SOL    HW239477   2.467   0.486   8.038  0.9083 -0.1529 -0.0282
 9339SOL     OW39478   4.560   1.548   3.395  0.3360  0.3277  0.6198
 9339SOL    HW139479   4.523   1.623   3.349 -0.3493 -1.4931 -1.7770
 9339SOL    HW239480   4.616   1.515   3.325 -0.3220 -0.3678  0.4214
 9340SOL     OW39481   1.825   1.675  12.552  0.4597  0.0102 -0.4427
 9340SOL    HW139482   1.872   1.715  12.478  1.6514  0.6949  0.6752
 9340SOL    HW239483   1.881   1.598  12.552 -1.6736 -1.5321  1.0561
 9341SOL     OW39484   1.443   4.234   2.790  0.7147 -0.7002  0.2609
 9341SOL    HW139485   1.456   4.220   2.696  1.5009  0.9785  0.1166
 9341SOL    HW239486   1.527   4.271   2.817  1.3162 -0.9965 -1.1928
 9342SOL     OW39487   3.619   4.085   4.369  0.0866 -0.7844  0.0797
 9342SOL    HW139488   3.603   4.043   4.285  1.1192  0.1833 -0.6055
 9342SOL    HW239489   3.613   4.007   4.424  1.6418 -0.2882  0.9488
 9343SOL     OW39490   4.723   0.373   8.522 -0.1585 -0.1080  0.1046
 9343SOL    HW139491   4.695   0.284   8.503 -1.8624  0.2829  0.7295
 9343SOL    HW239492   0.012   0.413   8.436  1.7401 -1.3050 -0.1499
 9344SOL     OW39493   2.998   2.142   4.881 -0.4598  0.9719 -0.4311
 9344SOL    HW139494   2.952   2.221   4.853 -0.2718  1.0141 -0.6213
 9344SOL    HW239495   3.028   2.171   4.967 -2.4212 -0.7860  0.8692
 9345SOL     OW39496   2.641   1.558   0.883 -0.5749 -0.3468  0.3772
 9345SOL    HW139497   2.577   1.554   0.812 -2.5128  1.5804  2.0131
 9345SOL    HW239498   2.584   1.605   0.943 -0.2808 -2.1983  2.1035
 9346SOL     OW39499   1.225   4.628  11.564 -0.0583  0.0313  0.0476
 9346SOL    HW139500   1.251   4.537  11.575 -0.9435 -0.1306  0.8291
 9346SOL    HW239501   1.178   4.649  11.645  1.7468 -0.9473  1.3404
 9347SOL     OW39502   1.149   1.557   3.957  0.1847 -0.5178 -0.3284
 9347SOL    HW139503   1.142   1.535   3.864 -0.4323  0.4832 -0.5204
 9347SOL    HW239504   1.198   1.490   4.005 -1.2054  0.1436  2.0230
 9348SOL     OW39505   2.942   4.715   7.877  0.4955  0.9303  0.0525
 9348SOL    HW139506   2.992   4.709   7.959  1.2514  0.1978 -0.4657
 9348SOL    HW239507   2.959   0.081   7.848  0.9363  1.3931  1.7196
 9349SOL     OW39508   2.050   0.004  15.435 -0.1416 -0.1832 -0.6858
 9349SOL    HW139509   1.972   4.674  15.449  1.3904 -2.0511  0.5908
 9349SOL    HW239510   2.072   0.028  15.525 -1.6249  0.6329 -0.5525
 9350SOL     OW39511   0.187   3.177   4.870  0.2118  0.4073 -0.0036
 9350SOL    HW139512   0.210   3.132   4.951  0.1960 -3.0892 -1.9506
 9350SOL    HW239513   0.129   3.247   4.902  1.7064  0.8765  1.6459
 9351SOL     OW39514   3.102   2.114  13.429 -0.0352 -0.2085  0.0331
 9351SOL    HW139515   3.111   2.041  13.489  0.5101 -0.6494 -0.5801
 9351SOL    HW239516   3.017   2.091  13.391 -0.1899  0.6159 -0.1389
 9352SOL     OW39517   3.182   1.855   6.265 -0.0028 -0.1437 -0.5690
 9352SOL    HW139518   3.186   1.885   6.174  0.4172  1.4987 -0.0048
 9352SOL    HW239519   3.124   1.922   6.300  0.2026 -0.3022  0.0745
 9353SOL     OW39520   2.204   3.092   3.975 -0.2968  0.2961 -0.3140
 9353SOL    HW139521   2.273   3.145   4.014 -0.2859 -0.1861  0.3350
 9353SOL    HW239522   2.133   3.091   4.040 -1.5367 -2.6516 -1.6945
 9354SOL     OW39523   0.161   2.764   1.954  0.0433  0.6363  0.0700
 9354SOL    HW139524   0.183   2.834   1.892  4.1847  1.2665  2.2675
 9354SOL    HW239525   0.244   2.753   1.999  0.2382 -0.8525 -0.6595
 9355SOL     OW39526   4.211   3.233   1.769 -0.0652  0.3280  0.0847
 9355SOL    HW139527   4.295   3.277   1.756 -0.4410  1.5284  1.6800
 9355SOL    HW239528   4.171   3.262   1.687  1.5394  0.7516 -0.5398
 9356SOL     OW39529   3.078   1.135   2.899 -0.3473  0.0614  0.1004
 9356SOL    HW139530   3.099   1.121   2.807 -0.3023 -0.0973  0.1345
 9356SOL    HW239531   3.005   1.197   2.907 -0.2031  0.2393  0.0275
 9357SOL     OW39532   2.251   1.870   6.099 -0.4199  0.1411  0.3645
 9357SOL    HW139533   2.258   1.824   6.183  0.3417  1.0314  0.7933
 9357SOL    HW239534   2.312   1.817   6.048 -0.0022  2.3586 -1.4294
 9358SOL     OW39535   2.097   4.700   4.947 -0.2897  0.5332  0.2398
 9358SOL    HW139536   2.107   0.069   4.970  4.7811 -0.4040  1.8656
 9358SOL    HW239537   2.179   4.682   4.900 -1.4812  1.2719 -2.1473
 9359SOL     OW39538   1.538   3.730   1.721 -0.0880  0.1089  0.0139
 9359SOL    HW139539   1.511   3.639   1.728  1.9073 -0.4046  0.9639
 9359SOL    HW239540   1.620   3.722   1.673 -0.8745  0.3982 -1.3566
 9360SOL     OW39541   3.351   3.332   4.367 -0.0829 -0.6687  0.1900
 9360SOL    HW139542   3.310   3.316   4.452  2.0177  2.9798  1.8455
 9360SOL    HW239543   3.380   3.422   4.380 -1.6963 -0.2344  0.8783
 9361SOL     OW39544   4.118   0.827  14.664 -0.1521  0.2439 -0.5346
 9361SOL    HW139545   4.083   0.771  14.595  1.1104 -2.2439  0.8781
 9361SOL    HW239546   4.059   0.804  14.736 -0.6178  1.3090 -0.5697
 9362SOL     OW39547   3.542   2.379  10.258  0.6585  0.5712  0.0547
 9362SOL    HW139548   3.474   2.431  10.216  1.2346  0.7784 -0.6228
 9362SOL    HW239549   3.610   2.395  10.192  0.2162  1.5926 -0.1536
 9363SOL     OW39550   1.561   2.069   0.676 -0.7341 -0.8006  0.4781
 9363SOL    HW139551   1.478   2.106   0.708  0.7619  0.6439  2.6695
 9363SOL    HW239552   1.603   2.045   0.758 -0.9681 -2.0776  0.2328
 9364SOL     OW39553   1.697   3.571   4.038 -0.0120  0.1654 -0.1751
 9364SOL    HW139554   1.786   3.551   4.068 -0.8431 -0.3136  2.0107
 9364SOL    HW239555   1.694   3.512   3.962 -0.0470  0.4377 -0.3833
 9365SOL     OW39556   3.291   0.414   6.981  0.8159 -0.5364  0.2418
 9365SOL    HW139557   3.260   0.383   6.896  1.4566  0.9444 -0.5319
 9365SOL    HW239558   3.351   0.486   6.960  1.4818 -2.0117 -2.8207
 9366SOL     OW39559   4.386   1.214  17.012  0.5124 -0.2811 -0.3622
 9366SOL    HW139560   4.394   1.277  17.083 -0.9114 -0.4946 -0.0063
 9366SOL    HW239561   4.334   1.145  17.054 -0.5842 -0.0145 -1.2756
 9367SOL     OW39562   0.721   0.716   6.806  0.1149  0.4016  0.5213
 9367SOL    HW139563   0.651   0.674   6.755  2.6839  0.0884 -2.7501
 9367SOL    HW239564   0.763   0.634   6.832 -0.5182 -0.5036 -1.2561
 9368SOL     OW39565   0.878   2.963   6.586 -0.2782  0.2567 -0.4307
 9368SOL    HW139566   0.958   2.982   6.538 -0.7568  1.9365 -0.5897
 9368SOL    HW239567   0.871   3.019   6.664  1.5300  0.9900 -0.8013
 9369SOL     OW39568   2.361   0.267   0.782 -0.4221  0.4732  0.3904
 9369SOL    HW139569   2.319   0.210   0.717 -0.3766 -1.1906  1.8299
 9369SOL    HW239570   2.404   0.207   0.843 -4.0444 -1.4702  1.0908
 9370SOL     OW39571   4.435   1.651   0.311 -0.3878 -0.0099  0.0980
 9370SOL    HW139572   4.481   1.574   0.279 -1.1654 -0.8183  0.9550
 9370SOL    HW239573   4.506   1.711   0.289 -1.9282  1.8187  0.0873
 9371SOL     OW39574   0.667   3.482  15.114 -0.2447  0.3828  0.0411
 9371SOL    HW139575   0.756   3.453  15.136 -0.2328  0.1420 -0.3191
 9371SOL    HW239576   0.640   3.398  15.076  1.3474 -0.8614  1.6530
 9372SOL     OW39577   4.194   3.712  12.081  0.4935  0.3693  0.6794
 9372SOL    HW139578   4.257   3.738  12.148  0.8415  1.0459  0.0872
 9372SOL    HW239579   4.221   3.763  12.005  1.3953 -0.0772  0.7050
 9373SOL     OW39580   1.456   2.360   4.879 -0.0569 -0.1009  0.4009
 9373SOL    HW139581   1.376   2.330   4.923 -1.0340 -0.0389 -1.3324
 9373SOL    HW239582   1.447   2.454   4.862  0.2298 -0.1619 -0.0698
 9374SOL     OW39583   2.714   4.384  16.497 -0.2079  0.2542  0.3550
 9374SOL    HW139584   2.701   4.424  16.411 -0.7741  0.5135  0.5581
 9374SOL    HW239585   2.731   4.291  16.477  2.1793  0.7501  0.0651
 9375SOL     OW39586   0.865   2.777   4.028  0.0225 -0.2849  0.3816
 9375SOL    HW139587   0.830   2.774   3.939 -1.3374  1.4186  0.8748
 9375SOL    HW239588   0.871   2.871   4.043 -0.8684 -0.0075 -0.9865
 9376SOL     OW39589   0.166   4.524   5.805  0.3240 -0.8030  0.4173
 9376SOL    HW139590   0.072   4.533   5.795  0.3224  0.2149  1.3945
 9376SOL    HW239591   0.189   4.519   5.713  2.6550 -0.7466  0.9915
 9377SOL     OW39592   4.541   1.269  13.780 -0.1085  0.3527 -0.4084
 9377SOL    HW139593   4.530   1.188  13.730 -2.0126 -0.8754  2.0103
 9377SOL    HW239594   4.450   1.280  13.805  0.6640  2.0281  1.6247
 9378SOL     OW39595   3.258   1.366   1.507 -0.6552 -0.3466 -0.3708
 9378SOL    HW139596   3.197   1.376   1.434  1.1231  2.6468 -1.4726
 9378SOL    HW239597   3.325   1.432   1.489 -2.4627  1.6498  0.3719
 9379SOL     OW39598   0.336   0.178   6.621 -0.1523  0.0685 -0.7160
 9379SOL    HW139599   0.249   0.193   6.584 -0.1360  0.5826 -0.5455
 9379SOL    HW239600   0.388   0.169   6.541 -0.5465 -0.8971 -0.8611
 9380SOL     OW39601   1.989   0.469   9.124  0.3342 -0.2796 -0.6772
 9380SOL    HW139602   2.012   0.521   9.047 -1.5276  0.7857 -0.5178
 9380SOL    HW239603   1.960   0.386   9.086  0.8155  0.0782 -1.8348
 9381SOL     OW39604   3.902   1.536   0.188 -0.8234 -0.1050 -0.7641
 9381SOL    HW139605   3.967   1.503   0.126  0.7924 -0.0680  0.9130
 9381SOL    HW239606   3.828   1.566   0.136 -0.7160  2.3744  0.5436
 9382SOL     OW39607   0.755   2.668   2.210 -0.0820 -0.0799  0.3447
 9382SOL    HW139608   0.819   2.695   2.275 -1.2031  2.7691  0.2459
 9382SOL    HW239609   0.813   2.668   2.133  0.5949 -2.9175  0.8562
 9383SOL     OW39610   0.918   2.936   7.359 -0.1282 -0.1770  0.4763
 9383SOL    HW139611   0.977   2.997   7.401 -1.4590  1.3085  0.1985
 9383SOL    HW239612   0.858   2.998   7.316  1.0212  0.4739 -0.1801
 9384SOL     OW39613   0.982   3.088   1.953 -0.3283 -0.5125  0.3178
 9384SOL    HW139614   0.892   3.076   1.983  0.1251 -2.4819  0.8323
 9384SOL    HW239615   0.978   3.105   1.859  2.4878  2.2718  0.6878
 9385SOL     OW39616   3.709   2.798   6.083  0.7184 -0.3355 -0.2401
 9385SOL    HW139617   3.775   2.796   6.152  0.1547  0.7846  0.3434
 9385SOL    HW239618   3.740   2.876   6.036  0.4341 -0.6153 -0.8918
 9386SOL     OW39619   2.901   2.964  16.987 -0.2047  0.5724 -0.5445
 9386SOL    HW139620   2.849   3.032  16.944 -0.2168  1.4996  0.9624
 9386SOL    HW239621   2.937   2.924  16.907 -0.5316 -3.2737  1.2423
 9387SOL     OW39622   2.470   2.694  11.094  0.3609 -0.0439  0.4677
 9387SOL    HW139623   2.525   2.711  11.170  1.3779 -0.5655 -0.1438
 9387SOL    HW239624   2.477   2.778  11.049  2.1298 -0.3519  0.1733
 9388SOL     OW39625   0.753   1.836   9.369  0.2201 -0.4829 -0.1178
 9388SOL    HW139626   0.835   1.885   9.369 -0.5706  0.8562 -0.0666
 9388SOL    HW239627   0.739   1.823   9.275  3.7348 -2.2039 -0.3776
 9389SOL     OW39628   3.122   1.231   4.758 -0.0807  0.8393  0.3239
 9389SOL    HW139629   3.034   1.198   4.773  0.2879  0.9117  2.7751
 9389SOL    HW239630   3.132   1.274   4.844  0.9870  0.2915  0.4701
 9390SOL     OW39631   3.186   0.740   4.909 -0.6119  0.1567 -0.2601
 9390SOL    HW139632   3.212   0.674   4.845 -1.2125 -0.0740 -0.2610
 9390SOL    HW239633   3.261   0.735   4.969  0.1494  0.7016 -1.1566
 9391SOL     OW39634   2.175   3.701  12.482 -0.0214  0.4512  0.0179
 9391SOL    HW139635   2.154   3.764  12.551  1.0658  1.2767 -0.4036
 9391SOL    HW239636   2.248   3.655  12.523 -2.9657 -3.4531  0.8898
 9392SOL     OW39637   2.867   0.653   9.972 -0.4985 -0.3160 -0.4866
 9392SOL    HW139638   2.930   0.635   9.902 -2.8713 -0.2848 -2.6474
 9392SOL    HW239639   2.900   0.740   9.995  0.2755 -0.1072 -2.3244
 9393SOL     OW39640   4.448   0.917   1.080 -0.3087 -0.8170  0.1718
 9393SOL    HW139641   4.478   0.920   0.989 -1.5055  1.2974 -0.1525
 9393SOL    HW239642   4.372   0.859   1.074 -0.2046 -0.9739  0.3818
 9394SOL     OW39643   3.592   2.998   3.510  0.7569  0.1003  0.2619
 9394SOL    HW139644   3.582   2.934   3.439 -0.0743  0.5386 -0.0182
 9394SOL    HW239645   3.555   3.081   3.481 -1.0449 -1.1070 -0.8752
 9395SOL     OW39646   1.199   2.314   5.031 -0.1865 -0.5564 -0.1465
 9395SOL    HW139647   1.183   2.392   5.084 -1.4382 -0.6441 -0.3781
 9395SOL    HW239648   1.177   2.234   5.079 -3.6935 -0.0166 -0.8323
 9396SOL     OW39649   2.612   1.008   5.696  0.5852  0.2274 -0.3287
 9396SOL    HW139650   2.573   1.082   5.649  1.0335  0.1889 -0.7646
 9396SOL    HW239651   2.548   1.002   5.766 -0.9354 -1.7408 -1.8854
 9397SOL     OW39652   3.686   3.105  15.286  0.1274  0.1937 -0.1799
 9397SOL    HW139653   3.705   3.014  15.265 -1.9152  0.0653 -1.4866
 9397SOL    HW239654   3.621   3.092  15.354 -0.9645 -1.3453 -1.5180
 9398SOL     OW39655   4.098   2.394  10.832  0.0103  0.2321  0.1552
 9398SOL    HW139656   4.111   2.457  10.902  1.4870  0.3405 -0.2212
 9398SOL    HW239657   4.150   2.421  10.757  1.9690 -2.0336  0.7129
 9399SOL     OW39658   3.460   3.617   6.533  0.3748  0.1457 -0.1246
 9399SOL    HW139659   3.483   3.532   6.571  0.7338 -0.3658 -1.4971
 9399SOL    HW239660   3.383   3.650   6.581  0.3411  2.2525 -1.6295
 9400SOL     OW39661   3.066   2.813   2.587  0.0417  0.0007  0.2572
 9400SOL    HW139662   3.145   2.767   2.615  1.5508  0.4983 -3.1809
 9400SOL    HW239663   3.001   2.785   2.651 -1.2631  0.4216 -0.8689
 9401SOL     OW39664   1.699   1.381  13.027  0.1396  0.0997 -0.0151
 9401SOL    HW139665   1.659   1.465  13.053  1.1812  0.3894  0.6429
 9401SOL    HW239666   1.682   1.319  13.097 -0.2859 -1.4588 -1.4987
 9402SOL     OW39667   1.977   4.119   6.957 -0.7603  0.0085 -0.0834
 9402SOL    HW139668   2.018   4.105   7.043 -0.9612 -0.9449 -0.1403
 9402SOL    HW239669   2.032   4.069   6.897 -0.6009 -0.0138  0.0823
 9403SOL     OW39670   1.440   0.422  12.646  0.2108  0.1271  0.3625
 9403SOL    HW139671   1.523   0.446  12.605 -0.4313  0.2548 -0.8676
 9403SOL    HW239672   1.393   0.403  12.564  0.4859  1.1945 -0.0476
 9404SOL     OW39673   0.087   0.214   6.524  0.0639  0.3432  0.0503
 9404SOL    HW139674   0.056   0.190   6.437 -0.4058  0.2977  0.2294
 9404SOL    HW239675   0.100   0.127   6.561  1.4471  0.3960 -0.3206
 9405SOL     OW39676   0.968   1.875   0.953  0.0420  0.0681  0.5036
 9405SOL    HW139677   1.042   1.935   0.941  1.3264 -1.7311 -0.6380
 9405SOL    HW239678   1.003   1.786   0.962  0.2782  0.0335 -0.7227
 9406SOL     OW39679   2.094   1.896  12.668 -0.2967 -0.7474 -0.3883
 9406SOL    HW139680   2.117   1.902  12.576  0.1024  0.7287 -0.1963
 9406SOL    HW239681   2.150   1.826  12.703 -0.6528 -0.0505  1.6191
 9407SOL     OW39682   2.962   0.346   5.862 -0.3311  0.3863 -0.1617
 9407SOL    HW139683   2.963   0.370   5.769  1.1050  1.2866  0.0994
 9407SOL    HW239684   2.931   0.428   5.901 -0.0159  1.2015 -1.6587
 9408SOL     OW39685   2.488   3.247  14.571 -0.2643 -0.7240 -0.6720
 9408SOL    HW139686   2.473   3.180  14.638 -0.2752 -0.2530 -0.2059
 9408SOL    HW239687   2.573   3.221  14.534 -0.0089  0.5898 -1.0026
 9409SOL     OW39688   2.407   2.689   3.734  0.0104  0.3482  0.5517
 9409SOL    HW139689   2.412   2.674   3.640  0.3353  1.3980  0.4070
 9409SOL    HW239690   2.336   2.626   3.746  0.4866 -0.1628  0.6997
 9410SOL     OW39691   2.562   3.364   8.734  1.0075 -0.3319  0.1760
 9410SOL    HW139692   2.571   3.459   8.729 -2.3749  0.0986  2.1164
 9410SOL    HW239693   2.625   3.336   8.800  0.4482  0.7644  1.1786
 9411SOL     OW39694   1.104   2.094   3.952 -0.0536  0.6003  0.0457
 9411SOL    HW139695   1.082   2.001   3.959 -3.8641  1.5250  0.6269
 9411SOL    HW239696   1.083   2.117   3.862  0.6305  0.8070 -0.0586
 9412SOL     OW39697   2.218   2.982   8.092 -0.3938  0.1214  0.3107
 9412SOL    HW139698   2.216   3.011   8.001  0.5243 -1.4340 -0.1981
 9412SOL    HW239699   2.195   2.890   8.080  3.0715 -0.7449  0.5216
 9413SOL     OW39700   1.554   1.415   3.962  0.2686  0.1494  0.2001
 9413SOL    HW139701   1.572   1.384   4.050 -1.0054 -1.3774 -0.0661
 9413SOL    HW239702   1.567   1.332   3.915  2.3509  2.2176 -2.8275
 9414SOL     OW39703   1.978   2.581  13.315 -0.1934 -0.4869  0.1240
 9414SOL    HW139704   1.913   2.625  13.370 -1.8009  0.6687 -2.7573
 9414SOL    HW239705   2.017   2.524  13.382  1.0155  1.9909  1.5342
 9415SOL     OW39706   0.902   0.462   7.699  0.5781  0.3020 -0.0645
 9415SOL    HW139707   0.917   0.502   7.784 -0.3843 -0.5803  0.5155
 9415SOL    HW239708   0.994   0.460   7.671  0.4613 -1.3002 -0.3522
 9416SOL     OW39709   1.015   2.639   3.385  0.2050 -0.0771 -0.0071
 9416SOL    HW139710   0.948   2.676   3.443 -0.1821  2.4350 -1.9972
 9416SOL    HW239711   1.039   2.722   3.343  0.8393 -0.1195  0.2820
 9417SOL     OW39712   3.948   0.863  12.063  0.2854  0.3802  0.5975
 9417SOL    HW139713   3.997   0.814  12.129  0.9346 -1.9858 -1.6749
 9417SOL    HW239714   3.998   0.833  11.988 -1.4390 -1.5348  0.1977
 9418SOL     OW39715   1.115   0.700   6.919  0.0603  0.4379  0.0187
 9418SOL    HW139716   1.098   0.606   6.932  0.6929  0.7474  2.9212
 9418SOL    HW239717   1.144   0.694   6.828 -0.1578  2.1740 -0.1583
 9419SOL     OW39718   2.904   1.020  15.862 -0.2673  0.1918 -0.1506
 9419SOL    HW139719   2.885   1.110  15.890 -0.8243 -0.1844  0.6747
 9419SOL    HW239720   2.913   1.038  15.768 -0.9597 -0.3363 -0.3193
 9420SOL     OW39721   3.021   2.842   4.002 -0.4295 -0.1644  0.4887
 9420SOL    HW139722   3.034   2.908   3.934 -0.7274 -0.2840  0.3146
 9420SOL    HW239723   3.114   2.831   4.021 -0.0811  0.2001 -1.0178
 9421SOL     OW39724   1.754   2.314  15.858 -0.1548 -0.2522  0.1570
 9421SOL    HW139725   1.748   2.218  15.853 -0.4620 -0.3093  1.9047
 9421SOL    HW239726   1.823   2.329  15.922  1.8477 -2.4410 -1.4739
 9422SOL     OW39727   1.167   3.467   2.435  0.0940 -0.9528  0.0532
 9422SOL    HW139728   1.091   3.516   2.403  0.8871  0.7867  0.8349
 9422SOL    HW239729   1.210   3.439   2.354  0.0818 -0.4713 -0.1253
 9423SOL     OW39730   2.047   0.180   3.310 -0.2373 -0.6919  0.6402
 9423SOL    HW139731   1.965   0.224   3.333 -1.2769 -2.3065  0.0220
 9423SOL    HW239732   2.026   0.092   3.280 -1.9146 -0.6761  1.7532
 9424SOL     OW39733   1.194   2.102   4.757 -0.1444 -0.4471 -0.2508
 9424SOL    HW139734   1.127   2.170   4.760  2.8861  2.4552  1.0423
 9424SOL    HW239735   1.225   2.096   4.848  2.2096 -0.1074 -1.0425
 9425SOL     OW39736   3.909   1.823  15.003  0.2522  0.3613  0.8587
 9425SOL    HW139737   4.003   1.803  15.002 -0.0323 -0.8964 -0.9200
 9425SOL    HW239738   3.914   1.872  14.921  0.1572 -3.0799 -1.1940
 9426SOL     OW39739   1.043   4.281   7.236 -0.1041 -0.0817  0.6863
 9426SOL    HW139740   0.995   4.274   7.154  1.2173  0.8808 -0.1694
 9426SOL    HW239741   1.012   4.362   7.277  2.8977  1.3586  0.1106
 9427SOL     OW39742   3.380   1.532   5.398 -0.1516 -0.8364  0.0326
 9427SOL    HW139743   3.405   1.458   5.453  0.4553 -1.1805 -0.7123
 9427SOL    HW239744   3.285   1.525   5.392 -0.2311  0.5790 -0.4326
 9428SOL     OW39745   1.119   1.860   7.179 -0.0140 -0.2848  0.2744
 9428SOL    HW139746   1.085   1.947   7.158  0.4022  0.0225  0.8755
 9428SOL    HW239747   1.065   1.837   7.255 -2.6929 -0.8776 -1.7896
 9429SOL     OW39748   0.857   4.585   8.293 -0.3425 -0.2232  0.7099
 9429SOL    HW139749   0.776   4.535   8.292  0.4574 -1.5554  1.8338
 9429SOL    HW239750   0.885   4.568   8.383  1.1435  0.3504  0.3732
 9430SOL     OW39751   0.222   1.436   9.750  0.1520  0.5789  0.1920
 9430SOL    HW139752   0.131   1.432   9.719  0.4409  0.2574 -0.6230
 9430SOL    HW239753   0.234   1.353   9.796 -0.8477  0.5247  0.3681
 9431SOL     OW39754   1.120   3.375   5.839 -0.0506 -0.6678  0.0002
 9431SOL    HW139755   1.112   3.447   5.776 -0.2891  0.8552  1.7766
 9431SOL    HW239756   1.030   3.373   5.872 -1.0325  1.9205 -2.4910
 9432SOL     OW39757   2.079   0.276   6.703 -0.2054 -0.0564  0.3654
 9432SOL    HW139758   2.110   0.327   6.628 -1.4938 -0.7285 -0.6407
 9432SOL    HW239759   2.110   0.188   6.680 -3.0224 -1.3029  1.3340
 9433SOL     OW39760   1.360   0.544   3.396  0.0089  0.0340 -0.1429
 9433SOL    HW139761   1.432   0.595   3.360  0.3855  0.2067  0.8678
 9433SOL    HW239762   1.305   0.548   3.317  0.2342 -1.0068 -0.3556
 9434SOL     OW39763   1.922   4.270   2.667  0.8619 -0.5919 -0.6391
 9434SOL    HW139764   1.977   4.266   2.589  2.3773  0.1401  0.3882
 9434SOL    HW239765   1.949   4.358   2.691  1.0806 -0.4134 -1.5544
 9435SOL     OW39766   3.569   2.461   0.092 -0.3275  0.4495 -0.2948
 9435SOL    HW139767   3.544   2.536   0.039 -2.5229 -0.3629 -0.4416
 9435SOL    HW239768   3.618   2.415   0.023  0.6560  0.8813  0.1188
 9436SOL     OW39769   0.958   1.807  11.008  0.1474  0.7705 -0.4633
 9436SOL    HW139770   0.958   1.713  11.025  0.6752  0.9393  0.4254
 9436SOL    HW239771   0.940   1.819  10.914 -0.6744  0.9814 -0.2842
 9437SOL     OW39772   3.792   1.337   4.658 -0.2983  0.0710  0.2891
 9437SOL    HW139773   3.870   1.384   4.629  0.0476 -0.1346  0.9058
 9437SOL    HW239774   3.797   1.345   4.753  0.4684 -2.2448  0.4505
 9438SOL     OW39775   2.830   0.349  10.991 -0.1710  0.2586  0.6547
 9438SOL    HW139776   2.866   0.327  10.905  3.2623 -0.0549  2.1522
 9438SOL    HW239777   2.752   0.402  10.975  1.9651  3.0627 -0.5225
 9439SOL     OW39778   1.863   0.663  14.869 -0.4322 -0.7369  0.3032
 9439SOL    HW139779   1.866   0.704  14.782  1.1898 -2.7764 -0.5966
 9439SOL    HW239780   1.910   0.582  14.852  0.4368 -0.5261  1.7685
 9440SOL     OW39781   0.119   0.338   3.919  0.2320 -0.0593  0.0189
 9440SOL    HW139782   0.148   0.348   4.010 -0.2874 -2.2583  0.4099
 9440SOL    HW239783   0.164   0.408   3.872  0.0936  2.0864  3.0281
 9441SOL     OW39784   1.016   2.893  16.488 -0.5190  0.1330  0.0604
 9441SOL    HW139785   1.042   2.840  16.413  0.6717  0.5471  0.1831
 9441SOL    HW239786   1.091   2.876  16.546 -0.7765  0.8549  0.6154
 9442SOL     OW39787   0.397   1.556   4.835 -0.0534  0.3156  0.3708
 9442SOL    HW139788   0.347   1.477   4.814  0.0652  0.8294 -1.7919
 9442SOL    HW239789   0.412   1.539   4.928  1.7192 -1.1085 -0.1722
 9443SOL     OW39790   3.182   0.049   1.684  0.3218 -0.0560  0.2412
 9443SOL    HW139791   3.160   0.102   1.607  0.7810 -0.5205 -0.2073
 9443SOL    HW239792   3.256   0.096   1.723 -1.5630  1.5627  1.8403
 9444SOL     OW39793   2.739   3.407   3.821 -0.4540  0.0884 -0.3636
 9444SOL    HW139794   2.727   3.312   3.814  2.4262 -0.2686 -0.6146
 9444SOL    HW239795   2.832   3.422   3.836 -0.5067  0.3049 -0.2601
 9445SOL     OW39796   1.486   1.131   5.363 -0.2712  0.2302 -0.1354
 9445SOL    HW139797   1.575   1.096   5.373 -0.3546  0.6879  2.2048
 9445SOL    HW239798   1.431   1.063   5.401  0.4824 -0.5173 -0.3870
 9446SOL     OW39799   4.452   0.932   8.527  0.5443 -0.3461  0.0769
 9446SOL    HW139800   4.434   1.024   8.548 -0.8101 -1.3089  3.0605
 9446SOL    HW239801   4.526   0.899   8.577  0.2639  1.1617  1.4512
 9447SOL     OW39802   0.552   3.521   3.594 -0.1451 -0.0032  0.1110
 9447SOL    HW139803   0.517   3.519   3.505  0.8757  0.6930 -0.3150
 9447SOL    HW239804   0.496   3.588   3.635 -2.3341 -0.4403 -2.2031
 9448SOL     OW39805   2.455   1.006  15.458 -0.4860 -0.2839  0.3983
 9448SOL    HW139806   2.383   1.052  15.501  0.2749  0.0419  1.3519
 9448SOL    HW239807   2.523   1.047  15.512 -1.9621  0.8572  1.4024
 9449SOL     OW39808   0.661   2.571  15.671  0.4250 -0.0741 -0.0119
 9449SOL    HW139809   0.739   2.617  15.639  0.5572 -0.7662 -0.6683
 9449SOL    HW239810   0.699   2.483  15.669  0.1428 -0.1550 -2.1295
 9450SOL     OW39811   1.920   1.842   2.414 -0.6910  0.1359 -0.2367
 9450SOL    HW139812   1.876   1.762   2.443  1.1951 -0.7690  0.1312
 9450SOL    HW239813   1.843   1.887   2.379 -1.3615 -1.2510 -0.5350
 9451SOL     OW39814   1.615   0.774  15.501  0.4684 -0.1775  0.5715
 9451SOL    HW139815   1.573   0.716  15.564  0.5813  1.0762  1.7881
 9451SOL    HW239816   1.669   0.833  15.554  0.1500 -1.3283  2.1594
 9452SOL     OW39817   0.398   3.474   2.840  0.0654  0.1004 -0.5460
 9452SOL    HW139818   0.425   3.396   2.791  1.0610 -0.5767  1.0894
 9452SOL    HW239819   0.340   3.436   2.906  2.4482  0.3295  1.6694
 9453SOL     OW39820   1.861   3.253   3.894  1.0554 -0.6855  0.2180
 9453SOL    HW139821   1.811   3.175   3.869 -0.0284  0.0566  0.0631
 9453SOL    HW239822   1.804   3.322   3.860 -0.7737 -1.5148  1.5813
 9454SOL     OW39823   2.512   1.035   3.342 -0.1914 -0.1705  0.2720
 9454SOL    HW139824   2.495   0.984   3.263 -1.8027  0.3002  0.3015
 9454SOL    HW239825   2.420   1.061   3.353  0.1961  0.1077  2.9851
 9455SOL     OW39826   1.015   0.479   1.418  0.8847 -0.3224 -0.4516
 9455SOL    HW139827   1.032   0.495   1.510 -0.6172 -0.1180 -0.2114
 9455SOL    HW239828   0.935   0.530   1.409  0.3668 -0.5689  2.7937
 9456SOL     OW39829   1.584   4.682  10.400  0.1997 -0.0819  0.0449
 9456SOL    HW139830   1.534   0.034  10.429 -0.1621 -0.5420  0.6309
 9456SOL    HW239831   1.514   4.621  10.422 -0.6715  0.6554 -0.7073
 9457SOL     OW39832   4.468   1.414   2.401 -0.2649 -0.1711  0.4677
 9457SOL    HW139833   4.562   1.421   2.420 -0.2721  0.0591  0.4256
 9457SOL    HW239834   4.448   1.502   2.367  0.3916 -0.1747  0.0676
 9458SOL     OW39835   0.336   4.406   4.443  0.0089  0.0288  0.8646
 9458SOL    HW139836   0.313   4.423   4.351 -1.6355 -3.5311  0.5999
 9458SOL    HW239837   0.341   4.491   4.487 -2.6745  0.1987  0.8355
 9459SOL     OW39838   1.860   1.885   1.629  0.6181  0.0441 -0.3951
 9459SOL    HW139839   1.936   1.943   1.623  0.8859 -0.4993 -2.4528
 9459SOL    HW239840   1.898   1.821   1.690 -2.5752 -1.6976 -0.2574
 9460SOL     OW39841   0.515   3.034  16.325 -0.3183 -1.2171 -0.1886
 9460SOL    HW139842   0.604   3.009  16.304 -0.0187  1.6480 -2.2643
 9460SOL    HW239843   0.529   3.080  16.408 -0.3059 -0.6255 -0.5212
 9461SOL     OW39844   1.057   0.770   7.184 -0.1229  0.5209 -0.2834
 9461SOL    HW139845   1.069   0.755   7.090  1.3439 -1.9370  0.2805
 9461SOL    HW239846   0.998   0.700   7.209  0.7914 -0.1392  0.0490
 9462SOL     OW39847   2.653   4.634  10.801 -0.1587 -0.6307 -0.1568
 9462SOL    HW139848   2.605   4.697  10.746 -0.3560 -2.5935 -2.2270
 9462SOL    HW239849   2.709   4.688  10.858 -3.6264  0.2680  2.3781
 9463SOL     OW39850   1.570   2.254   8.205  0.3020  0.0932  0.1217
 9463SOL    HW139851   1.538   2.306   8.279 -1.5411  0.0892 -0.6767
 9463SOL    HW239852   1.575   2.170   8.250 -1.2621 -1.0743 -1.8985
 9464SOL     OW39853   2.418   0.670   5.331  0.0521  0.6382  0.4787
 9464SOL    HW139854   2.481   0.626   5.274 -1.9230  2.4034 -3.1264
 9464SOL    HW239855   2.443   0.761   5.315 -1.3476  0.6886 -1.4864
 9465SOL     OW39856   1.040   0.617  10.158  0.0982 -0.2480 -0.2342
 9465SOL    HW139857   0.995   0.545  10.114 -0.9767  0.9938 -1.1829
 9465SOL    HW239858   1.081   0.564  10.227 -1.1197  0.8694  1.3585
 9466SOL     OW39859   1.818   3.815   3.413 -0.2007 -0.0623  0.0353
 9466SOL    HW139860   1.750   3.832   3.478  1.1608  0.4056  1.3444
 9466SOL    HW239861   1.830   3.905   3.381 -3.0719  0.2808 -0.0634
 9467SOL     OW39862   0.596   1.393  10.644 -0.0806 -0.7085  0.0881
 9467SOL    HW139863   0.685   1.398  10.678 -0.3842 -1.8105  1.0580
 9467SOL    HW239864   0.591   1.297  10.650 -1.0295 -0.6521  0.1905
 9468SOL     OW39865   3.664   1.986   4.504  0.0110 -0.0066 -0.3544
 9468SOL    HW139866   3.660   2.082   4.506  1.9968  0.0452  0.7823
 9468SOL    HW239867   3.576   1.971   4.470 -0.6925  1.1784  0.9335
 9469SOL     OW39868   2.707   3.338   6.195  0.4552 -0.1556 -0.0604
 9469SOL    HW139869   2.794   3.308   6.165 -0.0419 -0.2969 -1.3487
 9469SOL    HW239870   2.710   3.299   6.282 -2.2928 -1.8861 -0.7388
 9470SOL     OW39871   2.818   2.636  10.118  0.0070  0.6808 -0.5338
 9470SOL    HW139872   2.859   2.704  10.064  1.4186  2.3546  2.6667
 9470SOL    HW239873   2.851   2.649  10.206  0.0634  1.2986 -0.6461
 9471SOL     OW39874   2.061   1.884   4.161 -0.5700 -0.0305 -0.0745
 9471SOL    HW139875   2.013   1.956   4.201  1.5410  1.8182 -0.8581
 9471SOL    HW239876   2.021   1.813   4.211  1.7808 -1.4415 -0.2349
 9472SOL     OW39877   2.063   1.956   6.685  0.9356  0.5755  0.3417
 9472SOL    HW139878   1.980   1.917   6.659  1.2111  1.2244 -1.5137
 9472SOL    HW239879   2.119   1.881   6.666  0.7063  0.2925  0.7884
 9473SOL     OW39880   3.454   4.400  16.287  1.0597  0.1622  0.0160
 9473SOL    HW139881   3.413   4.486  16.299 -0.3191 -0.4894 -0.0722
 9473SOL    HW239882   3.547   4.410  16.308  1.2057 -1.6901  0.2769
 9474SOL     OW39883   1.607   3.828   8.947  0.1910 -0.1381  0.4317
 9474SOL    HW139884   1.634   3.744   8.910  0.7561  0.6571 -0.9747
 9474SOL    HW239885   1.669   3.890   8.909 -0.7163  0.1378 -0.6142
 9475SOL     OW39886   2.010   1.497   6.838  0.1398 -0.5847  0.2803
 9475SOL    HW139887   1.929   1.478   6.885  0.0327  0.6026  0.5849
 9475SOL    HW239888   2.029   1.582   6.879  1.7545  0.3219 -2.3438
 9476SOL     OW39889   3.263   1.100   1.220 -0.2297 -0.1982 -0.2375
 9476SOL    HW139890   3.231   1.183   1.255  0.0114 -0.6720  1.1101
 9476SOL    HW239891   3.190   1.074   1.163 -1.5982  3.0297  0.0370
 9477SOL     OW39892   4.501   2.364   4.114  0.3030  0.2949 -0.0365
 9477SOL    HW139893   4.444   2.429   4.073 -2.3805 -1.0146  1.5960
 9477SOL    HW239894   4.579   2.390   4.066 -0.5600  1.0996 -0.9868
 9478SOL     OW39895   1.645   3.799   3.872 -0.0038  0.2970  0.3849
 9478SOL    HW139896   1.675   3.720   3.916 -0.2867  0.4223  0.8013
 9478SOL    HW239897   1.689   3.860   3.931 -0.2182 -0.2912  1.1438
 9479SOL     OW39898   4.162   2.312   4.126 -0.3170  0.6156 -0.0656
 9479SOL    HW139899   4.233   2.316   4.063  0.2609  0.4532  0.5705
 9479SOL    HW239900   4.128   2.401   4.133 -1.0396  0.3312  0.1545
 9480SOL     OW39901   0.291   0.660   2.723  0.5119  0.2640  0.1344
 9480SOL    HW139902   0.225   0.706   2.775 -0.9875  0.2901 -1.7917
 9480SOL    HW239903   0.290   0.574   2.765  2.6056 -0.4696 -1.3404
 9481SOL     OW39904   2.620   3.320   9.389 -0.8917  0.2425  0.4528
 9481SOL    HW139905   2.590   3.391   9.446 -1.4785 -0.4392  0.9968
 9481SOL    HW239906   2.669   3.266   9.452  1.4897 -0.1879 -1.7490
 9482SOL     OW39907   0.506   3.992   8.095 -0.1219 -0.4235 -0.5253
 9482SOL    HW139908   0.419   4.027   8.115  0.8694  1.7746 -0.0325
 9482SOL    HW239909   0.543   4.064   8.043 -1.1507  1.1851  0.9580
 9483SOL     OW39910   0.465   0.469   4.978 -0.2179 -0.4757  0.1597
 9483SOL    HW139911   0.534   0.496   4.918 -0.3303  1.8294  1.0806
 9483SOL    HW239912   0.514   0.429   5.050 -1.0821 -1.5229  0.1796
 9484SOL     OW39913   0.690   3.760  12.609 -0.3061 -0.9340 -0.4048
 9484SOL    HW139914   0.682   3.849  12.643  0.0524 -1.5353  1.2730
 9484SOL    HW239915   0.753   3.769  12.538  1.5115 -0.5355  1.2603
 9485SOL     OW39916   3.829   3.023  16.495 -0.3409 -0.6180  0.4944
 9485SOL    HW139917   3.791   2.983  16.574 -1.3882  0.4904  0.5444
 9485SOL    HW239918   3.895   2.957  16.471 -1.0793 -0.8360 -0.9213
 9486SOL     OW39919   2.464   0.672   4.271  0.4323 -0.0273  0.5167
 9486SOL    HW139920   2.425   0.672   4.184 -0.6788  2.2313  1.0293
 9486SOL    HW239921   2.513   0.753   4.258  0.7537  0.1094  2.4998
 9487SOL     OW39922   1.035   3.875   8.853 -0.2981  0.3158 -0.1842
 9487SOL    HW139923   1.069   3.963   8.839 -1.6219  1.1594  1.9335
 9487SOL    HW239924   0.943   3.896   8.868  0.2179  0.4950  2.6440
 9488SOL     OW39925   4.505   2.253   1.973  0.1668 -0.0289 -0.5142
 9488SOL    HW139926   4.518   2.186   1.905  2.5525 -1.2733  1.1614
 9488SOL    HW239927   4.591   2.253   2.015 -0.3366 -0.4846  0.4951
 9489SOL     OW39928   1.326   3.629   2.150  0.1119  0.4811  0.4909
 9489SOL    HW139929   1.315   3.710   2.200 -0.9494  1.5880 -1.5733
 9489SOL    HW239930   1.260   3.651   2.085 -1.7742 -2.8190  1.2640
 9490SOL     OW39931   1.487   2.717  16.627 -0.0956 -0.4328 -0.5423
 9490SOL    HW139932   1.568   2.724  16.576 -0.7820  1.0420 -1.4095
 9490SOL    HW239933   1.455   2.628  16.609 -0.2309 -0.7605  1.3008
 9491SOL     OW39934   3.598   2.833  13.787 -0.1651 -0.1350  0.1094
 9491SOL    HW139935   3.658   2.773  13.831 -0.8393 -2.7191 -2.4428
 9491SOL    HW239936   3.545   2.775  13.732 -1.7893  0.3581  1.1760
 9492SOL     OW39937   2.349   2.148   3.603  0.3991  0.4819  0.0125
 9492SOL    HW139938   2.371   2.145   3.510  1.8802  2.2511  0.2934
 9492SOL    HW239939   2.286   2.220   3.602  0.0712  0.1948  0.0492
 9493SOL     OW39940   2.314   1.556   8.365  0.3634 -0.0634 -0.2457
 9493SOL    HW139941   2.331   1.647   8.341 -0.7795  0.3202  0.3728
 9493SOL    HW239942   2.218   1.563   8.373  0.2125  1.2169 -3.0842
 9494SOL     OW39943   1.766   0.072   4.447  0.3001 -0.1574  0.7537
 9494SOL    HW139944   1.701   0.092   4.379  1.2942 -1.9812 -0.7129
 9494SOL    HW239945   1.819   0.151   4.437 -1.6209  1.1321  0.5465
 9495SOL     OW39946   2.410   2.825  11.744 -0.1166 -0.2980 -0.0478
 9495SOL    HW139947   2.367   2.794  11.665  1.1944  0.4032 -1.0354
 9495SOL    HW239948   2.337   2.834  11.805  0.0533 -2.5903  0.4869
 9496SOL     OW39949   1.935   0.886   3.313  0.0673  0.6271  0.0878
 9496SOL    HW139950   1.943   0.948   3.386 -2.8223 -2.7092  3.1922
 9496SOL    HW239951   1.951   0.798   3.346 -1.1137 -0.2423 -1.6575
 9497SOL     OW39952   3.878   1.854  12.712 -0.1068 -0.3435 -0.1080
 9497SOL    HW139953   3.888   1.948  12.697  1.3054 -0.6734 -1.1619
 9497SOL    HW239954   3.951   1.814  12.665 -1.5240 -0.4136 -2.2499
 9498SOL     OW39955   0.179   1.067  17.467  0.1817 -0.2978  0.4376
 9498SOL    HW139956   0.192   1.107  17.380  1.3854 -3.8317 -1.0008
 9498SOL    HW239957   0.203   0.978  17.442  1.2711  0.2670 -0.5513
 9499SOL     OW39958   2.581   4.008   4.308 -0.1139  0.3700  0.1944
 9499SOL    HW139959   2.513   4.004   4.241  1.5035 -1.7962 -1.3026
 9499SOL    HW239960   2.556   4.094   4.343  0.7361  1.1823 -1.1768
 9500SOL     OW39961   4.267   0.564  13.838 -0.4091  0.1503 -0.1233
 9500SOL    HW139962   4.190   0.507  13.840 -1.2455  1.3549  2.3038
 9500SOL    HW239963   4.326   0.515  13.781  0.6102  0.3981  0.7253
 9501SOL     OW39964   1.777   4.296  13.829 -0.6320  0.6167  0.5584
 9501SOL    HW139965   1.837   4.311  13.756  0.3211  1.8795  1.6069
 9501SOL    HW239966   1.687   4.296  13.798 -0.4668  0.9757  0.0887
 9502SOL     OW39967   0.125   2.040   0.006  0.1202  0.2588  0.1528
 9502SOL    HW139968   0.084   2.090   0.077 -1.0313  1.2314 -1.2131
 9502SOL    HW239969   0.175   2.097  17.645  1.0785 -0.1335  0.5910
 9503SOL     OW39970   1.611   0.239  10.125  0.0786 -0.4054 -0.3538
 9503SOL    HW139971   1.659   0.157  10.139  1.3855  0.5712  0.8660
 9503SOL    HW239972   1.542   0.204  10.069 -0.3736 -0.0623 -0.0178
 9504SOL     OW39973   1.379   4.454  17.322  0.4057  0.0475  0.5157
 9504SOL    HW139974   1.311   4.490  17.264 -1.2943 -1.6475  1.4538
 9504SOL    HW239975   1.451   4.456  17.259 -1.7245  3.1832 -1.8315
 9505SOL     OW39976   1.894   2.347   2.782 -0.0168 -0.0593 -0.1682
 9505SOL    HW139977   1.807   2.307   2.777 -0.3022  0.4286  0.8345
 9505SOL    HW239978   1.866   2.405   2.853  1.2886 -0.3692  0.6084
 9506SOL     OW39979   1.323   0.115  11.171 -0.3936  0.2885 -0.3126
 9506SOL    HW139980   1.262   0.045  11.192 -1.1055  0.7983 -0.6703
 9506SOL    HW239981   1.382   0.122  11.246 -0.4910  2.7647 -0.4606
 9507SOL     OW39982   3.368   2.362   7.011 -0.0586  0.2863  0.1639
 9507SOL    HW139983   3.341   2.395   6.925  2.0922 -2.1254 -1.4328
 9507SOL    HW239984   3.431   2.423   7.048 -1.3762  1.0828  1.0880
 9508SOL     OW39985   1.376   0.112  14.657 -0.4831 -0.4771  0.0413
 9508SOL    HW139986   1.452   0.064  14.691 -0.4499 -0.3113  0.1949
 9508SOL    HW239987   1.421   0.151  14.582 -0.0346  0.7626  0.9677
 9509SOL     OW39988   0.830   4.718   6.696  0.4257 -0.6777  0.1291
 9509SOL    HW139989   0.758   4.673   6.740 -0.3896  0.0548 -0.4380
 9509SOL    HW239990   0.786   0.078   6.680  1.2333 -0.0814  1.0101
 9510SOL     OW39991   0.291   4.003   4.396 -0.5955 -0.5530  0.6811
 9510SOL    HW139992   0.351   4.034   4.463 -0.8243 -1.3799  1.2635
 9510SOL    HW239993   0.307   3.909   4.383  2.1812 -0.0779  0.8507
 9511SOL     OW39994   4.631   4.222   7.674 -0.1695 -0.1504  0.0234
 9511SOL    HW139995   4.701   4.181   7.623 -0.5197  0.8208 -1.2170
 9511SOL    HW239996   4.609   4.292   7.613 -1.3056 -0.8438 -0.3656
 9512SOL     OW39997   1.209   0.738  12.549  0.4189  0.0077 -0.6562
 9512SOL    HW139998   1.271   0.785  12.493 -1.5507  0.5952 -2.3468
 9512SOL    HW239999   1.253   0.746  12.633  0.5906 -1.9062 -0.5654
 9513SOL     OW40000   1.536   3.925  16.238 -0.0217  0.1269 -0.1321
 9513SOL    HW140001   1.573   3.997  16.288 -0.3715  1.5808 -1.9793
 9513SOL    HW240002   1.475   3.976  16.186  0.6026  1.7411  0.7255
 9514SOL     OW40003   1.546   4.136  10.004 -0.1580 -1.1547  0.3926
 9514SOL    HW140004   1.617   4.072  10.012  1.2964  0.3723 -0.2834
 9514SOL    HW240005   1.474   4.092  10.048 -1.6003  1.0451  0.2387
 9515SOL     OW40006   1.961   0.985   1.311  0.4333 -0.2175  0.1166
 9515SOL    HW140007   2.057   0.981   1.311  0.3657 -1.8226  0.6482
 9515SOL    HW240008   1.943   0.997   1.404 -2.7495  0.3461 -0.5702
 9516SOL     OW40009   1.469   0.335   2.059  0.1488  0.3176 -0.2148
 9516SOL    HW140010   1.543   0.327   1.998 -0.2063  0.6334 -0.6897
 9516SOL    HW240011   1.468   0.251   2.104  0.2706  0.6557  0.4236
 9517SOL     OW40012   2.766   4.620   3.760 -0.4574  0.6443 -0.2302
 9517SOL    HW140013   2.770   4.629   3.665  1.7152  0.5665 -0.1564
 9517SOL    HW240014   2.675   4.592   3.770 -0.4461  1.7082  2.8483
 9518SOL     OW40015   2.288   2.149  17.241 -0.1777  0.3539 -0.0983
 9518SOL    HW140016   2.290   2.242  17.262 -2.4447  0.8425 -2.0851
 9518SOL    HW240017   2.205   2.154  17.194 -1.6056  1.5583  2.5708
 9519SOL     OW40018   4.648   2.460   3.627 -0.0957  0.0725 -0.2312
 9519SOL    HW140019   4.698   2.524   3.677 -2.7504  0.7938  1.4675
 9519SOL    HW240020   4.592   2.514   3.571  0.3642  2.5754  1.7417
 9520SOL     OW40021   3.171   2.401  13.912  0.4051 -0.4889 -0.5734
 9520SOL    HW140022   3.173   2.375  13.820  0.7207 -0.1011 -0.6783
 9520SOL    HW240023   3.252   2.453  13.911 -0.7448  1.3322  1.1133
 9521SOL     OW40024   0.478   4.260   9.068 -0.3701  0.6778  0.2123
 9521SOL    HW140025   0.426   4.184   9.092  1.2945 -0.3813  0.4224
 9521SOL    HW240026   0.412   4.329   9.080 -0.3605  0.8055 -0.4724
 9522SOL     OW40027   0.659   4.172   9.244 -0.4552 -0.0843  0.7193
 9522SOL    HW140028   0.670   4.252   9.296  0.0123 -0.6068  1.4219
 9522SOL    HW240029   0.600   4.203   9.175 -1.2584 -0.7010  1.1274
 9523SOL     OW40030   0.086   2.722   8.729 -0.0828 -0.1747 -0.2987
 9523SOL    HW140031   0.093   2.775   8.808 -2.5418 -1.7224  0.9434
 9523SOL    HW240032   4.715   2.708   8.735 -0.3234  0.3972 -2.7440
 9524SOL     OW40033   1.690   4.534   7.237  0.5324 -0.3523  1.0225
 9524SOL    HW140034   1.748   4.465   7.206 -0.2121 -1.4540  2.0853
 9524SOL    HW240035   1.643   4.556   7.156  2.1500 -0.3653  0.0872
 9525SOL     OW40036   2.143   3.433  13.336  0.2236 -0.1430  0.0779
 9525SOL    HW140037   2.110   3.384  13.411 -1.9667 -1.1317 -1.5140
 9525SOL    HW240038   2.148   3.526  13.359  0.5753 -0.1495  0.0150
 9526SOL     OW40039   2.300   3.200  10.343 -0.0695  0.5382  0.0475
 9526SOL    HW140040   2.238   3.167  10.408  0.6641  0.2848  0.6298
 9526SOL    HW240041   2.386   3.174  10.378 -0.6539  0.6069  1.5303
 9527SOL     OW40042   1.579   1.241  10.387 -0.4230  0.1050 -0.1869
 9527SOL    HW140043   1.560   1.272  10.476 -1.2285  1.6640 -0.9070
 9527SOL    HW240044   1.670   1.268  10.377 -0.2023  0.0948  1.6592
 9528SOL     OW40045   3.162   2.146   0.593 -0.7797 -1.1617 -0.0167
 9528SOL    HW140046   3.185   2.071   0.538  4.0338  0.4713 -0.2323
 9528SOL    HW240047   3.137   2.107   0.676 -1.2221 -1.9621 -0.5252
 9529SOL     OW40048   1.913   1.529   3.361  0.1916  0.3973  0.0968
 9529SOL    HW140049   1.986   1.545   3.301 -0.7832  1.1202 -0.8941
 9529SOL    HW240050   1.839   1.534   3.301  1.2177 -1.0593 -1.3218
 9530SOL     OW40051   1.698   4.279  16.869  0.2284  0.1885 -0.4673
 9530SOL    HW140052   1.790   4.298  16.892  0.2050 -1.8308  1.3143
 9530SOL    HW240053   1.706   4.184  16.864 -0.2401 -0.0447  3.0494
 9531SOL     OW40054   2.144   3.964   6.769  0.7483  0.0509 -0.3575
 9531SOL    HW140055   2.104   3.879   6.752  1.6599 -0.3290 -0.5913
 9531SOL    HW240056   2.230   3.960   6.726 -0.2850  3.2190 -2.6347
 9532SOL     OW40057   3.449   3.316  15.088 -0.4595 -0.6770 -0.4163
 9532SOL    HW140058   3.467   3.377  15.017 -0.4983  1.0641  1.0622
 9532SOL    HW240059   3.456   3.369  15.168 -1.0803  1.9589 -2.1224
 9533SOL     OW40060   2.733   0.434  15.731 -0.0194  0.0789 -0.9946
 9533SOL    HW140061   2.824   0.406  15.731 -0.6476 -2.0355  0.5612
 9533SOL    HW240062   2.748   0.520  15.692  0.5994  0.7237  0.6627
 9534SOL     OW40063   0.083   3.956   2.917 -0.6242  0.2248 -0.0138
 9534SOL    HW140064   4.717   3.923   2.906 -0.4520 -0.5455  0.9743
 9534SOL    HW240065   0.128   3.881   2.955  1.0233  0.1820 -2.0531
 9535SOL     OW40066   1.822   4.505   9.071 -0.0230 -0.0389 -0.4717
 9535SOL    HW140067   1.890   4.448   9.035  0.3470 -0.9322  1.6469
 9535SOL    HW240068   1.822   4.469   9.159  0.6429  3.6130  0.9954
 9536SOL     OW40069   1.653   0.886   1.742 -0.1024  0.2789 -0.4125
 9536SOL    HW140070   1.730   0.931   1.777  1.2908 -2.4428  0.0297
 9536SOL    HW240071   1.651   0.808   1.797 -1.4990 -1.1811 -2.5165
 9537SOL     OW40072   1.546   4.048  17.232 -0.2798  0.8506  0.0845
 9537SOL    HW140073   1.550   4.122  17.171  4.3402  1.7215  1.4359
 9537SOL    HW240074   1.451   4.044  17.246 -0.5345  1.6514 -1.4059
 9538SOL     OW40075   3.911   1.620   4.705 -0.0282  0.6046 -0.3108
 9538SOL    HW140076   3.961   1.650   4.629  0.0309  0.3551 -0.3704
 9538SOL    HW240077   3.831   1.663   4.676  1.0743  2.0526 -1.1887
 9539SOL     OW40078   4.619   3.671   9.986 -0.1649  0.5907  0.1679
 9539SOL    HW140079   4.671   3.635   9.913 -3.3684 -0.2637 -1.6673
 9539SOL    HW240080   4.673   3.749   9.998  1.2497 -0.0382 -2.0412
 9540SOL     OW40081   4.290   1.390   0.214  0.0892  0.3607  0.5222
 9540SOL    HW140082   4.364   1.362   0.269  0.7744  1.7109  0.2912
 9540SOL    HW240083   4.228   1.357   0.280 -0.6947 -0.8086 -0.7999
 9541SOL     OW40084   1.626   4.271   1.581  0.1267 -0.1848 -0.4087
 9541SOL    HW140085   1.697   4.325   1.549  1.3280 -2.1678 -1.1158
 9541SOL    HW240086   1.654   4.181   1.601  0.3480 -0.1574 -0.6106
 9542SOL     OW40087   0.032   3.484   4.555  0.1747  0.2632  0.0209
 9542SOL    HW140088   0.081   3.455   4.632  0.2359  1.4101  0.4182
 9542SOL    HW240089   0.009   3.575   4.574  0.2220  0.1441  0.6427
 9543SOL     OW40090   4.593   4.623   6.005 -0.4692  0.3285 -0.1904
 9543SOL    HW140091   4.663   4.559   6.020 -2.9928 -1.8500  2.1151
 9543SOL    HW240092   4.526   4.580   6.058 -2.4036  1.9876 -1.2883
 9544SOL     OW40093   4.487   3.597   6.737 -0.1825  0.7418  0.1962
 9544SOL    HW140094   4.490   3.510   6.698 -1.1150  0.6912  0.2296
 9544SOL    HW240095   4.581   3.610   6.743  0.0427  0.2703 -2.4405
 9545SOL     OW40096   3.312   2.115   4.930  0.1783  0.3081 -0.3854
 9545SOL    HW140097   3.264   2.151   5.004 -0.7549 -1.3544 -0.1788
 9545SOL    HW240098   3.288   2.022   4.936  0.7739  0.3963  3.6636
 9546SOL     OW40099   4.341   0.234  16.385  0.6204  0.0596  0.5946
 9546SOL    HW140100   4.297   0.171  16.327  2.6976 -2.2757  1.5388
 9546SOL    HW240101   4.277   0.303  16.369 -0.9960 -1.6535 -0.3865
 9547SOL     OW40102   1.244   4.670   8.417 -0.3553  0.3095 -0.0047
 9547SOL    HW140103   1.239   0.038   8.391 -0.1029 -0.0296 -1.2680
 9547SOL    HW240104   1.238   4.629   8.331 -2.5539  1.1130 -0.2277
 9548SOL     OW40105   2.485   1.212   6.980  0.6487  0.9514  0.3899
 9548SOL    HW140106   2.454   1.302   6.994 -0.9613  0.6887 -1.5048
 9548SOL    HW240107   2.457   1.170   7.061  0.2740  0.0119 -0.2321
 9549SOL     OW40108   1.926   1.484  17.195  0.1092  0.4124  0.0665
 9549SOL    HW140109   1.843   1.529  17.213 -0.7927 -0.8405 -0.8856
 9549SOL    HW240110   1.929   1.421  17.268  1.4813 -0.1700 -0.4925
 9550SOL     OW40111   1.146   0.788   3.425  0.2196  0.2168  0.0382
 9550SOL    HW140112   1.180   0.735   3.352  0.9231  0.8914 -0.1183
 9550SOL    HW240113   1.172   0.734   3.499 -0.5639 -1.7344 -1.1060
 9551SOL     OW40114   3.470   3.828   5.539  0.0772  0.2097  0.2816
 9551SOL    HW140115   3.542   3.864   5.486 -0.7849 -0.1107 -1.0969
 9551SOL    HW240116   3.424   3.909   5.563  2.6612  1.7489  0.0805
 9552SOL     OW40117   4.129   2.986   4.258  0.2409 -0.4499  0.0914
 9552SOL    HW140118   4.215   3.028   4.252  0.3641 -0.6350  0.5561
 9552SOL    HW240119   4.161   2.906   4.300  1.4750 -0.3441 -0.6394
 9553SOL     OW40120   3.291   1.298   1.867  0.3468 -0.6997  0.3144
 9553SOL    HW140121   3.256   1.228   1.812  0.3353  1.1207 -2.0026
 9553SOL    HW240122   3.329   1.361   1.806 -1.1178  0.2410  0.3725
 9554SOL     OW40123   4.382   1.335   3.237  0.0756 -0.3441 -0.3446
 9554SOL    HW140124   4.405   1.242   3.227 -0.9133 -1.1176  4.3759
 9554SOL    HW240125   4.459   1.350   3.293 -0.5058 -0.0808  0.3836
 9555SOL     OW40126   0.929   0.740   6.046 -0.4106  0.3044  0.2324
 9555SOL    HW140127   0.887   0.687   6.113  1.7505 -0.1149  1.2365
 9555SOL    HW240128   0.931   0.680   5.971  2.0360 -0.1132  0.6447
 9556SOL     OW40129   2.885   0.838   1.619  0.7537  0.2426 -0.3681
 9556SOL    HW140130   2.977   0.838   1.643  0.9072  0.5558 -0.9442
 9556SOL    HW240131   2.883   0.875   1.530  0.9740  1.3879  0.1008
 9557SOL     OW40132   1.254   3.601   6.543  0.2283  0.2265 -0.3912
 9557SOL    HW140133   1.246   3.678   6.599 -0.0241 -0.7588  0.9123
 9557SOL    HW240134   1.326   3.630   6.488  0.6165  0.1818  0.0938
 9558SOL     OW40135   2.582   2.958   2.528  0.5962 -0.1626  0.2905
 9558SOL    HW140136   2.514   3.020   2.554  0.2430  0.9943 -3.3315
 9558SOL    HW240137   2.657   3.015   2.510  0.8670 -0.7894 -0.6011
 9559SOL     OW40138   2.978   1.900   3.329 -0.3928 -0.3609 -0.3063
 9559SOL    HW140139   3.007   1.944   3.409  1.2787 -1.0946 -0.4889
 9559SOL    HW240140   2.885   1.911   3.344 -0.6435 -1.5111 -1.0239
 9560SOL     OW40141   1.181   2.846   3.635  0.5707 -0.5777  0.1802
 9560SOL    HW140142   1.094   2.880   3.613  0.3686 -1.0112  0.2934
 9560SOL    HW240143   1.229   2.900   3.573 -2.3257  1.1225 -0.5686
 9561SOL     OW40144   2.316   0.274   7.541  0.1991  0.5878 -0.2120
 9561SOL    HW140145   2.357   0.197   7.579  0.9536  0.8582 -0.4870
 9561SOL    HW240146   2.332   0.340   7.609 -0.5811  0.2995  0.2548
 9562SOL     OW40147   2.922   2.054   3.749 -0.2382 -0.7881  0.4023
 9562SOL    HW140148   2.984   2.027   3.681  0.7204  0.2583  0.8745
 9562SOL    HW240149   2.841   2.035   3.702  1.1994 -2.8759 -1.2542
 9563SOL     OW40150   2.475   4.523   6.885 -0.0258  0.2130 -0.2780
 9563SOL    HW140151   2.415   4.462   6.928  0.2663 -0.3754 -0.7006
 9563SOL    HW240152   2.435   4.610   6.881 -0.9800 -0.1942  0.3665
 9564SOL     OW40153   0.291   1.039   4.226  0.0656  0.0537 -0.8215
 9564SOL    HW140154   0.357   1.108   4.227 -0.3957  0.4797  0.8234
 9564SOL    HW240155   0.303   0.997   4.141 -0.7381  0.7717 -1.2924
 9565SOL     OW40156   0.673   0.609   4.804 -0.3498 -0.0138 -0.5477
 9565SOL    HW140157   0.684   0.586   4.712 -2.1823 -1.3716 -0.4307
 9565SOL    HW240158   0.622   0.689   4.791 -1.1398 -0.4728 -0.3001
 9566SOL     OW40159   0.673   2.166   8.268  0.0447  0.1783  0.3600
 9566SOL    HW140160   0.585   2.155   8.232 -1.2450  2.9858  2.6603
 9566SOL    HW240161   0.647   2.154   8.359  0.9781 -1.4203  0.4188
 9567SOL     OW40162   1.755   1.414   1.715 -0.2172  0.0811  0.1329
 9567SOL    HW140163   1.711   1.348   1.662  0.5097 -0.0240 -0.3313
 9567SOL    HW240164   1.780   1.357   1.788  0.2773  0.3300  0.1560
 9568SOL     OW40165   2.968   0.725   1.893 -0.1403  0.2110 -0.0190
 9568SOL    HW140166   3.015   0.785   1.834  0.3951  0.7088  0.9121
 9568SOL    HW240167   3.036   0.686   1.947 -0.7100 -0.5400  0.1544
   4.72369   4.72369  17.69648
