Membrane in water
40167
    1TCq1    O1    1   3.185   0.235  11.075 -0.5753  0.3367  0.2668
    1TCq1    C1    2   3.145   0.134  11.160  0.5077  0.1879 -0.0846
    1TCq1    O2    3   3.201   0.097  11.262 -0.2105  0.8813 -0.2231
    1TCq1    C2    4   3.000   0.121  11.150  0.2539  0.4512  0.4937
    1TCq1    C3    5   2.927   0.145  11.035 -0.0314  0.1961  0.3470
    1TCq1    C4    6   2.790   0.165  11.044 -0.4726  0.6566  0.5072
    1TCq1    C5    7   2.732   0.170  11.169 -0.2395 -0.7654 -0.0108
    1TCq1    C6    8   2.809   0.146  11.280 -0.0997  0.7963 -0.5791
    1TCq1    C7    9   2.944   0.118  11.273 -0.0792  0.2117 -0.0025
    1TCq1    C8   10   2.745   0.173  11.417 -0.0730  0.5882  0.2796
    1TCq1    O4   11   2.633   0.227  11.410  0.1482 -0.5501 -0.1255
    1TCq1    C9   12   2.720   0.213  10.931  0.1056 -0.1324 -0.4017
    1TCq1    O5   13   2.789   0.286  10.853 -0.3901  0.1998 -0.0742
    1TCq1    O6   14   2.598   0.194  10.915 -0.0414 -0.1815 -0.0865
    1TCq1    H1   15   3.136   0.252  10.992  0.1370 -0.6913 -0.3586
    1TCq1    H2   16   2.967   0.146  10.935 -1.5057 -0.8517 -0.2549
    1TCq1    H3   17   2.626   0.185  11.186 -0.3458 -1.4021 -0.0807
    1TCq1    H4   18   2.998   0.095  11.363  0.0362  1.4724  0.2568
    2MPD2     C   19   2.722   0.131  11.931 -0.2396 -0.2344 -0.1279
    2MPD2    C1   20   2.628   0.176  11.840 -0.1475  0.3742 -0.4039
    2MPD2    C2   21   2.651   0.160  11.703  0.7719 -0.2640 -0.6147
    2MPD2    C3   22   2.772   0.118  11.659 -0.3461  0.5242  0.0067
    2MPD2    C4   23   2.860   0.081  11.749 -0.3428  0.3081  0.1139
    2MPD2    C5   24   2.843   0.090  11.884 -0.0832 -0.4922 -0.5830
    2MPD2     H   25   2.574   0.192  11.635 -0.0088 -0.3404  0.2288
    2MPD2    H1   26   2.955   0.037  11.721  0.1617  1.1501  0.4901
    2MPD2    H2   27   2.697   0.138  12.036  1.3176  0.4132  0.2025
    2MPD2    H3   28   2.915   0.049  11.953 -1.9542 -0.6744  1.2711
    2MPD2     N   29   2.807   0.114  11.521 -1.3212  0.5692 -0.2472
    2MPD2    H5   30   2.887   0.056  11.498 -1.2009  0.4244  0.5556
    2MPD2    N1   31   2.498   0.217  11.869 -0.4601 -0.2039  0.1049
    2MPD2    H7   32   2.441   0.248  11.792 -0.2389  0.4768  0.2193
    3TCq1    O1   33   2.282   1.023  10.460  0.0881  0.1096 -0.5425
    3TCq1    C1   34   2.200   1.100  10.392 -0.0736 -0.3623  0.5046
    3TCq1    O2   35   2.226   1.126  10.274  0.0020  0.2304  0.4762
    3TCq1    C2   36   2.199   1.211  10.479  0.2721  1.1655  1.0636
    3TCq1    C3   37   2.238   1.332  10.439 -0.4434  0.3941 -0.3108
    3TCq1    C4   38   2.258   1.432  10.535 -0.4184 -0.1261  0.6554
    3TCq1    C5   39   2.237   1.413  10.670  0.4680  0.6112  0.0423
    3TCq1    C6   40   2.189   1.292  10.700 -0.3373  0.3021 -0.1097
    3TCq1    C7   41   2.171   1.186  10.611  0.0162  0.0098 -0.2225
    3TCq1    C8   42   2.142   1.272  10.838 -0.4695 -0.2475  0.1188
    3TCq1    O4   43   2.138   1.157  10.878 -0.5542 -0.3084  0.2564
    3TCq1    C9   44   2.315   1.555  10.489 -0.5746  0.7253  0.0235
    3TCq1    O5   45   2.357   1.634  10.574  0.2729 -0.0226  0.3602
    3TCq1    O6   46   2.313   1.585  10.368 -0.0656 -0.1691  1.0068
    3TCq1    H1   47   2.274   1.026  10.558 -0.0219 -0.4825 -0.5338
    3TCq1    H2   48   2.246   1.349  10.332  2.1310 -0.2271 -0.2133
    3TCq1    H3   49   2.269   1.486  10.744 -0.9143  1.5474 -0.3008
    3TCq1    H4   50   2.144   1.089  10.652 -0.0794 -0.3713 -1.1813
    4MPD2     C   51   1.946   1.415  11.284  0.4332  0.0362  0.2105
    4MPD2    C1   52   1.942   1.524  11.200  0.0379  0.0072  0.0251
    4MPD2    C2   53   1.983   1.510  11.070 -0.5598  0.5868  0.2116
    4MPD2    C3   54   2.042   1.391  11.030  0.7129 -0.7490  1.1939
    4MPD2    C4   55   2.033   1.284  11.112 -0.0798  0.2933 -0.0964
    4MPD2    C5   56   1.986   1.298  11.238 -0.3929 -0.7850  0.3107
    4MPD2     H   57   1.985   1.591  10.998  0.2221  0.9521  0.6425
    4MPD2    H1   58   2.071   1.185  11.090 -0.2360  0.3938 -0.8334
    4MPD2    H2   59   1.911   1.421  11.386  1.7373  1.9385  0.5332
    4MPD2    H3   60   1.980   1.210  11.300  2.9258 -2.9075 -2.3680
    4MPD2     N   61   2.098   1.385  10.900  0.2303  0.3902  0.2510
    4MPD2    H5   62   2.093   1.463  10.836  0.3502 -0.3277 -0.6377
    4MPD2    N1   63   1.903   1.652  11.246 -0.6550  0.2593  0.2114
    4MPD2    H7   64   1.902   1.729  11.180  0.2139 -0.6849 -0.9126
    5TCq1    O1   65   2.371   3.057  11.616  0.2515 -0.6566  0.4086
    5TCq1    C1   66   2.464   2.962  11.611  0.2253 -0.4060 -0.0992
    5TCq1    O2   67   2.460   2.851  11.659 -0.1907 -0.1611  0.4654
    5TCq1    C2   68   2.580   3.009  11.548 -0.3760  0.2663 -0.0447
    5TCq1    C3   69   2.619   3.142  11.575  0.1444  0.0080 -0.3398
    5TCq1    C4   70   2.744   3.175  11.527  0.3842 -0.3280 -0.6399
    5TCq1    C5   71   2.817   3.092  11.451 -0.0679  0.4234  0.2344
    5TCq1    C6   72   2.785   2.961  11.446  0.6149  0.2752  0.5648
    5TCq1    C7   73   2.662   2.917  11.487 -0.4763  0.4878  0.1336
    5TCq1    C8   74   2.874   2.874  11.364 -0.1294  0.3006  0.4289
    5TCq1    O4   75   2.832   2.778  11.300 -0.0018 -0.0644  0.3565
    5TCq1    C9   76   2.799   3.297  11.577  0.7800 -0.5069  0.5439
    5TCq1    O5   77   2.735   3.351  11.674 -0.4642  0.1553 -0.3730
    5TCq1    O6   78   2.917   3.321  11.549  0.3736 -0.3091  0.0812
    5TCq1    H1   79   2.390   3.132  11.556 -1.3467 -0.3772  0.2581
    5TCq1    H2   80   2.566   3.210  11.640  1.9520  2.7489 -1.7312
    5TCq1    H3   81   2.915   3.132  11.430  0.7688 -0.0880  3.1046
    5TCq1    H4   82   2.626   2.816  11.475  3.4773 -0.8758 -0.0007
    6MPD2     C   83   3.210   2.953  11.240  0.2413  0.2333 -0.5979
    6MPD2    C1   84   3.104   2.871  11.270 -0.4396 -0.0365 -0.5929
    6MPD2    C2   85   3.111   2.738  11.225 -0.2387 -0.8212 -0.0165
    6MPD2    C3   86   3.217   2.687  11.161  0.0108  0.0702  0.0950
    6MPD2    C4   87   3.321   2.775  11.136  0.0804 -0.5531 -0.1587
    6MPD2    C5   88   3.316   2.906  11.165  0.2813  0.8785 -0.2385
    6MPD2     H   89   3.038   2.675  11.275 -0.6033  1.6565  2.6195
    6MPD2    H1   90   3.414   2.754  11.085  1.1159  1.1401  1.0361
    6MPD2    H2   91   3.211   3.056  11.275  2.1714 -0.0403  0.1405
    6MPD2    H3   92   3.405   2.968  11.156 -0.2405  1.2661 -2.7982
    6MPD2     N   93   3.223   2.548  11.153  0.4015 -0.2457 -0.1848
    6MPD2    H5   94   3.136   2.502  11.178  0.4252 -0.0953  0.1629
    6MPD2    N1   95   3.001   2.917  11.355 -0.5296 -0.1298  0.0681
    6MPD2    H7   96   3.024   3.005  11.399 -1.7622 -0.0772  0.6221
    7TCq1    O1   97   0.441   2.631  13.893 -0.0057 -0.0449  0.3664
    7TCq1    C1   98   0.503   2.630  14.018  0.2503 -0.0095  0.0029
    7TCq1    O2   99   0.481   2.721  14.101 -0.1124 -0.2015  0.4615
    7TCq1    C2  100   0.635   2.562  14.012  0.2256 -0.1489 -0.3318
    7TCq1    C3  101   0.736   2.607  14.091  0.4043  0.0724 -1.1922
    7TCq1    C4  102   0.854   2.544  14.090  0.0330  0.6379 -0.0402
    7TCq1    C5  103   0.878   2.439  14.005 -0.4609 -0.2519 -0.2818
    7TCq1    C6  104   0.776   2.395  13.923 -0.0616  0.2840 -0.4124
    7TCq1    C7  105   0.650   2.447  13.934  0.1460 -0.8772  0.0094
    7TCq1    C8  106   0.816   2.327  13.802 -0.1754  0.4682  0.0324
    7TCq1    O4  107   0.917   2.366  13.731  0.3664  0.3837  0.0572
    7TCq1    C9  108   0.966   2.592  14.164  0.2064  0.0407 -0.4197
    7TCq1    O5  109   1.064   2.514  14.176 -0.8126 -0.1953  0.3075
    7TCq1    O6  110   0.954   2.704  14.216  0.3233 -0.4012  0.3166
    7TCq1    H1  111   0.486   2.585  13.819  0.1385  0.1175  0.3548
    7TCq1    H2  112   0.722   2.700  14.146 -1.1540  0.2893 -1.9410
    7TCq1    H3  113   0.976   2.400  13.982 -0.5777  1.2962 -3.3664
    7TCq1    H4  114   0.566   2.404  13.881 -0.5731  0.4538  0.0597
    8MPD2     C  115   0.693   1.996  13.440 -0.3055  0.0957  0.0480
    8MPD2    C1  116   0.588   2.003  13.533  0.3232  0.8330 -0.1369
    8MPD2    C2  117   0.602   2.076  13.652  0.3587  0.0117  0.2406
    8MPD2    C3  118   0.719   2.152  13.659 -0.1384  0.8137 -0.5458
    8MPD2    C4  119   0.821   2.149  13.569  0.2442  0.0583 -0.3991
    8MPD2    C5  120   0.808   2.063  13.464  0.5485 -0.2199 -0.6154
    8MPD2     H  121   0.528   2.072  13.731 -0.0039 -0.9248 -0.1441
    8MPD2    H1  122   0.914   2.203  13.577  0.2322 -0.0086  0.2073
    8MPD2    H2  123   0.688   1.946  13.344  2.7790  1.3471 -0.7718
    8MPD2    H3  124   0.886   2.050  13.390  0.2768 -2.0007 -0.5842
    8MPD2     N  125   0.716   2.242  13.766 -0.3003 -0.1641  0.5820
    8MPD2    H5  126   0.634   2.238  13.827 -1.4543  2.3316 -0.7966
    8MPD2    N1  127   0.476   1.913  13.519 -0.1681  0.1995  0.0852
    8MPD2    H7  128   0.399   1.924  13.584  0.0779  0.5613  0.3187
    9TCq1    O1  129   3.361   0.592  10.327  0.3391 -0.0193  0.5960
    9TCq1    C1  130   3.455   0.559  10.412  0.3076 -0.4827 -0.2968
    9TCq1    O2  131   3.572   0.596  10.395 -0.2516  0.3585  0.4933
    9TCq1    C2  132   3.394   0.546  10.544  0.1684  0.1329 -0.4600
    9TCq1    C3  133   3.304   0.447  10.565 -0.4369 -0.8619 -0.5607
    9TCq1    C4  134   3.231   0.440  10.681  0.1231  0.3264  0.8409
    9TCq1    C5  135   3.252   0.539  10.777 -0.5550  1.0087 -0.8164
    9TCq1    C6  136   3.334   0.646  10.743  0.6761  0.3041 -0.1340
    9TCq1    C7  137   3.405   0.651  10.630 -0.4235  0.5569 -0.2249
    9TCq1    C8  138   3.353   0.747  10.842 -0.3900 -0.3713 -0.3327
    9TCq1    O4  139   3.457   0.809  10.861 -0.3295  0.3486  0.1722
    9TCq1    C9  140   3.152   0.328  10.723 -0.3925 -0.4937 -0.4082
    9TCq1    O5  141   3.099   0.335  10.840 -0.2539 -0.0782  0.0215
    9TCq1    O6  142   3.159   0.218  10.659  0.4004 -0.3420 -0.5562
    9TCq1    H1  143   3.273   0.554  10.345  0.0667  0.9404  1.2962
    9TCq1    H2  144   3.291   0.373  10.488  1.7516 -1.2723 -0.5262
    9TCq1    H3  145   3.200   0.528  10.872  0.1027  0.0706 -0.5637
    9TCq1    H4  146   3.469   0.734  10.603  1.6258 -0.7331  0.6963
   10MPD2     C  147   3.305   0.931  11.072  0.3771  0.7377  0.3516
   10MPD2    C1  148   3.211   0.839  11.026  0.4846  0.2525  0.2419
   10MPD2    C2  149   3.083   0.850  11.074 -0.1272 -0.0155  0.8269
   10MPD2    C3  150   3.044   0.946  11.166  0.5321 -0.6499 -0.4261
   10MPD2    C4  151   3.137   1.034  11.216  0.1052 -0.5866  0.0377
   10MPD2    C5  152   3.265   1.023  11.169  0.1558  0.1798 -0.0129
   10MPD2     H  153   3.016   0.773  11.036  0.1245  0.0848  0.1862
   10MPD2    H1  154   3.107   1.115  11.282  0.7148 -0.8147  0.5917
   10MPD2    H2  155   3.407   0.924  11.035 -0.1172 -1.7932 -0.4876
   10MPD2    H3  156   3.342   1.089  11.208 -1.4355  2.5273 -0.8015
   10MPD2     N  157   2.913   0.953  11.220  0.1673 -0.2957  0.5374
   10MPD2    H5  158   2.896   1.008  11.303 -0.2119  2.1844 -1.1782
   10MPD2    N1  159   3.245   0.739  10.931 -0.3957  0.2471  0.2022
   10MPD2    H7  160   3.172   0.674  10.905  0.4893 -1.0749  1.0188
   11TCq1    O1  161   3.945   1.125  14.030  0.0350  0.2425 -0.7045
   11TCq1    C1  162   3.822   1.167  13.995  0.3369 -0.4909 -1.3170
   11TCq1    O2  163   3.751   1.098  13.917  0.2555 -0.3724 -0.3177
   11TCq1    C2  164   3.773   1.226  14.114  0.4847 -0.5149  0.0689
   11TCq1    C3  165   3.854   1.303  14.192  0.8717  0.0194  0.1967
   11TCq1    C4  166   3.803   1.340  14.314 -0.7343 -0.2466  0.2387
   11TCq1    C5  167   3.680   1.302  14.355  0.7425 -0.7544  0.3092
   11TCq1    C6  168   3.612   1.226  14.276  0.4582  1.0704 -0.1746
   11TCq1    C7  169   3.651   1.189  14.152 -0.2199 -0.1748 -0.8367
   11TCq1    C8  170   3.483   1.185  14.329  0.9343 -0.8779  0.5717
   11TCq1    O4  171   3.434   1.256  14.413 -0.2010  0.4809  0.1216
   11TCq1    C9  172   3.884   1.422  14.400 -0.6710 -0.2138 -0.2768
   11TCq1    O5  173   3.833   1.477  14.498 -0.5794 -0.2583  0.2929
   11TCq1    O6  174   4.006   1.433  14.373 -0.1450  0.5657  0.2042
   11TCq1    H1  175   3.980   1.163  14.113 -0.3212  0.3106 -0.5847
   11TCq1    H2  176   3.945   1.346  14.151  1.8779  0.5581  2.9840
   11TCq1    H3  177   3.648   1.335  14.454 -0.9948  1.6184 -1.0300
   11TCq1    H4  178   3.599   1.125  14.081 -0.0677  0.6387 -1.6932
   12MPD2     C  179   3.224   1.056  14.380  0.4203  0.4895 -0.5886
   12MPD2    C1  180   3.304   1.024  14.274  0.2846 -0.3598  0.0722
   12MPD2    C2  181   3.258   0.934  14.176 -0.6271  0.4020  0.2004
   12MPD2    C3  182   3.128   0.884  14.187 -0.4922  0.6581  0.1448
   12MPD2    C4  183   3.052   0.907  14.300  0.6633 -0.2276 -0.5292
   12MPD2    C5  184   3.105   0.997  14.393 -0.2144 -0.2888  0.1270
   12MPD2     H  185   3.326   0.913  14.095  0.6145 -1.9441  1.8288
   12MPD2    H1  186   2.950   0.871  14.313 -0.4352  2.8766 -0.3621
   12MPD2    H2  187   3.244   1.120  14.465  0.5598  0.1286 -0.3507
   12MPD2    H3  188   3.046   1.017  14.481 -1.6765 -0.0472 -0.9003
   12MPD2     N  189   3.081   0.798  14.085  0.1719 -0.3044 -0.4233
   12MPD2    H5  190   3.145   0.769  14.012 -0.5376  0.4610 -1.3419
   12MPD2    N1  191   3.429   1.082  14.257 -0.4119  0.3413  0.1944
   12MPD2    H7  192   3.499   1.056  14.189 -1.3313 -2.2862  0.2494
   13TCq1    O1  193   1.663   4.274  10.728 -0.4109  0.3931 -0.5684
   13TCq1    C1  194   1.725   4.369  10.788  0.6866 -0.1962 -0.2583
   13TCq1    O2  195   1.718   4.398  10.909 -0.3158  0.0757 -0.3530
   13TCq1    C2  196   1.748   4.457  10.682  0.4220  0.1263 -0.6906
   13TCq1    C3  197   1.825   4.414  10.577  0.1058  0.2558 -0.4587
   13TCq1    C4  198   1.897   4.506  10.507 -0.5191  0.0835  0.0852
   13TCq1    C5  199   1.903   4.636  10.546  0.9840 -0.0596 -0.0054
   13TCq1    C6  200   1.821   4.676  10.650  0.4616 -0.6625 -0.4539
   13TCq1    C7  201   1.737   4.588  10.711 -1.1675  0.8233 -0.3606
   13TCq1    C8  202   1.831   0.080  10.718 -1.0716 -0.3183 -0.0395
   13TCq1    O4  203   1.775   0.087  10.825  0.1684 -0.2953 -0.4260
   13TCq1    C9  204   1.977   4.466  10.396 -0.5292  0.0748  0.6677
   13TCq1    O5  205   2.000   4.345  10.379 -0.6867  0.3679 -0.5267
   13TCq1    O6  206   2.039   4.558  10.337  0.3335  0.1761  0.6722
   13TCq1    H1  207   1.680   4.279  10.631 -1.0823  0.6952 -0.6730
   13TCq1    H2  208   1.834   4.311  10.545  0.1678 -0.0944  0.6811
   13TCq1    H3  209   1.961   4.711  10.492 -1.2491  1.3756 -0.4327
   13TCq1    H4  210   1.686   4.606  10.805  0.1065  0.6928  0.3520
   14MPD2     C  211   2.077   0.339  10.632  0.7388  0.1011 -0.3760
   14MPD2    C1  212   1.983   0.278  10.709 -0.6123 -0.0270  0.3257
   14MPD2    C2  213   1.933   0.349  10.823  0.0400  1.0251 -0.2852
   14MPD2    C3  214   1.970   0.480  10.856 -0.3316 -0.2875  0.0999
   14MPD2    C4  215   2.071   0.538  10.779 -0.5133  0.1855  1.0743
   14MPD2    C5  216   2.117   0.471  10.663 -0.4476 -0.3563 -0.6486
   14MPD2     H  217   1.855   0.300  10.879 -0.0283 -1.9203 -2.9291
   14MPD2    H1  218   2.108   0.635  10.811  1.0826 -0.0828  0.0533
   14MPD2    H2  219   2.129   0.299  10.546  0.5615  0.8101 -0.8147
   14MPD2    H3  220   2.194   0.521  10.605  2.0794 -0.2714  2.7658
   14MPD2     N  221   1.923   0.543  10.972 -0.3693  0.4546  0.3091
   14MPD2    H5  222   1.859   0.490  11.030  0.3813  1.0010  1.6159
   14MPD2    N1  223   1.938   0.151  10.664  0.5983 -0.3405 -0.6146
   14MPD2    H7  224   1.973   0.120  10.574  1.9811 -2.1790  0.5825
   15TCq1    O1  225   3.816   0.409   1.844  0.1072 -0.1165 -0.2935
   15TCq1    C1  226   3.794   0.393   1.713 -0.3570  0.4341 -0.9857
   15TCq1    O2  227   3.689   0.405   1.652 -0.5500  0.1415  0.9718
   15TCq1    C2  228   3.909   0.323   1.656 -0.4302 -0.8976 -0.2057
   15TCq1    C3  229   4.034   0.368   1.698 -0.4494  0.0870  0.7280
   15TCq1    C4  230   4.144   0.316   1.638  0.2385 -0.4430  0.1367
   15TCq1    C5  231   4.127   0.212   1.547  0.1852 -0.3924  0.6198
   15TCq1    C6  232   4.002   0.181   1.504  0.2453 -0.0436  0.1715
   15TCq1    C7  233   3.891   0.234   1.557  0.1639  0.4275  0.6279
   15TCq1    C8  234   3.989   0.070   1.411  0.3537 -1.0557 -0.0371
   15TCq1    O4  235   4.088   0.005   1.379  0.4033  0.1938 -0.0334
   15TCq1    C9  236   4.262   0.372   1.670  0.3750 -0.4104  0.3208
   15TCq1    O5  237   4.354   0.311   1.610  0.2246  0.8370  0.2538
   15TCq1    O6  238   4.273   0.443   1.778 -0.5049 -0.0879  0.3700
   15TCq1    H1  239   3.904   0.368   1.857  0.1985  0.6597  1.5799
   15TCq1    H2  240   4.048   0.447   1.771 -3.9334 -0.4353  1.9171
   15TCq1    H3  241   4.217   0.176   1.499 -0.4929 -0.2115 -0.7833
   15TCq1    H4  242   3.788   0.210   1.533 -0.2231  1.1338  1.5981
   16MPD2     C  243   3.720   4.709   1.180 -0.2456  0.3550 -0.1317
   16MPD2    C1  244   3.825   4.682   1.264 -0.2744  0.7516  0.5593
   16MPD2    C2  245   3.892   4.561   1.256 -0.3257  0.1174 -0.2030
   16MPD2    C3  246   3.852   4.463   1.166 -0.0057 -0.3662  0.7882
   16MPD2    C4  247   3.737   4.492   1.089  0.2806 -0.1244 -0.1668
   16MPD2    C5  248   3.670   4.615   1.096 -0.7068 -0.8233 -0.0794
   16MPD2     H  249   3.967   4.536   1.330 -0.0473  0.8096 -0.2523
   16MPD2    H1  250   3.711   4.413   1.019  2.9193 -0.0624 -1.2104
   16MPD2    H2  251   3.669   0.080   1.180  0.0243  0.4989  0.1482
   16MPD2    H3  252   3.581   4.644   1.042 -0.9164 -2.4910 -0.6152
   16MPD2     N  253   3.906   4.335   1.176 -0.1042  0.1163 -0.1037
   16MPD2    H5  254   3.992   4.337   1.230 -0.7026  0.5468  0.8222
   16MPD2    N1  255   3.870   0.063   1.343  0.2279  0.3842 -0.5497
   16MPD2    H7  256   3.807   0.141   1.359  2.7946  2.2202  0.7601
   17TCq1    O1  257   2.526   4.470  12.103 -0.7568 -0.2658 -0.2354
   17TCq1    C1  258   2.489   4.576  12.029  0.8066  0.4793 -0.5473
   17TCq1    O2  259   2.370   4.610  12.015  0.2189 -0.3791 -0.1685
   17TCq1    C2  260   2.591   4.579  11.924  0.2266  0.2434 -0.0970
   17TCq1    C3  261   2.713   4.518  11.956 -0.0024 -0.2012  0.6177
   17TCq1    C4  262   2.774   4.456  11.854 -0.7196  0.9089  0.0976
   17TCq1    C5  263   2.729   4.463  11.724 -0.3035  0.1615 -0.0558
   17TCq1    C6  264   2.611   4.534  11.694 -0.6728 -0.1311 -0.4267
   17TCq1    C7  265   2.538   4.592  11.801  0.8853 -1.1822  0.3625
   17TCq1    C8  266   2.559   4.515  11.559  0.4595 -0.6663 -0.1316
   17TCq1    O4  267   2.437   4.511  11.562 -0.0342 -0.1865 -0.8729
   17TCq1    C9  268   2.895   4.372  11.886  0.4811 -0.8438  0.5558
   17TCq1    O5  269   2.904   4.319  11.999  0.0728 -0.1028 -0.3520
   17TCq1    O6  270   2.975   4.367  11.793  0.5411  0.2311 -0.1376
   17TCq1    H1  271   2.619   4.445  12.083 -0.3703  1.1090 -0.1625
   17TCq1    H2  272   2.764   4.517  12.052 -0.4409 -1.7219  0.8329
   17TCq1    H3  273   2.791   4.413  11.651 -2.4732  1.5100 -2.8294
   17TCq1    H4  274   2.448   4.651  11.788  0.7645 -1.2933  0.6914
   18MPD2     C  275   2.495   4.505  11.270 -0.7432 -1.2726 -0.0843
   18MPD2    C1  276   2.622   4.530  11.320 -0.2162 -0.2614 -0.0629
   18MPD2    C2  277   2.734   4.535  11.236  0.6395 -0.3339  0.8776
   18MPD2    C3  278   2.715   4.518  11.100  0.3585  0.4269  0.2866
   18MPD2    C4  279   2.594   4.496  11.049  0.0523  0.3626  0.3952
   18MPD2    C5  280   2.483   4.491  11.136  0.1944 -0.2812 -0.1140
   18MPD2     H  281   2.836   4.552  11.270  1.4901 -0.3095 -1.6620
   18MPD2    H1  282   2.577   4.479  10.944  0.9771  0.6717  0.1998
   18MPD2    H2  283   2.406   4.503  11.331  0.4562 -1.4919  1.6403
   18MPD2    H3  284   2.383   4.475  11.098  1.1930 -2.4589 -1.8390
   18MPD2     N  285   2.814   4.525  10.996  0.2622 -0.0539 -0.2040
   18MPD2    H5  286   2.783   4.524  10.900  1.2222  4.0539 -0.5702
   18MPD2    N1  287   2.652   4.532  11.456  0.7980  0.0960 -0.0719
   18MPD2    H7  288   2.746   4.543  11.492  1.0067  3.7466 -1.7204
   19TMC2    C1  289   4.539   0.790  13.694  0.0388  0.2733  0.0047
   19TMC2    C2  290   4.531   0.882  13.601  0.9908 -0.6451  0.4034
   19TMC2    C3  291   4.414   0.876  13.518  0.1897 -0.0407 -0.5711
   19TMC2    C4  292   4.450   0.687  13.708  0.3355 -0.1257  0.1405
   19TMC2    C5  293   4.350   0.679  13.621 -0.4417 -0.2929  0.4455
   19TMC2    C6  294   4.327   0.771  13.521 -0.4947 -0.4370  0.1433
   19TMC2     C  295   4.663   0.774  13.768 -0.2041 -0.1442 -0.3758
   19TMC2     O  296   0.038   0.830  13.720 -0.0053 -0.0087  0.0827
   19TMC2     H  297   4.613   0.953  13.595 -0.0451  0.3957 -1.5261
   19TMC2    H1  298   4.449   0.613  13.787 -1.9372  0.7429  0.9346
   19TMC2    H2  299   4.244   0.770  13.451  0.1042  1.0912 -0.5915
   19TMC2    C7  300   4.259   0.570  13.654 -0.5240  0.2439 -0.2692
   19TMC2    C8  301   4.396   0.969  13.409  0.1182 -0.3034 -1.2916
   19TMC2    O1  302   4.242   0.538  13.771  0.0989  0.3498 -0.6178
   19TMC2    O2  303   4.330   0.947  13.307  0.4624  0.0075  0.2459
   19TMC2    O5  304   4.438   1.091  13.457  1.0455 -0.5387 -0.3804
   19TMC2    H5  305   4.481   1.092  13.545 -1.0625  0.6731  0.6515
   20MPD2     C  306   0.129   0.768  13.984 -0.5784  0.0607  0.0261
   20MPD2    C1  307   0.023   0.686  13.986  0.2171  0.6940 -0.3426
   20MPD2    C2  308   4.718   0.593  14.086  0.3312  0.2024  0.4229
   20MPD2    C3  309   0.081   0.580  14.192  0.5295  0.1587 -1.0006
   20MPD2    C4  310   0.185   0.670  14.194 -0.0619 -0.5665 -0.0195
   20MPD2    C5  311   0.214   0.755  14.092  0.1568 -0.7709  0.0433
   20MPD2     H  312   4.632   0.528  14.076 -0.7093  1.3609  1.8916
   20MPD2    H1  313   0.247   0.668  14.283  1.0834  1.8974 -0.7802
   20MPD2    H2  314   0.160   0.839  13.908 -2.6266 -1.1331 -1.9364
   20MPD2    H3  315   0.299   0.823  14.088 -1.1763  1.0030  1.6790
   20MPD2     N  316   0.062   0.497  14.302  0.0937  0.3381 -0.5918
   20MPD2    H5  317   0.137   0.489  14.370  0.8077 -0.5381 -1.4756
   20MPD2    N1  318   4.655   0.697  13.884 -0.0678 -0.3833  0.0146
   20MPD2    H7  319   4.569   0.647  13.903  0.7625 -1.8013  0.0355
   21MPD2     C  320   2.242   0.968  14.268 -0.2816  0.3943 -0.3561
   21MPD2    C1  321   2.186   0.870  14.195  0.2828 -0.0318  0.0274
   21MPD2    C2  322   2.063   0.833  14.215  0.0332 -0.0082 -0.2106
   21MPD2    C3  323   1.979   0.904  14.302  0.3581  0.4640  0.1740
   21MPD2    C4  324   2.025   1.012  14.361  0.4445 -0.4665 -0.1385
   21MPD2    C5  325   2.160   1.041  14.348  0.7701  0.5010  0.2853
   21MPD2     H  326   2.027   0.745  14.163 -1.7094  0.6723 -0.1492
   21MPD2    H1  327   1.964   1.056  14.439  1.7487  0.1232  0.5498
   21MPD2    H2  328   2.340   1.013  14.253 -0.0521 -0.7410 -2.2323
   21MPD2    H3  329   2.198   1.126  14.404  1.5501 -0.1355  0.7161
   21MPD2     N  330   1.849   0.864  14.327  0.1844  0.2185 -0.2471
   21MPD2    H5  331   1.798   0.920  14.394  0.0345 -1.0509  0.7166
   21MPD2    N1  332   2.261   0.794  14.099  0.1768 -0.5280 -0.3585
   21MPD2    H7  333   2.226   0.705  14.066  0.2526 -0.3367 -0.9548
   22TCq2    C1  334   1.786   0.751  14.277  0.2350  0.2863  0.5250
   22TCq2    O2  335   1.826   0.656  14.212  0.6463  0.0908 -0.3106
   22TCq2    C2  336   1.640   0.763  14.280  0.1629  0.9446 -0.3581
   22TCq2    C3  337   1.576   0.731  14.167  0.2099  0.0847 -0.6938
   22TCq2    C4  338   1.448   0.784  14.152  0.3658 -0.3775  0.4821
   22TCq2    C5  339   1.385   0.856  14.246 -0.8496  0.0166  0.4366
   22TCq2    C6  340   1.457   0.880  14.358 -0.1034  0.1980 -0.2975
   22TCq2    C7  341   1.581   0.835  14.379 -0.2431  0.6861 -0.1994
   22TCq2    C8  342   1.410   0.977  14.451 -0.1526 -0.8929  0.4055
   22TCq2    O4  343   1.482   1.009  14.542  0.6724 -0.1013  0.3851
   22TCq2    C9  344   1.384   0.773  14.025 -0.2860  0.8704 -0.2955
   22TCq2    O5  345   1.269   0.826  14.020  0.6277  0.7828 -0.3974
   22TCq2    O6  346   1.428   0.684  13.951 -0.1508 -0.1064 -0.4070
   22TCq2    H2  347   1.620   0.667  14.091 -0.3766  1.7500 -2.4188
   22TCq2    H3  348   1.284   0.889  14.225 -1.2072 -2.0996 -1.1183
   22TCq2    H4  349   1.644   0.867  14.460 -0.1669  0.1156 -0.0354
   23MPD2     C  350   3.485   1.968  14.498 -0.3192  0.2867  0.1897
   23MPD2    C1  351   3.410   1.958  14.618  0.2748  1.0627  0.1266
   23MPD2    C2  352   3.319   2.063  14.636 -0.1897  0.6233 -0.1774
   23MPD2    C3  353   3.298   2.164  14.549  0.1327 -0.4982  0.7312
   23MPD2    C4  354   3.371   2.158  14.427  0.2033 -0.8609  0.1085
   23MPD2    C5  355   3.466   2.066  14.401  0.8651 -0.1570 -0.0385
   23MPD2     H  356   3.258   2.057  14.726 -1.8771 -0.2230 -1.3918
   23MPD2    H1  357   3.354   2.243  14.362  0.7120 -0.2885  0.7273
   23MPD2    H2  358   3.566   1.898  14.483 -0.8676 -0.7009  1.8297
   23MPD2    H3  359   3.522   2.061  14.308 -0.8495 -1.3277 -0.9937
   23MPD2     N  360   3.199   2.258  14.565 -0.2437 -0.2911 -0.0715
   23MPD2    H5  361   3.181   2.325  14.490 -0.6834  1.2124  1.3895
   23MPD2    N1  362   3.440   1.877  14.730 -0.5839  0.1061 -0.3248
   23MPD2    H7  363   3.404   1.903  14.821 -2.9283  0.3154 -1.3281
   24TCq2    C1  364   3.137   2.281  14.685  0.3474 -0.4053  0.3092
   24TCq2    O2  365   3.173   2.255  14.803  0.2306  0.5555  0.4808
   24TCq2    C2  366   3.013   2.349  14.663  1.0183 -0.2977 -0.0116
   24TCq2    C3  367   2.982   2.388  14.539 -0.1815 -0.0784 -0.0559
   24TCq2    C4  368   2.846   2.407  14.511 -0.3869 -0.4111  0.4055
   24TCq2    C5  369   2.751   2.385  14.605 -0.1288  0.5278 -0.0962
   24TCq2    C6  370   2.792   2.361  14.734  0.1597 -0.7157 -0.2617
   24TCq2    C7  371   2.928   2.350  14.768 -0.3696 -0.0315 -0.6022
   24TCq2    C8  372   2.698   2.323  14.832  0.5841 -0.8504  0.4225
   24TCq2    O4  373   2.750   2.274  14.931 -0.1781  0.1344 -0.2821
   24TCq2    C9  374   2.807   2.444  14.383 -0.5223 -0.6834  0.6063
   24TCq2    O5  375   2.898   2.493  14.305 -0.3222  0.0969 -0.3212
   24TCq2    O6  376   2.692   2.427  14.345 -0.7375 -0.3863 -0.0484
   24TCq2    H2  377   3.046   2.403  14.453 -0.8094 -0.8358 -0.6571
   24TCq2    H3  378   2.646   2.403  14.583 -0.4283 -1.6733 -0.4542
   24TCq2    H4  379   2.960   2.320  14.868  1.0717  1.0977 -0.7210
   25TMC2    C1  380   2.042   4.346  11.556 -0.1979 -0.1610 -0.4929
   25TMC2    C2  381   1.996   4.472  11.539  0.1588  0.2464 -0.5142
   25TMC2    C3  382   1.911   4.518  11.630  0.0240 -0.0457 -0.0635
   25TMC2    C4  383   2.017   4.264  11.667 -0.7256  0.0738 -0.4833
   25TMC2    C5  384   1.935   4.330  11.762  0.0896  0.7108  0.4471
   25TMC2    C6  385   1.880   4.448  11.743 -0.3058 -0.3663  0.1820
   25TMC2     C  386   2.109   4.294  11.437 -0.3036  0.3899 -0.1664
   25TMC2     O  387   2.177   4.370  11.365  0.1355  0.3463  0.0992
   25TMC2     H  388   2.029   4.524  11.450  1.0437 -0.4404 -0.5756
   25TMC2    H1  389   2.069   4.170  11.679 -0.5321  0.2510  0.0616
   25TMC2    H2  390   1.819   4.489  11.823 -0.8077 -0.4762 -0.1432
   25TMC2    C7  391   1.922   4.272  11.897  0.2064  0.1252 -0.6080
   25TMC2    C8  392   1.859   4.648  11.624  0.2503  0.1032  0.5416
   25TMC2    O1  393   1.883   4.349  11.984  0.0614 -0.4159  0.1849
   25TMC2    O2  394   1.775   4.687  11.705 -0.2307  0.6604  0.2009
   25TMC2    O5  395   1.963   0.006  11.589  0.4374  0.2447  0.1375
   25TMC2    H5  396   2.042   4.694  11.544  1.3435 -1.1583  2.8722
   26MPD2     C  397   2.098   3.965  11.057 -0.3858 -0.4236  0.0761
   26MPD2    C1  398   2.025   3.915  11.161  0.1754  1.1056 -0.3278
   26MPD2    C2  399   2.022   3.979  11.283  0.4051 -0.9627  0.1317
   26MPD2    C3  400   2.101   4.094  11.298  0.1750 -0.3867 -0.6694
   26MPD2    C4  401   2.181   4.140  11.196  0.6954 -0.0304  0.8436
   26MPD2    C5  402   2.178   4.071  11.076 -0.5937  0.5017  0.3632
   26MPD2     H  403   1.963   3.930  11.360 -0.8304 -2.4428 -1.7552
   26MPD2    H1  404   2.238   4.231  11.211  2.1929 -1.0292  1.2192
   26MPD2    H2  405   2.093   3.927  10.956 -0.5515  1.4565 -0.6218
   26MPD2    H3  406   2.225   4.123  10.993 -0.8295  0.2520  0.0699
   26MPD2     N  407   2.064   4.169  11.412  0.0149  0.6814 -0.4049
   26MPD2    H5  408   1.999   4.130  11.480  0.6446  0.0558 -0.1648
   26MPD2    N1  409   1.955   3.796  11.127 -0.2082 -0.0663  0.1467
   26MPD2    H7  410   1.994   3.745  11.048 -0.4407  3.4017 -2.1755
   27TMC2    C1  411   0.940   1.247  12.093  0.7361 -0.0155  1.1006
   27TMC2    C2  412   0.841   1.274  12.005  0.3421 -0.2615 -0.2055
   27TMC2    C3  413   0.854   1.384  11.923  0.4408  0.1516 -0.4425
   27TMC2    C4  414   1.052   1.326  12.099  0.0022 -0.5668 -0.1081
   27TMC2    C5  415   1.068   1.430  12.014  0.3370  0.6189 -0.1087
   27TMC2    C6  416   0.965   1.463  11.926  0.3154 -0.1484 -0.0689
   27TMC2     C  417   0.921   1.156  12.201 -1.0990 -0.3812 -0.0856
   27TMC2     O  418   1.018   1.102  12.254 -0.0593  0.5381 -0.4692
   27TMC2     H  419   0.745   1.224  12.002 -0.0746  0.4994  0.4613
   27TMC2    H1  420   1.127   1.302  12.174 -0.2018  1.0492  0.6098
   27TMC2    H2  421   0.968   1.550  11.861 -1.2730 -1.2997 -1.6890
   27TMC2    C7  422   1.147   1.545  12.052  0.4354  0.3220 -0.0279
   27TMC2    C8  423   0.756   1.401  11.826 -0.6371  0.0843  0.0707
   27TMC2    O1  424   1.138   1.646  11.987 -0.0110  0.0680 -0.6353
   27TMC2    O2  425   0.785   1.453  11.718 -0.3475 -0.2933  0.0281
   27TMC2    O5  426   0.630   1.388  11.882 -0.5527 -0.3067  0.2985
   27TMC2    H5  427   0.632   1.353  11.974 -1.9260  0.1808  0.5147
   28MPD2     C  428   0.624   0.878  12.517  0.2058  0.0885 -0.1576
   28MPD2    C1  429   0.551   0.992  12.475  0.7012  0.0353  0.1987
   28MPD2    C2  430   0.601   1.076  12.372  0.2670 -0.0155  0.5044
   28MPD2    C3  431   0.732   1.046  12.325  0.0519 -0.5260 -0.0012
   28MPD2    C4  432   0.797   0.929  12.366  0.2858  0.4608  0.1660
   28MPD2    C5  433   0.755   0.855  12.470  0.2630  0.1139  0.3940
   28MPD2     H  434   0.551   1.165  12.336  3.4394  2.2733  1.7584
   28MPD2    H1  435   0.895   0.910  12.325 -0.2770  2.0917 -1.9393
   28MPD2    H2  436   0.584   0.817  12.597  0.8747  0.4660  0.4678
   28MPD2    H3  437   0.814   0.775  12.514  0.6250  0.4507  0.5142
   28MPD2     N  438   0.787   1.140  12.239  0.1088  0.2002  0.1130
   28MPD2    H5  439   0.718   1.204  12.199  0.4337 -0.1677 -1.0306
   28MPD2    N1  440   0.447   1.047  12.545  0.6077 -0.3378 -0.2606
   28MPD2    H7  441   0.420   1.139  12.512  1.3957  0.5214  1.5016
   29MPD2     C  442   4.627   3.590  13.987  0.4058  0.9246 -0.4839
   29MPD2    C1  443   0.037   3.579  14.022 -0.1268  0.2017  0.5196
   29MPD2    C2  444   0.102   3.685  14.088 -0.1777 -0.8138  0.5226
   29MPD2    C3  445   0.030   3.806  14.091  0.0516  0.0658 -0.1022
   29MPD2    C4  446   4.632   3.821  14.041 -0.2241  0.6146 -0.1693
   29MPD2    C5  447   4.562   3.710  14.001 -0.6825 -0.3215  0.3530
   29MPD2     H  448   0.200   3.670  14.131  0.7632 -2.7328 -2.3027
   29MPD2    H1  449   4.571   3.911  14.041 -0.5931  0.3496  1.1095
   29MPD2    H2  450   4.568   3.509  13.945  3.5911 -0.2591 -2.6999
   29MPD2    H3  451   4.459   3.726  13.972 -0.6146  1.0609  0.8750
   29MPD2     N  452   0.083   3.924  14.153  0.0838  0.3622  1.1693
   29MPD2    H5  453   0.026   4.008  14.161  1.1596  1.0720  1.3548
   29MPD2    N1  454   0.110   3.461  14.014 -0.9212 -0.0794 -0.0196
   29MPD2    H7  455   0.197   3.469  14.065  0.0296  1.9774 -1.9096
   30TCq2    C1  456   0.216   3.931  14.198 -0.2412 -1.0166 -0.0798
   30TCq2    O2  457   0.309   3.868  14.149 -0.3463  0.4253  0.0511
   30TCq2    C2  458   0.237   4.057  14.270  1.0424 -0.6982 -0.0049
   30TCq2    C3  459   0.158   4.099  14.375 -1.0951 -0.3629  0.0742
   30TCq2    C4  460   0.195   4.211  14.442  0.1275 -0.5316 -0.3925
   30TCq2    C5  461   0.311   4.282  14.410  0.5548  0.0011  0.3757
   30TCq2    C6  462   0.386   4.235  14.301  0.3821  0.2388  0.0163
   30TCq2    C7  463   0.346   4.122  14.237 -0.2343 -0.3600 -0.2775
   30TCq2    C8  464   0.449   4.329  14.208 -0.2760 -0.2680  0.6650
   30TCq2    O4  465   0.449   4.308  14.087  0.7685  0.1021 -0.0878
   30TCq2    C9  466   0.127   4.243  14.556 -0.3118 -0.5626 -0.1235
   30TCq2    O5  467   0.153   4.343  14.620  0.2251  0.3787 -0.4199
   30TCq2    O6  468   0.048   4.159  14.595  0.9018 -0.3322  0.3388
   30TCq2    H2  469   0.066   4.051  14.404 -0.6266 -1.7758 -0.7958
   30TCq2    H3  470   0.332   4.374  14.464  3.3754 -0.1681 -0.4534
   30TCq2    H4  471   0.400   4.094  14.147  1.7588  1.3594  0.3591
   31MPD2     C  472   2.988   2.678  14.827 -0.4301 -0.5960 -0.0102
   31MPD2    C1  473   2.857   2.700  14.789  0.6831 -0.5822 -0.2500
   31MPD2    C2  474   2.755   2.662  14.876 -1.0246  0.9393 -0.2251
   31MPD2    C3  475   2.781   2.617  15.009 -1.1770  0.1160 -0.0560
   31MPD2    C4  476   2.918   2.601  15.047  0.8674  0.4401  0.4868
   31MPD2    C5  477   3.016   2.624  14.953  0.8368  1.1667 -0.3343
   31MPD2     H  478   2.653   2.671  14.841 -1.0431  3.4107  0.5065
   31MPD2    H1  479   2.952   2.556  15.140  0.2124  0.2542  0.6360
   31MPD2    H2  480   3.067   2.707  14.759 -1.2816  0.8997 -0.3638
   31MPD2    H3  481   3.121   2.616  14.978 -0.3291 -0.1688  3.9988
   31MPD2     N  482   2.683   2.597  15.112 -0.8942  0.3386 -0.2290
   31MPD2    H5  483   2.717   2.570  15.204  0.6599 -0.7673 -1.1415
   31MPD2    N1  484   2.834   2.769  14.659  0.2919 -0.0719  0.2768
   31MPD2    H7  485   2.921   2.804  14.620 -0.4908  1.1848 -0.3289
   32TCq2    C1  486   2.548   2.597  15.089  0.5717  0.4781  0.0280
   32TCq2    O2  487   2.482   2.633  14.991  0.0015  0.8768 -0.8475
   32TCq2    C2  488   2.469   2.559  15.206  0.7211 -0.4262 -0.3567
   32TCq2    C3  489   2.334   2.563  15.207  0.3502  0.2379  0.4683
   32TCq2    C4  490   2.262   2.499  15.305  0.1948  0.1398  0.2046
   32TCq2    C5  491   2.318   2.445  15.414 -0.2739 -0.3914  0.1401
   32TCq2    C6  492   2.451   2.429  15.408 -0.5343 -0.1427 -0.1936
   32TCq2    C7  493   2.530   2.489  15.307  0.4795 -0.0125 -0.2654
   32TCq2    C8  494   2.527   2.364  15.508  0.2513  0.1184  0.0345
   32TCq2    O4  495   2.601   2.278  15.470  0.1610 -0.2083 -0.8831
   32TCq2    C9  496   2.119   2.500  15.297 -0.2178  0.4310 -1.5453
   32TCq2    O5  497   2.057   2.449  15.390  0.0684  0.1260  0.6199
   32TCq2    O6  498   2.065   2.567  15.203 -0.1635  0.1675  0.2201
   32TCq2    H2  499   2.276   2.594  15.121  2.0041 -2.0555 -1.4667
   32TCq2    H3  500   2.260   2.400  15.494  0.9259 -2.7206 -0.3122
   32TCq2    H4  501   2.638   2.487  15.312  0.4437  0.3216  0.6226
   33MPD2     C  502   2.714   4.446  10.395  0.4313  0.0132  0.7691
   33MPD2    C1  503   2.831   4.518  10.394  0.2149  0.5289  0.1485
   33MPD2    C2  504   2.865   4.589  10.281 -0.6129  0.3217  0.6050
   33MPD2    C3  505   2.787   4.570  10.168  0.2875 -0.2229 -0.3256
   33MPD2    C4  506   2.682   4.485  10.166 -0.3907 -0.8662 -0.2680
   33MPD2    C5  507   2.642   4.429  10.280  0.0865 -0.1074 -0.6013
   33MPD2     H  508   2.957   4.647  10.284 -1.0010  0.9729 -0.1007
   33MPD2    H1  509   2.624   4.471  10.076 -1.2788 -0.5343  0.2477
   33MPD2    H2  510   2.676   4.392  10.481  0.8621  1.9599  2.1719
   33MPD2    H3  511   2.556   4.363  10.281  0.4589 -0.5763  0.2080
   33MPD2     N  512   2.829   4.618  10.041 -0.5506  0.2740 -0.2498
   33MPD2    H5  513   2.775   4.587   9.961  0.3879  0.6916 -1.0443
   33MPD2    N1  514   2.895   4.513  10.520 -0.0781 -0.8053  0.6183
   33MPD2    H7  515   2.841   4.475  10.598 -2.0961  1.2773  0.2282
   34TCq2    C1  516   2.919   4.721  10.015 -0.6885  0.2027  0.2890
   34TCq2    O2  517   2.999   0.053  10.087  0.0543 -0.6369 -0.0919
   34TCq2    C2  518   2.932   0.031   9.875 -0.4363  0.2331  0.2896
   34TCq2    C3  519   2.818   0.009   9.792  0.0321  0.5433  0.6438
   34TCq2    C4  520   2.814   0.073   9.672 -0.8736 -0.0990 -0.5307
   34TCq2    C5  521   2.911   0.159   9.642 -0.4287  0.3576 -0.4156
   34TCq2    C6  522   3.019   0.175   9.723  0.1835  0.5244 -0.4819
   34TCq2    C7  523   3.030   0.126   9.845 -0.5888  0.5482  0.1470
   34TCq2    C8  524   3.109   0.289   9.698  0.0914 -0.0861  0.8830
   34TCq2    O4  525   3.200   0.304   9.777 -0.0002  0.0471  0.4024
   34TCq2    C9  526   2.706   0.037   9.577  0.1172 -0.3533  0.1007
   34TCq2    O5  527   2.639   4.657   9.601  0.2141  0.1833 -0.0333
   34TCq2    O6  528   2.702   0.098   9.467 -0.0897  0.1673  0.1399
   34TCq2    H2  529   2.735   4.671   9.821  1.4617 -1.3461  0.5716
   34TCq2    H3  530   2.919   0.193   9.539  0.8400 -0.0908 -0.4675
   34TCq2    H4  531   3.104   0.151   9.919 -1.1069 -2.8688  1.8517
   35MPD2     C  532   0.022   1.737  11.497  0.2904 -0.0832 -0.4791
   35MPD2    C1  533   4.699   1.605  11.513 -0.2658 -0.3252  1.0591
   35MPD2    C2  534   4.629   1.553  11.403  0.2483 -0.2686  0.3201
   35MPD2    C3  535   4.610   1.615  11.281 -0.0607  0.2530  0.3080
   35MPD2    C4  536   4.662   1.742  11.271  0.1387  0.7150 -0.2048
   35MPD2    C5  537   0.003   1.799  11.376 -0.4588  0.4397 -0.3547
   35MPD2     H  538   4.569   1.465  11.421  0.1394 -0.5650 -1.4689
   35MPD2    H1  539   4.655   1.802  11.181  2.7230 -0.5770 -1.2469
   35MPD2    H2  540   0.071   1.793  11.577 -0.6380  0.4392 -0.2698
   35MPD2    H3  541   0.045   1.897  11.360  1.5832 -0.2771  0.7086
   35MPD2     N  542   4.554   1.559  11.156  0.5478  0.4609  0.0716
   35MPD2    H5  543   4.572   1.609  11.070 -1.3541 -0.2424 -0.7351
   35MPD2    N1  544   4.709   1.544  11.642  0.1062 -0.4619  0.3868
   35MPD2    H7  545   0.041   1.596  11.708 -0.2129 -0.6679  0.8196
   36TCq2    C1  546   4.474   1.447  11.149  0.0217  0.5923  0.6945
   36TCq2    O2  547   4.421   1.380  11.238  0.1743 -0.0294  0.3738
   36TCq2    C2  548   4.445   1.411  11.005  0.5117  1.3456  0.4562
   36TCq2    C3  549   4.526   1.455  10.905  0.4702  0.3389  1.1867
   36TCq2    C4  550   4.494   1.428  10.778  0.4084 -0.1503  0.6084
   36TCq2    C5  551   4.381   1.365  10.748 -0.2533  0.8955  0.5545
   36TCq2    C6  552   4.295   1.345  10.847  0.5929  0.0185  0.0638
   36TCq2    C7  553   4.322   1.363  10.977  0.4979  0.2495  0.4379
   36TCq2    C8  554   4.187   1.248  10.820  0.3530  0.4080 -0.3349
   36TCq2    O4  555   4.207   1.185  10.720 -0.4950  0.2619  0.0448
   36TCq2    C9  556   4.584   1.465  10.676  0.6459  0.2511 -0.0565
   36TCq2    O5  557   4.660   1.557  10.706  0.0897  0.0357  0.4062
   36TCq2    O6  558   4.582   1.413  10.563  0.0099 -0.0457  0.4972
   36TCq2    H2  559   4.629   1.478  10.927  1.1663 -1.1887 -0.4400
   36TCq2    H3  560   4.350   1.357  10.644  2.3459  1.1969 -0.2464
   36TCq2    H4  561   4.268   1.301  11.048 -0.4969  2.2501  1.4265
   37TMC2    C1  562   1.911   1.653  12.050 -0.3154 -0.1144  0.5667
   37TMC2    C2  563   1.785   1.633  11.999  0.1675  0.0808 -0.3969
   37TMC2    C3  564   1.765   1.654  11.863 -0.1116  0.1070  0.1437
   37TMC2    C4  565   2.016   1.687  11.972  0.1908  0.8400  0.0565
   37TMC2    C5  566   1.995   1.717  11.839 -0.6189 -0.2776 -0.7957
   37TMC2    C6  567   1.873   1.697  11.786 -0.2136  0.1535 -0.2148
   37TMC2     C  568   1.931   1.649  12.191  0.0224  0.4724 -0.1202
   37TMC2     O  569   1.836   1.593  12.247 -0.4863  0.3259  0.4565
   37TMC2     H  570   1.699   1.617  12.064 -0.5016 -0.7713 -1.5044
   37TMC2    H1  571   2.121   1.681  11.998  0.2255 -2.8402 -0.9303
   37TMC2    H2  572   1.858   1.725  11.683  1.3024 -1.2009 -0.7872
   37TMC2    C7  573   2.097   1.799  11.779 -0.0775  0.2243 -0.1338
   37TMC2    C8  574   1.629   1.664  11.804  0.2086  0.0351 -0.4442
   37TMC2    O1  575   2.171   1.856  11.850 -0.3452  0.4515 -0.3511
   37TMC2    O2  576   1.596   1.744  11.720  0.0014 -0.5054 -0.4878
   37TMC2    O5  577   1.553   1.563  11.852 -0.2578  0.1534  0.7690
   37TMC2    H5  578   1.592   1.500  11.916 -0.8596  0.5400  1.4995
   38MPD2     C  579   2.154   1.753  12.639 -0.8849 -0.3840  0.5179
   38MPD2    C1  580   2.233   1.803  12.538  0.0169 -0.6477 -0.3720
   38MPD2    C2  581   2.194   1.784  12.409 -0.5472 -0.4187 -0.4892
   38MPD2    C3  582   2.079   1.712  12.381 -0.1207  0.4184 -0.0125
   38MPD2    C4  583   1.997   1.668  12.480  0.2908 -0.8173  0.2357
   38MPD2    C5  584   2.037   1.693  12.607 -0.0277 -0.1141 -0.4115
   38MPD2     H  585   2.254   1.815  12.325  0.0292 -1.9497 -0.6361
   38MPD2    H1  586   1.898   1.630  12.458 -0.7398  1.6706  0.5479
   38MPD2    H2  587   2.179   1.771  12.743  0.9123  0.5867 -0.0900
   38MPD2    H3  588   1.976   1.663  12.692 -0.3736  0.6637 -0.3848
   38MPD2     N  589   2.050   1.694  12.240  0.4958 -0.5249  0.3565
   38MPD2    H5  590   2.124   1.725  12.177  1.3137 -1.1806  0.9867
   38MPD2    N1  591   2.343   1.888  12.555  0.1854  0.0650 -0.0351
   38MPD2    H7  592   2.398   1.901  12.471 -0.1560  2.3783  0.0835
   39MPD2     C  593   4.717   3.651   1.751 -0.2166 -0.5074 -0.0420
   39MPD2    C1  594   4.655   3.761   1.812 -0.2027 -0.2590  1.0112
   39MPD2    C2  595   4.523   3.780   1.784  0.3554 -0.6587 -0.0502
   39MPD2    C3  596   4.453   3.707   1.691 -0.2695 -0.6550  0.7059
   39MPD2    C4  597   4.524   3.619   1.611 -0.1175  0.3498 -0.1251
   39MPD2    C5  598   4.653   3.588   1.652  0.5863 -0.0323 -0.0163
   39MPD2     H  599   4.468   3.859   1.833  0.1446 -1.5522  1.1521
   39MPD2    H1  600   4.474   3.546   1.548 -0.1434 -2.0143  2.6155
   39MPD2    H2  601   0.085   3.606   1.782 -1.2747 -1.9989  0.9822
   39MPD2    H3  602   4.700   3.509   1.594  0.8203 -1.1063  1.6143
   39MPD2     N  603   4.320   3.724   1.651  0.2895 -0.1303  0.0512
   39MPD2    H5  604   4.305   3.684   1.559  0.2042 -0.5528  0.2490
   39MPD2    N1  605   0.007   3.836   1.899 -0.2962  0.0177  0.5547
   39MPD2    H7  606   0.108   3.821   1.896 -0.5823 -1.5164 -1.3016
   40TCq2    C1  607   4.676   3.931   1.972  0.0698 -1.3581 -0.1619
   40TCq2    O2  608   4.560   3.949   2.010 -0.0795  0.2028  0.0739
   40TCq2    C2  609   0.053   4.003   2.047 -0.4714  0.1086  0.2327
   40TCq2    C3  610   0.023   4.036   2.176  0.3586  0.2764 -0.1905
   40TCq2    C4  611   0.131   4.076   2.253 -0.7549  0.1457  0.3350
   40TCq2    C5  612   0.255   4.077   2.207 -0.4849 -0.0454 -0.1438
   40TCq2    C6  613   0.286   4.034   2.082  0.2407 -1.1007 -0.2129
   40TCq2    C7  614   0.185   3.991   1.997  0.0816 -0.0077 -0.6860
   40TCq2    C8  615   0.411   4.076   2.029 -0.3688  0.0041 -0.1077
   40TCq2    O4  616   0.503   4.085   2.111 -0.0305 -0.0089 -0.1339
   40TCq2    C9  617   0.117   4.101   2.392  0.2745 -0.5001  0.0462
   40TCq2    O5  618   4.721   4.104   2.432 -0.1830  0.2781  0.2115
   40TCq2    O6  619   0.211   4.145   2.464  0.1530  0.0495  0.6096
   40TCq2    H2  620   4.652   4.009   2.219  0.5821  0.6746  0.5499
   40TCq2    H3  621   0.333   4.109   2.275 -1.0663  0.7526  0.1528
   40TCq2    H4  622   0.207   3.963   1.895  2.1986  2.1768 -0.8207
   41TMC2    C1  623   4.357   2.269  13.498 -0.3544 -0.1007 -0.2379
   41TMC2    C2  624   4.234   2.280  13.446 -0.7065  0.2509  0.7184
   41TMC2    C3  625   4.213   2.233  13.320  0.8497 -0.4685 -0.1319
   41TMC2    C4  626   4.458   2.205  13.435 -0.0629 -0.3383 -0.3981
   41TMC2    C5  627   4.436   2.148  13.314  0.3931 -0.2662  0.1405
   41TMC2    C6  628   4.313   2.168  13.251  0.6989  0.5896 -0.3045
   41TMC2     C  629   4.354   2.258  13.639  0.6413 -0.0140 -0.3225
   41TMC2     O  630   4.245   2.238  13.693  0.7608 -0.6051  0.0142
   41TMC2     H  631   4.154   2.332  13.498 -2.6867 -2.0954 -0.0410
   41TMC2    H1  632   4.558   2.194  13.475 -0.0568 -0.9088 -0.5712
   41TMC2    H2  633   4.301   2.140  13.147  0.6652 -0.8141  0.0678
   41TMC2    C7  634   4.550   2.151  13.223  0.0280 -0.1201  0.0951
   41TMC2    C8  635   4.101   2.288  13.254 -0.4328 -0.8438  0.2881
   41TMC2    O1  636   4.642   2.223  13.248 -0.2329  0.1152  0.1176
   41TMC2    O2  637   3.998   2.336  13.301  0.1679  0.1192  0.5084
   41TMC2    O5  638   4.139   2.316  13.126  0.3446 -0.3775  0.0056
   41TMC2    H5  639   4.225   2.289  13.087  0.4950 -0.2423  0.2472
   42MPD2     C  640   4.626   2.303  13.891 -0.1426  0.8515 -0.1881
   42MPD2    C1  641   4.501   2.260  13.842 -0.9502  0.1797 -0.0415
   42MPD2    C2  642   4.412   2.206  13.933  0.2537 -0.5110 -0.1240
   42MPD2    C3  643   4.441   2.223  14.067  0.2818  0.3705  0.6929
   42MPD2    C4  644   4.556   2.270  14.112  0.0840  0.6828  0.1765
   42MPD2    C5  645   4.650   2.302  14.020 -0.3983  0.2912 -0.5268
   42MPD2     H  646   4.329   2.149  13.893 -1.5266  1.8508  0.2041
   42MPD2    H1  647   4.572   2.280  14.219 -0.5455  1.5028  0.2015
   42MPD2    H2  648   4.702   2.348  13.828  0.2102 -0.7910 -0.9584
   42MPD2    H3  649   0.023   2.336  14.050 -0.5125  0.0550  0.1060
   42MPD2     N  650   4.339   2.196  14.160 -0.0282 -0.2180 -0.1680
   42MPD2    H5  651   4.353   2.227  14.256 -0.2625  0.4823 -0.3620
   42MPD2    N1  652   4.475   2.276  13.703  0.0165 -0.4438 -0.4498
   42MPD2    H7  653   4.550   2.303  13.640 -1.6474  1.6838 -1.5537
   43MPD2     C  654   4.374   4.673   0.621  0.9066  0.4391 -0.2321
   43MPD2    C1  655   4.491   0.020   0.626  0.2278 -0.7587 -0.1966
   43MPD2    C2  656   4.476   0.155   0.588 -0.8018  0.4100 -0.0488
   43MPD2    C3  657   4.356   0.220   0.571  0.3265 -0.2426 -0.5389
   43MPD2    C4  658   4.246   0.140   0.556  0.6943 -0.2402  0.6564
   43MPD2    C5  659   4.254   0.005   0.574  0.4241 -0.5524  0.1538
   43MPD2     H  660   4.563   0.219   0.597  1.8568 -3.3197  0.8276
   43MPD2    H1  661   4.150   0.182   0.527  0.1866 -1.0663  1.1569
   43MPD2    H2  662   4.369   4.566   0.641  0.4746  1.0042  2.5677
   43MPD2    H3  663   4.167   4.666   0.565  0.8066 -1.2422  1.3108
   43MPD2     N  664   4.334   0.358   0.561  0.6879  0.4151  0.8000
   43MPD2    H5  665   4.242   0.392   0.534  0.4326 -1.4077 -0.6831
   43MPD2    N1  666   4.625   4.695   0.649  0.2589  0.4208  0.0401
   43MPD2    H7  667   4.708   0.025   0.626  0.6881 -0.9629 -1.7012
   44TCq2    C1  668   4.474   0.919   0.715  0.4832  0.2130 -0.1925
   44TCq2    O2  669   4.489   1.026   0.662 -0.3162 -0.0163 -0.2979
   44TCq2    C2  670   4.401   0.814   0.645  0.0317 -0.2607  0.2953
   44TCq2    C3  671   4.291   0.844   0.584  0.0679 -0.6787 -0.5443
   44TCq2    C4  672   4.217   0.749   0.517 -0.1848  0.1408 -0.1844
   44TCq2    C5  673   4.263   0.619   0.522 -0.3772 -0.8587 -0.3588
   44TCq2    C6  674   4.381   0.589   0.584  0.0067  0.8423 -0.2136
   44TCq2    C7  675   4.447   0.690   0.650 -0.1177  0.4800  0.4600
   44TCq2    C8  676   4.427   0.452   0.592  0.3290  0.1437  0.1519
   44TCq2    O4  677   4.534   0.431   0.646  0.6472 -0.0923 -0.8356
   44TCq2    C9  678   4.097   0.785   0.449 -0.2910  0.7131 -0.7994
   44TCq2    O5  679   4.063   0.909   0.463 -0.0580 -0.3140  0.2512
   44TCq2    O6  680   4.063   0.720   0.347 -0.0943  0.1327 -0.2051
   44TCq2    H2  681   4.281   0.952   0.581 -1.5374 -0.8633 -1.9890
   44TCq2    H3  682   4.208   0.547   0.462 -1.6237  1.1018 -1.5685
   44TCq2    H4  683   4.541   0.668   0.699  1.4330  1.6530 -1.9945
   45TMC2    C1  684   1.792   1.785   9.535  0.4283 -0.6763 -0.1316
   45TMC2    C2  685   1.907   1.753   9.462  0.2350  0.1834 -0.5320
   45TMC2    C3  686   2.010   1.842   9.475 -0.1622 -0.6790 -0.0321
   45TMC2    C4  687   1.779   1.889   9.616 -0.3172  0.5040  0.1279
   45TMC2    C5  688   1.889   1.969   9.631 -0.3445  0.0938 -0.0652
   45TMC2    C6  689   1.998   1.953   9.551  0.5413 -0.0366  0.3568
   45TMC2     C  690   1.701   1.675   9.543 -0.9032 -0.4576  0.0899
   45TMC2     O  691   1.749   1.566   9.517  0.4171 -0.0401 -0.5276
   45TMC2     H  692   1.913   1.657   9.412  2.0340 -0.0124  0.0574
   45TMC2    H1  693   1.703   1.891   9.693 -2.0104  1.6312 -1.5634
   45TMC2    H2  694   2.083   2.021   9.559 -0.3733  1.1386  0.0823
   45TMC2    C7  695   1.889   2.073   9.738 -0.6827  0.6516 -0.6799
   45TMC2    C8  696   2.118   1.843   9.379 -0.3023  0.2764  0.0207
   45TMC2    O1  697   1.826   2.055   9.842  0.6346  0.4513  0.1211
   45TMC2    O2  698   2.166   1.946   9.334 -0.3176 -0.2798 -0.2431
   45TMC2    O5  699   2.131   1.730   9.308 -0.2435 -0.1485  0.5243
   45TMC2    H5  700   2.094   1.655   9.359 -1.1538  1.6686  2.5709
   46MPD2     C  701   1.472   1.482   9.518  0.4731  0.5446 -0.3406
   46MPD2    C1  702   1.460   1.624   9.528 -0.1315  0.7431  0.2371
   46MPD2    C2  703   1.336   1.677   9.505 -0.2853 -0.5782  0.2144
   46MPD2    C3  704   1.225   1.597   9.479 -0.2689  0.0424 -0.1404
   46MPD2    C4  705   1.232   1.458   9.493 -0.1296 -0.1049 -0.6061
   46MPD2    C5  706   1.357   1.407   9.516 -0.1407 -0.2615 -0.2616
   46MPD2     H  707   1.322   1.784   9.494 -1.5000 -0.8915 -1.3425
   46MPD2    H1  708   1.147   1.392   9.504  0.7377 -1.1885 -0.3493
   46MPD2    H2  709   1.566   1.427   9.521 -0.1562 -0.6833 -2.8723
   46MPD2    H3  710   1.371   1.300   9.517  0.1110 -0.2475 -1.9132
   46MPD2     N  711   1.113   1.666   9.429 -0.0548 -0.1885 -0.1686
   46MPD2    H5  712   1.121   1.766   9.415  1.1109 -0.4893 -1.6442
   46MPD2    N1  713   1.567   1.712   9.547  0.8048  0.0723  0.1816
   46MPD2    H7  714   1.543   1.809   9.563 -1.5206 -0.3925 -0.4460
   47TMC2    C1  715   3.334   2.474   9.205 -0.9231  0.3180 -0.1158
   47TMC2    C2  716   3.389   2.397   9.111 -0.0662 -0.4307  0.1270
   47TMC2    C3  717   3.294   2.338   9.034  0.4299 -0.8982 -0.3552
   47TMC2    C4  718   3.199   2.510   9.216  0.0657 -0.1046 -0.1302
   47TMC2    C5  719   3.116   2.454   9.124 -0.3623  0.6565  0.1789
   47TMC2    C6  720   3.161   2.358   9.038  0.3315  1.0075 -0.7782
   47TMC2     C  721   3.417   2.517   9.321 -0.5551 -0.0313  0.4142
   47TMC2     O  722   3.377   2.613   9.383  0.0478  0.1154  0.2810
   47TMC2     H  723   3.497   2.391   9.102 -0.0948 -1.7606  0.6477
   47TMC2    H1  724   3.178   2.568   9.305  0.2520 -2.6715  1.5796
   47TMC2    H2  725   3.099   2.306   8.965 -0.9511 -0.6774  1.5394
   47TMC2    C7  726   2.970   2.467   9.136  0.0964 -0.8650  0.0292
   47TMC2    C8  727   3.323   2.239   8.935 -0.3213 -0.1182  0.4209
   47TMC2    O1  728   2.909   2.397   9.054  0.3926  0.4681 -0.5306
   47TMC2    O2  729   3.270   2.217   8.829 -0.2194 -0.0936 -0.6392
   47TMC2    O5  730   3.451   2.208   8.962  0.1476  0.2805 -0.3207
   47TMC2    H5  731   3.479   2.223   9.055 -0.9559  2.0257 -0.2661
   48MPD2     C  732   3.598   2.538   9.551  0.3415 -0.3557 -0.1416
   48MPD2    C1  733   3.597   2.434   9.456 -0.2547  0.3533  0.3801
   48MPD2    C2  734   3.677   2.327   9.475  0.2247  0.0055 -0.9612
   48MPD2    C3  735   3.766   2.325   9.575 -0.2218 -0.3110  0.1022
   48MPD2    C4  736   3.783   2.438   9.659 -0.2416  0.3903 -0.3162
   48MPD2    C5  737   3.697   2.549   9.647 -0.0621 -0.2351  0.0489
   48MPD2     H  738   3.660   2.233   9.422  1.1904 -0.1832 -0.9412
   48MPD2    H1  739   3.866   2.434   9.728  0.1260 -1.3454 -0.8623
   48MPD2    H2  740   3.526   2.619   9.547 -1.0836 -1.7106 -1.7382
   48MPD2    H3  741   3.706   2.640   9.706  0.3058 -0.0962 -0.2231
   48MPD2     N  742   3.843   2.206   9.591 -0.4091 -0.6640 -0.3228
   48MPD2    H5  743   3.834   2.140   9.515 -0.1019 -1.9966  0.7996
   48MPD2    N1  744   3.503   2.421   9.358  0.1530  0.0155  0.4610
   48MPD2    H7  745   3.517   2.337   9.302  1.3426 -0.8261  2.0160
   49MPD2     C  746   1.865   3.903  10.615  0.1002 -0.0427 -0.1584
   49MPD2    C1  747   1.934   4.003  10.544 -0.0403 -0.1687 -0.0723
   49MPD2    C2  748   1.982   4.109  10.621  0.1577  0.6865 -0.5061
   49MPD2    C3  749   1.968   4.121  10.757 -0.1008 -0.1059  0.7358
   49MPD2    C4  750   1.887   4.027  10.824  0.5601  1.2580  0.2230
   49MPD2    C5  751   1.843   3.924  10.748  0.0731 -0.4603 -0.0307
   49MPD2     H  752   2.028   4.192  10.568 -0.7596  0.2431 -2.0203
   49MPD2    H1  753   1.881   4.036  10.932 -0.0814  3.0101  0.0413
   49MPD2    H2  754   1.827   3.814  10.566  0.9769 -0.0892 -0.7508
   49MPD2    H3  755   1.786   3.846  10.798 -0.0442 -2.3124 -3.0669
   49MPD2     N  756   2.012   4.231  10.831 -0.6096 -0.0118 -0.2836
   49MPD2    H5  757   1.980   4.230  10.928 -0.9095 -1.1384 -0.3899
   49MPD2    N1  758   1.932   4.017  10.402 -0.4522 -0.2716 -0.3699
   49MPD2    H7  759   1.961   4.106  10.362 -0.9167 -0.6756 -1.6041
   50TCq2    C1  760   1.905   3.912  10.316  0.9651  0.2841  0.2636
   50TCq2    O2  761   1.873   3.797  10.340 -0.3582 -0.4958 -0.3203
   50TCq2    C2  762   1.941   3.942  10.181  0.7389  0.0412 -0.0190
   50TCq2    C3  763   2.026   4.050  10.154 -0.1178  0.4231 -0.8953
   50TCq2    C4  764   2.078   4.061  10.022 -0.9768  0.6957  0.1337
   50TCq2    C5  765   2.023   3.993   9.916  0.4547 -0.2597 -0.0099
   50TCq2    C6  766   1.947   3.886   9.953  0.1327  0.5436 -0.0205
   50TCq2    C7  767   1.911   3.858  10.083 -0.3097  0.3316 -0.8433
   50TCq2    C8  768   1.878   3.816   9.848  0.0441 -0.2848  0.2368
   50TCq2    O4  769   1.856   3.882   9.747 -0.4582  0.1022 -0.1868
   50TCq2    C9  770   2.170   4.170   9.994  0.2168  0.5227 -0.2673
   50TCq2    O5  771   2.198   4.258  10.081  0.0011 -0.3091 -0.5242
   50TCq2    O6  772   2.211   4.182   9.871  0.4007  0.5526 -0.4038
   50TCq2    H2  773   2.061   4.117  10.232 -0.4856 -0.1798 -0.2151
   50TCq2    H3  774   2.054   4.011   9.813  3.2847  1.2451  1.0960
   50TCq2    H4  775   1.850   3.773  10.112  1.4215 -1.0823 -1.3285
   51MPD2     C  776   3.315   2.891   0.875 -0.1468 -0.1536  0.7041
   51MPD2    C1  777   3.271   2.997   0.947  0.1823 -0.1345  0.1223
   51MPD2    C2  778   3.305   3.018   1.077 -0.7520  0.0288 -0.4028
   51MPD2    C3  779   3.391   2.930   1.149  0.7055  0.2491  0.2965
   51MPD2    C4  780   3.437   2.821   1.076  0.5237 -0.2863 -0.1319
   51MPD2    C5  781   3.403   2.802   0.943  0.1871  0.0093  0.6582
   51MPD2     H  782   3.257   3.100   1.130 -1.7621 -1.3849  0.8488
   51MPD2    H1  783   3.503   2.750   1.125 -0.4715 -0.8187  0.4382
   51MPD2    H2  784   3.315   2.887   0.767  0.3094 -1.7326  0.7634
   51MPD2    H3  785   3.431   2.715   0.885  0.9726  1.7839 -1.6010
   51MPD2     N  786   3.418   2.932   1.282  0.3207  0.3873  0.9106
   51MPD2    H5  787   3.489   2.873   1.324 -1.1693 -1.6193  0.6575
   51MPD2    N1  788   3.197   3.103   0.893  0.4532 -0.3814  0.2210
   51MPD2    H7  789   3.165   3.178   0.954 -2.3422 -1.0911 -0.3859
   52TCq2    C1  790   3.336   2.990   1.376  0.0674  0.4445 -0.4334
   52TCq2    O2  791   3.258   3.080   1.363 -0.2816  0.7483 -0.2972
   52TCq2    C2  792   3.364   2.946   1.515  0.4569 -0.2929  0.1035
   52TCq2    C3  793   3.458   2.856   1.541 -0.2500  0.3424 -0.1076
   52TCq2    C4  794   3.523   2.855   1.667 -0.0211 -0.1328 -0.3892
   52TCq2    C5  795   3.502   2.954   1.755 -0.1955 -0.0665 -0.3503
   52TCq2    C6  796   3.413   3.053   1.721 -0.6056 -0.6538 -0.2709
   52TCq2    C7  797   3.340   3.048   1.603 -0.5338 -0.1751 -0.1881
   52TCq2    C8  798   3.383   3.159   1.817 -0.3427  0.3021 -0.3769
   52TCq2    O4  799   3.308   3.247   1.775 -0.1155 -0.0006  0.0107
   52TCq2    C9  800   3.599   2.743   1.694 -0.2809 -0.2129 -0.3298
   52TCq2    O5  801   3.599   2.706   1.810 -0.2306 -0.7728  0.5352
   52TCq2    O6  802   3.646   2.678   1.597  0.2054  0.0143 -0.4898
   52TCq2    H2  803   3.474   2.770   1.476  0.9606  1.0761 -0.7761
   52TCq2    H3  804   3.562   2.955   1.846  0.5132  0.5073 -0.8266
   52TCq2    H4  805   3.262   3.121   1.588 -0.3930 -0.6341 -3.0692
   53TMC2    C1  806   2.698   2.193  11.607 -0.0079 -0.5674 -0.4295
   53TMC2    C2  807   2.823   2.155  11.597 -0.6032  0.0478 -0.3327
   53TMC2    C3  808   2.890   2.174  11.710 -0.2428  0.5701 -0.2642
   53TMC2    C4  809   2.637   2.261  11.711  0.0325 -0.6834 -0.6419
   53TMC2    C5  810   2.710   2.278  11.826 -0.0368 -0.4437  0.2284
   53TMC2    C6  811   2.839   2.225  11.826 -0.5306  0.4407 -0.3614
   53TMC2     C  812   2.606   2.120  11.518 -0.1797 -0.2577  0.0225
   53TMC2     O  813   2.654   2.084  11.411 -0.3983  0.2219 -0.0015
   53TMC2     H  814   2.866   2.111  11.507 -3.4531 -1.8864 -0.7389
   53TMC2    H1  815   2.534   2.292  11.696  0.4234  1.1291  0.5011
   53TMC2    H2  816   2.900   2.242  11.914  0.0599 -1.7556 -0.3561
   53TMC2    C7  817   2.627   2.307  11.941 -0.0590 -0.1442  0.1505
   53TMC2    C8  818   3.035   2.149  11.719 -0.5272  0.1373  0.2492
   53TMC2    O1  819   2.506   2.309  11.923  0.3605 -0.1717  0.6939
   53TMC2    O2  820   3.117   2.205  11.791 -0.1533  0.3604 -0.3244
   53TMC2    O5  821   3.048   2.028  11.657 -0.5927 -0.0619  0.3811
   53TMC2    H5  822   2.965   1.976  11.652 -0.7320  0.4277 -2.3794
   54MPD2     C  823   2.400   1.953  11.389  0.0015  1.2635  0.5924
   54MPD2    C1  824   2.397   1.994  11.520 -0.6457 -0.5999 -0.4655
   54MPD2    C2  825   2.295   1.936  11.601  0.4694  0.5416 -0.3371
   54MPD2    C3  826   2.206   1.837  11.563 -0.5082 -0.6473 -0.7573
   54MPD2    C4  827   2.216   1.796  11.435 -0.5566 -0.0748  0.3864
   54MPD2    C5  828   2.306   1.859  11.355 -0.0145  0.0367 -0.2840
   54MPD2     H  829   2.280   1.987  11.696  0.6944  0.4230 -0.2359
   54MPD2    H1  830   2.152   1.724  11.386 -0.2212  0.1619 -0.3950
   54MPD2    H2  831   2.462   2.003  11.315  1.4383 -0.6587  0.4986
   54MPD2    H3  832   2.310   1.836  11.250 -1.1525 -3.0125  0.3598
   54MPD2     N  833   2.098   1.790  11.646 -0.4574  0.0308  0.5052
   54MPD2    H5  834   2.029   1.723  11.612 -0.5931  0.2878  0.2720
   54MPD2    N1  835   2.485   2.085  11.574  0.2494  0.5335  0.2451
   54MPD2    H7  836   2.460   2.122  11.665  2.0349  0.3085  0.8307
   55MPD2     C  837   2.952   4.322  17.631  0.1440  0.3079 -0.5495
   55MPD2    C1  838   2.924   4.335   0.065 -0.6458 -0.2708 -0.3168
   55MPD2    C2  839   2.838   4.434   0.124  0.0420 -0.9890  0.2951
   55MPD2    C3  840   2.783   4.521   0.038  0.1327 -0.4710 -0.2787
   55MPD2    C4  841   2.824   4.526  17.602 -0.7432 -0.7018 -0.5238
   55MPD2    C5  842   2.903   4.423  17.551  0.0228  0.4109 -0.3824
   55MPD2     H  843   2.805   4.441   0.227 -1.5106 -1.2193 -0.1858
   55MPD2    H1  844   2.787   4.608  17.542  0.7216  0.7421  0.5443
   55MPD2    H2  845   2.997   4.232  17.590 -1.2499  0.6899 -2.8959
   55MPD2    H3  846   2.915   4.418  17.443  2.4695  2.4725 -0.2218
   55MPD2     N  847   2.685   4.608   0.088  0.6482 -0.0197  0.2904
   55MPD2    H5  848   2.683   4.614   0.189  1.2555 -1.3850  0.3742
   55MPD2    N1  849   2.987   4.233   0.146  0.3553  0.6054 -0.3800
   55MPD2    H7  850   3.038   4.157   0.102 -1.1625 -1.4943  1.4793
   56TCq2    C1  851   2.976   4.226   0.279 -0.4287  0.4212 -0.0477
   56TCq2    O2  852   2.919   4.297   0.361 -0.2163 -0.1880 -0.1963
   56TCq2    C2  853   3.021   4.107   0.340 -0.8759  0.0137 -0.1926
   56TCq2    C3  854   3.140   4.066   0.290 -0.3132 -0.0755 -0.6323
   56TCq2    C4  855   3.216   3.984   0.371  0.2724  0.5651 -0.0978
   56TCq2    C5  856   3.164   3.955   0.496  0.5932 -0.0795 -0.1698
   56TCq2    C6  857   3.051   4.011   0.541 -0.8837  0.4154 -0.1999
   56TCq2    C7  858   2.968   4.082   0.459 -0.7409 -0.0105  0.4608
   56TCq2    C8  859   3.029   3.998   0.686 -0.5034 -1.2358  0.2085
   56TCq2    O4  860   3.109   3.928   0.748 -0.3182  0.0685 -0.4770
   56TCq2    C9  861   3.340   3.930   0.324  0.0505 -0.0191 -0.5007
   56TCq2    O5  862   3.410   3.863   0.403 -0.2543 -0.9342  0.0729
   56TCq2    O6  863   3.374   3.963   0.208 -0.6351  0.0854 -0.4403
   56TCq2    H2  864   3.190   4.106   0.202 -1.6635  2.5065 -0.2387
   56TCq2    H3  865   3.216   3.884   0.559 -0.5292 -0.7848 -0.0429
   56TCq2    H4  866   2.873   4.124   0.491 -1.4140 -0.9338 -0.3364
   57TMC2    C1  867   2.526   1.173  13.989 -0.2549  0.0375  0.6341
   57TMC2    C2  868   2.577   1.170  14.118 -0.5273  0.0201  0.4670
   57TMC2    C3  869   2.709   1.143  14.136 -0.6930 -0.0063 -0.0467
   57TMC2    C4  870   2.609   1.157  13.883 -0.4451 -0.7676  0.0451
   57TMC2    C5  871   2.743   1.143  13.906  0.6790  0.0449  0.0071
   57TMC2    C6  872   2.796   1.121  14.031 -0.4627  0.2427 -0.2251
   57TMC2     C  873   2.385   1.154  13.980 -0.4367  0.1801  0.0896
   57TMC2     O  874   2.322   1.198  14.073 -0.1292  0.3735 -0.4830
   57TMC2     H  875   2.519   1.191  14.207 -2.3979 -1.3912 -0.4102
   57TMC2    H1  876   2.576   1.182  13.783 -0.8551 -1.1547  0.0806
   57TMC2    H2  877   2.898   1.096  14.055 -0.7041 -0.6752 -0.1470
   57TMC2    C7  878   2.820   1.098  13.793 -0.1795 -0.1106 -0.2791
   57TMC2    C8  879   2.746   1.096  14.268 -0.8114 -0.1641 -0.0882
   57TMC2    O1  880   2.744   1.075  13.700 -0.2075  0.2467  0.1620
   57TMC2    O2  881   2.847   1.118  14.336 -0.0483 -0.0291  0.0564
   57TMC2    O5  882   2.642   1.024  14.287  0.3992  0.7934  0.8702
   57TMC2    H5  883   2.577   1.008  14.215 -0.9555 -0.6994  2.4305
   58MPD2     C  884   1.938   0.969  13.778 -0.4836  0.0746 -0.0722
   58MPD2    C1  885   1.970   1.019  13.905 -0.5015 -0.8760 -0.8663
   58MPD2    C2  886   2.098   1.064  13.931 -0.2662  0.2608 -0.4691
   58MPD2    C3  887   2.200   1.050  13.847  0.4553 -0.6456  0.1658
   58MPD2    C4  888   2.169   1.000  13.724 -0.1796 -0.0095  0.0967
   58MPD2    C5  889   2.046   0.958  13.695 -0.2979  0.1932  0.5274
   58MPD2     H  890   2.109   1.095  14.034 -0.4461  1.0754 -0.6937
   58MPD2    H1  891   2.252   0.968  13.662  0.9619  1.0252  1.0955
   58MPD2    H2  892   1.844   0.935  13.737 -0.1437 -0.0026 -0.7895
   58MPD2    H3  893   2.034   0.903  13.602  2.2385 -0.2706  0.4750
   58MPD2     N  894   2.337   1.090  13.863 -0.3833 -0.3916 -0.3949
   58MPD2    H5  895   2.407   1.059  13.796 -0.4501 -2.2211  0.3724
   58MPD2    N1  896   1.882   1.047  14.009  0.2208 -0.0504 -0.1730
   58MPD2    H7  897   1.918   1.083  14.097 -2.2048  0.5985  0.5647
   59MPD2     C  898   4.646   0.633  13.257 -0.0491 -0.2106  0.3489
   59MPD2    C1  899   4.709   0.692  13.146 -0.1143 -0.2510 -0.1821
   59MPD2    C2  900   0.095   0.768  13.164 -1.1309 -0.1739  0.8205
   59MPD2    C3  901   0.139   0.802  13.295  0.4621 -0.4681  0.4052
   59MPD2    C4  902   0.069   0.748  13.400 -0.1071  0.6059 -0.1534
   59MPD2    C5  903   4.686   0.670  13.382  0.2079  0.3110 -0.6099
   59MPD2     H  904   0.131   0.825  13.079  1.7022 -2.1539  0.6789
   59MPD2    H1  905   0.110   0.771  13.498 -1.6428  0.9203  0.4081
   59MPD2    H2  906   4.564   0.566  13.237  1.6879 -2.3312  0.2626
   59MPD2    H3  907   4.624   0.631  13.462 -0.9461  0.8895 -1.2249
   59MPD2     N  908   0.243   0.900  13.321 -0.0671  0.0418  0.0947
   59MPD2    H5  909   0.262   0.928  13.416  3.0714 -0.1909 -0.4874
   59MPD2    N1  910   4.635   0.672  13.027  0.2232 -0.7450  0.9881
   59MPD2    H7  911   4.564   0.600  13.030 -1.2337  0.8793  4.5090
   60TCq2    C1  912   4.674   0.696  12.900 -0.1403 -0.7537 -0.1824
   60TCq2    O2  913   0.042   0.766  12.855 -0.4882  0.0428  0.1518
   60TCq2    C2  914   4.590   0.624  12.803 -0.3170 -0.0621 -0.1660
   60TCq2    C3  915   4.507   0.525  12.852  0.4839 -0.5443 -0.0295
   60TCq2    C4  916   4.423   0.470  12.765  0.3729  1.0346  0.0772
   60TCq2    C5  917   4.407   0.514  12.637  0.2202  0.5694  0.1966
   60TCq2    C6  918   4.490   0.612  12.589 -0.1858 -0.1859  0.1715
   60TCq2    C7  919   4.587   0.669  12.676 -0.7500  0.2899 -1.0317
   60TCq2    C8  920   4.507   0.605  12.448  0.1704 -0.2255 -0.3680
   60TCq2    O4  921   4.462   0.505  12.395  0.7194  0.3091  0.6026
   60TCq2    C9  922   4.357   0.342  12.790  0.6405 -0.7136  0.8167
   60TCq2    O5  923   4.347   0.265  12.692  0.8074  0.0433  0.3655
   60TCq2    O6  924   4.345   0.301  12.910  0.1329  0.7564  0.1661
   60TCq2    H2  925   4.525   0.477  12.948 -0.5566  0.2417  0.5638
   60TCq2    H3  926   4.349   0.454  12.569 -0.6109  0.3666  1.0814
   60TCq2    H4  927   4.665   0.735  12.640 -1.4708  2.0285  0.6210
   61MPD2     C  928   4.405   2.565  14.247 -0.0811  0.3126  0.0976
   61MPD2    C1  929   4.345   2.604  14.364  0.5296 -0.0766  0.2866
   61MPD2    C2  930   4.279   2.724  14.365 -0.0673 -0.4247 -0.1311
   61MPD2    C3  931   4.267   2.803  14.255  0.6407 -0.7993  0.3104
   61MPD2    C4  932   4.325   2.763  14.135 -0.2350  0.2389  0.3080
   61MPD2    C5  933   4.392   2.648  14.134  0.1173  0.1038 -0.3754
   61MPD2     H  934   4.218   2.747  14.453  1.0641  1.6696  0.1137
   61MPD2    H1  935   4.309   2.818  14.043 -1.2133 -1.3886 -0.5055
   61MPD2    H2  936   4.454   2.469  14.238 -0.5282 -0.0401  1.4129
   61MPD2    H3  937   4.438   2.621  14.039  0.9324  0.1682  0.0004
   61MPD2     N  938   4.190   2.922  14.262  0.2129  0.0597  0.3146
   61MPD2    H5  939   4.141   2.940  14.349 -1.9930 -2.1536 -0.4393
   61MPD2    N1  940   4.349   2.526  14.482 -0.1747 -0.2631 -1.0334
   61MPD2    H7  941   4.321   2.570  14.569 -0.3633 -2.2082 -0.1058
   62TCq2    C1  942   4.386   2.391  14.491 -0.0113 -0.1997  0.0304
   62TCq2    O2  943   4.395   2.302  14.409 -0.0006  0.2751  0.1255
   62TCq2    C2  944   4.371   2.360  14.639 -0.7719  0.0226 -0.7335
   62TCq2    C3  945   4.296   2.247  14.661 -0.4466  0.0135 -0.6443
   62TCq2    C4  946   4.199   2.241  14.758 -0.1225 -0.4981 -0.1806
   62TCq2    C5  947   4.170   2.354  14.833  0.0525  0.6647  0.3209
   62TCq2    C6  948   4.257   2.461  14.816  0.1445  0.6856 -0.3919
   62TCq2    C7  949   4.353   2.466  14.719  0.0936  0.0517  0.3432
   62TCq2    C8  950   4.223   2.586  14.874 -0.1350 -0.5257 -0.3648
   62TCq2    O4  951   4.266   2.685  14.820 -0.1488 -0.7193 -0.9950
   62TCq2    C9  952   4.120   2.119  14.763  0.4892 -0.4298  0.2877
   62TCq2    O5  953   4.012   2.126  14.824 -0.0008 -0.2028  0.0424
   62TCq2    O6  954   4.183   2.015  14.723  0.2469  0.5196  0.6026
   62TCq2    H2  955   4.306   2.164  14.593  1.9748 -0.0518 -0.2033
   62TCq2    H3  956   4.090   2.341  14.905 -0.9488 -0.9943 -1.0989
   62TCq2    H4  957   4.418   2.552  14.708  1.0801 -0.6640  0.5242
   63TMC2    C1  958   4.026   2.227  10.600  0.3548 -0.4227 -0.3990
   63TMC2    C2  959   4.092   2.348  10.630 -0.1935  0.1421 -0.1211
   63TMC2    C3  960   4.104   2.435  10.531 -0.2271 -0.7981  0.6763
   63TMC2    C4  961   3.974   2.207  10.476 -0.3687  0.4686 -0.2102
   63TMC2    C5  962   3.993   2.303  10.381  0.6242  0.0125  0.3078
   63TMC2    C6  963   4.062   2.415  10.403 -0.1528 -0.4797 -0.7182
   63TMC2     C  964   3.956   2.154  10.707 -0.5329  0.2835  0.3399
   63TMC2     O  965   3.921   2.212  10.809 -0.2274 -0.0446 -0.4169
   63TMC2     H  966   4.122   2.375  10.731 -0.3543  1.2854 -0.3796
   63TMC2    H1  967   3.909   2.122  10.458  0.4304  0.0353 -1.0227
   63TMC2    H2  968   4.096   2.476  10.320  0.8856 -0.2516 -0.1208
   63TMC2    C7  969   3.895   2.297  10.272  0.1906 -0.0722  0.0815
   63TMC2    C8  970   4.185   2.556  10.546  0.4989  0.4653 -0.4381
   63TMC2    O1  971   3.857   2.190  10.237  0.2577  0.2261  0.1010
   63TMC2    O2  972   4.187   2.644  10.457  0.2061 -0.6620 -0.1792
   63TMC2    O5  973   4.224   2.578  10.675 -0.1334  0.2827 -0.0821
   63TMC2    H5  974   4.234   2.501  10.735  1.9592 -1.1075 -2.2397
   64MPD2     C  975   3.737   1.719  10.878 -0.1256 -0.2604 -0.0264
   64MPD2    C1  976   3.794   1.695  10.752  0.1599  0.0670  0.3257
   64MPD2    C2  977   3.857   1.795  10.686  0.2458  0.3766 -0.1645
   64MPD2    C3  978   3.872   1.920  10.744 -0.0827  0.5032  0.7612
   64MPD2    C4  979   3.812   1.941  10.867 -0.6696 -0.4704  0.5425
   64MPD2    C5  980   3.750   1.839  10.933  0.5574  0.2981  0.2462
   64MPD2     H  981   3.901   1.768  10.591 -0.4034 -0.3269 -0.2690
   64MPD2    H1  982   3.821   2.035  10.921 -1.2921  0.3094 -0.7118
   64MPD2    H2  983   3.690   1.643  10.940 -0.1189 -1.2070 -1.1980
   64MPD2    H3  984   3.720   1.844  11.037 -1.2107 -0.1471 -0.2373
   64MPD2     N  985   3.942   2.020  10.675 -0.3122  0.2632 -0.1070
   64MPD2    H5  986   3.992   1.990  10.592 -0.8731 -1.7627  0.2695
   64MPD2    N1  987   3.790   1.564  10.697  0.2162  0.3132  0.2676
   64MPD2    H7  988   3.858   1.554  10.623 -1.2956  1.4466 -1.2586
   65MPD2     C  989   0.146   1.924  15.960 -0.2566  0.1195 -0.5797
   65MPD2    C1  990   0.145   1.913  15.825  0.4260  0.1384  0.2616
   65MPD2    C2  991   0.128   1.784  15.769 -0.0894 -0.2655  0.1378
   65MPD2    C3  992   0.089   1.680  15.845 -0.4782 -0.6793  0.5887
   65MPD2    C4  993   0.062   1.700  15.977 -0.0559  0.2302  0.3560
   65MPD2    C5  994   0.109   1.815  16.033  0.2500  0.2119 -0.1008
   65MPD2     H  995   0.137   1.775  15.661  3.5497 -0.7089  0.4783
   65MPD2    H1  996   0.021   1.625  16.042 -0.2226  0.8445  0.9562
   65MPD2    H2  997   0.180   2.013  16.011 -0.4872 -1.2649  1.9534
   65MPD2    H3  998   0.101   1.828  16.141 -0.7741 -0.9317 -0.0318
   65MPD2     N  999   0.056   1.545  15.793 -0.1318 -0.0935 -0.1995
   65MPD2    H5 1000   0.022   1.475  15.858  0.3564 -0.2732 -0.1367
   65MPD2    N1 1001   0.174   2.016  15.740 -0.1633 -0.4254  0.1542
   65MPD2    H7 1002   0.195   1.994  15.644 -0.1144 -0.7213  0.2333
   66TCq2    C1 1003   0.168   2.150  15.781 -0.2320  0.2245 -0.2025
   66TCq2    O2 1004   0.126   2.195  15.892 -0.2219  0.3376  0.4302
   66TCq2    C2 1005   0.210   2.247  15.677 -0.7086 -0.2689 -0.1223
   66TCq2    C3 1006   0.277   2.193  15.566 -0.0099 -0.5031 -0.0819
   66TCq2    C4 1007   0.257   2.252  15.447  0.0190 -0.3050 -0.1915
   66TCq2    C5 1008   0.162   2.347  15.426 -0.2580  0.2011  0.8260
   66TCq2    C6 1009   0.091   2.390  15.539  0.2011  0.0594 -0.5754
   66TCq2    C7 1010   0.120   2.346  15.666  0.6196  0.8609  0.6090
   66TCq2    C8 1011   4.709   2.481  15.507 -0.9377 -0.5735 -0.2684
   66TCq2    O4 1012   4.693   2.515  15.390  0.7437  0.1081 -0.2121
   66TCq2    C9 1013   0.329   2.214  15.323  0.1470 -0.2084  0.3911
   66TCq2    O5 1014   0.394   2.304  15.263 -0.5036  0.3167  0.2056
   66TCq2    O6 1015   0.358   2.092  15.315 -0.0904 -0.2959  0.1533
   66TCq2    H2 1016   0.346   2.110  15.564  0.2427 -0.3012  0.2331
   66TCq2    H3 1017   0.142   2.387  15.327  1.5752 -2.1331 -0.4906
   66TCq2    H4 1018   0.055   2.375  15.749 -1.8715 -1.0505 -0.6826
   67MPD2     C 1019   4.691   0.999  14.307 -0.2415  0.0083  0.3861
   67MPD2    C1 1020   4.667   1.138  14.309  0.2936 -0.4629  0.4868
   67MPD2    C2 1021   4.574   1.193  14.225 -0.4311 -0.3715 -0.2569
   67MPD2    C3 1022   4.508   1.119  14.132 -0.7418  0.3797  0.4965
   67MPD2    C4 1023   4.531   0.985  14.122  0.5003 -0.3117  0.5615
   67MPD2    C5 1024   4.618   0.927  14.214 -0.3498 -0.1384  0.1277
   67MPD2     H 1025   4.544   1.297  14.237 -0.0736 -0.2911 -0.0643
   67MPD2    H1 1026   4.491   0.928  14.039  1.5315  0.1682 -0.2598
   67MPD2    H2 1027   0.044   0.944  14.358 -1.1993 -2.4656 -0.8079
   67MPD2    H3 1028   4.652   0.825  14.205  2.3313  0.7395  0.1712
   67MPD2     N 1029   4.408   1.170  14.045 -0.1679 -0.0550 -0.3254
   67MPD2    H5 1030   4.344   1.110  13.994 -1.8931  1.2700  0.2866
   67MPD2    N1 1031   4.719   1.216  14.406  0.0326  1.0528 -0.1940
   67MPD2    H7 1032   4.666   1.302  14.415  0.8874  1.7084 -1.4883
   68TCq2    C1 1033   0.110   1.197  14.468 -0.0431  0.4481  0.7188
   68TCq2    O2 1034   0.185   1.100  14.462 -0.2575  0.4406  0.5419
   68TCq2    C2 1035   0.159   1.319  14.532 -0.5388  0.6280 -0.4723
   68TCq2    C3 1036   0.104   1.441  14.524 -0.1410 -0.0622 -0.4565
   68TCq2    C4 1037   0.129   1.535  14.620 -0.3755  0.4097  0.5590
   68TCq2    C5 1038   0.227   1.515  14.713 -0.7425 -0.4562 -0.2423
   68TCq2    C6 1039   0.291   1.395  14.711 -0.1662  0.0987  0.3305
   68TCq2    C7 1040   0.260   1.302  14.621 -0.0925  0.5845 -0.2676
   68TCq2    C8 1041   0.418   1.375  14.774  0.0274 -0.1478 -0.3066
   68TCq2    O4 1042   0.500   1.294  14.725 -0.2042 -0.7285  0.5066
   68TCq2    C9 1043   0.062   1.668  14.615 -0.0140  0.7144 -0.2650
   68TCq2    O5 1044   4.718   1.696  14.515  0.3566  0.4119  0.8664
   68TCq2    O6 1045   0.048   1.734  14.728 -0.1595 -0.0012  0.6032
   68TCq2    H2 1046   0.033   1.474  14.450  0.9179  1.2852 -0.8790
   68TCq2    H3 1047   0.256   1.605  14.766 -1.3262 -0.3221 -0.1525
   68TCq2    H4 1048   0.307   1.205  14.630  0.6967  0.7730 -2.4021
   69TMC2    C1 1049   2.310   2.640  12.207  0.0216  0.5444 -0.2633
   69TMC2    C2 1050   2.202   2.625  12.121  0.2232 -0.0225  0.5752
   69TMC2    C3 1051   2.229   2.649  11.991  0.4554  0.1037 -0.5473
   69TMC2    C4 1052   2.436   2.664  12.164 -0.1722 -0.2261 -0.2041
   69TMC2    C5 1053   2.453   2.704  12.033  0.0008  0.2561  0.2558
   69TMC2    C6 1054   2.344   2.705  11.950 -0.2557 -0.0345 -0.1756
   69TMC2     C 1055   2.296   2.612  12.347  1.3194 -0.2239  0.6777
   69TMC2     O 1056   2.187   2.565  12.378 -0.8283  0.2522 -0.1386
   69TMC2     H 1057   2.103   2.600  12.158  0.0059  0.8176  0.5791
   69TMC2    H1 1058   2.528   2.649  12.221  0.8477  1.8985 -1.2930
   69TMC2    H2 1059   2.354   2.751  11.853  0.3542  0.0386 -0.0774
   69TMC2    C7 1060   2.594   2.696  11.992 -0.2367  0.0338 -0.5340
   69TMC2    C8 1061   2.119   2.687  11.916  0.0428  0.0951 -0.2587
   69TMC2    O1 1062   2.675   2.725  12.080 -0.2413 -0.1768 -0.9144
   69TMC2    O2 1063   2.010   2.702  11.968 -0.7747  0.2199 -0.4402
   69TMC2    O5 1064   2.131   2.650  11.786  0.2857 -0.1364  0.5553
   69TMC2    H5 1065   2.224   2.629  11.760  0.4748 -0.3001  1.3739
   70MPD2     C 1066   2.435   2.818  12.622 -0.0853 -0.1515  0.3990
   70MPD2    C1 1067   2.366   2.708  12.567 -0.5351 -0.1174 -0.7489
   70MPD2    C2 1068   2.298   2.624  12.647 -0.1136 -0.0026 -0.3885
   70MPD2    C3 1069   2.295   2.644  12.780  0.6222 -0.7045 -0.0132
   70MPD2    C4 1070   2.360   2.753  12.829  0.0232 -0.0022 -0.6823
   70MPD2    C5 1071   2.425   2.837  12.754 -0.4612 -0.5841  0.0263
   70MPD2     H 1072   2.255   2.536  12.599 -0.4880  0.3700 -0.7393
   70MPD2    H1 1073   2.361   2.777  12.934  1.6893  1.2907 -1.0013
   70MPD2    H2 1074   2.494   2.891  12.567 -0.7706 -1.3215 -1.8855
   70MPD2    H3 1075   2.486   2.917  12.795 -0.8597  0.2858 -1.0747
   70MPD2     N 1076   2.233   2.565  12.875 -0.1067 -0.5767 -0.6568
   70MPD2    H5 1077   2.278   2.562  12.966 -0.1086 -0.3397 -0.6479
   70MPD2    N1 1078   2.383   2.691  12.426 -0.3359 -0.0426 -0.0769
   70MPD2    H7 1079   2.438   2.761  12.378 -0.8802 -0.2548 -0.9952
   71TMC2    C1 1080   0.247   3.233   1.665  0.4711 -0.1782  0.5823
   71TMC2    C2 1081   0.373   3.190   1.707 -0.4624  0.6531 -0.2766
   71TMC2    C3 1082   0.396   3.166   1.839 -0.5512  0.6468 -0.0779
   71TMC2    C4 1083   0.152   3.238   1.758  0.4146  0.2377 -0.8982
   71TMC2    C5 1084   0.178   3.207   1.892 -0.0152 -0.0005  0.3149
   71TMC2    C6 1085   0.300   3.177   1.935  0.3230 -0.3068 -0.0920
   71TMC2     C 1086   0.214   3.232   1.522  0.3172  0.2917  0.7020
   71TMC2     O 1087   0.092   3.245   1.494  0.3350 -0.4277 -0.1311
   71TMC2     H 1088   0.442   3.154   1.632 -2.6376  0.1421 -2.0412
   71TMC2    H1 1089   0.054   3.267   1.723 -0.2988 -1.1361 -0.0098
   71TMC2    H2 1090   0.320   3.148   2.038  0.8925 -1.1699 -0.4469
   71TMC2    C7 1091   0.076   3.199   1.985 -0.6162 -0.4151  0.0405
   71TMC2    C8 1092   0.520   3.083   1.864 -0.3471  0.3091 -0.6951
   71TMC2    O1 1093   0.098   3.238   2.098 -0.0479  0.2341  0.6407
   71TMC2    O2 1094   0.522   2.994   1.949 -0.1236  0.4818  0.4899
   71TMC2    O5 1095   0.614   3.134   1.783 -0.0143  0.3427 -0.4476
   71TMC2    H5 1096   0.597   3.222   1.743 -3.7844 -0.8832 -1.5479
   72MPD2     C 1097   0.343   3.190   1.032 -0.0093 -0.2646  0.6973
   72MPD2    C1 1098   0.218   3.222   1.084 -0.2972  0.5864  0.2138
   72MPD2    C2 1099   0.197   3.239   1.219  0.9217  0.6410 -0.1152
   72MPD2    C3 1100   0.311   3.222   1.298  0.4030  0.0787 -0.1640
   72MPD2    C4 1101   0.436   3.196   1.248 -0.6460  0.0807  0.3228
   72MPD2    C5 1102   0.449   3.175   1.113  0.4053  0.6164 -0.2570
   72MPD2     H 1103   0.103   3.265   1.267  0.3201 -2.5299  0.4147
   72MPD2    H1 1104   0.525   3.188   1.308  1.3078  1.5299 -2.3785
   72MPD2    H2 1105   0.361   3.178   0.926  1.1701 -1.3821  1.0348
   72MPD2    H3 1106   0.543   3.148   1.065  1.3165 -0.6389  2.1937
   72MPD2     N 1107   0.322   3.239   1.439  0.6378 -0.2748 -0.4395
   72MPD2    H5 1108   0.407   3.241   1.495 -0.9872  1.6933  1.9540
   72MPD2    N1 1109   0.104   3.233   1.001  0.6129 -0.0849 -0.3571
   72MPD2    H7 1110   0.014   3.251   1.043  0.4291  0.9447 -1.2081
   73TMC2    C1 1111   0.081   4.527  14.312 -0.0718 -0.1856 -0.3785
   73TMC2    C2 1112   0.044   4.544  14.446 -0.2283 -0.3825  0.0387
   73TMC2    C3 1113   0.112   4.637  14.530  0.3652 -0.3598  0.9913
   73TMC2    C4 1114   0.187   4.592  14.263 -0.5806 -0.1639 -0.1498
   73TMC2    C5 1115   0.235   4.695  14.336 -0.0926 -0.0790 -0.2076
   73TMC2    C6 1116   0.208   4.710  14.464 -0.3977  0.1287 -1.0077
   73TMC2     C 1117   4.695   4.534  14.221  0.0253 -0.2053  0.1700
   73TMC2     O 1118   0.002   4.616  14.134  0.0935  0.0425 -0.6073
   73TMC2     H 1119   4.693   4.477  14.487  1.0444 -1.6500  0.3350
   73TMC2    H1 1120   0.230   4.558  14.170 -0.4569 -1.8165  0.5130
   73TMC2    H2 1121   0.255   0.065  14.521 -1.0211  0.1193 -0.4790
   73TMC2    C7 1122   0.245   0.095  14.257 -0.7124  0.2119 -0.4691
   73TMC2    C8 1123   0.087   4.660  14.669 -0.1796  0.3845  0.0148
   73TMC2    O1 1124   0.298   0.189  14.308 -0.5017 -0.2517 -0.2726
   73TMC2    O2 1125   0.129   0.039  14.724  0.6153 -0.4899 -0.1943
   73TMC2    O5 1126   0.078   4.539  14.733  0.0478  0.4899  0.1465
   73TMC2    H5 1127   0.102   4.456  14.687 -0.6818  0.4443 -0.1482
   74MPD2     C 1128   4.249   4.481  13.992  0.0580  0.3366 -0.2897
   74MPD2    C1 1129   4.337   4.579  13.979  0.2040  0.6544 -0.4374
   74MPD2    C2 1130   4.449   4.586  14.061  0.6687  0.2641 -0.3531
   74MPD2    C3 1131   4.466   4.491  14.163 -0.0222  0.4103 -0.5038
   74MPD2    C4 1132   4.372   4.394  14.179  0.2784 -0.4012 -0.3241
   74MPD2    C5 1133   4.263   4.390  14.092 -0.2723  0.0983  0.3214
   74MPD2     H 1134   4.517   4.671  14.055  2.3768 -1.0789 -0.1604
   74MPD2    H1 1135   4.382   4.318  14.256  0.8364 -0.6968 -0.6900
   74MPD2    H2 1136   4.168   4.466  13.922 -1.0053 -1.0886  1.2258
   74MPD2    H3 1137   4.195   4.306  14.101  1.2336 -1.0822  0.8572
   74MPD2     N 1138   4.569   4.484  14.256 -0.4375  0.6601 -0.1140
   74MPD2    H5 1139   4.558   4.412  14.327  1.8383  0.4249  0.0127
   74MPD2    N1 1140   4.299   4.682  13.885 -0.4219 -0.1841  0.4655
   74MPD2    H7 1141   4.223   4.662  13.820 -0.7670  1.3070  0.4275
   75TCq2    C1 1142   4.382   1.300  14.030 -0.1770  0.5692 -0.3371
   75TCq2    O2 1143   4.446   1.396  14.071 -0.7580 -0.1108 -0.0643
   75TCq2    C2 1144   4.256   1.328  13.957  0.8195  0.3336 -0.3827
   75TCq2    C3 1145   4.185   1.438  13.992  0.0591  0.1116  0.4124
   75TCq2    C4 1146   4.067   1.463  13.925  0.0208  0.4027  0.2741
   75TCq2    C5 1147   4.035   1.400  13.810  0.1437  0.4189 -0.2709
   75TCq2    C6 1148   4.117   1.294  13.773 -0.0035  0.8080 -0.3569
   75TCq2    C7 1149   4.223   1.258  13.848 -0.6990 -0.8133 -0.0705
   75TCq2    C8 1150   4.094   1.207  13.659  0.0621 -0.7430 -0.7141
   75TCq2    O4 1151   4.053   1.261  13.559  0.1345 -0.2154 -0.3384
   75TCq2    C9 1152   3.987   1.569  13.979  0.2608  0.0610  0.3755
   75TCq2    O5 1153   3.866   1.568  13.953 -0.9556 -0.0275  0.0879
   75TCq2    O6 1154   4.033   1.639  14.074 -0.4590  0.5397  0.0139
   75TCq2    H2 1155   4.214   1.506  14.071 -0.1114 -1.8740  2.1786
   75TCq2    H3 1156   3.942   1.422  13.758  0.6599  0.9941 -0.9333
   75TCq2    H4 1157   4.278   1.170  13.816 -0.8409 -0.8710 -0.1548
   76MPD2     C 1158   3.147   1.850  12.396  0.4153  0.5842  0.0899
   76MPD2    C1 1159   3.248   1.850  12.304 -0.1648  1.0518 -0.3835
   76MPD2    C2 1160   3.286   1.728  12.253 -0.6722  0.1766  0.4617
   76MPD2    C3 1161   3.249   1.609  12.306 -0.2287 -0.4801 -0.3390
   76MPD2    C4 1162   3.156   1.609  12.401 -0.2064 -0.1707 -0.5968
   76MPD2    C5 1163   3.104   1.729  12.446 -1.1680  0.2059  0.0200
   76MPD2     H 1164   3.355   1.727  12.169  0.3426 -0.9233  1.3093
   76MPD2    H1 1165   3.117   1.513  12.433 -1.0929 -0.1490 -1.6323
   76MPD2    H2 1166   3.115   1.944  12.439 -1.6230 -0.9461  1.8919
   76MPD2    H3 1167   3.039   1.715  12.531  0.4778 -1.4188  1.0137
   76MPD2     N 1168   3.300   1.485  12.269  0.4002  0.4189 -0.4022
   76MPD2    H5 1169   3.249   1.401  12.294 -0.9789  1.1797 -0.6797
   76MPD2    N1 1170   3.296   1.964  12.235  0.3302  0.8885  0.7409
   76MPD2    H7 1171   3.343   1.949  12.147  2.1193 -1.3688  2.0786
   77TCq2    C1 1172   3.424   1.470  12.207  0.4338 -0.1483  0.6549
   77TCq2    O2 1173   3.500   1.552  12.157  0.1983  0.3711 -0.1862
   77TCq2    C2 1174   3.461   1.328  12.189 -0.2769 -0.1154 -0.2881
   77TCq2    C3 1175   3.354   1.238  12.187 -0.6032 -0.5644  0.1337
   77TCq2    C4 1176   3.378   1.103  12.185 -0.1641  0.6159  0.1070
   77TCq2    C5 1177   3.504   1.056  12.208 -0.0378  0.3738 -0.2066
   77TCq2    C6 1178   3.610   1.142  12.231 -0.0100 -0.4885  0.0549
   77TCq2    C7 1179   3.590   1.278  12.211  0.3143  0.6959 -0.5998
   77TCq2    C8 1180   3.743   1.084  12.259 -0.0624  0.1008  0.1005
   77TCq2    O4 1181   3.748   0.965  12.225  0.2149 -0.6535  0.4538
   77TCq2    C9 1182   3.273   1.010  12.168 -0.0707  0.3819  0.0183
   77TCq2    O5 1183   3.166   1.058  12.124 -0.3641  0.4729 -0.1560
   77TCq2    O6 1184   3.300   0.885  12.168 -0.1287 -0.3255  0.0031
   77TCq2    H2 1185   3.261   1.281  12.152 -0.7434  1.1724  2.6927
   77TCq2    H3 1186   3.530   0.952  12.191 -2.4258 -0.1846 -0.3651
   77TCq2    H4 1187   3.669   1.353  12.211 -0.4484  1.4987 -0.3390
   78MPD1     C 1188   0.912   3.645   2.615 -0.0319 -0.6546 -0.0338
   78MPD1    C1 1189   1.031   3.591   2.568 -0.1137  0.2623  0.0507
   78MPD1    C2 1190   1.042   3.552   2.436  1.0268  0.4237  0.2426
   78MPD1    C3 1191   0.939   3.573   2.350 -0.4540  0.6033  0.6795
   78MPD1    C4 1192   0.823   3.619   2.397  0.0592  0.8675  0.1798
   78MPD1    C5 1193   0.814   3.660   2.524 -0.5524 -0.6984  1.0850
   78MPD1     H 1194   1.140   3.525   2.400  0.9879  0.4905  0.0888
   78MPD1    H1 1195   0.732   3.617   2.337  0.2703  1.5588 -0.1579
   78MPD1    H2 1196   0.894   3.671   2.718 -2.0839  0.7558 -0.7616
   78MPD1    H3 1197   0.720   3.705   2.553 -0.3733 -0.5257  1.3934
   78MPD1     N 1198   0.935   3.516   2.222  0.3085 -0.3545  0.2336
   78MPD1    H5 1199   0.851   3.520   2.165 -0.5391  0.0972  1.5108
   78MPD1    N1 1200   1.144   3.597   2.649  0.3630 -0.3061 -0.0809
   78MPD1    H6 1201   1.206   3.522   2.622 -2.0348 -2.6333  0.8355
   78MPD1    H7 1202   1.116   3.607   2.746  2.7307  0.0877  0.5534
   79TCq2    C1 1203   1.028   3.434   2.166 -0.4188  0.1577  0.6804
   79TCq2    O2 1204   1.143   3.410   2.202  0.4865 -0.0097 -0.1062
   79TCq2    C2 1205   0.979   3.400   2.030  0.1991  0.3220  0.4046
   79TCq2    C3 1206   0.849   3.421   1.998 -0.0566 -0.5040  0.1760
   79TCq2    C4 1207   0.814   3.414   1.870 -0.2278 -0.5179  0.3211
   79TCq2    C5 1208   0.900   3.392   1.769 -0.7126 -0.0873 -0.2399
   79TCq2    C6 1209   1.032   3.368   1.803  0.3734 -0.0644  0.0926
   79TCq2    C7 1210   1.069   3.365   1.935 -0.1606 -0.1565  0.0886
   79TCq2    C8 1211   1.142   3.339   1.707  0.7682 -0.6665  0.4932
   79TCq2    O4 1212   1.252   3.307   1.754 -0.6336 -0.0020  0.2484
   79TCq2    C9 1213   0.673   3.446   1.841 -0.3696 -0.6746 -0.4795
   79TCq2    O5 1214   0.625   3.398   1.732  0.3721 -0.5932 -0.3054
   79TCq2    O6 1215   0.601   3.478   1.939 -0.7184  0.0289  0.2989
   79TCq2    H2 1216   0.775   3.419   2.077  1.4548 -0.2938  1.6091
   79TCq2    H3 1217   0.860   3.390   1.668 -0.2530  1.0258 -0.4434
   79TCq2    H4 1218   1.173   3.356   1.962 -0.2941  0.3203  0.7516
   80MPD2     C 1219   2.932   1.854  11.923  0.3419 -0.4020  0.3586
   80MPD2    C1 1220   2.796   1.869  11.927 -0.1350  0.1506  0.6063
   80MPD2    C2 1221   2.736   1.928  12.036 -0.7594  0.3725 -0.3565
   80MPD2    C3 1222   2.818   1.984  12.136  0.6809 -0.3749 -0.2928
   80MPD2    C4 1223   2.953   1.987  12.119 -0.2033 -0.0841 -0.1547
   80MPD2    C5 1224   3.012   1.918  12.022 -0.2833 -0.7972  0.1168
   80MPD2     H 1225   2.628   1.937  12.044 -0.9395 -2.4003  0.2581
   80MPD2    H1 1226   3.010   2.037  12.196 -0.2584  0.0916 -0.2274
   80MPD2    H2 1227   2.985   1.805  11.842 -0.4291  2.0812 -1.6305
   80MPD2    H3 1228   3.119   1.918  12.006 -0.2248  1.3084  0.5326
   80MPD2     N 1229   2.770   2.021  12.258  0.5389 -0.4520 -0.0073
   80MPD2    H5 1230   2.842   2.047  12.324  1.8552 -2.3040 -0.7042
   80MPD2    N1 1231   2.717   1.817  11.827  0.1285 -0.2902  0.3285
   80MPD2    H7 1232   2.621   1.787  11.845 -0.2424  0.2058 -0.8268
   81TCq2    C1 1233   2.768   1.794  11.702  0.0604  0.2746 -0.8346
   81TCq2    O2 1234   2.866   1.837  11.649 -0.3829  0.0796 -0.3989
   81TCq2    C2 1235   2.689   1.706  11.618 -0.1986  0.1225  0.4862
   81TCq2    C3 1236   2.759   1.638  11.525 -0.2295  0.7597  0.3599
   81TCq2    C4 1237   2.700   1.545  11.445  0.4727  0.7639  0.4320
   81TCq2    C5 1238   2.567   1.525  11.453  0.1199 -0.1692  0.6846
   81TCq2    C6 1239   2.494   1.591  11.550  0.0980 -0.2051  0.0401
   81TCq2    C7 1240   2.558   1.679  11.639 -0.5298 -0.7355  0.2418
   81TCq2    C8 1241   2.371   1.531  11.585  0.1271 -0.2374 -0.0217
   81TCq2    O4 1242   2.311   1.477  11.490  0.3096 -0.2742 -0.4796
   81TCq2    C9 1243   2.776   1.465  11.343  0.5027  0.0100 -0.4288
   81TCq2    O5 1244   2.897   1.491  11.324  0.0518  0.8968  0.2230
   81TCq2    O6 1245   2.723   1.357  11.305  0.4908  0.5406  0.2894
   81TCq2    H2 1246   2.867   1.646  11.518 -0.2477  0.4882 -0.2095
   81TCq2    H3 1247   2.514   1.455  11.390  0.7020  0.0380 -0.0220
   81TCq2    H4 1248   2.492   1.745  11.695  0.2914  1.0543 -0.9274
   82MPD2     C 1249   0.396   0.974  10.557 -0.1735  0.2507  0.6776
   82MPD2    C1 1250   0.376   0.839  10.536  0.5373  0.3288 -0.2368
   82MPD2    C2 1251   0.388   0.756  10.648 -0.2780  0.3518 -0.3908
   82MPD2    C3 1252   0.432   0.807  10.766  0.2251  0.4334  0.2416
   82MPD2    C4 1253   0.468   0.934  10.775  0.0796 -0.0064  0.2403
   82MPD2    C5 1254   0.445   1.021  10.673 -0.3223 -0.6073 -1.3897
   82MPD2     H 1255   0.366   0.650  10.649  0.2452  0.2522  0.6861
   82MPD2    H1 1256   0.511   0.971  10.868  0.8424  0.0740 -0.1392
   82MPD2    H2 1257   0.411   1.036  10.469 -1.5138 -0.9500 -0.4067
   82MPD2    H3 1258   0.465   1.125  10.698 -1.1722 -0.7743 -0.0186
   82MPD2     N 1259   0.451   0.733  10.880 -0.1143 -0.0856  0.0326
   82MPD2    H5 1260   0.501   0.780  10.954  0.5249 -1.4277  0.4501
   82MPD2    N1 1261   0.344   0.793  10.413 -0.6293 -0.1076  0.1703
   82MPD2    H7 1262   0.352   0.859  10.336 -0.1639  1.2484  1.3650
   83TCq2    C1 1263   0.426   0.601  10.901 -0.0473 -0.8559  0.3458
   83TCq2    O2 1264   0.347   0.524  10.842  0.1963  0.4129  0.3024
   83TCq2    C2 1265   0.537   0.547  10.980  0.2944 -0.2323  0.5568
   83TCq2    C3 1266   0.667   0.576  10.943 -0.0859  0.0776  0.0953
   83TCq2    C4 1267   0.761   0.472  10.943  0.1212 -0.4635  0.0207
   83TCq2    C5 1268   0.732   0.341  10.971 -0.0369 -0.1210  0.9845
   83TCq2    C6 1269   0.608   0.318  11.016  0.2821  0.1396  0.4041
   83TCq2    C7 1270   0.513   0.417  11.020  0.7274  0.4709 -0.4766
   83TCq2    C8 1271   0.578   0.213  11.112  0.8432 -0.1015  0.5939
   83TCq2    O4 1272   0.501   0.242  11.206  0.3599 -0.3106  0.0498
   83TCq2    C9 1273   0.896   0.503  10.897  0.0234 -0.0248  0.7008
   83TCq2    O5 1274   0.979   0.410  10.904 -0.5883  0.6262 -0.1333
   83TCq2    O6 1275   0.928   0.624  10.895 -0.1294  0.2327 -0.0895
   83TCq2    H2 1276   0.696   0.678  10.921 -1.3052  0.7367  1.5864
   83TCq2    H3 1277   0.809   0.267  10.958  0.2939  0.1733  1.2628
   83TCq2    H4 1278   0.412   0.389  11.045  0.6803  1.2679  0.2535
   84TCq2    C1 1279   2.110   4.318  10.784 -0.4557 -0.0679 -0.2544
   84TCq2    O2 1280   2.188   4.306  10.690  0.4558 -0.0930  0.7871
   84TCq2    C2 1281   2.130   4.430  10.863 -0.3533 -0.6926 -1.3598
   84TCq2    C3 1282   2.231   4.512  10.825  0.0364  0.1165 -0.0886
   84TCq2    C4 1283   2.227   4.643  10.862 -0.6531  0.0658  0.1514
   84TCq2    C5 1284   2.139   4.681  10.960  0.4692 -0.2989  0.1539
   84TCq2    C6 1285   2.046   4.594  11.002 -0.0159 -0.4331 -0.2389
   84TCq2    C7 1286   2.030   4.470  10.946 -0.3181  0.5208 -0.1639
   84TCq2    C8 1287   1.947   4.644  11.094 -0.0021  0.5321  0.0044
   84TCq2    O4 1288   1.970   0.031  11.129  0.3363  0.0146 -0.8208
   84TCq2    C9 1289   2.342   4.724  10.832  0.4495  0.4678 -0.0649
   84TCq2    O5 1290   2.416   4.681  10.745  0.2911 -0.3433  0.1572
   84TCq2    O6 1291   2.332   0.121  10.869  0.5353 -0.4687  0.6108
   84TCq2    H2 1292   2.302   4.480  10.749 -0.9440  0.7319 -1.2723
   84TCq2    H3 1293   2.157   0.044  11.021 -1.8509 -0.3287  0.8646
   84TCq2    H4 1294   1.939   4.417  10.972  2.0503 -2.9332  1.0366
   85MPD2     C 1295   2.364   2.724  16.332 -0.1163  0.5628  0.4861
   85MPD2    C1 1296   2.264   2.685  16.241  0.0893 -0.9416  0.2559
   85MPD2    C2 1297   2.229   2.772  16.136 -0.5078  0.6660 -0.6298
   85MPD2    C3 1298   2.285   2.902  16.128  0.3679  0.7774  0.1063
   85MPD2    C4 1299   2.375   2.938  16.229 -0.3328 -0.4045  0.5914
   85MPD2    C5 1300   2.409   2.848  16.330  0.0894  0.5019  0.4032
   85MPD2     H 1301   2.155   2.741  16.063 -1.3153  1.3865 -0.1235
   85MPD2    H1 1302   2.407   3.041  16.244 -0.1067 -0.4999  0.7570
   85MPD2    H2 1303   2.395   2.666  16.418 -0.8124  0.3435  0.5969
   85MPD2    H3 1304   2.470   2.886  16.410  1.0406  0.8927 -0.5072
   85MPD2     N 1305   2.235   2.999  16.037  0.5057 -0.3973 -0.1442
   85MPD2    H5 1306   2.192   2.961  15.953  0.6783 -0.8060 -0.0486
   85MPD2    N1 1307   2.190   2.574  16.266 -0.5854 -0.0595  0.1837
   85MPD2    H7 1308   2.111   2.557  16.205 -1.0956  0.2923  0.7404
   86TCq2    C1 1309   2.217   3.131  16.068  0.5603 -0.1770 -0.2368
   86TCq2    O2 1310   2.221   3.192  16.170 -0.3936  0.4599 -0.0226
   86TCq2    C2 1311   2.163   3.214  15.962 -0.0830  0.5087 -0.0935
   86TCq2    C3 1312   2.095   3.331  15.984  0.4950  0.0693 -0.7789
   86TCq2    C4 1313   2.070   3.422  15.885 -0.0067  0.7109 -0.0037
   86TCq2    C5 1314   2.118   3.397  15.759 -0.2892 -0.4558 -0.1119
   86TCq2    C6 1315   2.189   3.280  15.739  0.6478  0.1910 -0.0904
   86TCq2    C7 1316   2.208   3.183  15.835  0.4372 -0.0611  0.2770
   86TCq2    C8 1317   2.231   3.244  15.605 -0.0900  0.2899  0.2718
   86TCq2    O4 1318   2.252   3.125  15.587 -0.3152 -0.6942 -0.4283
   86TCq2    C9 1319   2.008   3.546  15.909  0.0693 -0.2546  0.1062
   86TCq2    O5 1320   1.953   3.557  16.024 -0.0047 -0.4075  0.1497
   86TCq2    O6 1321   1.990   3.626  15.813  0.2525 -0.5029 -0.2363
   86TCq2    H2 1322   2.072   3.362  16.085 -3.0254  2.5940 -2.3676
   86TCq2    H3 1323   2.105   3.465  15.676 -1.4454 -0.0757  0.3845
   86TCq2    H4 1324   2.268   3.094  15.816  1.1342  0.2744  0.9069
   87MPD2     C 1325   0.564   2.373   1.634 -0.0729 -0.1346 -0.1216
   87MPD2    C1 1326   0.502   2.370   1.510  0.4437 -0.6828 -1.5536
   87MPD2    C2 1327   0.532   2.470   1.423 -0.5538  0.3907  0.7936
   87MPD2    C3 1328   0.584   2.588   1.469 -0.1132  0.2980 -0.7456
   87MPD2    C4 1329   0.626   2.601   1.593 -0.5262 -0.4444 -0.6107
   87MPD2    C5 1330   0.626   2.490   1.675 -0.4738  1.0191 -0.3002
   87MPD2     H 1331   0.482   2.468   1.327 -2.2946 -1.2335  1.7234
   87MPD2    H1 1332   0.662   2.701   1.616 -0.6609 -0.4790 -0.2522
   87MPD2    H2 1333   0.547   2.295   1.709 -1.0362 -1.5715 -1.8343
   87MPD2    H3 1334   0.674   2.497   1.772 -1.5867 -1.4921  0.4169
   87MPD2     N 1335   0.576   2.705   1.385 -0.5931  0.6143 -0.2773
   87MPD2    H5 1336   0.588   2.794   1.434 -0.3088  2.1014 -3.0451
   87MPD2    N1 1337   0.425   2.252   1.481 -0.3642  0.7418 -0.1302
   87MPD2    H7 1338   0.396   2.199   1.563 -0.3733 -1.9782 -1.9125
   88TCq2    C1 1339   0.378   2.222   1.356 -0.0162  0.4970  0.0289
   88TCq2    O2 1340   0.383   2.288   1.253 -0.2064  0.4572 -0.1294
   88TCq2    C2 1341   0.306   2.103   1.362  0.4927 -0.3356  0.0391
   88TCq2    C3 1342   0.315   2.013   1.464  0.0853 -0.2461 -0.3217
   88TCq2    C4 1343   0.236   1.899   1.460 -0.9128 -0.7422  0.0483
   88TCq2    C5 1344   0.158   1.873   1.351  0.1577 -0.2762  0.1903
   88TCq2    C6 1345   0.145   1.968   1.244  0.2720 -0.5005  0.1212
   88TCq2    C7 1346   0.226   2.077   1.248 -0.0906  0.5742  0.9300
   88TCq2    C8 1347   0.087   1.924   1.122  0.1523  0.3301  0.5637
   88TCq2    O4 1348   0.120   1.971   1.016 -0.4562  0.0046  0.7937
   88TCq2    C9 1349   0.240   1.812   1.579 -0.0037 -0.0529 -0.0831
   88TCq2    O5 1350   0.266   1.872   1.686 -0.9517  0.5227  0.6540
   88TCq2    O6 1351   0.196   1.694   1.582 -0.3892  0.3671 -0.2163
   88TCq2    H2 1352   0.372   2.029   1.555  0.1107  0.6589 -0.4928
   88TCq2    H3 1353   0.102   1.780   1.343 -0.1589  0.0783 -1.7640
   88TCq2    H4 1354   0.230   2.150   1.168  1.2334 -1.5711 -0.9311
   89MPD2     C 1355   0.651   4.170   1.855 -0.0012 -0.0887  0.5391
   89MPD2    C1 1356   0.520   4.153   1.813  0.3370  0.0167 -0.0638
   89MPD2    C2 1357   0.497   4.173   1.670  0.5151 -0.4252  0.7448
   89MPD2    C3 1358   0.606   4.200   1.588 -0.3846 -0.5058 -0.4947
   89MPD2    C4 1359   0.736   4.199   1.637  0.2384  0.6082 -0.3316
   89MPD2    C5 1360   0.756   4.181   1.773  0.5699 -0.1022 -0.3255
   89MPD2     H 1361   0.404   4.155   1.617  0.2674  0.5134  0.8684
   89MPD2    H1 1362   0.823   4.210   1.575  0.9332  3.2149  1.1136
   89MPD2    H2 1363   0.682   4.155   1.958  2.5661 -0.6917 -0.3319
   89MPD2    H3 1364   0.855   4.186   1.817  1.3117  2.4213 -2.2905
   89MPD2     N 1365   0.578   4.223   1.450 -0.0583 -0.5688  0.1974
   89MPD2    H5 1366   0.483   4.226   1.416  0.0493 -1.5628 -0.2182
   89MPD2    N1 1367   0.414   4.100   1.891  0.0998 -0.4092 -0.1945
   89MPD2    H7 1368   0.335   4.059   1.843 -0.2719  1.0704 -0.8337
   90TCq2    C1 1369   0.677   4.222   1.351  0.6469  0.6824  0.3573
   90TCq2    O2 1370   0.795   4.187   1.364  0.2963 -0.5462  0.2194
   90TCq2    C2 1371   0.631   4.239   1.212  0.1514 -0.0482  0.4902
   90TCq2    C3 1372   0.715   4.197   1.113 -0.9697 -0.0363 -0.5495
   90TCq2    C4 1373   0.700   4.229   0.982  0.8157  0.6869  0.4754
   90TCq2    C5 1374   0.611   4.324   0.950  0.5748 -0.7075 -0.2821
   90TCq2    C6 1375   0.531   4.374   1.052  0.2156 -0.4533 -0.2858
   90TCq2    C7 1376   0.532   4.332   1.183  0.5580  0.0932 -0.4145
   90TCq2    C8 1377   0.435   4.484   1.021  0.2335 -0.1308 -0.9258
   90TCq2    O4 1378   0.343   4.496   1.103 -0.2452 -0.4342 -0.1369
   90TCq2    C9 1379   0.797   4.181   0.884  0.3736 -0.1363 -0.6165
   90TCq2    O5 1380   0.798   4.238   0.771  0.6061 -0.6882  0.1851
   90TCq2    O6 1381   0.884   4.106   0.935  0.2175  0.3265 -0.3159
   90TCq2    H2 1382   0.775   4.108   1.130  1.1417  1.6366  0.6456
   90TCq2    H3 1383   0.592   4.357   0.848  3.2998  0.2146 -0.4696
   90TCq2    H4 1384   0.487   4.397   1.257  0.4808  0.5213 -0.8379
   91TMC2    C1 1385   2.188   3.868  16.338 -0.1570 -0.6909 -0.5205
   91TMC2    C2 1386   2.260   3.981  16.329 -0.2738 -0.2491 -0.2499
   91TMC2    C3 1387   2.234   4.087  16.416  0.0333  0.0900 -0.1738
   91TMC2    C4 1388   2.077   3.858  16.420 -0.0274 -0.7785  0.8672
   91TMC2    C5 1389   2.046   3.972  16.486  0.5549  0.0125  0.2306
   91TMC2    C6 1390   2.118   4.086  16.490 -0.6912  0.0582  0.4104
   91TMC2     C 1391   2.266   3.740  16.315  0.0152 -0.1627 -0.4129
   91TMC2     O 1392   2.204   3.637  16.303  0.0947 -0.0851  0.1032
   91TMC2     H 1393   2.341   3.995  16.257  0.3736 -1.6081  0.2123
   91TMC2    H1 1394   2.017   3.770  16.441 -0.9629 -0.9715 -2.7087
   91TMC2    H2 1395   2.078   4.169  16.547 -1.8354 -0.0121 -0.2869
   91TMC2    C7 1396   1.927   3.983  16.569  0.6680 -0.2793 -0.4767
   91TMC2    C8 1397   2.314   4.208  16.395  0.6336  0.9129 -0.0526
   91TMC2    O1 1398   1.931   4.056  16.664 -0.3872  0.4668  0.5173
   91TMC2    O2 1399   2.381   4.236  16.294 -0.9126  0.4872  0.1144
   91TMC2    O5 1400   2.291   4.283  16.503 -0.6592  0.3827  0.3862
   91TMC2    H5 1401   2.280   4.228  16.583  2.0085  2.3837  2.1443
   92MPD2     C 1402   2.472   3.526  16.304  0.6404 -0.1665  0.9277
   92MPD2    C1 1403   2.494   3.658  16.335  0.3810 -0.6491 -0.4185
   92MPD2    C2 1404   2.617   3.700  16.378 -0.0754  0.4002 -0.0044
   92MPD2    C3 1405   2.728   3.612  16.372  0.2168  0.0134 -0.2421
   92MPD2    C4 1406   2.710   3.484  16.317  0.7043  0.5437  0.0299
   92MPD2    C5 1407   2.580   3.443  16.300 -0.1471 -0.0710 -0.3724
   92MPD2     H 1408   2.641   3.802  16.402 -1.6294  0.8801 -0.4852
   92MPD2    H1 1409   2.779   3.402  16.300 -0.5120  0.2690 -3.5264
   92MPD2    H2 1410   2.377   3.483  16.278  0.2083 -0.1424  2.4293
   92MPD2    H3 1411   2.549   3.342  16.277 -2.3045 -0.1221  2.7823
   92MPD2     N 1412   2.852   3.662  16.413 -0.8621 -0.4076 -0.4524
   92MPD2    H5 1413   2.854   3.747  16.469  1.5946  0.6693 -2.2272
   92MPD2    N1 1414   2.397   3.757  16.345 -0.5756  0.0431 -0.4250
   92MPD2    H7 1415   2.437   3.843  16.382 -0.5490  0.0688 -0.5121
   93MPD2     C 1416   4.002   3.415  13.759 -0.3331  0.3653  0.2003
   93MPD2    C1 1417   3.968   3.530  13.689 -0.2891 -0.6852  0.4157
   93MPD2    C2 1418   3.831   3.558  13.657 -0.3247  0.3209  0.1772
   93MPD2    C3 1419   3.732   3.478  13.711  0.5357  0.1898  0.2148
   93MPD2    C4 1420   3.766   3.362  13.772 -0.0169 -0.2301 -0.5044
   93MPD2    C5 1421   3.898   3.339  13.799  0.0303  0.0411  0.3308
   93MPD2     H 1422   3.815   3.634  13.582 -1.0194 -0.5467 -0.5632
   93MPD2    H1 1423   3.681   3.308  13.811 -0.5104  0.2507 -0.9174
   93MPD2    H2 1424   4.103   3.392  13.791 -0.5606  0.4995  1.0191
   93MPD2    H3 1425   3.922   3.248  13.854 -0.8236 -0.7281 -0.5659
   93MPD2     N 1426   3.596   3.511  13.686 -0.7124 -0.0795 -0.5666
   93MPD2    H5 1427   3.532   3.435  13.708  0.3590 -0.5681  0.8296
   93MPD2    N1 1428   4.058   3.637  13.656  0.4696  0.3462  0.3657
   93MPD2    H7 1429   4.019   3.729  13.638 -0.5331 -0.3352 -0.9562
   94TCq2    C1 1430   4.192   3.618  13.651  0.3778  0.8217 -0.4369
   94TCq2    O2 1431   4.249   3.510  13.645  0.2588 -0.1259  0.2889
   94TCq2    C2 1432   4.274   3.746  13.650  0.2079  0.6853 -0.0315
   94TCq2    C3 1433   4.209   3.866  13.643 -0.5877  0.0450  0.0516
   94TCq2    C4 1434   4.278   3.977  13.606 -0.0118 -0.2518  0.1651
   94TCq2    C5 1435   4.417   3.968  13.592  0.1663 -0.0953 -0.2199
   94TCq2    C6 1436   4.488   3.849  13.604 -0.0524 -0.1678 -0.5005
   94TCq2    C7 1437   4.408   3.740  13.635  0.4535 -0.4260 -0.4598
   94TCq2    C8 1438   4.629   3.842  13.554 -0.4556 -0.0091  0.4225
   94TCq2    O4 1439   4.695   3.746  13.599 -0.3043 -0.4063  0.1779
   94TCq2    C9 1440   4.205   4.086  13.561  0.5861  0.2067 -0.7036
   94TCq2    O5 1441   4.273   4.176  13.505 -0.2658  0.2009  1.0111
   94TCq2    O6 1442   4.083   4.060  13.552 -0.3875 -0.1021 -0.1288
   94TCq2    H2 1443   4.103   3.878  13.660 -0.8206 -0.3592 -1.1333
   94TCq2    H3 1444   4.470   4.056  13.559 -1.7683  0.2194 -2.4647
   94TCq2    H4 1445   4.458   3.644  13.637  0.4925 -0.3809  0.6361
   95TMC2    C1 1446   3.999   1.247  16.283  0.1184  0.6166  0.1324
   95TMC2    C2 1447   3.957   1.140  16.362  0.0468 -0.0707 -0.7844
   95TMC2    C3 1448   3.898   1.168  16.483 -0.0189 -1.1402  0.1576
   95TMC2    C4 1449   4.009   1.376  16.333  0.1166 -0.1993  0.7658
   95TMC2    C5 1450   3.961   1.393  16.459  0.4359  0.0274  0.2019
   95TMC2    C6 1451   3.906   1.292  16.537  0.3607  0.2035 -0.4682
   95TMC2     C 1452   4.058   1.216  16.151  0.4019  0.0838 -0.0909
   95TMC2     O 1453   4.127   1.310  16.116 -0.2039  0.1812  0.5516
   95TMC2     H 1454   3.957   1.040  16.320 -0.9731 -0.4725  0.1657
   95TMC2    H1 1455   4.040   1.452  16.262 -1.2408 -0.0280  0.3398
   95TMC2    H2 1456   3.868   1.306  16.637  1.0604 -0.8408 -0.0578
   95TMC2    C7 1457   3.983   1.519  16.523  0.3862 -0.1774 -0.6736
   95TMC2    C8 1458   3.852   1.067  16.572 -0.0659  0.0214 -0.3331
   95TMC2    O1 1459   3.911   1.548  16.618  0.4841  0.0393 -0.3552
   95TMC2    O2 1460   3.787   1.092  16.675  0.4680 -0.3261  0.5739
   95TMC2    O5 1461   3.933   0.967  16.556  0.3434  0.6138 -0.0904
   95TMC2    H5 1462   3.977   0.983  16.469 -2.4345  0.6749 -1.4790
   96MPD2     C 1463   4.208   0.926  15.766  0.0680  0.3586  0.0812
   96MPD2    C1 1464   4.251   1.048  15.807  0.1018 -0.0125 -0.3676
   96MPD2    C2 1465   4.200   1.088  15.930  0.1076  0.0173 -0.5192
   96MPD2    C3 1466   4.103   1.024  16.000  0.0826  0.0745 -0.3843
   96MPD2    C4 1467   4.065   0.899  15.950  0.0232  0.0785  0.0053
   96MPD2    C5 1468   4.121   0.852  15.827 -0.4733  0.7642  0.1070
   96MPD2     H 1469   4.241   1.179  15.972  0.1664 -0.8910  1.4030
   96MPD2    H1 1470   3.988   0.835  15.991  2.6101 -0.2060  4.3555
   96MPD2    H2 1471   4.245   0.884  15.673 -1.0755  0.7168 -0.5320
   96MPD2    H3 1472   4.075   0.764  15.783  2.3578 -0.2034 -0.9225
   96MPD2     N 1473   4.038   1.087  16.108 -0.2854  0.1443 -0.2490
   96MPD2    H5 1474   3.960   1.038  16.151 -1.1841  1.3983 -0.4317
   96MPD2    N1 1475   4.345   1.110  15.727 -0.0133  0.1240 -0.3499
   96MPD2    H7 1476   4.369   1.066  15.638 -1.1800  1.6056 -1.4005
   97MPD2     C 1477   1.949   3.511   1.324 -0.4623 -0.0020  0.0445
   97MPD2    C1 1478   1.813   3.478   1.317 -0.4780  0.6697  0.9349
   97MPD2    C2 1479   1.769   3.395   1.216 -0.0504  0.0957  0.7515
   97MPD2    C3 1480   1.857   3.341   1.121 -0.3841 -0.9415 -0.4271
   97MPD2    C4 1481   1.991   3.368   1.128 -0.1198  0.1284 -0.4230
   97MPD2    C5 1482   2.037   3.451   1.231 -0.1664  0.2318 -0.2272
   97MPD2     H 1483   1.662   3.373   1.219  0.1132 -1.0708 -2.7107
   97MPD2    H1 1484   2.062   3.310   1.070 -1.3384 -2.4790  0.7335
   97MPD2    H2 1485   1.993   3.568   1.405  1.5790 -0.5499 -0.6809
   97MPD2    H3 1486   2.143   3.476   1.231 -0.3238  0.8705 -0.6259
   97MPD2     N 1487   1.821   3.264   1.004  0.4109  0.2082  0.5121
   97MPD2    H5 1488   1.893   3.245   0.934  1.9116  0.0806  2.0878
   97MPD2    N1 1489   1.731   3.535   1.415  0.1354 -0.0922  0.0691
   97MPD2    H7 1490   1.781   3.576   1.493  0.4309  1.8779 -1.1432
   98TCq2    C1 1491   1.690   3.212   0.988  0.0985 -1.0923  0.4397
   98TCq2    O2 1492   1.596   3.218   1.066 -0.2893 -0.1550 -0.0268
   98TCq2    C2 1493   1.671   3.137   0.866  0.4090  0.0078  0.4850
   98TCq2    C3 1494   1.554   3.073   0.857 -0.2030  0.5678  0.3914
   98TCq2    C4 1495   1.522   3.007   0.738 -0.0863 -0.1964 -0.1206
   98TCq2    C5 1496   1.607   3.012   0.628  0.2422 -0.4020  0.5769
   98TCq2    C6 1497   1.726   3.070   0.649 -0.4211  0.0634  0.2374
   98TCq2    C7 1498   1.758   3.132   0.763 -0.6573  0.5296  0.5239
   98TCq2    C8 1499   1.811   3.104   0.535  0.1459 -0.7140  0.1203
   98TCq2    O4 1500   1.931   3.129   0.543  0.5285 -0.3545 -0.1895
   98TCq2    C9 1501   1.401   2.934   0.727 -0.6347  0.3981 -0.7511
   98TCq2    O5 1502   1.355   2.898   0.618  0.1769 -0.2633 -0.2990
   98TCq2    O6 1503   1.327   2.913   0.828 -0.5736  0.1466  0.3988
   98TCq2    H2 1504   1.477   3.078   0.933  0.7141 -2.9478  1.5705
   98TCq2    H3 1505   1.575   2.955   0.541 -1.4793 -0.8585  1.4978
   98TCq2    H4 1506   1.856   3.179   0.767  0.0661 -1.0159  0.9605
   99MPD2     C 1507   0.109   1.015   1.069  0.1880 -0.6616  0.0144
   99MPD2    C1 1508   0.019   0.920   1.123 -0.1436 -0.3431  0.1828
   99MPD2    C2 1509   4.641   0.873   1.043  0.4139  0.5491  0.5035
   99MPD2    C3 1510   4.623   0.929   0.917  0.3148 -0.7525  0.4089
   99MPD2    C4 1511   4.702   1.037   0.871  0.3550  0.0355 -0.5247
   99MPD2    C5 1512   0.077   1.072   0.956 -1.0135  0.3744  0.5718
   99MPD2     H 1513   4.578   0.788   1.068  1.2257 -0.2363 -0.0832
   99MPD2    H1 1514   4.676   1.096   0.784  0.9398 -0.8049 -1.2711
   99MPD2    H2 1515   0.198   1.053   1.119 -0.8678  0.5948  0.9398
   99MPD2    H3 1516   0.132   1.162   0.929  0.0898 -0.4077  0.2197
   99MPD2     N 1517   4.519   0.872   0.840 -0.0366 -0.9033 -0.1669
   99MPD2    H5 1518   4.457   0.801   0.877 -0.3056 -1.1359 -1.0474
   99MPD2    N1 1519   0.026   0.878   1.265  0.0222 -0.0185 -0.6487
   99MPD2    H7 1520   4.679   0.815   1.298  1.5140 -1.0547  0.6534
  100TCq2    C1 1521   0.109   0.930   1.363 -0.4871  0.0825 -0.9767
  100TCq2    O2 1522   0.208   0.997   1.334 -0.0396  0.1381 -0.2941
  100TCq2    C2 1523   0.076   0.893   1.499 -0.4354  0.3941  0.3894
  100TCq2    C3 1524   0.178   0.882   1.595  0.0123  0.1216 -0.0415
  100TCq2    C4 1525   0.139   0.836   1.718 -0.8264  0.3516  0.1059
  100TCq2    C5 1526   0.008   0.802   1.749  0.6095 -0.1303 -0.2547
  100TCq2    C6 1527   4.644   0.815   1.646  0.7986 -0.1070 -0.5022
  100TCq2    C7 1528   4.676   0.858   1.519  0.8756 -0.0336  0.4804
  100TCq2    C8 1529   4.498   0.791   1.663 -0.1003 -0.4165 -0.2106
  100TCq2    O4 1530   4.461   0.812   1.781 -0.1588 -0.4114  0.1666
  100TCq2    C9 1531   0.241   0.812   1.819 -0.0894 -0.1784 -0.1780
  100TCq2    O5 1532   0.213   0.758   1.931 -0.4590 -0.1468  0.2081
  100TCq2    O6 1533   0.357   0.840   1.788 -0.5121 -0.0217 -0.2096
  100TCq2    H2 1534   0.279   0.916   1.576  0.2523 -2.1564 -2.8014
  100TCq2    H3 1535   4.701   0.780   1.851  0.7335  0.2270 -0.1376
  100TCq2    H4 1536   4.602   0.877   1.442 -0.2375 -1.0125  1.3087
  101MPD2     C 1537   1.112   1.402  12.884  0.7331  0.5950  0.8196
  101MPD2    C1 1538   1.037   1.499  12.939  0.1339  0.2257  0.1217
  101MPD2    C2 1539   0.938   1.460  13.027  0.1940  0.7199  0.2341
  101MPD2    C3 1540   0.900   1.325  13.042  0.0386 -0.3694  0.3961
  101MPD2    C4 1541   0.976   1.229  12.977 -0.3885  0.7484 -0.4844
  101MPD2    C5 1542   1.079   1.271  12.903  0.4472 -0.8432  0.6420
  101MPD2     H 1543   0.871   1.534  13.069 -0.0106  1.0089 -0.6032
  101MPD2    H1 1544   0.966   1.121  12.975  0.5772  0.6314  1.0136
  101MPD2    H2 1545   1.200   1.429  12.828  0.8360  2.0064  1.6689
  101MPD2    H3 1546   1.137   1.199  12.847  2.1290 -0.0692  1.3835
  101MPD2     N 1547   0.777   1.307  13.113 -0.2844  0.2323 -0.1875
  101MPD2    H5 1548   0.728   1.380  13.164  2.4609  1.8769  0.0899
  101MPD2    N1 1549   1.060   1.635  12.905 -0.2529  0.2953 -0.2069
  101MPD2    H7 1550   1.135   1.650  12.838 -1.8915  0.9129 -1.8951
  102TCq2    C1 1551   1.357   2.037  12.824  1.4505  0.9639 -0.4503
  102TCq2    O2 1552   1.435   1.945  12.827  0.0492  0.3181 -0.3854
  102TCq2    C2 1553   1.216   2.005  12.830 -0.2781 -0.8938 -0.0705
  102TCq2    C3 1554   1.138   2.093  12.756 -0.6704  0.6142 -0.2313
  102TCq2    C4 1555   1.009   2.073  12.748 -0.4716  0.0075 -0.0470
  102TCq2    C5 1556   0.957   1.955  12.810  0.0338 -0.2245  0.4378
  102TCq2    C6 1557   1.040   1.864  12.872  0.4720  0.2386  0.3332
  102TCq2    C7 1558   1.175   1.882  12.879  0.1975  0.6340  0.2755
  102TCq2    C8 1559   0.978   1.744  12.917  0.1499 -0.2684  0.5620
  102TCq2    O4 1560   0.864   1.746  12.965  0.4584 -0.6669  0.2505
  102TCq2    C9 1561   0.925   2.162  12.677  0.0023  0.2626  0.0736
  102TCq2    O5 1562   0.829   2.106  12.619 -0.0158  0.2805 -0.0695
  102TCq2    O6 1563   0.975   2.274  12.645  0.9103  0.2138  0.5051
  102TCq2    H2 1564   1.181   2.175  12.698 -3.9989  0.4380 -2.9112
  102TCq2    H3 1565   0.852   1.927  12.809  0.5885 -2.2116 -2.3017
  102TCq2    H4 1566   1.230   1.819  12.948  0.0681 -1.8107 -1.8506
  103TMC2    C1 1567   4.426   1.407  12.537  0.4361 -0.7164 -0.0601
  103TMC2    C2 1568   4.536   1.385  12.459 -0.4595 -0.1171  0.2264
  103TMC2    C3 1569   4.640   1.471  12.476  0.7978 -0.6683 -0.2510
  103TMC2    C4 1570   4.419   1.504  12.633  0.0578  0.3234 -0.5514
  103TMC2    C5 1571   4.527   1.589  12.649  0.0142  0.0395 -0.2946
  103TMC2    C6 1572   4.645   1.569  12.573  0.1685  0.5162 -0.0923
  103TMC2     C 1573   4.297   1.367  12.483 -0.0062  0.2329 -0.2614
  103TMC2     O 1574   4.196   1.407  12.543 -0.7615 -0.0765  0.0518
  103TMC2     H 1575   4.543   1.297  12.396 -1.6582 -0.2087  0.2295
  103TMC2    H1 1576   4.321   1.525  12.673  0.5966  2.8258 -0.4843
  103TMC2    H2 1577   4.725   1.643  12.581 -1.1730  2.1161 -1.5245
  103TMC2    C7 1578   4.520   1.698  12.748  0.0728  0.2656 -0.2725
  103TMC2    C8 1579   0.034   1.444  12.403  0.8582  0.5710 -0.5229
  103TMC2    O1 1580   4.430   1.693  12.832 -0.1896 -0.2875  0.0988
  103TMC2    O2 1581   0.055   1.334  12.350  0.7251 -0.3634 -0.2108
  103TMC2    O5 1582   0.103   1.562  12.388  0.0944 -0.2582 -0.5917
  103TMC2    H5 1583   0.040   1.636  12.373  1.6823  0.9240 -1.4122
  104MPD2     C 1584   4.256   1.106  12.226 -0.4120 -0.2091  0.4085
  104MPD2    C1 1585   4.216   1.206  12.314  0.0300  0.1782  0.1384
  104MPD2    C2 1586   4.078   1.214  12.342  0.0036  0.0702 -0.0178
  104MPD2    C3 1587   3.990   1.137  12.279 -0.4412  0.1551 -0.0726
  104MPD2    C4 1588   4.034   1.022  12.213  0.6804 -0.1954 -0.5840
  104MPD2    C5 1589   4.169   1.020  12.177 -0.2084 -0.7321  0.7355
  104MPD2     H 1590   4.037   1.284  12.414 -0.3980 -0.5176  0.3273
  104MPD2    H1 1591   3.975   0.939  12.177  3.0501 -1.5290 -1.3930
  104MPD2    H2 1592   4.361   1.083  12.213 -0.3739 -0.4012  1.0282
  104MPD2    H3 1593   4.202   0.926  12.135  1.8404  0.7048 -0.8815
  104MPD2     N 1594   3.849   1.166  12.287 -0.2870  0.5286  0.2120
  104MPD2    H5 1595   3.829   1.257  12.327 -0.0275 -0.0058  1.5551
  104MPD2    N1 1596   4.314   1.279  12.380 -0.6948 -0.4136  0.3027
  104MPD2    H7 1597   4.410   1.262  12.351 -0.9971 -2.1254  0.3053
  105MPD2     C 1598   0.130   0.897  17.662 -0.6413 -0.6266  0.0696
  105MPD2    C1 1599   0.229   0.992  17.670 -0.0494  0.2507  0.3096
  105MPD2    C2 1600   0.210   1.101   0.050 -0.4298 -0.0933  0.4011
  105MPD2    C3 1601   0.085   1.121   0.109  0.0245 -0.2212 -0.1859
  105MPD2    C4 1602   4.710   1.019   0.113 -0.0850  0.0774 -0.1326
  105MPD2    C5 1603   0.020   0.900   0.045 -0.2855  0.5151 -0.1711
  105MPD2     H 1604   0.282   1.182   0.041  0.2309 -0.5267  1.7470
  105MPD2    H1 1605   4.621   1.031   0.173  0.2730 -0.9667  0.6158
  105MPD2    H2 1606   0.155   0.801  17.618 -1.0976  0.8140 -3.3469
  105MPD2    H3 1607   4.676   0.817   0.042  0.5563 -0.2280  0.6031
  105MPD2     N 1608   0.076   1.251   0.179  0.0324 -0.2015  0.0546
  105MPD2    H5 1609   0.159   1.309   0.178  1.5750 -2.4347 -0.2007
  105MPD2    N1 1610   0.353   0.993  17.600 -0.0899  0.0412 -0.8031
  105MPD2    H7 1611   0.411   1.075  17.615 -1.6141  0.9790  0.0448
  106TCq2    C1 1612   4.699   1.282   0.263 -0.2151 -0.0691 -0.6961
  106TCq2    O2 1613   4.602   1.212   0.293  0.1279 -0.1372 -0.6963
  106TCq2    C2 1614   4.703   1.409   0.325  0.6779 -0.2241 -0.4407
  106TCq2    C3 1615   0.032   1.510   0.257 -0.1912 -0.0512  0.3550
  106TCq2    C4 1616   0.021   1.640   0.309 -0.0502  0.3854  0.5308
  106TCq2    C5 1617   4.681   1.657   0.426  0.5989  0.6983 -0.2387
  106TCq2    C6 1618   4.611   1.552   0.476  0.0806 -0.0393 -0.5786
  106TCq2    C7 1619   4.626   1.425   0.436 -0.4343  0.0109  0.4188
  106TCq2    C8 1620   4.532   1.572   0.601 -0.1115  1.0537  0.2350
  106TCq2    O4 1621   4.451   1.483   0.622 -0.1511  0.0199  0.1583
  106TCq2    C9 1622   0.092   1.748   0.250 -0.0376  0.5141  0.4361
  106TCq2    O5 1623   0.141   1.823   0.335  0.2136  0.3073  0.1660
  106TCq2    O6 1624   0.131   1.727   0.134  0.1026  0.1181 -0.0117
  106TCq2    H2 1625   0.085   1.491   0.164 -0.8155  0.7273 -0.1661
  106TCq2    H3 1626   4.653   1.759   0.452  1.2187  0.4286  1.4632
  106TCq2    H4 1627   4.585   1.340   0.490  0.4779 -1.7592 -1.6836
  107TMC2    C1 1628   1.273   0.459  11.495 -0.1509 -0.1685  0.5492
  107TMC2    C2 1629   1.349   0.546  11.422  0.1117  0.2193 -0.0085
  107TMC2    C3 1630   1.464   0.496  11.360 -0.3025 -0.1348  0.3714
  107TMC2    C4 1631   1.314   0.332  11.516 -0.5884  0.4683 -0.3476
  107TMC2    C5 1632   1.418   0.284  11.442 -0.3136  0.0429 -0.4320
  107TMC2    C6 1633   1.491   0.363  11.363 -1.3641 -0.8003 -0.3980
  107TMC2     C 1634   1.152   0.503  11.562 -0.1514 -0.9939 -0.5939
  107TMC2     O 1635   1.104   0.424  11.642  0.2122 -0.5003 -0.2351
  107TMC2     H 1636   1.325   0.651  11.404 -0.2442  0.1229 -0.0878
  107TMC2    H1 1637   1.243   0.266  11.565  1.4841 -1.1724  0.4303
  107TMC2    H2 1638   1.571   0.324  11.302 -1.4726  0.8051 -1.5732
  107TMC2    C7 1639   1.447   0.144  11.464 -0.5230  0.1818  0.0315
  107TMC2    C8 1640   1.526   0.591  11.269  0.0216 -0.4696  0.9998
  107TMC2    O1 1641   1.361   0.069  11.513  0.4035 -0.5668  0.1805
  107TMC2    O2 1642   1.494   0.708  11.284 -0.1365 -0.0062 -0.0895
  107TMC2    O5 1643   1.551   0.526  11.158  0.1177  0.1977 -0.3588
  107TMC2    H5 1644   1.544   0.580  11.077  0.7515  1.1626  0.2312
  108MPD2     C 1645   0.926   0.772  11.461  0.0202  0.7451  0.1358
  108MPD2    C1 1646   0.976   0.685  11.553  0.7237  0.1714  0.8328
  108MPD2    C2 1647   0.925   0.666  11.684  0.2964  0.1006 -0.3068
  108MPD2    C3 1648   0.801   0.719  11.718  0.4479  0.3102 -0.1646
  108MPD2    C4 1649   0.742   0.795  11.617 -0.8591  0.3860 -0.2253
  108MPD2    C5 1650   0.808   0.824  11.500  0.1526  0.6899  0.1262
  108MPD2     H 1651   0.972   0.602  11.758 -1.0009 -0.1280  0.3345
  108MPD2    H1 1652   0.640   0.828  11.632 -0.6832  1.1603 -0.7226
  108MPD2    H2 1653   0.962   0.802  11.363  0.7824 -0.4616  0.0563
  108MPD2    H3 1654   0.760   0.892  11.431 -2.5963  0.6222  1.9825
  108MPD2     N 1655   0.723   0.690  11.836 -0.0018 -0.2618 -0.4012
  108MPD2    H5 1656   0.635   0.738  11.847  1.9099  2.8124  1.5504
  108MPD2    N1 1657   1.090   0.618  11.508 -0.2996  0.3585  0.9705
  108MPD2    H7 1658   1.133   0.643  11.420 -0.3214  0.2151  0.9186
  109MPD2     C 1659   2.383   3.145   1.622 -0.2871  0.3099 -0.2052
  109MPD2    C1 1660   2.266   3.196   1.651  0.1071  0.3556  0.3957
  109MPD2    C2 1661   2.259   3.283   1.756 -0.4702 -0.0258  0.2753
  109MPD2    C3 1662   2.357   3.306   1.846 -0.6676 -0.2586 -0.4984
  109MPD2    C4 1663   2.478   3.255   1.814  0.7510 -0.2640 -0.5524
  109MPD2    C5 1664   2.489   3.177   1.705 -0.2557 -0.2748 -0.3421
  109MPD2     H 1665   2.169   3.340   1.776 -3.6345 -4.0371 -2.3295
  109MPD2    H1 1666   2.567   3.281   1.871  0.0811  1.8647 -0.4878
  109MPD2    H2 1667   2.408   3.076   1.542 -1.2145 -1.0953  0.7036
  109MPD2    H3 1668   2.585   3.131   1.681  0.5045  0.9046  0.4410
  109MPD2     N 1669   2.334   3.410   1.939 -0.4330 -0.5231  0.9023
  109MPD2    H5 1670   2.245   3.458   1.937 -0.3678 -0.4498 -0.1854
  109MPD2    N1 1671   2.156   3.157   1.569  0.3496  0.5271 -0.0276
  109MPD2    H7 1672   2.177   3.087   1.498  0.4486  1.6430 -1.1094
  110TCq2    C1 1673   2.431   3.469   2.013 -0.4026  0.9665  0.2900
  110TCq2    O2 1674   2.541   3.426   2.034  0.2585  0.4115 -0.1475
  110TCq2    C2 1675   2.389   3.600   2.065 -0.2862 -0.6617  0.2434
  110TCq2    C3 1676   2.429   3.622   2.194 -0.5892 -0.0800  0.2545
  110TCq2    C4 1677   2.360   3.704   2.264 -0.3060 -0.1586  0.6521
  110TCq2    C5 1678   2.272   3.794   2.213  0.0819  0.6611  0.6673
  110TCq2    C6 1679   2.239   3.775   2.081  0.0939  0.2406 -0.4516
  110TCq2    C7 1680   2.285   3.668   2.010  0.7606  0.0181  0.3279
  110TCq2    C8 1681   2.115   3.833   2.041  0.8187  0.2586  0.5960
  110TCq2    O4 1682   2.077   3.804   1.932  0.0731 -0.6679  0.8244
  110TCq2    C9 1683   2.392   3.722   2.401  0.5384 -0.4992 -0.1920
  110TCq2    O5 1684   2.497   3.660   2.450 -0.0469  0.5659  0.5223
  110TCq2    O6 1685   2.303   3.777   2.472 -0.0842 -0.5386 -0.0605
  110TCq2    H2 1686   2.512   3.563   2.231 -0.5081 -0.6838 -0.8877
  110TCq2    H3 1687   2.246   3.889   2.258  0.5986  1.4815 -0.7631
  110TCq2    H4 1688   2.249   3.643   1.911 -1.3054 -2.0986  1.6211
  111TMC2    C1 1689   1.134   2.133  11.828  1.0325 -0.1456  0.5639
  111TMC2    C2 1690   1.049   2.118  11.932  0.6395 -0.1163  0.2874
  111TMC2    C3 1691   1.106   2.118  12.057 -0.6123  0.0619  0.0707
  111TMC2    C4 1692   1.272   2.136  11.846  0.0182 -0.1811  0.0328
  111TMC2    C5 1693   1.320   2.137  11.974  0.5581  1.2837  0.0979
  111TMC2    C6 1694   1.243   2.124  12.084 -0.1199  0.1472  1.1826
  111TMC2     C 1695   1.088   2.111  11.692  0.0496 -0.7244 -0.1631
  111TMC2     O 1696   1.169   2.141  11.598 -0.1340  0.0156  0.1590
  111TMC2     H 1697   0.944   2.141  11.921  0.2409 -1.8654  0.4473
  111TMC2    H1 1698   1.340   2.120  11.763  1.0697  0.1109  0.8406
  111TMC2    H2 1699   1.282   2.137  12.185 -0.3789  0.6995  1.2119
  111TMC2    C7 1700   1.461   2.119  11.999 -0.6409 -0.3814  0.0914
  111TMC2    C8 1701   1.010   2.164  12.161  0.5728 -0.4571  0.0699
  111TMC2    O1 1702   1.487   2.088  12.113  0.1589 -0.4898 -0.1081
  111TMC2    O2 1703   0.944   2.262  12.137 -0.7045 -0.0514 -0.4087
  111TMC2    O5 1704   1.065   2.134  12.278  0.7601 -0.3754  0.5457
  111TMC2    H5 1705   1.101   2.043  12.276  1.7710  0.0593 -0.7345
  112MPD2     C 1706   0.722   1.991  11.359 -0.7655 -0.6240 -0.0089
  112MPD2    C1 1707   0.829   2.077  11.347 -0.2149  0.5045  0.0205
  112MPD2    C2 1708   0.916   2.102  11.451 -0.2188 -0.2569 -0.5665
  112MPD2    C3 1709   0.892   2.027  11.570 -0.1947 -0.6603  0.2672
  112MPD2    C4 1710   0.787   1.939  11.577 -0.4326 -0.3347 -0.0930
  112MPD2    C5 1711   0.698   1.925  11.476  0.3913 -0.7618  0.8046
  112MPD2     H 1712   1.004   2.165  11.446 -0.8447  0.7947  1.9500
  112MPD2    H1 1713   0.747   1.892  11.666 -0.5626  1.4581  0.7945
  112MPD2    H2 1714   0.665   1.961  11.272  1.0591 -3.2684 -0.2963
  112MPD2    H3 1715   0.618   1.851  11.472 -0.4873  0.2338  0.1506
  112MPD2     N 1716   0.961   2.044  11.693  0.1663  0.0149  0.7984
  112MPD2    H5 1717   0.923   2.011  11.782  0.8894 -3.0176  0.0002
  112MPD2    N1 1718   0.847   2.145  11.225  0.0849 -0.4813 -0.2788
  112MPD2    H7 1719   0.929   2.204  11.216 -0.3618  0.1610 -0.1154
  113MPD2     C 1720   4.117   0.539   0.858  0.7733  0.5432 -0.3698
  113MPD2    C1 1721   4.048   0.657   0.829 -0.6436 -0.4607  0.2196
  113MPD2    C2 1722   3.927   0.641   0.773  0.1257 -0.0908  0.4444
  113MPD2    C3 1723   3.886   0.522   0.717  0.1089 -0.0233  0.6271
  113MPD2    C4 1724   3.966   0.414   0.720  0.2562  0.6548  0.7144
  113MPD2    C5 1725   4.077   0.423   0.802 -0.2566  0.8389 -0.3919
  113MPD2     H 1726   3.863   0.728   0.787 -0.8519 -0.9443  1.2839
  113MPD2    H1 1727   3.951   0.315   0.679  1.7801  0.5088  0.5025
  113MPD2    H2 1728   4.211   0.539   0.912  0.6987 -0.6240 -0.2460
  113MPD2    H3 1729   4.135   0.333   0.821 -2.3433 -0.4687 -0.2467
  113MPD2     N 1730   3.759   0.502   0.663 -0.2207  0.1398  0.6441
  113MPD2    H5 1731   3.737   0.411   0.623 -0.1484 -1.1504  3.5139
  113MPD2    N1 1732   4.078   0.785   0.887  0.5606  0.2261  0.3284
  113MPD2    H7 1733   4.005   0.854   0.873 -1.1038 -1.5828  0.0743
  114TCq2    C1 1734   3.672   0.606   0.655 -0.5325  0.5410 -0.5344
  114TCq2    O2 1735   3.684   0.728   0.676  0.1732 -0.2445  0.3427
  114TCq2    C2 1736   3.542   0.567   0.611 -0.0447  0.7120  0.4402
  114TCq2    C3 1737   3.464   0.668   0.560 -0.3515 -0.4579  0.3823
  114TCq2    C4 1738   3.339   0.641   0.509  0.0180 -0.0690  0.0499
  114TCq2    C5 1739   3.294   0.515   0.507 -0.1659  0.2928 -0.4930
  114TCq2    C6 1740   3.373   0.419   0.563  0.2360  0.2785  0.6663
  114TCq2    C7 1741   3.495   0.439   0.615  0.3857 -0.5072  0.2089
  114TCq2    C8 1742   3.343   0.278   0.547 -1.2912  0.1579  0.5990
  114TCq2    O4 1743   3.292   0.231   0.445  0.5171  0.2047  0.3203
  114TCq2    C9 1744   3.265   0.736   0.425 -0.4365  0.5965  0.2604
  114TCq2    O5 1745   3.296   0.858   0.443 -0.1176  0.1405 -0.2849
  114TCq2    O6 1746   3.183   0.692   0.345 -0.0756  0.0116 -1.4669
  114TCq2    H2 1747   3.505   0.767   0.545  0.1745 -0.7701 -0.2926
  114TCq2    H3 1748   3.195   0.501   0.467 -0.2464  0.7500 -0.4600
  114TCq2    H4 1749   3.556   0.357   0.652  2.8802  1.2232 -0.1124
  115TMC2    C1 1750   4.493   3.034  17.628  0.3253 -0.0354  0.4335
  115TMC2    C2 1751   4.619   3.063  17.641 -0.3204 -0.3065  0.0064
  115TMC2    C3 1752   4.659   3.189  17.674 -0.0780  0.8364  0.5433
  115TMC2    C4 1753   4.393   3.123  17.649 -0.0982 -0.8359  0.1474
  115TMC2    C5 1754   4.433   3.254  17.673 -0.1818  0.4275  0.5889
  115TMC2    C6 1755   4.563   3.290  17.700  0.2450 -0.2845  0.4127
  115TMC2     C 1756   4.457   2.902  17.600  0.3994 -0.3688  0.8274
  115TMC2     O 1757   4.538   2.832  17.547  0.1404  0.2742  0.6509
  115TMC2     H 1758   4.695   2.992  17.608 -0.3470 -0.5048  0.3762
  115TMC2    H1 1759   4.287   3.113  17.627 -0.5392  2.2175  0.9432
  115TMC2    H2 1760   4.586   3.392   0.025 -0.5404 -0.0323  0.1396
  115TMC2    C7 1761   4.339   3.368  17.653 -0.6268  0.5618  0.0007
  115TMC2    C8 1762   0.076   3.210  17.681  0.0949  0.7345 -0.1014
  115TMC2    O1 1763   4.219   3.346  17.640  0.1067  0.6397 -0.1268
  115TMC2    O2 1764   0.151   3.109  17.687  0.1134  0.7868 -0.8887
  115TMC2    O5 1765   0.109   3.332   0.014  0.2079  0.1694  0.1279
  115TMC2    H5 1766   0.051   3.401  17.677  1.1171  0.3332 -0.9384
  116MPD2     C 1767   4.082   2.539  17.579 -0.0795  0.6449  0.3499
  116MPD2    C1 1768   4.200   2.550  17.509  0.0288 -0.3725  0.4423
  116MPD2    C2 1769   4.292   2.657  17.536  0.3096 -0.0052 -0.1747
  116MPD2    C3 1770   4.263   2.746  17.639  0.0185 -0.1320 -0.2563
  116MPD2    C4 1771   4.147   2.717   0.013  0.0502  0.0138  0.3153
  116MPD2    C5 1772   4.062   2.622  17.685  0.5403 -0.2708  0.7723
  116MPD2     H 1773   4.383   2.664  17.478 -0.4786  1.3372 -1.2690
  116MPD2    H1 1774   4.118   2.780   0.096 -1.7423 -0.0979 -0.2293
  116MPD2    H2 1775   4.011   2.461  17.552  0.8498 -0.2243  0.3949
  116MPD2    H3 1776   3.970   2.621   0.041 -0.2795  0.4227 -0.5312
  116MPD2     N 1777   4.343   2.860  17.670  0.0583 -0.3438  0.4438
  116MPD2    H5 1778   4.309   2.923   0.040  1.4885 -0.4463  1.2091
  116MPD2    N1 1779   4.216   2.449  17.405  0.5239  0.3241  0.3610
  116MPD2    H7 1780   4.135   2.389  17.394  0.5584  0.4509 -0.6489
  117TMC2    C1 1781   3.674   0.010  14.060  0.4403 -0.1592 -0.5758
  117TMC2    C2 1782   3.733   4.696  14.180  0.7607  0.0150  0.1323
  117TMC2    C3 1783   3.860   0.009  14.206 -0.5107 -0.0301 -0.3592
  117TMC2    C4 1784   3.747   0.068  13.960  0.2466  0.0006 -0.0651
  117TMC2    C5 1785   3.880   0.093  13.985  0.2216  0.6588  0.1795
  117TMC2    C6 1786   3.938   0.073  14.113  0.1173  0.3997  0.1388
  117TMC2     C 1787   3.534   4.695  14.043  0.9036  0.4812 -0.3648
  117TMC2     O 1788   3.480   4.603  14.107 -0.3888  0.1460  0.1258
  117TMC2     H 1789   3.672   4.647  14.254 -0.6612 -1.1634 -1.8267
  117TMC2    H1 1790   3.695   0.083  13.866 -0.5023 -1.6805  0.0920
  117TMC2    H2 1791   4.044   0.086  14.134 -0.3443  2.8585  0.9329
  117TMC2    C7 1792   3.965   0.168  13.893 -0.5920 -1.4038  0.6486
  117TMC2    C8 1793   3.905   0.018  14.344  0.0808 -0.1692 -0.0651
  117TMC2    O1 1794   4.033   0.253  13.949  0.0537  0.5019 -0.0532
  117TMC2    O2 1795   3.991   0.099  14.378 -0.0105 -0.7431 -0.6079
  117TMC2    O5 1796   3.851   4.643  14.419 -0.5715  0.0625 -0.2903
  117TMC2    H5 1797   3.818   4.567  14.367 -1.2624  0.7314 -0.8226
  118MPD2     C 1798   3.910   0.210  13.538 -0.9263  0.6520  0.0933
  118MPD2    C1 1799   3.969   0.243  13.658 -0.4823  0.4137 -0.2429
  118MPD2    C2 1800   4.061   0.342  13.660  0.0047  0.6284  0.5270
  118MPD2    C3 1801   4.097   0.414  13.543  0.1138 -0.3365  1.0468
  118MPD2    C4 1802   4.036   0.381  13.425 -0.5777  0.1987 -0.0840
  118MPD2    C5 1803   3.952   0.274  13.421 -0.3443  0.4666 -0.2121
  118MPD2     H 1804   4.115   0.353  13.753 -1.6736  0.2804  1.5550
  118MPD2    H1 1805   4.066   0.427  13.332  1.8414 -1.4190 -0.1030
  118MPD2    H2 1806   3.847   0.123  13.524 -0.0601 -0.0368  0.4827
  118MPD2    H3 1807   3.904   0.233  13.332  0.5419 -0.0642 -0.4444
  118MPD2     N 1808   4.204   0.519  13.542  0.4328 -0.6015  0.0279
  118MPD2    H5 1809   4.220   0.561  13.451 -0.7254 -0.1175  0.0406
  118MPD2    N1 1810   3.924   0.164  13.765  0.7537  0.2454 -0.1719
  118MPD2    H7 1811   3.852   0.099  13.738  0.1017  1.0479 -0.3454
  119MPD2     C 1812   2.031   1.417  14.285 -0.6219 -0.2573 -0.0742
  119MPD2    C1 1813   1.896   1.401  14.266  0.4856 -0.4848  0.1122
  119MPD2    C2 1814   1.850   1.399  14.138  0.0973  0.0609 -0.1597
  119MPD2    C3 1815   1.934   1.412  14.031 -0.2752 -0.1225 -0.2802
  119MPD2    C4 1816   2.069   1.427  14.054 -0.7048 -0.6103  0.1019
  119MPD2    C5 1817   2.116   1.434  14.182  0.0454  0.5012  0.3592
  119MPD2     H 1818   1.743   1.387  14.132  0.0618 -0.6579  1.9146
  119MPD2    H1 1819   2.127   1.444  13.964 -0.9620  2.2125  0.4827
  119MPD2    H2 1820   2.080   1.431  14.381  1.1707  0.5745 -1.1068
  119MPD2    H3 1821   2.224   1.434  14.194  0.0173 -4.3926  0.6453
  119MPD2     N 1822   1.881   1.384  13.903  0.7201  0.1177  0.0849
  119MPD2    H5 1823   1.950   1.389  13.829  0.6324 -0.0868 -0.0117
  119MPD2    N1 1824   1.818   1.372  14.380  0.1848 -0.0750  0.0328
  119MPD2    H7 1825   1.866   1.377  14.469  1.8019 -0.5757 -0.8095
  120TCq2    C1 1826   1.757   1.343  13.873  0.3939  0.1179 -0.5857
  120TCq2    O2 1827   1.662   1.313  13.941  0.4410  0.4671 -0.4154
  120TCq2    C2 1828   1.750   1.322  13.730  0.4703 -0.0329  0.1134
  120TCq2    C3 1829   1.822   1.402  13.643  0.1112  0.2049  0.0627
  120TCq2    C4 1830   1.820   1.362  13.513  0.3154 -0.7799  0.2567
  120TCq2    C5 1831   1.742   1.256  13.474  0.0624  0.0825  0.2485
  120TCq2    C6 1832   1.662   1.183  13.559 -0.1299  0.0478 -0.3797
  120TCq2    C7 1833   1.663   1.221  13.690  0.0987 -0.4627 -0.0396
  120TCq2    C8 1834   1.561   1.098  13.501 -0.1163  0.2527  0.6421
  120TCq2    O4 1835   1.560   1.080  13.378 -0.0557 -0.4731  0.4058
  120TCq2    C9 1836   1.923   1.404  13.421 -0.6334 -0.6005 -0.1622
  120TCq2    O5 1837   2.013   1.479  13.466  0.3151 -0.0067  0.4206
  120TCq2    O6 1838   1.927   1.340  13.312  0.0863 -0.3075  0.0626
  120TCq2    H2 1839   1.874   1.496  13.659  0.4246 -0.0414  0.4941
  120TCq2    H3 1840   1.746   1.230  13.369 -1.5156 -0.4272  0.3142
  120TCq2    H4 1841   1.610   1.164  13.766  1.0170 -0.1975  0.7999
  121TMC2    C1 1842   3.062   2.862  14.009 -0.0444  0.5282 -0.4044
  121TMC2    C2 1843   2.987   2.764  14.061  0.0328 -0.0472 -0.2078
  121TMC2    C3 1844   2.853   2.767  14.017 -0.3490  0.7340  0.7845
  121TMC2    C4 1845   3.014   2.960  13.929  0.1709  0.0279  0.2604
  121TMC2    C5 1846   2.887   2.946  13.883  0.2997 -0.1883 -0.3799
  121TMC2    C6 1847   2.804   2.854  13.922  0.2696 -0.5683  0.1986
  121TMC2     C 1848   3.201   2.857  14.042  0.2621 -0.9728  0.1043
  121TMC2     O 1849   3.239   2.770  14.123 -0.4504  0.2239 -0.3101
  121TMC2     H 1850   3.024   2.689  14.129 -0.5566 -0.2000 -0.0611
  121TMC2    H1 1851   3.079   3.042  13.902  0.3746 -0.3651 -0.4470
  121TMC2    H2 1852   2.707   2.843  13.875  0.4699 -0.4736 -0.2456
  121TMC2    C7 1853   2.857   3.019  13.768  0.3969 -0.1320 -0.0176
  121TMC2    C8 1854   2.753   2.697  14.087 -0.4245 -0.0010 -0.0327
  121TMC2    O1 1855   2.950   3.082  13.717  0.1805  0.3581  0.3809
  121TMC2    O2 1856   2.637   2.717  14.053  0.0380 -0.3928  0.4978
  121TMC2    O5 1857   2.800   2.714  14.213  0.5819 -0.3997 -0.6133
  121TMC2    H5 1858   2.846   2.639  14.255 -0.3630 -1.8429 -2.1449
  122MPD2     C 1859   3.473   2.918  14.089  0.1631  0.9645 -0.0693
  122MPD2    C1 1860   3.411   2.930  13.968 -0.2782  0.3952  0.1747
  122MPD2    C2 1861   3.491   2.966  13.861 -0.4232 -0.4156 -0.1384
  122MPD2    C3 1862   3.629   2.979  13.863 -0.0762 -0.9164  0.0219
  122MPD2    C4 1863   3.690   2.946  13.984  0.2127 -0.3677 -0.5858
  122MPD2    C5 1864   3.609   2.920  14.091 -0.8283 -0.2940  0.3790
  122MPD2     H 1865   3.442   2.974  13.765  2.0608 -0.7152 -1.3940
  122MPD2    H1 1866   3.793   2.977  14.000  0.3633  0.1936 -2.6879
  122MPD2    H2 1867   3.417   2.906  14.181 -0.0948 -1.8193 -0.6005
  122MPD2    H3 1868   3.662   2.899  14.183 -0.2882 -1.3017 -0.1558
  122MPD2     N 1869   3.715   3.011  13.755 -0.1591  0.5414  0.0061
  122MPD2    H5 1870   3.816   3.013  13.766 -0.3604  3.4043  1.2781
  122MPD2    N1 1871   3.276   2.905  13.941 -0.4528  0.3187  0.4197
  122MPD2    H7 1872   3.240   2.929  13.849 -1.3859 -3.7504 -0.2338
  123MPD2     C 1873   1.873   0.599   9.687  0.2954  0.4830 -1.0788
  123MPD2    C1 1874   1.872   0.628   9.819 -0.4010  0.6361 -0.5674
  123MPD2    C2 1875   1.925   0.752   9.853 -0.1407 -0.3726 -0.4646
  123MPD2    C3 1876   1.974   0.844   9.756  0.2645  0.8018 -0.0541
  123MPD2    C4 1877   1.976   0.810   9.626  0.3987  0.1825 -0.3622
  123MPD2    C5 1878   1.915   0.692   9.593 -0.1948  0.4014  0.0840
  123MPD2     H 1879   1.929   0.787   9.956 -0.5736 -1.6705 -0.0037
  123MPD2    H1 1880   2.025   0.868   9.548  1.1433  1.4522  1.0435
  123MPD2    H2 1881   1.841   0.503   9.649  0.0939 -0.1313  0.6078
  123MPD2    H3 1882   1.921   0.661   9.489  0.0629 -3.1466  1.1452
  123MPD2     N 1883   2.008   0.971   9.809 -0.6213  0.5285 -0.0584
  123MPD2    H5 1884   2.003   0.983   9.909  1.2996 -3.9113  0.5772
  123MPD2    N1 1885   1.816   0.539   9.911  1.2159 -0.1777  0.2462
  123MPD2    H7 1886   1.785   0.447   9.882 -1.6288  1.1333 -0.8694
  124TCq2    C1 1887   2.065   1.078   9.741 -0.5978 -0.3739  0.7706
  124TCq2    O2 1888   2.105   1.082   9.628 -0.1712  0.6032 -0.2088
  124TCq2    C2 1889   2.094   1.190   9.835  0.4274 -0.5969  0.5508
  124TCq2    C3 1890   2.212   1.250   9.825 -0.0675 -0.2828 -0.6377
  124TCq2    C4 1891   2.243   1.330   9.934  0.6258  0.3617 -0.3137
  124TCq2    C5 1892   2.155   1.356  10.032 -0.0228  0.1265 -0.8626
  124TCq2    C6 1893   2.032   1.298  10.029  0.5158 -0.7484  0.5554
  124TCq2    C7 1894   2.000   1.205   9.937 -0.3702  0.0820  0.7752
  124TCq2    C8 1895   1.942   1.294  10.145  0.2012  0.2891 -0.0396
  124TCq2    O4 1896   1.863   1.201  10.142 -0.1765  0.2640 -0.1022
  124TCq2    C9 1897   2.366   1.405   9.924  0.0395  0.6769 -0.0943
  124TCq2    O5 1898   2.435   1.384   9.821  0.1786 -0.3861  0.8088
  124TCq2    O6 1899   2.405   1.479  10.019 -0.1293 -0.2544  0.1641
  124TCq2    H2 1900   2.280   1.223   9.744  0.8913  0.4040 -0.0609
  124TCq2    H3 1901   2.183   1.435  10.100 -0.5313  1.0170 -1.6916
  124TCq2    H4 1902   1.902   1.158   9.925 -1.1468  1.8895  0.0918
  125TMC2    C1 1903   2.033   2.235   9.227 -0.1497 -0.0429  0.9711
  125TMC2    C2 1904   2.022   2.257   9.095  0.1119  0.3548 -0.1236
  125TMC2    C3 1905   2.111   2.333   9.034 -0.5759 -0.3821  0.1272
  125TMC2    C4 1906   2.131   2.283   9.307  0.0145  0.0341 -0.0790
  125TMC2    C5 1907   2.227   2.351   9.239 -0.1497 -0.6369 -0.2260
  125TMC2    C6 1908   2.215   2.381   9.109  0.0035 -0.2807 -0.4792
  125TMC2     C 1909   1.922   2.171   9.297  0.3951 -0.0390  0.1749
  125TMC2     O 1910   1.886   2.235   9.401 -0.3543  0.0047  0.3858
  125TMC2     H 1911   1.935   2.220   9.041 -1.7733  1.2991  2.2499
  125TMC2    H1 1912   2.150   2.260   9.411 -0.3007 -3.1197 -0.7038
  125TMC2    H2 1913   2.294   2.437   9.059  1.2770  0.1197  2.0169
  125TMC2    C7 1914   2.328   2.415   9.323  0.0377 -0.1334 -0.0777
  125TMC2    C8 1915   2.153   2.320   8.901  0.4172  0.1782  0.6882
  125TMC2    O1 1916   2.298   2.435   9.439 -0.6355 -0.0146  0.1871
  125TMC2    O2 1917   2.270   2.311   8.862 -0.3638 -0.0380 -0.0525
  125TMC2    O5 1918   2.052   2.283   8.820 -0.4574 -0.3914  0.0222
  125TMC2    H5 1919   1.973   2.340   8.828 -0.2151 -0.2032  1.0517
  126MPD1     C 1920   1.491   1.893   9.300 -0.0744 -0.4003  1.2357
  126MPD1    C1 1921   1.573   1.845   9.198 -0.5949 -0.0542 -0.1065
  126MPD1    C2 1922   1.691   1.909   9.175 -0.2305  0.2463  1.1253
  126MPD1    C3 1923   1.735   2.015   9.254  0.1394  0.2587  0.0722
  126MPD1    C4 1924   1.661   2.044   9.365  0.2930  0.1703  0.0840
  126MPD1    C5 1925   1.540   1.992   9.378  0.1980 -0.1718  0.0951
  126MPD1     H 1926   1.748   1.880   9.086 -2.3444  2.4387 -0.9169
  126MPD1    H1 1927   1.693   2.120   9.436 -1.2285  2.1599 -1.3316
  126MPD1    H2 1928   1.387   1.868   9.320 -0.5285  2.0132  1.9983
  126MPD1    H3 1929   1.482   2.028   9.462  1.5100  0.9819  0.5149
  126MPD1     N 1930   1.860   2.075   9.225 -0.1057 -0.4999 -0.2289
  126MPD1    H5 1931   1.909   2.035   9.146  0.2911  0.8803 -0.6855
  126MPD1    N1 1932   1.525   1.754   9.099 -0.3323  0.4882 -0.4416
  126MPD1    H6 1933   1.446   1.697   9.130 -1.3841  1.6173 -1.0533
  126MPD1    H7 1934   1.600   1.688   9.079 -0.7661 -0.4074  0.9016
  127MPD2     C 1935   3.931   1.239   9.402 -0.1091  0.2461  0.0061
  127MPD2    C1 1936   3.937   1.232   9.546  0.4668 -0.0153  0.3157
  127MPD2    C2 1937   3.963   1.349   9.612  0.5858 -0.4595  0.5774
  127MPD2    C3 1938   3.990   1.462   9.546 -0.5688  0.4308  0.1897
  127MPD2    C4 1939   3.971   1.467   9.411  0.2178 -0.1428 -0.1245
  127MPD2    C5 1940   3.945   1.355   9.334  0.2170 -0.0059  0.4958
  127MPD2     H 1941   3.965   1.345   9.721  0.9949  0.5667  0.6031
  127MPD2    H1 1942   3.982   1.554   9.348  0.6362 -0.4973 -0.5428
  127MPD2    H2 1943   3.900   1.154   9.344 -1.1521  0.2824  0.5132
  127MPD2    H3 1944   3.937   1.362   9.226  0.2169  0.9717  0.5593
  127MPD2     N 1945   4.030   1.584   9.616  1.0580  0.6625  0.1301
  127MPD2    H5 1946   4.051   1.581   9.715 -1.1383 -2.1552  0.5101
  127MPD2    N1 1947   3.882   1.114   9.604 -0.6664  0.3006  0.3370
  127MPD2    H7 1948   3.854   1.036   9.544 -1.0208  1.0520 -0.4698
  128TCq2    C1 1949   3.853   1.085   9.734 -0.0281 -0.5932  0.5153
  128TCq2    O2 1950   3.907   1.124   9.839  0.6669  0.2281  0.2261
  128TCq2    C2 1951   3.780   0.958   9.735  0.2304  1.1876  0.8348
  128TCq2    C3 1952   3.803   0.871   9.839  0.8273 -0.1704 -0.3709
  128TCq2    C4 1953   3.749   0.748   9.838 -0.7268 -0.5980  0.5328
  128TCq2    C5 1954   3.673   0.709   9.735  0.3716  0.3116 -0.2672
  128TCq2    C6 1955   3.639   0.802   9.640 -0.0163 -0.1707  0.3347
  128TCq2    C7 1956   3.707   0.918   9.630 -0.3026 -0.4517  0.2320
  128TCq2    C8 1957   3.498   0.801   9.594 -0.0768 -0.2301 -0.4290
  128TCq2    O4 1958   3.466   0.898   9.525  0.0684  0.3088 -0.0771
  128TCq2    C9 1959   3.778   0.664   9.950 -0.0596  0.2792  0.1310
  128TCq2    O5 1960   3.720   0.554   9.959 -0.1320 -0.0322  0.6106
  128TCq2    O6 1961   3.851   0.713  10.040 -0.3239  0.1323  0.0706
  128TCq2    H2 1962   3.888   0.900   9.900 -0.9984  0.2170  1.9831
  128TCq2    H3 1963   3.632   0.610   9.750  0.3224  0.1628 -1.3667
  128TCq2    H4 1964   3.668   0.989   9.557  2.0697  1.2985  0.6583
  129MPD2     C 1965   2.406   3.130   1.287 -0.5973 -0.0144  0.0767
  129MPD2    C1 1966   2.437   3.030   1.203 -0.1601 -0.4995  0.0204
  129MPD2    C2 1967   2.526   3.051   1.100  0.0908 -0.0663  0.6421
  129MPD2    C3 1968   2.593   3.172   1.090 -0.4394  1.1552 -0.6989
  129MPD2    C4 1969   2.567   3.277   1.177 -0.5744 -0.6370  0.7783
  129MPD2    C5 1970   2.462   3.255   1.268 -0.8453  0.3676 -0.4453
  129MPD2     H 1971   2.547   2.965   1.038  2.7212  0.6217  0.5965
  129MPD2    H1 1972   2.615   3.374   1.174 -1.4126 -0.2180  0.9475
  129MPD2    H2 1973   2.332   3.119   1.365  1.1136 -0.2772  1.6582
  129MPD2    H3 1974   2.436   3.332   1.340  0.7853  0.7635 -0.2669
  129MPD2     N 1975   2.691   3.184   0.990 -0.5123  0.9625 -0.1759
  129MPD2    H5 1976   2.715   3.098   0.941  1.0820  1.0641  0.4382
  129MPD2    N1 1977   2.370   2.912   1.202  0.0208 -0.8527  0.5131
  129MPD2    H7 1978   2.379   2.849   1.122  0.5998  0.2918 -0.3116
  130TCq2    C1 1979   2.281   2.871   1.294 -0.0960  0.1313  0.4610
  130TCq2    O2 1980   2.241   2.925   1.394 -0.0975 -0.0405 -0.1555
  130TCq2    C2 1981   2.214   2.746   1.261  1.1929  0.1051 -0.1953
  130TCq2    C3 1982   2.246   2.667   1.153 -0.3493  0.4821  1.0690
  130TCq2    C4 1983   2.147   2.584   1.100 -0.2292  0.0351 -0.3673
  130TCq2    C5 1984   2.027   2.576   1.160 -0.3076  0.1472 -0.5127
  130TCq2    C6 1985   1.999   2.649   1.274 -1.0083  0.4484  0.6072
  130TCq2    C7 1986   2.088   2.732   1.320 -0.1877 -0.4706 -0.3899
  130TCq2    C8 1987   1.860   2.626   1.330 -0.3033  0.1355  0.1370
  130TCq2    O4 1988   1.792   2.543   1.270 -0.1835  0.2605 -0.2416
  130TCq2    C9 1989   2.184   2.503   0.986  0.4999 -0.0332 -0.2149
  130TCq2    O5 1990   2.290   2.539   0.931 -0.0726  0.3809 -0.0160
  130TCq2    O6 1991   2.119   2.399   0.967  0.3123 -0.7559  0.4349
  130TCq2    H2 1992   2.346   2.667   1.111 -1.0793  0.4976 -0.6724
  130TCq2    H3 1993   1.957   2.503   1.120  0.5204 -2.6112  3.0594
  130TCq2    H4 1994   2.066   2.794   1.407 -2.0965 -1.4616 -0.1476
  131MPD2     C 1995   1.489   1.096  10.494  0.4164 -0.8369 -0.8206
  131MPD2    C1 1996   1.493   1.081  10.359 -0.3149 -0.7162 -0.3999
  131MPD2    C2 1997   1.474   0.952  10.307  0.8800 -0.2486  0.0757
  131MPD2    C3 1998   1.475   0.838  10.387 -0.4256  0.3467 -0.2637
  131MPD2    C4 1999   1.478   0.858  10.524 -0.1882  0.3280  0.2494
  131MPD2    C5 2000   1.488   0.986  10.573  0.2250  0.7721  0.0031
  131MPD2     H 2001   1.466   0.934  10.200  0.9441  2.2693 -0.3623
  131MPD2    H1 2002   1.479   0.775  10.593 -0.6962  1.9719  2.2064
  131MPD2    H2 2003   1.500   1.196  10.533 -0.3454 -0.8846 -0.4833
  131MPD2    H3 2004   1.498   1.012  10.678 -2.6074 -1.2054  0.7339
  131MPD2     N 2005   1.483   0.710  10.323  0.0595 -0.4328  0.2217
  131MPD2    H5 2006   1.469   0.701  10.223 -1.0767 -0.0925  0.3574
  131MPD2    N1 2007   1.485   1.200  10.280 -0.1895 -0.0483  0.2128
  131MPD2    H7 2008   1.513   1.286  10.327  0.4488 -1.1823  1.8954
  132TCq2    C1 2009   1.735   1.462   9.842 -0.3984  0.8990 -0.2352
  132TCq2    O2 2010   1.761   1.365   9.770  0.2795 -0.3937  0.2519
  132TCq2    C2 2011   1.607   1.456   9.919  0.3139  0.3208  0.3504
  132TCq2    C3 2012   1.558   1.573   9.963  0.8995  0.1037  0.0638
  132TCq2    C4 2013   1.472   1.570  10.071  0.3295 -0.0705 -0.0845
  132TCq2    C5 2014   1.445   1.456  10.137  0.2560 -0.2453  0.7191
  132TCq2    C6 2015   1.493   1.341  10.088 -0.8629  0.4081  1.0027
  132TCq2    C7 2016   1.575   1.336   9.981 -0.3841  0.6305 -0.6023
  132TCq2    C8 2017   1.460   1.211  10.146 -0.6608  0.5624 -0.7695
  132TCq2    O4 2018   1.449   1.122  10.064 -0.1205 -0.7086  0.1527
  132TCq2    C9 2019   1.420   1.699  10.120  0.1537 -0.2356 -0.3899
  132TCq2    O5 2020   1.335   1.683  10.210  0.2574  0.0773  0.3725
  132TCq2    O6 2021   1.466   1.798  10.059  0.4104  0.0643  0.0937
  132TCq2    H2 2022   1.578   1.663   9.907 -0.2187 -0.7954 -1.7777
  132TCq2    H3 2023   1.384   1.458  10.226 -0.9037  0.6327 -0.0972
  132TCq2    H4 2024   1.620   1.242   9.951  0.4185  0.8223  0.0204
  133MPD2     C 2025   1.278   2.475   9.514  1.1578  1.0016  0.4633
  133MPD2    C1 2026   1.311   2.375   9.422  0.0530 -0.5282 -0.5066
  133MPD2    C2 2027   1.225   2.270   9.404  0.0288  0.1393  0.1076
  133MPD2    C3 2028   1.095   2.280   9.459 -0.0379 -0.1138  0.6653
  133MPD2    C4 2029   1.060   2.388   9.533  0.2033  0.2729 -0.1672
  133MPD2    C5 2030   1.156   2.475   9.576  0.4801 -0.9351 -0.1745
  133MPD2     H 2031   1.244   2.177   9.352 -4.2355 -0.0331 -1.1952
  133MPD2    H1 2032   0.965   2.409   9.581 -0.1708  2.8690 -2.0390
  133MPD2    H2 2033   1.349   2.549   9.549  0.6005  0.3061  3.1386
  133MPD2    H3 2034   1.124   2.541   9.655 -1.7340  0.5414 -2.2985
  133MPD2     N 2035   1.000   2.175   9.438 -0.0557  0.3430 -0.9022
  133MPD2    H5 2036   0.902   2.202   9.445  0.0962  0.9752 -1.1539
  133MPD2    N1 2037   1.434   2.387   9.353  0.2205  0.4145  0.4637
  133MPD2    H7 2038   1.502   2.459   9.375  0.5336  0.5751 -1.0030
  134TCq2    C1 2039   1.465   2.309   9.239  0.2146  0.4359  0.1508
  134TCq2    O2 2040   1.411   2.215   9.183 -0.8300 -0.0852 -0.1252
  134TCq2    C2 2041   1.591   2.357   9.178  0.3065 -0.5898  0.3579
  134TCq2    C3 2042   1.588   2.359   9.042 -0.0344  0.1343  0.2314
  134TCq2    C4 2043   1.683   2.428   8.980 -0.0830  0.0662  0.0730
  134TCq2    C5 2044   1.772   2.503   9.048 -0.5202 -0.0380 -0.4276
  134TCq2    C6 2045   1.764   2.510   9.180  0.0625  0.1106  0.0677
  134TCq2    C7 2046   1.682   2.429   9.253  0.0757 -0.8337  0.4552
  134TCq2    C8 2047   1.870   2.580   9.247  0.0336 -0.3784 -0.1150
  134TCq2    O4 2048   1.967   2.619   9.183 -0.0969  0.3494 -0.1942
  134TCq2    C9 2049   1.711   2.398   8.840 -0.6466 -1.1223 -0.0871
  134TCq2    O5 2050   1.630   2.322   8.777  0.3940 -0.2436  0.3747
  134TCq2    O6 2051   1.836   2.393   8.818  0.4928  0.0008  0.3573
  134TCq2    H2 2052   1.504   2.326   8.981  0.4646  1.1415 -0.9919
  134TCq2    H3 2053   1.850   2.555   8.993  0.0557 -1.9404 -1.3871
  134TCq2    H4 2054   1.679   2.432   9.361 -1.2359 -0.6714  0.4142
  135MPD2     C 2055   3.794   2.971  10.047  0.1727 -0.3099  0.2401
  135MPD2    C1 2056   3.694   2.942   9.965 -0.0723  0.5546 -0.3168
  135MPD2    C2 2057   3.725   2.912   9.833 -0.0398 -0.1163 -0.2208
  135MPD2    C3 2058   3.855   2.906   9.794 -0.1603  0.1484  0.0168
  135MPD2    C4 2059   3.961   2.925   9.885  0.7573  0.5833 -0.1515
  135MPD2    C5 2060   3.925   2.966  10.011  0.2276 -0.1507  0.4317
  135MPD2     H 2061   3.646   2.901   9.760  0.8955 -3.2588 -0.7761
  135MPD2    H1 2062   4.065   2.916   9.858 -0.0665  0.2604 -3.2692
  135MPD2    H2 2063   3.768   3.011  10.144  2.1276  1.7422 -0.0622
  135MPD2    H3 2064   3.993   2.993  10.090 -0.3549  0.1646  0.8276
  135MPD2     N 2065   3.892   2.883   9.661 -0.0687 -0.5222  0.6891
  135MPD2    H5 2066   3.988   2.861   9.635 -0.0057  1.4733 -0.8223
  135MPD2    N1 2067   3.554   2.951  10.002  0.3366  0.2231  0.3549
  135MPD2    H7 2068   3.486   2.950   9.928 -0.0971  0.1414  0.7538
  136TCq2    C1 2069   3.507   2.948  10.131  0.3782  0.9413  0.5942
  136TCq2    O2 2070   3.565   2.935  10.242  0.3413  0.0917 -0.0236
  136TCq2    C2 2071   3.363   2.937  10.129 -0.2370  0.1568  0.1094
  136TCq2    C3 2072   3.300   3.022  10.035 -0.8311 -0.0448 -0.3314
  136TCq2    C4 2073   3.188   2.981   9.976  0.0745 -0.1152 -0.1398
  136TCq2    C5 2074   3.138   2.864  10.010 -0.8462  0.1022  1.1304
  136TCq2    C6 2075   3.207   2.768  10.082 -0.5696 -0.7257 -0.3570
  136TCq2    C7 2076   3.322   2.807  10.148 -0.2659 -0.0150 -0.0598
  136TCq2    C8 2077   3.187   2.626  10.042  0.5117 -1.0888 -0.0722
  136TCq2    O4 2078   3.153   2.610   9.926 -0.0627  0.6172  0.1554
  136TCq2    C9 2079   3.117   3.072   9.886  0.2554  0.0802 -0.4292
  136TCq2    O5 2080   3.009   3.030   9.838  0.0201  0.5470 -0.5987
  136TCq2    O6 2081   3.174   3.185   9.861 -0.0436 -0.1181  0.0527
  136TCq2    H2 2082   3.348   3.111   9.996  3.1344 -1.5101  1.2093
  136TCq2    H3 2083   3.049   2.824   9.963  0.4118 -1.3154 -0.0468
  136TCq2    H4 2084   3.384   2.728  10.188 -2.4481 -1.2590  0.8588
  137MPD2     C 2085   3.144   1.477   9.483  0.4562 -0.1351  0.2679
  137MPD2    C1 2086   3.183   1.564   9.574  0.6788 -0.2589  0.5687
  137MPD2    C2 2087   3.189   1.514   9.704  0.0343 -0.1448  0.2041
  137MPD2    C3 2088   3.169   1.378   9.732  0.4502  0.0290 -0.4553
  137MPD2    C4 2089   3.120   1.296   9.634  0.3079  0.3809  0.9017
  137MPD2    C5 2090   3.102   1.353   9.510  0.4245  1.0683 -0.3570
  137MPD2     H 2091   3.221   1.586   9.778  1.5868  0.2430 -0.8429
  137MPD2    H1 2092   3.098   1.191   9.649  0.1330 -0.1614 -3.2360
  137MPD2    H2 2093   3.136   1.496   9.376 -1.4739 -0.0666  0.4224
  137MPD2    H3 2094   3.063   1.283   9.437 -0.4586 -0.1896  1.3267
  137MPD2     N 2095   3.187   1.335   9.866  0.2067 -0.2681 -0.4367
  137MPD2    H5 2096   3.243   1.397   9.923 -0.5223  0.6797 -0.7726
  137MPD2    N1 2097   3.210   1.697   9.530  0.0671 -0.4061  0.5706
  137MPD2    H7 2098   3.208   1.712   9.430 -2.2356 -0.8743  0.5642
  138TCq2    C1 2099   3.224   1.802   9.614 -0.9196  0.0439  0.4342
  138TCq2    O2 2100   3.186   1.814   9.731  0.4649  0.5100  0.4635
  138TCq2    C2 2101   3.265   1.922   9.543 -0.0027 -0.9584  0.4304
  138TCq2    C3 2102   3.361   1.921   9.444  0.4745 -0.0103  0.0167
  138TCq2    C4 2103   3.378   2.043   9.378  0.2862  0.1660 -0.0297
  138TCq2    C5 2104   3.308   2.156   9.405 -1.0207  0.3543 -0.3711
  138TCq2    C6 2105   3.198   2.137   9.487 -0.4087  0.2546 -0.2938
  138TCq2    C7 2106   3.181   2.023   9.563 -0.1761  0.5141  0.4716
  138TCq2    C8 2107   3.119   2.254   9.526  0.5977  0.1363  0.3333
  138TCq2    O4 2108   3.176   2.354   9.494 -1.0816  0.3870  0.5972
  138TCq2    C9 2109   3.488   2.061   9.275 -0.7356  0.1115 -0.1210
  138TCq2    O5 2110   3.570   1.966   9.273  0.0469 -0.1740  0.3033
  138TCq2    O6 2111   3.508   2.169   9.227 -0.2498 -0.2911  0.1465
  138TCq2    H2 2112   3.422   1.833   9.423  2.1744  1.1851 -0.0496
  138TCq2    H3 2113   3.316   2.243   9.341 -1.4843 -0.6342 -1.7532
  138TCq2    H4 2114   3.092   2.014   9.625  1.6877  1.4065  3.3062
  139TMC2    C1 2115   3.484   1.056  13.435  0.4060 -0.6969 -0.3296
  139TMC2    C2 2116   3.430   1.114  13.322 -0.2975 -1.0139  0.1927
  139TMC2    C3 2117   3.362   1.234  13.337  0.4108  0.3599 -0.3589
  139TMC2    C4 2118   3.461   1.122  13.552  0.0839 -0.3953  0.0384
  139TMC2    C5 2119   3.392   1.239  13.561  0.8007 -0.4594 -0.0639
  139TMC2    C6 2120   3.339   1.301  13.449 -0.5484  0.3336 -0.1380
  139TMC2     C 2121   3.511   0.913  13.437 -0.4429 -0.3366 -1.0666
  139TMC2     O 2122   3.451   0.847  13.360  0.0493 -0.2137 -0.1334
  139TMC2     H 2123   3.439   1.065  13.225  0.0260  2.0147 -1.3219
  139TMC2    H1 2124   3.493   1.075  13.644  1.6632  1.3923  0.4192
  139TMC2    H2 2125   3.280   1.392  13.442  2.3681  2.0932 -2.0536
  139TMC2    C7 2126   3.345   1.263  13.699  0.1883 -0.1268  0.8912
  139TMC2    C8 2127   3.329   1.300  13.214 -0.7018 -0.1794 -0.3909
  139TMC2    O1 2128   3.414   1.215  13.790 -0.1998  0.5996 -0.0791
  139TMC2    O2 2129   3.375   1.410  13.180 -0.1792  0.3019 -0.0719
  139TMC2    O5 2130   3.216   1.252  13.168  0.1632 -0.3087 -0.4709
  139TMC2    H5 2131   3.184   1.178  13.224 -2.1862 -0.7346 -2.4253
  140MPD2     C 2132   3.681   0.753  13.727 -0.4304  0.0132 -0.4988
  140MPD2    C1 2133   3.608   0.751  13.607  0.2089  0.0265 -0.2113
  140MPD2    C2 2134   3.562   0.630  13.549  0.5613  0.5623 -0.1866
  140MPD2    C3 2135   3.586   0.513  13.611  0.2907  0.0703 -0.1726
  140MPD2    C4 2136   3.662   0.517  13.727 -0.4352  0.1804  0.3319
  140MPD2    C5 2137   3.709   0.631  13.779 -0.7439  0.1458 -0.6460
  140MPD2     H 2138   3.516   0.621  13.452  0.4251  0.3714 -0.1057
  140MPD2    H1 2139   3.709   0.429  13.769  0.7160 -0.3249 -2.0089
  140MPD2    H2 2140   3.738   0.840  13.757 -0.5236  0.5161 -1.7964
  140MPD2    H3 2141   3.777   0.626  13.863 -2.4592  0.9641  0.7868
  140MPD2     N 2142   3.564   0.386  13.553  0.2765 -0.0737 -0.2865
  140MPD2    H5 2143   3.533   0.387  13.456  0.7557 -3.2011 -0.4764
  140MPD2    N1 2144   3.581   0.878  13.545  0.5974  0.0701  0.3898
  140MPD2    H7 2145   3.621   0.955  13.598 -0.6536 -0.4766  2.1608
  141TCq2    C1 2146   4.233   2.113  14.133  0.6097  0.1686 -0.1063
  141TCq2    O2 2147   4.232   2.028  14.046  0.2139 -0.3209  0.2222
  141TCq2    C2 2148   4.138   2.103  14.241 -0.5873 -0.3570 -0.1078
  141TCq2    C3 2149   4.072   1.983  14.258 -0.4102 -1.0299 -0.0736
  141TCq2    C4 2150   3.971   1.973  14.356  0.2366  0.6926 -0.6600
  141TCq2    C5 2151   3.925   2.088  14.409  0.3521 -0.1459 -0.2422
  141TCq2    C6 2152   3.987   2.210  14.387  0.3730  0.1498  0.3659
  141TCq2    C7 2153   4.099   2.214  14.308 -0.8565 -0.0056  0.3670
  141TCq2    C8 2154   3.949   2.311  14.477 -0.4269 -1.3585  0.1697
  141TCq2    O4 2155   3.902   2.264  14.582 -0.0392 -0.4740 -0.1277
  141TCq2    C9 2156   3.895   1.853  14.387  0.1724 -0.0622  0.3004
  141TCq2    O5 2157   3.796   1.856  14.468  0.5704 -0.2394  0.3426
  141TCq2    O6 2158   3.915   1.755  14.306  0.0225  0.0455 -0.4009
  141TCq2    H2 2159   4.113   1.897  14.205 -1.0680 -1.1462 -0.3993
  141TCq2    H3 2160   3.841   2.071  14.475  0.4463  4.1451  0.9531
  141TCq2    H4 2161   4.150   2.305  14.278  0.0691  0.0098  1.9724
  142MPD2     C 2162   1.526   0.050  10.460  0.1792 -0.1142 -0.2929
  142MPD2    C1 2163   1.636   0.102  10.401 -0.1681 -0.2306  0.2975
  142MPD2    C2 2164   1.686   0.227  10.442 -0.2671 -0.2306  0.4699
  142MPD2    C3 2165   1.633   0.290  10.552 -0.7266 -0.6311 -0.2277
  142MPD2    C4 2166   1.515   0.239  10.602 -0.3440  0.1334  0.4259
  142MPD2    C5 2167   1.471   0.118  10.560  0.7191 -0.9845 -0.2619
  142MPD2     H 2168   1.771   0.270  10.390 -1.3732 -0.0237 -1.1642
  142MPD2    H1 2169   1.457   0.292  10.676 -0.0634  0.1245  0.6494
  142MPD2    H2 2170   1.477   4.686  10.422 -1.3668 -0.8130  3.2932
  142MPD2    H3 2171   1.378   0.080  10.600  0.5578  0.4824  0.7430
  142MPD2     N 2172   1.681   0.410  10.611 -0.1815  0.3605  0.1617
  142MPD2    H5 2173   1.615   0.457  10.673 -0.5211  0.0501  0.0319
  142MPD2    N1 2174   1.679   0.022  10.299 -0.6891 -0.2183 -0.2970
  142MPD2    H7 2175   1.637   4.655  10.292  0.3559 -0.9638  3.2618
  143TCq2    C1 2176   1.774   0.496  10.563  0.6338  0.4558  0.2726
  143TCq2    O2 2177   1.853   0.483  10.470 -0.4903  0.0202  0.1173
  143TCq2    C2 2178   1.768   0.628  10.625  0.7229 -0.8058 -0.1945
  143TCq2    C3 2179   1.707   0.644  10.744 -0.4070  0.5908  0.4424
  143TCq2    C4 2180   1.694   0.770  10.798  0.4840  0.0300  0.3653
  143TCq2    C5 2181   1.738   0.882  10.735  0.2444  0.0282  0.2180
  143TCq2    C6 2182   1.804   0.860  10.616  0.1042 -0.1041 -0.3420
  143TCq2    C7 2183   1.825   0.739  10.564 -0.8673  0.1683 -0.1508
  143TCq2    C8 2184   1.833   0.981  10.534  0.3623  0.6155 -0.6812
  143TCq2    O4 2185   1.883   0.960  10.426 -0.5032  0.1182 -0.2291
  143TCq2    C9 2186   1.625   0.783  10.920 -0.0133  0.4458  0.6414
  143TCq2    O5 2187   1.559   0.683  10.962  0.0298  0.0686  0.1163
  143TCq2    O6 2188   1.615   0.898  10.970 -0.6310 -0.2941 -0.2479
  143TCq2    H2 2189   1.692   0.558  10.809 -1.3559  0.5342  0.1505
  143TCq2    H3 2190   1.728   0.974  10.792 -0.2861  0.9566 -1.3657
  143TCq2    H4 2191   1.871   0.724  10.467  1.8025 -2.0854  1.4612
  144MPD2     C 2192   3.481   4.385   0.441  0.0613 -0.1132 -0.3926
  144MPD2    C1 2193   3.554   4.321   0.339 -1.1659 -0.0792 -0.0578
  144MPD2    C2 2194   3.669   4.254   0.365 -0.3338  0.2485  0.2900
  144MPD2    C3 2195   3.718   4.246   0.497  0.3216  0.0103 -0.0741
  144MPD2    C4 2196   3.642   4.310   0.598 -0.2829 -0.2409  0.6931
  144MPD2    C5 2197   3.525   4.374   0.571  0.3274  0.9433  0.5436
  144MPD2     H 2198   3.717   4.205   0.281 -2.8401 -0.6901 -0.6054
  144MPD2    H1 2199   3.664   4.317   0.704  0.9106 -0.4533  0.4666
  144MPD2    H2 2200   3.393   4.447   0.430 -1.7289 -2.1259  2.3583
  144MPD2    H3 2201   3.469   4.429   0.645  0.3527 -1.0585  2.0588
  144MPD2     N 2202   3.834   4.173   0.533  0.1256 -0.2963  0.1918
  144MPD2    H5 2203   3.844   4.166   0.633 -0.3710 -0.8541  0.2007
  144MPD2    N1 2204   3.514   4.330   0.205  0.3180  0.0345 -0.0769
  144MPD2    H7 2205   3.569   4.266   0.148 -0.7745  2.4156 -3.8242
  145TCq2    C1 2206   3.926   4.120   0.453  0.4626 -0.0543  0.0377
  145TCq2    O2 2207   3.922   4.111   0.331 -0.0543  0.4980 -0.1874
  145TCq2    C2 2208   4.046   4.075   0.518  0.3596 -0.1028  0.6113
  145TCq2    C3 2209   4.129   3.996   0.445  0.2188 -0.3470 -0.2952
  145TCq2    C4 2210   4.248   3.956   0.497 -0.1806  0.0297 -0.2434
  145TCq2    C5 2211   4.282   3.998   0.624  0.3084 -0.0060 -0.6089
  145TCq2    C6 2212   4.200   4.082   0.694 -0.3214 -0.4004 -0.2301
  145TCq2    C7 2213   4.079   4.125   0.640 -0.5301  0.8509 -0.1858
  145TCq2    C8 2214   4.240   4.123   0.826  1.1116  0.1228  0.0341
  145TCq2    O4 2215   4.321   4.058   0.888 -0.4575 -0.3137 -0.0075
  145TCq2    C9 2216   4.327   3.856   0.432  0.6311  1.0660 -0.5094
  145TCq2    O5 2217   4.278   3.821   0.322  0.5729  0.5602 -0.3960
  145TCq2    O6 2218   4.438   3.818   0.487  0.2967 -0.4847 -0.0912
  145TCq2    H2 2219   4.095   3.966   0.346 -2.4594 -0.2419  0.5923
  145TCq2    H3 2220   4.362   3.955   0.683 -0.3756  0.0698  0.3666
  145TCq2    H4 2221   4.010   4.184   0.699  1.3158  0.7426  2.0732
  146TMC2    C1 2222   1.001   2.624  12.047  0.5571  0.2709  0.2759
  146TMC2    C2 2223   0.923   2.579  11.944  0.1855 -0.3941 -0.4068
  146TMC2    C3 2224   0.983   2.493  11.861  0.5190 -0.7134  0.2766
  146TMC2    C4 2225   1.132   2.586  12.058  0.7526 -0.6339 -0.6427
  146TMC2    C5 2226   1.185   2.496  11.966 -0.2587  0.0806  0.4149
  146TMC2    C6 2227   1.110   2.459  11.863 -0.5651  0.8190 -0.0678
  146TMC2     C 2228   0.933   2.707  12.146 -0.5732 -0.6680  0.3052
  146TMC2     O 2229   0.824   2.757  12.120 -0.1968 -0.3709 -0.7560
  146TMC2     H 2230   0.817   2.599  11.943  0.2636  0.0584  0.5862
  146TMC2    H1 2231   1.189   2.629  12.140  1.4491 -1.1004 -0.8775
  146TMC2    H2 2232   1.157   2.416  11.775  0.3927  0.2105  0.7480
  146TMC2    C7 2233   1.326   2.482  11.950  0.0142 -0.0954  0.7814
  146TMC2    C8 2234   0.909   2.426  11.759  0.5304  0.0548  0.3083
  146TMC2    O1 2235   1.366   2.422  11.850  0.3253 -0.2180  0.2310
  146TMC2    O2 2236   0.954   2.395  11.652  0.6590  0.5552  0.2602
  146TMC2    O5 2237   0.818   2.359  11.828 -0.2274 -0.2816 -0.0666
  146TMC2    H5 2238   0.810   2.391  11.920 -0.9016 -1.3285  0.2344
  147MPD2     C 2239   1.795   2.471  12.173  0.1598 -0.5964  0.4187
  147MPD2    C1 2240   1.707   2.549  12.256  0.1375 -0.4978 -0.2164
  147MPD2    C2 2241   1.580   2.573  12.203 -0.4154 -0.7664  0.7098
  147MPD2    C3 2242   1.530   2.511  12.089 -0.9260 -0.0329 -0.3796
  147MPD2    C4 2243   1.611   2.429  12.010  0.2996 -0.2393 -0.2309
  147MPD2    C5 2244   1.738   2.411  12.057 -0.1063 -0.8005 -0.0510
  147MPD2     H 2245   1.506   2.638  12.249 -0.3961 -0.5823  0.4844
  147MPD2    H1 2246   1.577   2.381  11.919 -1.3430 -1.4529  1.0191
  147MPD2    H2 2247   1.895   2.452  12.209  2.2025  2.0663 -3.8804
  147MPD2    H3 2248   1.797   2.346  11.994  0.1762 -1.5345  0.9682
  147MPD2     N 2249   1.395   2.522  12.062 -0.5021  0.2061 -0.0874
  147MPD2    H5 2250   1.342   2.567  12.136  0.5007 -0.4067  1.0067
  147MPD2    N1 2251   1.750   2.600  12.387  0.1270  0.2028  0.6573
  147MPD2    H7 2252   1.845   2.578  12.414 -0.8336 -3.9267  0.6429
  148MPD2     C 2253   0.948   2.024  10.113  0.5790  0.2861 -0.1539
  148MPD2    C1 2254   1.031   1.915  10.136 -0.1918  0.0881  0.5822
  148MPD2    C2 2255   0.991   1.785  10.124 -0.0911  0.3518  0.1511
  148MPD2    C3 2256   0.867   1.759  10.075 -0.6126  0.5260 -1.3660
  148MPD2    C4 2257   0.786   1.864  10.041 -0.2257 -0.4256  0.1344
  148MPD2    C5 2258   0.828   1.994  10.061  0.3579 -0.1434  0.1471
  148MPD2     H 2259   1.066   1.710  10.147  2.4803  2.2210 -2.1340
  148MPD2    H1 2260   0.684   1.851  10.006  0.5372 -1.1390 -1.7895
  148MPD2    H2 2261   0.978   2.128  10.107  0.7866  0.2045 -0.5259
  148MPD2    H3 2262   0.765   2.072  10.018  0.4262  0.4045  1.0378
  148MPD2     N 2263   0.820   1.631  10.072  0.1357 -0.4364  0.1446
  148MPD2    H5 2264   0.733   1.619  10.021  0.4898 -1.5926 -0.1801
  148MPD2    N1 2265   1.162   1.941  10.170 -0.0685 -0.0916  0.1674
  148MPD2    H7 2266   1.211   1.866  10.218  0.7738  0.0079 -0.5343
  149TCq2    C1 2267   1.240   2.045  10.132 -0.1932  0.6325 -1.1149
  149TCq2    O2 2268   1.214   2.132  10.043  0.0979  0.4339 -0.4079
  149TCq2    C2 2269   1.366   2.053  10.210 -1.2142  0.1493  0.1227
  149TCq2    C3 2270   1.469   2.144  10.176  0.6898  0.6653 -0.4051
  149TCq2    C4 2271   1.590   2.149  10.237 -0.9182  0.2292 -0.5968
  149TCq2    C5 2272   1.621   2.035  10.307  0.4868 -0.1357  0.2576
  149TCq2    C6 2273   1.522   1.953  10.351  0.5377  0.5273 -0.3907
  149TCq2    C7 2274   1.390   1.962  10.311  0.3424  0.1033 -0.0835
  149TCq2    C8 2275   1.561   1.848  10.441 -0.5295 -0.6375  0.1731
  149TCq2    O4 2276   1.655   1.872  10.516  0.8139  0.0821 -0.1599
  149TCq2    C9 2277   1.700   2.232  10.183 -0.4615  0.3339  0.1244
  149TCq2    O5 2278   1.667   2.344  10.142  0.6155  0.1093 -0.0831
  149TCq2    O6 2279   1.817   2.176  10.171 -0.2333  0.3693 -0.1405
  149TCq2    H2 2280   1.446   2.211  10.093  1.3131  0.7258 -0.5290
  149TCq2    H3 2281   1.722   2.027  10.344 -0.9445 -2.7213  3.6315
  149TCq2    H4 2282   1.309   1.912  10.361  1.1811 -2.4672 -1.2845
  150MPD2     C 2283   2.396   1.046  11.855  1.0396 -0.1524 -0.5926
  150MPD2    C1 2284   2.518   0.987  11.829  0.0524 -0.7557  0.5246
  150MPD2    C2 2285   2.610   0.978  11.931 -0.2251  0.2924 -0.1177
  150MPD2    C3 2286   2.588   1.033  12.053  0.3435  0.2095 -0.7424
  150MPD2    C4 2287   2.462   1.083  12.079 -0.3255  0.3610  0.5569
  150MPD2    C5 2288   2.366   1.096  11.979  0.5862  0.0347  0.0038
  150MPD2     H 2289   2.702   0.922  11.915 -0.7846 -0.4510 -0.7052
  150MPD2    H1 2290   2.437   1.110  12.180 -0.9912  1.4324  0.1055
  150MPD2    H2 2291   2.313   1.040  11.785 -0.6362  1.7687  1.2184
  150MPD2    H3 2292   2.266   1.125  12.005  1.4053  0.7537  2.3333
  150MPD2     N 2293   2.691   1.016  12.157 -0.4403  0.3561  0.0629
  150MPD2    H5 2294   2.779   0.970  12.136 -0.5636 -0.3069  0.9971
  150MPD2    N1 2295   2.538   0.932  11.709  0.0648 -0.0155 -0.0999
  150MPD2    H7 2296   2.451   0.923  11.659 -1.0147  0.8684  1.5923
  151TCq2    C1 2297   2.686   1.084  12.277 -0.3536  0.1147 -0.5228
  151TCq2    O2 2298   2.626   1.184  12.311  0.2934  0.3580  0.4151
  151TCq2    C2 2299   2.791   1.039  12.369  0.0307 -0.0921  0.2761
  151TCq2    C3 2300   2.798   0.904  12.389 -0.1780 -0.0788 -0.2767
  151TCq2    C4 2301   2.894   0.863  12.466 -0.3934  0.1848  0.9808
  151TCq2    C5 2302   2.999   0.946  12.502  0.4121  0.0652 -0.0523
  151TCq2    C6 2303   3.004   1.081  12.466  0.1055  0.2719  0.7165
  151TCq2    C7 2304   2.887   1.125  12.404 -0.3115  0.1981  0.2947
  151TCq2    C8 2305   3.119   1.168  12.477  0.6201 -0.3497  0.2944
  151TCq2    O4 2306   3.105   1.289  12.458  0.1805 -0.0366 -0.2366
  151TCq2    C9 2307   2.896   0.729  12.511 -0.0224  0.9892  0.0847
  151TCq2    O5 2308   2.786   0.658  12.496 -0.2097 -0.4389 -0.0152
  151TCq2    O6 2309   3.010   0.683  12.533 -0.3210 -0.1625 -0.1475
  151TCq2    H2 2310   2.713   0.841  12.363  0.5735 -1.5256  0.7530
  151TCq2    H3 2311   3.079   0.901  12.559 -0.5783 -0.6786  0.7338
  151TCq2    H4 2312   2.881   1.222  12.356  0.1659 -0.3145 -0.7933
  152MPD2     C 2313   2.133   0.558  12.646  0.2270  0.3148  0.0525
  152MPD2    C1 2314   2.203   0.659  12.700  0.8456 -0.8672 -0.4394
  152MPD2    C2 2315   2.152   0.792  12.687 -0.3114  0.0975  0.0892
  152MPD2    C3 2316   2.054   0.822  12.601 -0.7376 -0.3726 -0.1076
  152MPD2    C4 2317   1.978   0.713  12.552  0.1559 -0.1566 -0.1191
  152MPD2    C5 2318   2.020   0.588  12.576  0.9310 -0.9493 -0.1292
  152MPD2     H 2319   2.203   0.870  12.742 -0.9462 -0.3337  1.2802
  152MPD2    H1 2320   1.887   0.725  12.494  0.4004 -1.3386 -0.7557
  152MPD2    H2 2321   2.161   0.453  12.651 -0.6928  0.1070  0.7132
  152MPD2    H3 2322   1.960   0.512  12.527  1.0970 -1.5085  0.5329
  152MPD2     N 2323   2.040   0.962  12.578 -0.3885  0.1367  0.0571
  152MPD2    H5 2324   2.108   1.023  12.623  0.8975  0.3643 -2.2006
  152MPD2    N1 2325   2.323   0.621  12.771 -0.3313 -0.0733  0.1110
  152MPD2    H7 2326   2.362   0.527  12.760 -0.1840  0.0884 -0.7287
  153TCq2    C1 2327   2.396   0.706  12.846 -0.1698  0.0835  0.0671
  153TCq2    O2 2328   2.358   0.813  12.893  0.2313  0.3592  0.1457
  153TCq2    C2 2329   2.537   0.656  12.871 -0.3671 -0.0631  0.9662
  153TCq2    C3 2330   2.585   0.531  12.834  0.1064  0.0550 -0.2394
  153TCq2    C4 2331   2.718   0.525  12.818  0.5557  0.1772  0.3251
  153TCq2    C5 2332   2.797   0.634  12.835 -0.4248  0.5567 -0.4526
  153TCq2    C6 2333   2.745   0.756  12.870  0.3424 -0.6327 -0.1110
  153TCq2    C7 2334   2.617   0.769  12.894  0.0722 -0.3449 -0.1619
  153TCq2    C8 2335   2.819   0.879  12.842  0.9837  0.1307 -1.1052
  153TCq2    O4 2336   2.754   0.974  12.797  0.2639  0.1343  0.4643
  153TCq2    C9 2337   2.774   0.410  12.770 -0.7573 -0.4698  0.0317
  153TCq2    O5 2338   2.890   0.416  12.717  0.2223 -0.3574  0.0345
  153TCq2    O6 2339   2.706   0.307  12.778  0.3841 -0.4541  0.2466
  153TCq2    H2 2340   2.515   0.449  12.818 -1.4455  1.5839 -1.3294
  153TCq2    H3 2341   2.899   0.618  12.800 -0.4258 -0.9956  0.2181
  153TCq2    H4 2342   2.570   0.863  12.919  0.6973 -0.3434  1.0358
  154MPD2     C 2343   4.661   2.095   0.283 -0.8857 -0.6714  1.1618
  154MPD2    C1 2344   4.538   2.027   0.316  0.5428 -0.2101  0.1257
  154MPD2    C2 2345   4.497   2.026   0.452 -0.7428 -0.0808  0.7054
  154MPD2    C3 2346   4.586   2.071   0.544 -0.3802 -0.0221 -0.2064
  154MPD2    C4 2347   4.704   2.132   0.514 -0.6168 -0.4798  0.1835
  154MPD2    C5 2348   0.016   2.143   0.380 -0.0271  0.1593  0.5785
  154MPD2     H 2349   4.402   1.984   0.484 -2.0158  0.9382 -1.7207
  154MPD2    H1 2350   0.057   2.157   0.585  0.9140  2.7093 -2.5879
  154MPD2    H2 2351   4.693   2.100   0.179 -1.2243 -0.1528  1.0807
  154MPD2    H3 2352   0.113   2.185   0.355  0.0007  0.4584  1.1915
  154MPD2     N 2353   4.545   2.051   0.680  0.0340 -0.2400  0.0091
  154MPD2    H5 2354   4.452   2.011   0.686 -0.2274  0.5939  1.3598
  154MPD2    N1 2355   4.463   1.965   0.211 -0.0882  0.2362  0.2461
  154MPD2    H7 2356   4.514   1.945   0.125 -0.9448  1.2468 -0.4962
  155TCq2    C1 2357   4.333   1.931   0.231  0.4421  0.2652 -0.3473
  155TCq2    O2 2358   4.252   1.980   0.313  0.7933 -0.2937 -0.1598
  155TCq2    C2 2359   4.280   1.832   0.135  0.4971 -1.3706  0.0801
  155TCq2    C3 2360   4.145   1.825   0.134 -0.1716 -0.0379  0.2065
  155TCq2    C4 2361   4.092   1.720   0.059 -0.6522  0.6601 -0.0178
  155TCq2    C5 2362   4.164   1.624   0.002  0.0552 -0.5430  0.0937
  155TCq2    C6 2363   4.297   1.630   0.015 -0.1222  0.1377 -0.0303
  155TCq2    C7 2364   4.358   1.732   0.084  0.0723  0.6922  0.5314
  155TCq2    C8 2365   4.371   1.536  17.632  0.8479  0.0766  0.1400
  155TCq2    O4 2366   4.312   1.443  17.578 -0.0094  0.3686 -0.3336
  155TCq2    C9 2367   3.953   1.723   0.058 -0.2851  0.2553  0.3251
  155TCq2    O5 2368   3.896   1.631  17.695 -0.2775 -0.0782  0.2022
  155TCq2    O6 2369   3.896   1.801   0.140 -0.2452  1.0055  0.0864
  155TCq2    H2 2370   4.087   1.909   0.170 -2.1904 -1.8276  1.0945
  155TCq2    H3 2371   4.116   1.545  17.647 -2.2725 -0.1490  1.4899
  155TCq2    H4 2372   4.464   1.731   0.103  0.1019  1.0721  0.3978
  156MPD2     C 2373   3.519   3.132  12.591 -0.1695 -0.1981 -0.0165
  156MPD2    C1 2374   3.524   3.215  12.485 -0.3352  0.4357  0.6539
  156MPD2    C2 2375   3.454   3.334  12.492  1.0329 -0.3961 -0.1859
  156MPD2    C3 2376   3.380   3.371  12.599 -0.6203 -0.0206  0.4935
  156MPD2    C4 2377   3.369   3.286  12.711  0.2518 -0.7586 -0.0500
  156MPD2    C5 2378   3.440   3.168  12.700 -0.2722  0.1156 -0.4325
  156MPD2     H 2379   3.460   3.399  12.406 -0.0482  0.0150  0.0448
  156MPD2    H1 2380   3.311   3.307  12.799  1.9809  0.0689  0.8939
  156MPD2    H2 2381   3.588   3.049  12.601  0.4604  0.0983 -1.8214
  156MPD2    H3 2382   3.441   3.096  12.781 -0.4652 -0.0327 -0.5621
  156MPD2     N 2383   3.327   3.500  12.595  0.5273 -0.0471  0.8310
  156MPD2    H5 2384   3.352   3.556  12.514 -0.7430  0.6802  0.9482
  156MPD2    N1 2385   3.591   3.194  12.366  0.3595  0.8923  0.3913
  156MPD2    H7 2386   3.568   3.259  12.291 -2.6479 -2.4737 -1.6317
  157TCq2    C1 2387   3.676   3.092  12.341  0.0755 -0.1379  0.1028
  157TCq2    O2 2388   3.731   3.005  12.404  0.8732 -0.4782  0.0114
  157TCq2    C2 2389   3.725   3.091  12.200 -0.0844 -0.0866 -0.0110
  157TCq2    C3 2390   3.800   2.980  12.159 -0.1957 -0.3679  0.4441
  157TCq2    C4 2391   3.813   2.958  12.020  0.2472  0.3292 -0.1174
  157TCq2    C5 2392   3.749   3.030  11.930 -0.5384  0.0638  0.0907
  157TCq2    C6 2393   3.679   3.138  11.976 -0.0348  0.0173 -0.1930
  157TCq2    C7 2394   3.654   3.162  12.109 -0.0845 -0.8943 -0.8032
  157TCq2    C8 2395   3.607   3.217  11.875 -0.0750  0.4641  0.1460
  157TCq2    O4 2396   3.578   3.330  11.904  0.1286 -0.3682  0.0643
  157TCq2    C9 2397   3.902   2.855  11.968  0.1835  0.3924  0.2992
  157TCq2    O5 2398   3.948   2.785  12.061 -0.1691  0.1827 -0.6405
  157TCq2    O6 2399   3.957   2.877  11.858  0.0181 -0.1702  0.1995
  157TCq2    H2 2400   3.862   2.922  12.226 -0.7032 -0.8220  0.5163
  157TCq2    H3 2401   3.771   3.001  11.828 -1.5268 -2.0646  0.4826
  157TCq2    H4 2402   3.591   3.246  12.133 -0.7925 -1.6368 -0.0587
  158TMC2    C1 2403   2.973   2.383  13.441  0.4243  0.0205 -0.1536
  158TMC2    C2 2404   3.010   2.494  13.367  0.8832  0.8455  0.6238
  158TMC2    C3 2405   2.908   2.554  13.298 -0.5879  0.0986 -0.7346
  158TMC2    C4 2406   2.844   2.331  13.442 -0.6593 -0.4123 -0.2208
  158TMC2    C5 2407   2.745   2.404  13.380 -0.5764 -0.6569  0.3359
  158TMC2    C6 2408   2.776   2.510  13.300  0.4687  0.3284 -0.7491
  158TMC2     C 2409   3.074   2.327  13.522  0.0516  0.7182  0.8102
  158TMC2     O 2410   3.190   2.345  13.484 -0.0632 -0.2532 -0.6731
  158TMC2     H 2411   3.105   2.541  13.345  0.0611  2.8160  1.3561
  158TMC2    H1 2412   2.826   2.238  13.494  0.9468 -0.6344 -0.0634
  158TMC2    H2 2413   2.703   2.576  13.254 -0.5517 -2.6036 -3.3623
  158TMC2    C7 2414   2.610   2.347  13.372 -0.3559 -0.1564 -0.2467
  158TMC2    C8 2415   2.943   2.677  13.229  0.0989  0.0288 -0.0156
  158TMC2    O1 2416   2.533   2.408  13.306 -0.1418 -0.7564  0.4261
  158TMC2    O2 2417   3.036   2.751  13.252 -0.3513 -0.0795 -0.2504
  158TMC2    O5 2418   2.916   2.648  13.099 -0.2923 -0.4548  0.4526
  158TMC2    H5 2419   2.849   2.580  13.083 -0.9952  0.5279 -0.7773
  159MPD2     C 2420   3.217   2.030  13.907 -0.5070  0.7717 -0.6161
  159MPD2    C1 2421   3.096   2.096  13.944 -0.4988  0.0986 -0.0297
  159MPD2    C2 2422   3.031   2.178  13.855 -0.2018  0.2705  0.2090
  159MPD2    C3 2423   3.089   2.199  13.731 -0.5483 -0.2155 -0.2371
  159MPD2    C4 2424   3.203   2.133  13.695 -0.3897  0.5663 -0.0067
  159MPD2    C5 2425   3.263   2.043  13.783  0.2995  0.7333 -0.1782
  159MPD2     H 2426   2.943   2.236  13.878 -0.2483 -0.0642  0.8772
  159MPD2    H1 2427   3.232   2.129  13.591  0.7324 -0.7836  0.3499
  159MPD2    H2 2428   3.273   1.959  13.965  1.1872  1.4604 -1.4114
  159MPD2    H3 2429   3.347   1.980  13.756 -0.8346  0.6774 -3.5019
  159MPD2     N 2430   3.020   2.279  13.636  1.1878  0.9133  0.0309
  159MPD2    H5 2431   2.932   2.326  13.656  1.4907  0.9863  1.1837
  159MPD2    N1 2432   3.059   2.076  14.078  0.3057  0.4015 -0.5738
  159MPD2    H7 2433   3.113   2.008  14.131  0.9440  1.4690  0.1396
  160TMC2    C1 2434   2.259   0.298   1.462 -0.3661 -1.2043 -0.3038
  160TMC2    C2 2435   2.213   0.352   1.578  0.9144  0.6837 -0.5200
  160TMC2    C3 2436   2.263   0.317   1.701 -0.2791 -0.4302 -0.7832
  160TMC2    C4 2437   2.361   0.214   1.471 -0.0824 -0.9271 -0.3856
  160TMC2    C5 2438   2.410   0.179   1.596  0.2048  0.1647  0.5329
  160TMC2    C6 2439   2.363   0.227   1.713 -0.2785 -0.5149 -0.0553
  160TMC2     C 2440   2.212   0.328   1.331  0.0429  0.4251 -0.1900
  160TMC2     O 2441   2.271   0.277   1.236 -0.1396 -0.0106 -0.3073
  160TMC2     H 2442   2.129   0.421   1.585 -1.7976 -2.3391 -3.7693
  160TMC2    H1 2443   2.405   0.170   1.383 -0.4407  0.3215 -1.1819
  160TMC2    H2 2444   2.408   0.192   1.805  1.9358  2.0879 -0.1222
  160TMC2    C7 2445   2.514   0.083   1.602 -0.2367 -0.3536 -0.1536
  160TMC2    C8 2446   2.166   0.350   1.806  0.1472  0.2944 -0.0281
  160TMC2    O1 2447   2.498   4.713   1.680 -0.4349 -0.1391 -0.3292
  160TMC2    O2 2448   2.146   0.268   1.896 -0.1299 -0.2019  0.1263
  160TMC2    O5 2449   2.162   0.479   1.823 -0.3950  0.2182 -0.2105
  160TMC2    H5 2450   2.209   0.532   1.756  0.2622  1.7366  1.4414
  161MPD2     C 2451   2.078   0.421   1.087  0.0485 -0.1589  1.0846
  161MPD2    C1 2452   2.036   0.462   1.215 -0.2545  0.2073 -0.8347
  161MPD2    C2 2453   1.943   0.574   1.222 -0.3403  0.2438 -0.1469
  161MPD2    C3 2454   1.907   0.636   1.108 -0.5053 -0.2112 -0.0639
  161MPD2    C4 2455   1.965   0.601   0.982  0.0770 -0.4820 -0.1932
  161MPD2    C5 2456   2.045   0.490   0.974 -0.3211  0.2243  0.1193
  161MPD2     H 2457   1.899   0.601   1.317 -0.4159  0.7839 -0.3410
  161MPD2    H1 2458   1.939   0.666   0.900 -0.6658  0.3976  0.7451
  161MPD2    H2 2459   2.121   0.324   1.068  1.0673  0.7438 -1.1709
  161MPD2    H3 2460   2.096   0.470   0.881 -1.4337 -1.2014 -0.1796
  161MPD2     N 2461   1.811   0.739   1.100  0.1262 -0.5149 -0.2409
  161MPD2    H5 2462   1.788   0.765   1.005 -1.0485  1.1445  0.5093
  161MPD2    N1 2463   2.101   0.409   1.333 -0.0739  0.0640 -0.8472
  161MPD2    H7 2464   2.062   0.438   1.422  1.0102  0.8253 -0.6168
  162TMC2    C1 2465   0.582   2.814   0.455 -0.5802  0.1843  0.7558
  162TMC2    C2 2466   0.455   2.849   0.412 -0.8105 -0.4622 -0.2282
  162TMC2    C3 2467   0.386   2.954   0.487  0.4520  0.6408 -0.2632
  162TMC2    C4 2468   0.639   2.867   0.574 -0.6474 -0.5272 -0.1222
  162TMC2    C5 2469   0.575   2.969   0.631 -0.1537 -0.3159  0.1795
  162TMC2    C6 2470   0.443   3.007   0.602  0.4952 -0.1905  0.4422
  162TMC2     C 2471   0.659   2.711   0.385 -0.1959  0.4316  0.0144
  162TMC2     O 2472   0.760   2.680   0.444  0.2772  0.3878 -0.0048
  162TMC2     H 2473   0.416   2.815   0.317 -1.3024 -1.2398  0.2572
  162TMC2    H1 2474   0.745   2.856   0.593 -0.3981  1.9678 -0.0560
  162TMC2    H2 2475   0.392   3.085   0.657 -0.5554  0.3778 -1.3385
  162TMC2    C7 2476   0.638   3.040   0.739  0.3496 -0.0898 -0.2128
  162TMC2    C8 2477   0.245   2.980   0.450 -0.2760  0.4927 -0.2631
  162TMC2    O1 2478   0.588   3.151   0.763 -0.6619  0.5349 -0.7593
  162TMC2    O2 2479   0.196   2.926   0.351 -0.1559 -0.1894  0.2435
  162TMC2    O5 2480   0.183   2.968   0.569 -0.2459 -0.1579 -0.1429
  162TMC2    H5 2481   0.217   3.032   0.635 -0.5810  0.5533 -0.6585
  163MPD2     C 2482   0.715   2.298   0.070 -0.4411  0.0889 -0.2632
  163MPD2    C1 2483   0.798   2.347   0.164 -0.1803 -0.1812  0.4219
  163MPD2    C2 2484   0.763   2.458   0.235  0.0348 -0.1969 -0.0682
  163MPD2    C3 2485   0.643   2.524   0.216 -0.0518 -0.6476 -0.1817
  163MPD2    C4 2486   0.560   2.477   0.123  0.4218 -0.4163 -0.0586
  163MPD2    C5 2487   0.599   2.365   0.050  0.3847  0.5835 -0.5763
  163MPD2     H 2488   0.821   2.500   0.317  3.3557  0.4301 -2.7393
  163MPD2    H1 2489   0.469   2.525   0.087  0.3204  0.6164  1.6042
  163MPD2    H2 2490   0.738   2.212   0.008 -1.4800 -1.0563  0.9326
  163MPD2    H3 2491   0.530   2.333  17.675  2.8510 -3.4431 -1.1374
  163MPD2     N 2492   0.597   2.639   0.284 -0.1602  0.1388  1.3767
  163MPD2    H5 2493   0.504   2.668   0.254  0.3527 -0.6098 -0.9518
  163MPD2    N1 2494   0.926   2.289   0.176 -0.3099 -0.4426 -0.2206
  163MPD2    H7 2495   0.949   2.216   0.109  0.8816 -0.6102  0.3697
  164TCq2    C1 2496   1.865   1.682  11.377 -0.0841  0.2145 -0.3608
  164TCq2    O2 2497   1.883   1.623  11.481  0.5040 -0.9383 -0.4225
  164TCq2    C2 2498   1.814   1.812  11.393 -0.0615 -0.4983  0.4296
  164TCq2    C3 2499   1.878   1.910  11.321 -0.2555  0.2206  0.2214
  164TCq2    C4 2500   1.798   2.011  11.280 -0.1869  0.1518 -0.2876
  164TCq2    C5 2501   1.661   2.007  11.294 -1.2759  0.1544  0.2569
  164TCq2    C6 2502   1.612   1.905  11.370  0.6089  1.2072  0.7986
  164TCq2    C7 2503   1.688   1.814  11.438 -0.2513  0.3641  1.0392
  164TCq2    C8 2504   1.469   1.884  11.369  0.5768  0.3958 -1.3471
  164TCq2    O4 2505   1.404   1.950  11.293 -0.3832 -0.4447 -0.0903
  164TCq2    C9 2506   1.856   2.108  11.202 -0.4842 -0.1947  0.5153
  164TCq2    O5 2507   1.782   2.215  11.203  0.5050  0.4674 -0.1436
  164TCq2    O6 2508   1.981   2.112  11.193  0.2194 -0.2463 -0.2903
  164TCq2    H2 2509   1.982   1.904  11.292 -0.1483  1.2239  0.3707
  164TCq2    H3 2510   1.600   2.079  11.243 -1.0565  2.0536  2.6621
  164TCq2    H4 2511   1.655   1.717  11.472 -0.5846 -0.4448 -1.5975
  165MPD2     C 2512   3.512   3.193   2.154 -0.0509 -0.0428  0.2714
  165MPD2    C1 2513   3.439   3.228   2.046  0.1193  0.0027  0.2186
  165MPD2    C2 2514   3.364   3.349   2.045 -0.4429 -0.1583  0.3057
  165MPD2    C3 2515   3.360   3.435   2.157  0.5270 -0.2321  0.0088
  165MPD2    C4 2516   3.446   3.402   2.260 -0.4112 -0.4190  0.0945
  165MPD2    C5 2517   3.517   3.280   2.260 -0.0482 -0.4194  0.0415
  165MPD2     H 2518   3.304   3.364   1.956  0.7828  1.6565 -0.2212
  165MPD2    H1 2519   3.458   3.463   2.348 -0.2757  1.5126 -1.2618
  165MPD2    H2 2520   3.570   3.101   2.157  1.6929  1.0569  0.8103
  165MPD2    H3 2521   3.587   3.266   2.342 -0.3226  1.0901  0.5353
  165MPD2     N 2522   3.284   3.548   2.168  0.7715  0.0162  0.1027
  165MPD2    H5 2523   3.274   3.588   2.261  0.9580 -0.4463  0.3204
  165MPD2    N1 2524   3.445   3.140   1.939 -0.1736  0.0369  0.0745
  165MPD2    H7 2525   3.507   3.060   1.939  0.4027  0.4786 -0.3739
  166TCq2    C1 2526   3.220   3.614   2.067  0.4863  0.4259  0.0098
  166TCq2    O2 2527   3.230   3.584   1.949 -0.0308  0.3353 -0.5937
  166TCq2    C2 2528   3.178   3.742   2.113 -0.1751  0.2342 -0.4150
  166TCq2    C3 2529   3.181   3.770   2.250 -1.1581 -0.1682 -0.2750
  166TCq2    C4 2530   3.144   3.898   2.285 -0.0089  0.0058  1.2029
  166TCq2    C5 2531   3.133   4.002   2.196 -0.7049 -0.0572  0.2526
  166TCq2    C6 2532   3.148   3.966   2.063  0.6263  0.1457 -0.2796
  166TCq2    C7 2533   3.163   3.835   2.021 -0.7070  0.0074 -0.0264
  166TCq2    C8 2534   3.111   4.060   1.958  0.3222  0.0211  0.3037
  166TCq2    O4 2535   3.147   4.177   1.979 -0.1886 -0.4819 -0.3134
  166TCq2    C9 2536   3.144   3.932   2.427  0.5505 -0.0468  0.0442
  166TCq2    O5 2537   3.164   3.838   2.501 -0.4251 -0.1257  0.3125
  166TCq2    O6 2538   3.113   4.048   2.458 -0.0078 -0.2765  0.2192
  166TCq2    H2 2539   3.176   3.695   2.328 -1.7788  0.9133  0.7118
  166TCq2    H3 2540   3.137   4.108   2.220  0.4042 -0.1674  0.5334
  166TCq2    H4 2541   3.194   3.817   1.919  0.2892  0.1997  0.2427
  167TMC2    C1 2542   1.691   1.636  12.710 -0.2255 -0.1787 -0.6469
  167TMC2    C2 2543   1.749   1.706  12.811  0.5694 -0.0188  0.3728
  167TMC2    C3 2544   1.838   1.637  12.891  0.3883  0.6649  0.1097
  167TMC2    C4 2545   1.722   1.507  12.700 -0.1738 -0.4759  0.2784
  167TMC2    C5 2546   1.802   1.433  12.791  0.3678 -0.5167  0.7178
  167TMC2    C6 2547   1.861   1.499  12.891  0.2809  0.8234  0.5945
  167TMC2     C 2548   1.636   1.709  12.589 -1.1995  0.4185  0.4454
  167TMC2     O 2549   1.660   1.829  12.569  0.0832 -0.5217 -0.0068
  167TMC2     H 2550   1.744   1.814  12.811 -2.3340 -0.1573  0.1038
  167TMC2    H1 2551   1.704   1.461  12.604  0.2037 -1.2576  0.5861
  167TMC2    H2 2552   1.923   1.446  12.964 -1.5604 -0.2258  1.3979
  167TMC2    C7 2553   1.824   1.290  12.783  0.1939  0.5069  0.1469
  167TMC2    C8 2554   1.896   1.706  12.997  0.1832  0.5771  0.1918
  167TMC2    O1 2555   1.883   1.235  12.876  0.1309  0.1736  0.0927
  167TMC2    O2 2556   1.929   1.638  13.092 -0.3963 -0.4777  0.3848
  167TMC2    O5 2557   1.974   1.804  12.948  0.1706 -0.1908 -0.1515
  167TMC2    H5 2558   1.928   1.851  12.875  3.5151 -0.0342 -2.1696
  168MPD2     C 2559   1.556   1.742  12.301  0.9257 -0.3838 -0.5225
  168MPD2    C1 2560   1.497   1.649  12.386  0.3168  0.8941  0.2717
  168MPD2    C2 2561   1.401   1.569  12.335 -0.0944 -0.1051 -0.1015
  168MPD2    C3 2562   1.343   1.594  12.209 -0.1694  0.0638 -0.6518
  168MPD2    C4 2563   1.398   1.704  12.136  0.3599  0.7551 -0.0316
  168MPD2    C5 2564   1.508   1.768  12.174  0.0859  0.1483  0.0226
  168MPD2     H 2565   1.357   1.489  12.394 -2.5230  2.2877  1.3046
  168MPD2    H1 2566   1.361   1.728  12.037 -4.1784  0.0784  1.5069
  168MPD2    H2 2567   1.641   1.798  12.340  0.4682 -0.8742  1.1643
  168MPD2    H3 2568   1.546   1.851  12.115  2.2697 -0.2455  0.8723
  168MPD2     N 2569   1.227   1.522  12.165  0.1610 -0.3124  0.3666
  168MPD2    H5 2570   1.191   1.450  12.226  1.3006 -1.5493 -0.3969
  168MPD2    N1 2571   1.552   1.629  12.517  0.5420  0.0147  0.6704
  168MPD2    H7 2572   1.524   1.544  12.566  1.6768  0.7383  2.5671
  169MPD1     C 2573   2.867   4.307   8.906  0.9072  0.2497 -0.3445
  169MPD1    C1 2574   2.866   4.306   9.042 -0.1625  0.2530  0.2919
  169MPD1    C2 2575   2.941   4.405   9.103  0.9032 -0.1845  0.5486
  169MPD1    C3 2576   3.010   4.506   9.037  0.7779  0.2556  0.1718
  169MPD1    C4 2577   3.033   4.484   8.902  0.2468 -0.5864 -0.3557
  169MPD1    C5 2578   2.953   4.392   8.840  0.2570 -0.3232  0.3241
  169MPD1     H 2579   2.942   4.406   9.211 -1.5146  1.8995  0.5461
  169MPD1    H1 2580   3.102   4.542   8.842 -2.1029  2.9445  0.3233
  169MPD1    H2 2581   2.814   4.238   8.841  1.4918 -0.9352  0.4313
  169MPD1    H3 2582   2.966   4.392   8.733  2.5683 -0.0097  0.6034
  169MPD1     N 2583   3.080   4.603   9.110 -0.2854  0.5622  0.4883
  169MPD1    H5 2584   3.071   4.589   9.210 -2.4771 -0.3386  0.1581
  169MPD1    N1 2585   2.789   4.215   9.115 -0.1356  0.6139 -0.3670
  169MPD1    H6 2586   2.817   4.198   9.211 -0.5433 -0.0222 -0.3590
  169MPD1    H7 2587   2.780   4.124   9.069  1.2201  2.0580 -3.4950
  170MPD1     C 2588   2.216   3.914  12.791 -0.1839  0.2310 -0.3092
  170MPD1    C1 2589   2.086   3.869  12.793 -0.1368 -0.2155 -0.2736
  170MPD1    C2 2590   2.014   3.882  12.911 -0.3152  0.7449 -0.2801
  170MPD1    C3 2591   2.063   3.963  13.012 -0.1841 -0.1983 -0.1094
  170MPD1    C4 2592   2.201   4.008  13.013 -0.3589 -0.5174  0.0507
  170MPD1    C5 2593   2.278   3.960  12.903 -0.2576 -0.4278  0.5645
  170MPD1     H 2594   1.922   3.825  12.922  0.6828 -0.8058  0.1153
  170MPD1    H1 2595   2.251   4.059  13.094  0.2746 -0.7101 -0.2216
  170MPD1    H2 2596   2.280   3.897  12.705  0.5897 -2.0138  0.6979
  170MPD1    H3 2597   2.386   3.968  12.897 -0.3803  0.7296  0.0021
  170MPD1     N 2598   1.969   3.981  13.123 -0.1229 -0.5717 -0.0392
  170MPD1    H5 2599   1.877   3.937  13.116 -1.5632  2.5633 -0.7874
  170MPD1    N1 2600   2.050   3.781  12.692  0.1721  0.4077 -0.0376
  170MPD1    H6 2601   2.095   3.793  12.602  1.6569 -1.8652  0.4264
  170MPD1    H7 2602   1.950   3.765  12.678  0.1530  0.8476 -0.4095
  171MPD1     C 2603   0.361   0.435  15.263 -0.0073  0.1509 -0.0429
  171MPD1    C1 2604   0.290   0.325  15.213  0.2479 -0.3402 -0.0107
  171MPD1    C2 2605   0.297   0.207  15.287  0.0719 -0.1460 -0.4023
  171MPD1    C3 2606   0.370   0.204  15.404 -0.1935 -0.4863  0.1704
  171MPD1    C4 2607   0.437   0.311  15.449 -0.2442 -0.1830 -0.4395
  171MPD1    C5 2608   0.443   0.432  15.376  0.4410  0.0982 -0.0022
  171MPD1     H 2609   0.250   0.122  15.239 -0.4237 -1.1463  1.8474
  171MPD1    H1 2610   0.492   0.308  15.542  1.2357 -1.5302 -1.3519
  171MPD1    H2 2611   0.347   0.533  15.219  0.5016  0.8559  1.3440
  171MPD1    H3 2612   0.492   0.510  15.432 -0.2231  0.0765  0.6059
  171MPD1     N 2613   0.379   0.082  15.479 -0.1720 -0.0757 -0.3521
  171MPD1    H5 2614   0.425   0.087  15.569 -0.4320  1.3620 -0.3013
  171MPD1    N1 2615   0.206   0.336  15.106  0.0690 -0.4211 -0.0478
  171MPD1    H6 2616   0.241   0.393  15.029 -1.0178  1.2517  0.6723
  171MPD1    H7 2617   0.172   0.245  15.076 -1.0409  0.7360 -2.3293
  172MPD1     C 2618   3.918   4.357  17.547 -0.1996 -0.0364  0.2982
  172MPD1    C1 2619   3.815   4.429  17.481 -0.4701  0.1937 -0.1940
  172MPD1    C2 2620   3.747   4.515  17.560 -0.8939  0.1495  0.1545
  172MPD1    C3 2621   3.754   4.520  17.698 -0.5163 -1.1602 -0.6140
  172MPD1    C4 2622   3.845   4.435   0.059 -0.3258  0.5462 -0.2060
  172MPD1    C5 2623   3.922   4.357  17.681  0.0455  0.3794 -0.5658
  172MPD1     H 2624   3.667   4.571  17.511 -0.8153 -0.8354 -1.1073
  172MPD1    H1 2625   3.854   4.427   0.167 -1.0886  1.7697 -0.0585
  172MPD1    H2 2626   3.990   4.303  17.486 -0.8007  1.0620 -1.3937
  172MPD1    H3 2627   3.986   4.284   0.028 -0.7296 -0.5293 -0.9034
  172MPD1     N 2628   3.676   4.602   0.084  0.0359  0.0494 -0.6509
  172MPD1    H5 2629   3.699   4.596   0.182 -2.7369 -0.2043 -0.0124
  172MPD1    N1 2630   3.810   4.428  17.340 -0.1388 -0.0603 -0.1478
  172MPD1    H6 2631   3.715   4.429  17.305  0.8412  0.9485 -2.7665
  172MPD1    H7 2632   3.849   4.338  17.312 -0.5412 -1.0731  2.5210
  173MPD1     C 2633   0.531   3.117  13.776 -0.0605  0.0984  0.2394
  173MPD1    C1 2634   0.636   3.117  13.858 -0.3694 -0.7934  0.4343
  173MPD1    C2 2635   0.664   3.226  13.932  0.2658 -0.6927  0.6852
  173MPD1    C3 2636   0.574   3.324  13.952 -0.5497 -0.8991  0.0712
  173MPD1    C4 2637   0.460   3.323  13.867  0.2118  0.1045  0.3927
  173MPD1    C5 2638   0.445   3.220  13.779 -0.8226  0.6105  0.4276
  173MPD1     H 2639   0.757   3.230  13.987 -0.6446 -2.3098  2.3603
  173MPD1    H1 2640   0.394   3.409  13.863  1.5171  1.0206 -1.6332
  173MPD1    H2 2641   0.517   3.042  13.699 -2.5439 -1.5216  2.2889
  173MPD1    H3 2642   0.362   3.225  13.710  0.0028 -0.4059 -0.6327
  173MPD1     N 2643   0.597   3.417  14.051  0.1216 -0.4694 -0.0851
  173MPD1    H5 2644   0.684   3.420  14.103  1.0378  0.2152 -1.6566
  173MPD1    N1 2645   0.740   3.023  13.847 -0.2595 -0.4254 -0.1429
  173MPD1    H6 2646   0.712   2.931  13.815  2.4626 -0.6490 -1.8708
  173MPD1    H7 2647   0.784   3.012  13.938 -0.3950  1.4429  0.1432
  174MPD1     C 2648   1.279   4.116  14.027  0.2015 -0.1493  0.4036
  174MPD1    C1 2649   1.196   4.168  14.127  0.8071  0.1593  0.8601
  174MPD1    C2 2650   1.094   4.093  14.173 -0.3220  0.2147  1.2703
  174MPD1    C3 2651   1.058   3.976  14.113 -0.4201 -0.0165  0.0275
  174MPD1    C4 2652   1.147   3.922  14.024 -0.1227 -0.8238 -1.0421
  174MPD1    C5 2653   1.257   3.990  13.982 -1.0831 -0.1267  0.5226
  174MPD1     H 2654   1.035   4.130  14.256 -0.1558  0.5576  1.2377
  174MPD1    H1 2655   1.121   3.824  13.985 -1.4945 -0.2749 -1.5209
  174MPD1    H2 2656   1.368   4.167  13.994 -0.6817  0.7819 -0.5552
  174MPD1    H3 2657   1.329   3.933  13.924 -0.5398  1.7027 -0.5766
  174MPD1     N 2658   0.937   3.915  14.150  0.0618  0.6109  0.2013
  174MPD1    H5 2659   0.885   3.967  14.220  1.1890 -1.1296  2.3154
  174MPD1    N1 2660   1.193   4.308  14.151  0.5414 -0.0327 -0.8367
  174MPD1    H6 2661   1.286   4.348  14.150  0.7112 -0.4156 -0.0048
  174MPD1    H7 2662   1.149   4.326  14.241 -1.2554  0.3482 -1.7886
  175MPD1     C 2663   4.201   0.694  14.911 -0.4018 -0.2974  0.4280
  175MPD1    C1 2664   4.231   0.561  14.901  0.5810  0.3205 -0.6170
  175MPD1    C2 2665   4.169   0.478  14.987 -0.0611  0.6278 -0.3855
  175MPD1    C3 2666   4.076   0.521  15.079  0.8069 -0.6476  0.0257
  175MPD1    C4 2667   4.042   0.652  15.075 -0.3227  0.2350 -0.3632
  175MPD1    C5 2668   4.106   0.739  14.995 -0.6282  0.0274  0.1580
  175MPD1     H 2669   4.197   0.374  14.984  0.6471  0.7867  0.6762
  175MPD1    H1 2670   3.978   0.703  15.146  0.8750  0.4326  0.5690
  175MPD1    H2 2671   4.251   0.766  14.848  0.8890 -3.2815 -1.9572
  175MPD1    H3 2672   4.092   0.846  15.000 -2.1875 -0.2120  1.1180
  175MPD1     N 2673   4.013   0.440  15.174  0.1407  0.3491 -0.2241
  175MPD1    H5 2674   3.941   0.492  15.224 -1.3396 -1.1164 -0.8454
  175MPD1    N1 2675   4.309   0.515  14.798 -0.1157  0.2827  0.2338
  175MPD1    H6 2676   4.387   0.467  14.842 -0.1562  0.1571  0.1693
  175MPD1    H7 2677   4.354   0.597  14.757  2.7247 -1.4914 -0.1390
  176MPD1     C 2678   0.907   2.075  17.426  0.6257 -0.1326 -0.0650
  176MPD1    C1 2679   0.835   2.154  17.342 -0.0409 -0.0627  0.2201
  176MPD1    C2 2680   0.824   2.279  17.386 -0.0201  0.0104  0.4845
  176MPD1    C3 2681   0.900   2.337  17.483  1.1319 -0.2740 -0.3805
  176MPD1    C4 2682   0.999   2.264  17.547  0.6320  0.5978 -0.0193
  176MPD1    C5 2683   1.000   2.131  17.512  0.5260 -0.0716  0.7877
  176MPD1     H 2684   0.755   2.343  17.333 -1.5430 -0.1117  2.3243
  176MPD1    H1 2685   1.069   2.300  17.621  0.5940  2.7386 -1.0048
  176MPD1    H2 2686   0.910   1.967  17.417  0.4458 -0.0755 -0.8241
  176MPD1    H3 2687   1.068   2.069  17.568  2.2170  1.3896  0.3392
  176MPD1     N 2688   0.874   2.469  17.513  0.0376 -0.1364 -0.4715
  176MPD1    H5 2689   0.789   2.498  17.465  0.6879  0.6609 -1.1479
  176MPD1    N1 2690   0.733   2.098  17.253 -0.0654  0.4147  0.4673
  176MPD1    H6 2691   0.703   2.164  17.182 -1.7173  1.0403  1.7307
  176MPD1    H7 2692   0.751   2.008  17.210  1.5036 -0.3389  2.6853
  177MPD1     C 2693   4.476   1.697  10.291  0.0762 -0.4366  0.0804
  177MPD1    C1 2694   4.447   1.595  10.202 -0.1622  0.0895  0.3285
  177MPD1    C2 2695   4.391   1.642  10.084  0.5197  0.0827 -0.7088
  177MPD1    C3 2696   4.381   1.778  10.056  0.5472  0.4204 -0.0495
  177MPD1    C4 2697   4.440   1.878  10.135  0.1620 -0.0474  0.0924
  177MPD1    C5 2698   4.483   1.829  10.257 -0.0107  0.2611  0.0621
  177MPD1     H 2699   4.364   1.568  10.010  0.2381 -1.4651  0.9400
  177MPD1    H1 2700   4.445   1.984  10.117  1.0428 -0.3243 -1.3171
  177MPD1    H2 2701   4.505   1.676  10.394  0.0909 -1.1636 -0.0692
  177MPD1    H3 2702   4.499   1.907  10.330  0.4667  0.0084  0.2236
  177MPD1     N 2703   4.315   1.811   9.940  0.2884 -0.3461 -0.2773
  177MPD1    H5 2704   4.274   1.731   9.892  1.3599  0.0177 -1.7811
  177MPD1    N1 2705   4.436   1.462  10.244 -0.2686 -0.2881  0.3641
  177MPD1    H6 2706   4.429   1.393  10.170  0.5562 -0.3525  0.3512
  177MPD1    H7 2707   4.345   1.446  10.287 -1.3365  1.6374 -1.1307
  178MPD1     C 2708   1.243   2.771  17.561  0.1663  0.0689  0.0838
  178MPD1    C1 2709   1.255   2.905  17.544  0.3610 -0.0224  0.4071
  178MPD1    C2 2710   1.299   2.954  17.427  0.3525  0.1922  0.5984
  178MPD1    C3 2711   1.359   2.866  17.337  0.2019  0.3372 -0.9267
  178MPD1    C4 2712   1.366   2.726  17.362  0.3430 -0.0011 -0.1637
  178MPD1    C5 2713   1.297   2.680  17.469 -1.1102  0.1370  0.5786
  178MPD1     H 2714   1.296   3.062  17.423 -2.1691  0.0845  0.0903
  178MPD1    H1 2715   1.415   2.658  17.293 -1.6763 -2.3243  0.7072
  178MPD1    H2 2716   1.192   2.719  17.641  1.6054 -0.4495  0.6796
  178MPD1    H3 2717   1.303   2.575  17.492  0.0222 -0.7032 -3.5371
  178MPD1     N 2718   1.416   2.915  17.223  0.3211  0.1251  0.8189
  178MPD1    H5 2719   1.451   2.844  17.159 -1.1015  2.3241 -2.3730
  178MPD1    N1 2720   1.195   2.985  17.645 -0.1479  0.5089  0.0300
  178MPD1    H6 2721   1.236   3.077  17.655 -1.2823  1.0627 -0.4006
  178MPD1    H7 2722   1.204   2.944   0.036 -0.9579 -0.5428 -0.3444
  179MPD1     C 2723   2.077   0.882  15.820  0.6098  0.0844  0.2455
  179MPD1    C1 2724   1.997   0.992  15.813 -0.5656  0.4152 -0.3428
  179MPD1    C2 2725   1.857   0.979  15.813  0.5541  0.4402  0.0980
  179MPD1    C3 2726   1.799   0.855  15.814 -0.3344  0.5174 -0.2325
  179MPD1    C4 2727   1.879   0.751  15.834 -0.1245 -0.2224 -0.8714
  179MPD1    C5 2728   2.014   0.763  15.843 -0.0048 -0.1671 -0.1945
  179MPD1     H 2729   1.800   1.071  15.822 -1.6161 -0.5750 -3.1546
  179MPD1    H1 2730   1.843   0.650  15.850  1.1638 -0.8413 -1.9351
  179MPD1    H2 2731   2.185   0.881  15.820  0.5864 -1.5779 -0.6951
  179MPD1    H3 2732   2.080   0.680  15.863 -0.0054 -0.4718 -1.4538
  179MPD1     N 2733   1.654   0.834  15.814  0.3567  1.0198 -0.0468
  179MPD1    H5 2734   1.626   0.751  15.865  4.2298 -2.2470 -3.2447
  179MPD1    N1 2735   2.053   1.125  15.821 -0.3134  0.3021 -1.0454
  179MPD1    H6 2736   1.990   1.194  15.781 -0.6742  0.3162 -0.4552
  179MPD1    H7 2737   2.146   1.130  15.778  0.8447  2.4830  1.7252
  180MPD1     C 2738   0.344   2.811  14.583  0.9932  0.1398 -0.1639
  180MPD1    C1 2739   0.438   2.773  14.677 -0.2931 -0.0423  1.0141
  180MPD1    C2 2740   0.539   2.693  14.632 -0.2762  0.3694 -0.1256
  180MPD1    C3 2741   0.544   2.625  14.510 -0.0007 -0.0851 -0.4492
  180MPD1    C4 2742   0.437   2.661  14.428  0.5092 -0.4435  0.0352
  180MPD1    C5 2743   0.346   2.756  14.462 -0.7841  0.6295 -0.3361
  180MPD1     H 2744   0.612   2.664  14.707 -0.7377 -4.1353 -1.3838
  180MPD1    H1 2745   0.426   2.626  14.326  0.1016  1.8959 -0.7164
  180MPD1    H2 2746   0.271   2.882  14.620 -0.1904  0.6011 -3.3955
  180MPD1    H3 2747   0.277   2.792  14.386 -0.1390  1.3340 -0.5900
  180MPD1     N 2748   0.639   2.529  14.485  0.2719 -0.3159 -0.2006
  180MPD1    H5 2749   0.711   2.531  14.557  0.1931 -1.2864 -0.0869
  180MPD1    N1 2750   0.424   2.832  14.801  1.0006  0.2743 -0.1996
  180MPD1    H6 2751   0.436   2.932  14.784  0.1471 -0.2825 -3.9137
  180MPD1    H7 2752   0.495   2.794  14.863 -1.2806  0.5226  2.5720
  181MPD1     C 2753   3.769   3.181   8.844  0.2131  0.6458  0.5793
  181MPD1    C1 2754   3.665   3.217   8.929  0.3695 -0.8361 -0.2440
  181MPD1    C2 2755   3.687   3.222   9.063  0.0316  0.1601  0.0936
  181MPD1    C3 2756   3.802   3.169   9.122  0.0761 -0.6004 -0.5272
  181MPD1    C4 2757   3.888   3.101   9.039 -0.8450  0.0172 -0.2644
  181MPD1    C5 2758   3.879   3.114   8.899  0.4810 -0.1994  0.9563
  181MPD1     H 2759   3.618   3.279   9.124  0.1704 -0.6382  1.0004
  181MPD1    H1 2760   3.981   3.054   9.070 -0.8544 -0.8753 -1.5914
  181MPD1    H2 2761   3.773   3.203   8.738  0.8354 -1.3048  0.1944
  181MPD1    H3 2762   3.960   3.079   8.835  0.6992 -0.3986  1.3473
  181MPD1     N 2763   3.840   3.182   9.253 -0.1507 -0.6708 -0.0362
  181MPD1    H5 2764   3.929   3.139   9.276 -0.4343 -1.0535  0.3470
  181MPD1    N1 2765   3.558   3.296   8.870 -0.2115 -0.1550  0.3410
  181MPD1    H6 2766   3.474   3.293   8.928 -1.2491  0.6911 -1.1300
  181MPD1    H7 2767   3.527   3.276   8.775 -3.5735 -0.0970  1.4142
  182MPD1     C 2768   4.306   3.414   1.794 -0.6802  0.7422  0.3497
  182MPD1    C1 2769   4.312   3.339   1.680 -0.0417 -0.6683  0.3282
  182MPD1    C2 2770   4.200   3.337   1.599 -0.0804  0.0436  0.2708
  182MPD1    C3 2771   4.078   3.400   1.630  0.4046 -0.6513  0.4169
  182MPD1    C4 2772   4.075   3.472   1.745  0.6455  0.6901  0.2406
  182MPD1    C5 2773   4.187   3.481   1.824  0.3204 -0.1196  0.2446
  182MPD1     H 2774   4.209   3.276   1.510  1.0377 -0.1635  0.5214
  182MPD1    H1 2775   3.980   3.515   1.774  0.8478  1.3857 -0.1253
  182MPD1    H2 2776   4.391   3.439   1.856  0.2309 -0.3324 -0.4842
  182MPD1    H3 2777   4.186   3.541   1.914  4.6136  1.6089 -0.8379
  182MPD1     N 2778   3.963   3.386   1.553 -0.0041 -0.7117 -0.1052
  182MPD1    H5 2779   3.877   3.430   1.586  0.4358  1.1877 -1.4364
  182MPD1    N1 2780   4.429   3.281   1.629  0.4171  0.0673  0.0146
  182MPD1    H6 2781   4.487   3.252   1.708 -0.6073  0.5228  0.9333
  182MPD1    H7 2782   4.415   3.204   1.564 -0.7238 -0.9770  1.4823
  183MPD1     C 2783   0.014   0.113   9.846 -0.4627 -0.4686  0.5602
  183MPD1    C1 2784   4.641   0.113   9.751  0.1625 -0.1655  0.5617
  183MPD1    C2 2785   4.581   4.712   9.728  0.2027 -0.1593 -0.1269
  183MPD1    C3 2786   4.613   4.604   9.809  0.6869 -0.3438  1.2833
  183MPD1    C4 2787   0.001   4.609   9.892  0.0224  0.2016  0.1563
  183MPD1    C5 2788   0.067   0.001   9.910 -0.3490  0.4219  0.0604
  183MPD1     H 2789   4.511   4.698   9.647 -0.0068 -0.0042  0.0274
  183MPD1    H1 2790   0.034   4.518   9.941 -0.7089 -0.7267 -1.0556
  183MPD1    H2 2791   0.074   0.201   9.862 -1.0448  0.2959 -1.4952
  183MPD1    H3 2792   0.154   0.004   9.974 -0.3474  0.9055  0.0381
  183MPD1     N 2793   4.537   4.490   9.789 -0.1338  0.0442 -0.0314
  183MPD1    H5 2794   4.455   4.498   9.730 -0.0455 -3.9361 -0.7221
  183MPD1    N1 2795   4.620   0.218   9.665  0.3273 -0.7739  0.5766
  183MPD1    H6 2796   4.538   0.204   9.607  0.4801  4.5081 -0.8782
  183MPD1    H7 2797   4.621   0.304   9.719  0.5274  0.5168 -1.5044
  184MPD1     C 2798   3.280   0.775  10.043  0.4090 -0.6058  0.2481
  184MPD1    C1 2799   3.412   0.824  10.052  0.4226  0.0599 -0.0105
  184MPD1    C2 2800   3.459   0.918   9.961 -0.0184 -0.1744  0.5203
  184MPD1    C3 2801   3.366   0.971   9.872 -0.0948 -0.7961 -0.1765
  184MPD1    C4 2802   3.236   0.916   9.861 -0.0992 -0.0087  0.1566
  184MPD1    C5 2803   3.191   0.823   9.955 -0.0528 -0.1858  0.4890
  184MPD1     H 2804   3.562   0.950   9.968 -0.7471  2.3286 -0.2955
  184MPD1    H1 2805   3.170   0.966   9.792  1.1499  1.6416  0.1568
  184MPD1    H2 2806   3.246   0.701  10.114 -1.1730 -1.6036 -1.5703
  184MPD1    H3 2807   3.090   0.785   9.950  0.0555 -0.3446 -0.3744
  184MPD1     N 2808   3.394   1.080   9.778 -0.2600  0.3792  0.1429
  184MPD1    H5 2809   3.337   1.093   9.695  1.9359 -1.7038 -1.6769
  184MPD1    N1 2810   3.503   0.750  10.134  0.0496 -0.1123  0.2354
  184MPD1    H6 2811   3.570   0.811  10.180  2.2760 -2.0205 -0.5287
  184MPD1    H7 2812   3.459   0.690  10.203 -0.0024  0.3572  0.6124
  185MPD1     C 2813   3.274   1.026   8.956 -0.3182 -0.2034 -0.2784
  185MPD1    C1 2814   3.383   1.107   8.966 -0.2646  0.5365 -0.0284
  185MPD1    C2 2815   3.414   1.168   9.084 -0.4456  0.2871 -0.1827
  185MPD1    C3 2816   3.330   1.151   9.195  0.2225  0.1298 -0.4365
  185MPD1    C4 2817   3.213   1.079   9.182  0.3058 -0.5025 -0.2742
  185MPD1    C5 2818   3.189   1.018   9.059 -0.2683  1.2413 -0.6191
  185MPD1     H 2819   3.509   1.220   9.079  0.4233 -1.3189 -0.2644
  185MPD1    H1 2820   3.136   1.065   9.257 -2.0105  1.9317 -2.2099
  185MPD1    H2 2821   3.245   0.977   8.863 -2.3172 -0.9192  0.7224
  185MPD1    H3 2822   3.103   0.954   9.046 -0.4429  1.3665 -0.1022
  185MPD1     N 2823   3.366   1.199   9.326 -0.3996  0.5324  0.8489
  185MPD1    H5 2824   3.317   1.164   9.408 -0.2492 -1.3765  0.1269
  185MPD1    N1 2825   3.463   1.116   8.851  0.5909 -0.4648  0.4099
  185MPD1    H6 2826   3.409   1.100   8.766 -0.6717  0.3929  1.0464
  185MPD1    H7 2827   3.515   1.202   8.837  1.1449 -0.6516  1.3437
  186MPD1     C 2828   2.376   0.704  16.169 -0.2962 -0.0693 -0.4082
  186MPD1    C1 2829   2.451   0.786  16.250 -0.3997 -0.0115 -0.4517
  186MPD1    C2 2830   2.410   0.917  16.286 -0.9899 -0.2717  0.3388
  186MPD1    C3 2831   2.285   0.962  16.238  0.0488 -0.3432  0.3699
  186MPD1    C4 2832   2.212   0.885  16.154  0.4753  0.5043 -0.1250
  186MPD1    C5 2833   2.261   0.756  16.117  0.3258  0.5148  0.4082
  186MPD1     H 2834   2.462   0.981  16.355 -0.2980 -0.2615 -0.1950
  186MPD1    H1 2835   2.115   0.917  16.117  1.8587  2.8962 -1.7037
  186MPD1    H2 2836   2.415   0.608  16.139  2.6889  1.3431 -1.1119
  186MPD1    H3 2837   2.196   0.686  16.065  0.0504  1.5092 -0.5837
  186MPD1     N 2838   2.226   1.081  16.267 -0.4687 -0.2377  0.8632
  186MPD1    H5 2839   2.144   1.107  16.213 -1.4580 -1.3979  1.7841
  186MPD1    N1 2840   2.579   0.736  16.296 -0.1567  0.5380  0.1369
  186MPD1    H6 2841   2.657   0.800  16.281 -0.6617  1.2913  0.6860
  186MPD1    H7 2842   2.603   0.647  16.254 -0.0310  0.7150 -0.1706
  187MPD1     C 2843   1.283   3.322   0.039 -0.1682  0.1489 -0.3038
  187MPD1    C1 2844   1.154   3.286   0.072 -0.7774 -0.8217 -0.0226
  187MPD1    C2 2845   1.059   3.313  17.677  0.1128 -0.4174  0.1036
  187MPD1    C3 2846   1.099   3.369  17.555  0.0600 -0.5007  0.2410
  187MPD1    C4 2847   1.227   3.395  17.528 -0.2679 -0.3250  0.5100
  187MPD1    C5 2848   1.326   3.362  17.617 -0.3855 -0.1051 -0.4207
  187MPD1     H 2849   0.955   3.308   0.004 -0.4376  2.0620 -1.4133
  187MPD1    H1 2850   1.259   3.415  17.427 -0.6950  1.3833  0.7112
  187MPD1    H2 2851   1.355   3.304   0.118 -1.4608  0.4492  0.9648
  187MPD1    H3 2852   1.429   3.389  17.597 -0.9082  1.2804 -1.2171
  187MPD1     N 2853   1.006   3.401  17.453 -0.6135  0.7738  0.3299
  187MPD1    H5 2854   1.053   3.450  17.378 -0.6433 -1.3988 -1.1280
  187MPD1    N1 2855   1.107   3.267   0.208  0.4015  0.0975 -0.5609
  187MPD1    H6 2856   1.169   3.223   0.276 -0.2208  0.4042  0.1994
  187MPD1    H7 2857   1.021   3.213   0.208  0.9445 -0.7782 -1.3481
  188MPD1     C 2858   1.165   3.607   9.961  0.5384  0.0908  0.4903
  188MPD1    C1 2859   1.167   3.536  10.082  0.2645  0.0882 -0.5036
  188MPD1    C2 2860   1.215   3.413  10.092 -0.9764  0.0239  0.9897
  188MPD1    C3 2861   1.273   3.345   9.991 -0.2662  0.2973  0.0444
  188MPD1    C4 2862   1.266   3.406   9.869  0.2492  0.5092 -0.8288
  188MPD1    C5 2863   1.233   3.538   9.862  0.3376 -0.3141 -0.1354
  188MPD1     H 2864   1.204   3.363  10.188  1.2647 -2.0223  0.1850
  188MPD1    H1 2865   1.332   3.371   9.790  0.7544 -0.8306  0.1951
  188MPD1    H2 2866   1.153   3.715   9.953  2.2800  0.1283 -1.4429
  188MPD1    H3 2867   1.254   3.587   9.767 -0.6337  0.7040  0.1762
  188MPD1     N 2868   1.309   3.210  10.015 -0.1627  0.2771 -0.4695
  188MPD1    H5 2869   1.297   3.174  10.109 -2.7310  0.9445 -0.5454
  188MPD1    N1 2870   1.123   3.599  10.202 -0.0467  0.2386  0.0726
  188MPD1    H6 2871   1.136   3.699  10.210 -1.1480  0.5590 -2.2794
  188MPD1    H7 2872   1.152   3.551  10.288  0.6179  2.1672  0.9297
  189MPD1     C 2873   2.834   3.732   0.579 -0.4567 -0.1799 -0.1787
  189MPD1    C1 2874   2.730   3.675   0.631 -0.0724  0.4066  1.0741
  189MPD1    C2 2875   2.606   3.667   0.558 -0.3148  0.1346  0.0291
  189MPD1    C3 2876   2.603   3.709   0.426  0.5261 -0.0199  0.2218
  189MPD1    C4 2877   2.719   3.747   0.362 -0.3643 -0.5608 -0.2685
  189MPD1    C5 2878   2.835   3.758   0.437 -1.0586 -0.5667  0.4196
  189MPD1     H 2879   2.515   3.629   0.601  1.6931 -1.0718  3.2230
  189MPD1    H1 2880   2.727   3.768   0.256  3.7307  0.0480  0.1745
  189MPD1    H2 2881   2.928   3.759   0.626 -0.5599 -1.6059  0.8202
  189MPD1    H3 2882   2.927   3.778   0.382 -0.6448  0.9338  1.6435
  189MPD1     N 2883   2.484   3.707   0.354  0.6681  0.2763 -0.4113
  189MPD1    H5 2884   2.405   3.667   0.403  0.8760  1.0027  0.5122
  189MPD1    N1 2885   2.719   3.654   0.767  0.0413  0.2731  0.3071
  189MPD1    H6 2886   2.643   3.592   0.793  1.3082 -1.2740  0.3431
  189MPD1    H7 2887   2.809   3.622   0.803 -0.1086  2.0968  2.2700
  190MPD1     C 2888   0.962   2.972  15.484 -0.6756 -0.3769  0.1409
  190MPD1    C1 2889   0.923   2.879  15.576  0.4471  0.3796 -0.0291
  190MPD1    C2 2890   1.013   2.772  15.604  0.1717  0.1939 -0.1443
  190MPD1    C3 2891   1.147   2.770  15.575 -0.3850  0.6970 -0.7432
  190MPD1    C4 2892   1.188   2.881  15.499 -0.2101  0.3132  0.0536
  190MPD1    C5 2893   1.099   2.975  15.450 -0.1679 -0.5072 -0.2097
  190MPD1     H 2894   0.982   2.685  15.660 -1.2918 -0.3592 -1.7922
  190MPD1    H1 2895   1.291   2.885  15.466 -0.7090 -3.4033 -1.9579
  190MPD1    H2 2896   0.898   3.049  15.443 -1.3952 -2.0074 -1.7907
  190MPD1    H3 2897   1.135   3.048  15.378  1.6189  1.0574  2.2677
  190MPD1     N 2898   1.217   2.652  15.615  0.9621  0.5326 -0.2645
  190MPD1    H5 2899   1.171   2.591  15.682  0.4085  0.2067 -0.9458
  190MPD1    N1 2900   0.788   2.876  15.615 -0.2626 -0.3308 -0.7393
  190MPD1    H6 2901   0.755   2.972  15.622  0.5292  0.0731 -2.5764
  190MPD1    H7 2902   0.773   2.823  15.700  0.2723  0.9292  0.1358
  191MPD1     C 2903   1.648   2.995  11.397  0.2025 -0.2936  0.1748
  191MPD1    C1 2904   1.595   2.975  11.523 -0.5159  0.3763  0.2224
  191MPD1    C2 2905   1.603   3.085  11.609  0.4467 -0.0491  0.4544
  191MPD1    C3 2906   1.663   3.206  11.576 -0.4569 -0.1751 -0.7046
  191MPD1    C4 2907   1.714   3.216  11.443  0.0172  0.7003  0.6952
  191MPD1    C5 2908   1.704   3.112  11.364  0.1141  0.3485  0.4735
  191MPD1     H 2909   1.569   3.067  11.710 -1.5239  1.3099  0.0388
  191MPD1    H1 2910   1.764   3.306  11.407 -0.2402 -0.0165 -1.4289
  191MPD1    H2 2911   1.648   2.915  11.324 -0.4557 -0.9882  0.9324
  191MPD1    H3 2912   1.741   3.123  11.263 -0.6304  2.6639  0.4547
  191MPD1     N 2913   1.666   3.311  11.669  0.2110 -0.1122  0.0475
  191MPD1    H5 2914   1.620   3.292  11.757 -0.7487 -0.2828 -0.4804
  191MPD1    N1 2915   1.538   2.854  11.558  0.2081  0.3429 -1.3130
  191MPD1    H6 2916   1.606   2.788  11.520  0.1981 -0.4904  0.1298
  191MPD1    H7 2917   1.537   2.837  11.658 -0.0173  1.2375 -1.1621
  192MPD1     C 2918   1.369   3.583  12.560  0.3010  0.0332  0.2905
  192MPD1    C1 2919   1.482   3.511  12.514 -0.0815  0.5644  0.0845
  192MPD1    C2 2920   1.515   3.524  12.382  0.1917  0.5585  0.2013
  192MPD1    C3 2921   1.454   3.611  12.292 -0.8708 -0.0771  0.4801
  192MPD1    C4 2922   1.344   3.679  12.343  0.2032  0.0354  0.3300
  192MPD1    C5 2923   1.305   3.667  12.472 -0.9304  0.3382  0.0730
  192MPD1     H 2924   1.601   3.468  12.348 -0.3905  0.6026 -1.3456
  192MPD1    H1 2925   1.295   3.744  12.271  0.8152  0.4608  0.2977
  192MPD1    H2 2926   1.338   3.584  12.664  0.9908  2.8458  0.4670
  192MPD1    H3 2927   1.226   3.728  12.514 -0.3739  0.2597  1.2131
  192MPD1     N 2928   1.495   3.629  12.154  0.0308 -0.6641 -0.5355
  192MPD1    H5 2929   1.472   3.715  12.107 -0.3566  0.3271  1.4704
  192MPD1    N1 2930   1.536   3.409  12.595  0.3689 -0.7620  0.2551
  192MPD1    H6 2931   1.635   3.393  12.579  0.2064  1.4852 -2.9168
  192MPD1    H7 2932   1.532   3.431  12.695 -0.5057 -1.3883  0.3603
  193MPD1     C 2933   4.696   4.406  15.651 -0.5382 -0.5975  0.1384
  193MPD1    C1 2934   4.699   4.538  15.687  0.4858 -0.7322  1.0979
  193MPD1    C2 2935   0.023   4.565  15.809 -0.3382  0.2266 -0.0382
  193MPD1    C3 2936   0.067   4.473  15.900 -0.3923 -0.1582  0.0103
  193MPD1    C4 2937   0.076   4.344  15.861 -0.0003  0.6530 -0.8539
  193MPD1    C5 2938   0.017   4.314  15.740  0.5274  0.1327 -0.1047
  193MPD1     H 2939   0.027   4.670  15.835 -0.4355  0.3178 -0.3922
  193MPD1    H1 2940   0.121   4.267  15.922  1.1397  1.4942 -0.6230
  193MPD1    H2 2941   4.650   4.363  15.563  2.0362  0.6336 -1.8031
  193MPD1    H3 2942   0.013   4.212  15.704  0.8030 -0.4708  1.5408
  193MPD1     N 2943   0.114   4.501  16.029  0.3615  0.0837  0.0857
  193MPD1    H5 2944   0.119   4.427  16.099  1.0051 -1.0693 -1.1885
  193MPD1    N1 2945   4.644   4.640  15.606  0.0382 -0.1077 -0.0222
  193MPD1    H6 2946   4.690   0.006  15.612 -0.3713  0.1783 -1.3318
  193MPD1    H7 2947   4.647   4.616  15.507  0.9959 -1.5135  0.3386
  194MPD1     C 2948   3.077   1.990  16.440 -0.8411 -0.2572  0.5494
  194MPD1    C1 2949   3.072   1.948  16.569 -0.3491  0.4335  0.1809
  194MPD1    C2 2950   3.052   1.814  16.597  0.0211  0.5370 -0.4268
  194MPD1    C3 2951   3.030   1.719  16.501  0.0599 -0.2864 -0.1681
  194MPD1    C4 2952   3.031   1.768  16.368  0.3117  0.6646  0.0675
  194MPD1    C5 2953   3.057   1.898  16.340 -0.3503 -0.0330 -0.3308
  194MPD1     H 2954   3.053   1.782  16.701 -0.3451 -2.1214 -1.2294
  194MPD1    H1 2955   3.025   1.696  16.288 -0.4725 -0.8322  1.4814
  194MPD1    H2 2956   3.091   2.094  16.413  0.2668 -0.7535 -0.7696
  194MPD1    H3 2957   3.040   1.920  16.235 -0.7240  1.8743  0.1241
  194MPD1     N 2958   3.008   1.580  16.521  0.7626  0.2289  0.1155
  194MPD1    H5 2959   3.011   1.520  16.439 -3.5218  0.8133 -0.4252
  194MPD1    N1 2960   3.103   2.028  16.681  0.3218  0.0662  0.8172
  194MPD1    H6 2961   3.060   1.991  16.767  0.0319  0.8973  1.0301
  194MPD1    H7 2962   3.076   2.126  16.681  1.4114  0.3487 -0.5143
  195MPD1     C 2963   0.165   3.613   1.286 -0.0806 -0.0592  0.4812
  195MPD1    C1 2964   0.059   3.651   1.205 -0.3894  0.3431  0.0681
  195MPD1    C2 2965   0.074   3.646   1.071  0.2135 -0.1410  0.4381
  195MPD1    C3 2966   0.192   3.595   1.017 -0.6061 -0.1883  0.1157
  195MPD1    C4 2967   0.292   3.546   1.096 -0.0681 -0.2786 -0.5413
  195MPD1    C5 2968   0.275   3.553   1.231 -0.5366 -0.3949  0.6151
  195MPD1     H 2969   4.722   3.687   1.007 -0.3532 -1.3744  0.3400
  195MPD1    H1 2970   0.382   3.501   1.057 -0.7281 -1.7928 -0.3535
  195MPD1    H2 2971   0.160   3.627   1.393 -1.7244  1.1972  0.2492
  195MPD1    H3 2972   0.350   3.526   1.304 -0.4577 -3.7264 -0.6914
  195MPD1     N 2973   0.215   3.576   0.876 -0.0655  0.9816 -0.7788
  195MPD1    H5 2974   0.309   3.554   0.847  0.0655  1.5263 -0.7757
  195MPD1    N1 2975   4.671   3.710   1.261 -0.0064 -0.5774  0.6465
  195MPD1    H6 2976   4.591   3.689   1.202 -1.6151  3.7420  1.2579
  195MPD1    H7 2977   4.648   3.665   1.349  1.8203  0.3125  1.5724
  196MPD1     C 2978   4.528   2.443   0.614  0.6032 -0.1328 -0.4099
  196MPD1    C1 2979   4.421   2.523   0.597 -0.0213 -0.0249  0.5455
  196MPD1    C2 2980   4.435   2.663   0.618  0.4979 -0.3670 -0.3556
  196MPD1    C3 2981   4.559   2.721   0.638 -0.1880 -0.2142 -0.0894
  196MPD1    C4 2982   4.668   2.631   0.640  0.1170  0.5705 -0.3748
  196MPD1    C5 2983   4.649   2.498   0.631  0.2367 -0.3179  0.1011
  196MPD1     H 2984   4.351   2.729   0.601  1.5012  0.7100 -1.1119
  196MPD1    H1 2985   0.044   2.668   0.650 -0.4199  1.7512  0.6626
  196MPD1    H2 2986   4.531   2.335   0.614  0.1640 -0.1594  3.0815
  196MPD1    H3 2987   0.003   2.425   0.640  1.3726  0.8436 -0.3960
  196MPD1     N 2988   4.580   2.859   0.657 -0.0043  0.2350 -0.7491
  196MPD1    H5 2989   4.675   2.892   0.674 -0.7438  1.5430  0.7852
  196MPD1    N1 2990   4.290   2.472   0.591 -0.5077 -0.5668 -0.3979
  196MPD1    H6 2991   4.223   2.533   0.546  0.5918  3.5228  3.4478
  196MPD1    H7 2992   4.286   2.384   0.541  0.0330 -1.1143  0.5210
  197MPD1     C 2993   3.017   0.180  16.426  0.2505 -0.1399 -0.5405
  197MPD1    C1 2994   3.064   0.148  16.554 -0.8653 -0.1113  0.2966
  197MPD1    C2 2995   3.183   0.084  16.573 -0.3324 -0.2202 -0.9572
  197MPD1    C3 2996   3.267   0.063  16.462  0.3816 -0.3623  0.1053
  197MPD1    C4 2997   3.222   0.094  16.337 -0.1457  0.3160  0.5708
  197MPD1    C5 2998   3.102   0.152  16.317 -0.0033  0.3125 -0.8943
  197MPD1     H 2999   3.210   0.055  16.674 -3.0063  1.6383  0.2835
  197MPD1    H1 3000   3.289   0.070  16.255 -1.4201 -1.2582 -0.0129
  197MPD1    H2 3001   2.921   0.221  16.400  0.5966  0.7031 -0.4887
  197MPD1    H3 3002   3.060   0.170  16.219  0.4346 -0.7106 -1.2731
  197MPD1     N 3003   3.411   0.040  16.469  0.0764 -0.4209  0.4250
  197MPD1    H5 3004   3.451   0.010  16.381  1.8826  0.9121  0.7855
  197MPD1    N1 3005   2.972   0.161  16.658  0.1618  0.4188  0.3982
  197MPD1    H6 3006   2.906   0.236  16.639 -0.7616 -0.8466 -1.3826
  197MPD1    H7 3007   3.024   0.187  16.742  2.6455  0.5947 -1.1877
  198MPD1     C 3008   0.939   3.256  15.741  0.5897  0.4594 -0.5383
  198MPD1    C1 3009   1.071   3.308  15.726  0.3476 -0.0076 -0.4954
  198MPD1    C2 3010   1.098   3.425  15.789  0.5754  0.1854 -0.1504
  198MPD1    C3 3011   1.007   3.484  15.871  0.2567 -0.6003 -0.5036
  198MPD1    C4 3012   0.886   3.424  15.895  0.4520 -0.8222  0.6796
  198MPD1    C5 3013   0.853   3.313  15.823 -0.0302  0.7032  0.3761
  198MPD1     H 3014   1.193   3.472  15.768  0.8394 -1.2750 -2.2530
  198MPD1    H1 3015   0.812   3.471  15.959  1.3473  0.9257  0.4169
  198MPD1    H2 3016   0.898   3.172  15.685 -1.4887  1.4086 -0.4294
  198MPD1    H3 3017   0.748   3.284  15.825  0.4357 -0.9469  1.3964
  198MPD1     N 3018   1.034   3.602  15.941 -0.3813  0.1584  0.0894
  198MPD1    H5 3019   1.131   3.633  15.932 -0.6946  1.3309  0.7784
  198MPD1    N1 3020   1.161   3.245  15.635 -0.2414  0.8109 -0.6504
  198MPD1    H6 3021   1.146   3.146  15.616 -2.3578  0.7043  1.5754
  198MPD1    H7 3022   1.251   3.247  15.682 -0.9165 -1.5427  0.7565
  199MPD1     C 3023   3.181   4.201  10.741  0.0247  0.3661  0.2657
  199MPD1    C1 3024   3.050   4.172  10.728  0.3943  0.4732  0.4062
  199MPD1    C2 3025   3.001   4.158  10.602 -0.0220 -0.7040 -0.1212
  199MPD1    C3 3026   3.070   4.195  10.487  0.1305  0.2197  0.0379
  199MPD1    C4 3027   3.205   4.228  10.501 -0.3650 -0.4052 -0.4050
  199MPD1    C5 3028   3.253   4.227  10.630  0.1382 -0.1095  0.3287
  199MPD1     H 3029   2.896   4.133  10.594  0.1173 -0.9463 -1.1344
  199MPD1    H1 3030   3.267   4.256  10.417 -0.1099 -0.0715 -0.1044
  199MPD1    H2 3031   3.235   4.209  10.834 -2.4951 -3.6838  2.0709
  199MPD1    H3 3032   3.357   4.252  10.652 -0.8606  3.3527  1.1974
  199MPD1     N 3033   3.022   4.176  10.358  0.4763 -0.7538 -1.2058
  199MPD1    H5 3034   3.084   4.208  10.284  0.8013 -0.4469 -0.8028
  199MPD1    N1 3035   2.975   4.126  10.836  0.0967  0.6366 -0.2617
  199MPD1    H6 3036   2.986   4.195  10.911 -0.4351  1.3102 -0.8054
  199MPD1    H7 3037   2.876   4.127  10.812 -0.1246  2.2893  0.6992
  200MPD1     C 3038   1.564   0.077  15.051 -0.1986  0.4562  0.2454
  200MPD1    C1 3039   1.551   0.148  14.935  0.4210  0.4618 -0.4237
  200MPD1    C2 3040   1.649   0.140  14.836 -0.4282 -0.1073  0.1818
  200MPD1    C3 3041   1.747   0.045  14.847 -0.4977 -0.6923  0.3969
  200MPD1    C4 3042   1.759   4.692  14.960  0.1291  0.1655  0.0280
  200MPD1    C5 3043   1.666   4.706  15.063 -0.0227  0.8852  0.4715
  200MPD1     H 3044   1.646   0.212  14.754  1.5250 -1.5979 -1.1831
  200MPD1    H1 3045   1.845   4.628  14.972  0.3649 -0.2266 -3.7331
  200MPD1    H2 3046   1.486   0.089  15.126  1.2023 -2.6420  2.2016
  200MPD1    H3 3047   1.689   4.668  15.161  0.0194 -1.9410 -0.6296
  200MPD1     N 3048   1.829   0.029  14.735  0.4640  0.4389  0.0621
  200MPD1    H5 3049   1.807   0.100  14.666  1.5974  0.7239 -0.0106
  200MPD1    N1 3050   1.455   0.251  14.937 -0.2367  0.0014 -0.0845
  200MPD1    H6 3051   1.430   0.263  14.839 -0.3069 -1.7919 -0.2951
  200MPD1    H7 3052   1.373   0.228  14.993  1.0843 -3.2716  0.5416
  201MPD1     C 3053   4.684   3.662  12.435  0.7622  0.1871  0.0462
  201MPD1    C1 3054   4.711   3.553  12.352  0.4344 -0.8212 -0.2401
  201MPD1    C2 3055   0.105   3.491  12.376  0.0679 -0.1050 -0.1250
  201MPD1    C3 3056   0.183   3.509  12.492 -0.1355 -0.4810 -0.0171
  201MPD1    C4 3057   0.147   3.616  12.570  0.0877  0.2905 -0.0031
  201MPD1    C5 3058   0.043   3.701  12.540 -0.0441 -0.0878  0.0649
  201MPD1     H 3059   0.139   3.416  12.306 -0.6693  0.1386 -0.7540
  201MPD1    H1 3060   0.200   3.638  12.662  0.3982 -2.8345  0.5704
  201MPD1    H2 3061   4.597   3.722  12.409  0.3287 -0.5096 -0.1195
  201MPD1    H3 3062   0.012   3.782  12.605  1.5228 -0.5377  1.3813
  201MPD1     N 3063   0.280   3.410  12.516  0.2071 -0.0056  0.6518
  201MPD1    H5 3064   0.281   3.330  12.453  2.3770 -0.3462  1.1126
  201MPD1    N1 3065   4.641   3.534  12.236 -0.3936 -0.0771  0.3521
  201MPD1    H6 3066   4.644   3.433  12.226  2.1731 -0.2774  2.9078
  201MPD1    H7 3067   4.546   3.565  12.253 -1.5623 -2.3534 -2.0424
  202MPD1     C 3068   0.523   4.047   9.552  0.1284  0.8065 -0.3911
  202MPD1    C1 3069   0.622   4.019   9.645 -0.6690  0.0098  0.5075
  202MPD1    C2 3070   0.593   3.900   9.721  0.4994 -0.3655  0.1014
  202MPD1    C3 3071   0.465   3.853   9.732 -0.1900  0.2352 -0.6961
  202MPD1    C4 3072   0.361   3.911   9.661 -0.0863  0.1468 -0.3840
  202MPD1    C5 3073   0.394   3.998   9.561 -0.0015 -0.3696  0.5505
  202MPD1     H 3074   0.672   3.869   9.788  0.4637  0.1500  0.3789
  202MPD1    H1 3075   0.265   3.862   9.666 -0.6248  1.4749  2.1432
  202MPD1    H2 3076   0.550   4.120   9.477  0.2305  1.2077  0.0386
  202MPD1    H3 3077   0.318   4.030   9.491  1.1397  0.6574 -0.2199
  202MPD1     N 3078   0.431   3.746   9.826  0.2153  0.1763 -0.0822
  202MPD1    H5 3079   0.331   3.727   9.829  0.4396 -0.2331  3.9488
  202MPD1    N1 3080   0.758   4.054   9.620 -0.0880 -0.2557 -0.0085
  202MPD1    H6 3081   0.831   4.035   9.688 -0.0813  1.0762  0.3559
  202MPD1    H7 3082   0.778   4.144   9.577  0.6478 -1.3358 -1.9136
  203MPD1     C 3083   3.705   4.435  12.389 -0.6789  0.2911  0.1451
  203MPD1    C1 3084   3.787   4.366  12.307 -0.4491 -0.5418 -0.0800
  203MPD1    C2 3085   3.850   4.254  12.359  0.9518 -0.1284  0.1828
  203MPD1    C3 3086   3.850   4.221  12.492 -0.4060 -0.5826 -0.1643
  203MPD1    C4 3087   3.770   4.294  12.578  0.2960  0.2120  0.2342
  203MPD1    C5 3088   3.695   4.404  12.522  0.2475  0.1427 -0.1603
  203MPD1     H 3089   3.899   4.194  12.284 -0.5442 -0.2386 -0.7123
  203MPD1    H1 3090   3.750   4.275  12.683  0.1784  0.5726  0.2773
  203MPD1    H2 3091   3.641   4.515  12.353 -0.5955  1.5911  2.8737
  203MPD1    H3 3092   3.623   4.454  12.585  0.0494 -1.8811  1.2207
  203MPD1     N 3093   3.921   4.108  12.523  0.3657 -0.3692 -0.6778
  203MPD1    H5 3094   3.963   4.057  12.446  0.5079 -0.7246 -0.3669
  203MPD1    N1 3095   3.796   4.398  12.173 -0.2950  0.2053 -0.2536
  203MPD1    H6 3096   3.890   4.380  12.137  0.0993  3.1050 -0.7138
  203MPD1    H7 3097   3.772   4.496  12.156  1.2422  0.4064 -1.3749
  204MPD1     C 3098   2.222   0.403   0.005 -0.5531  1.0662 -0.0377
  204MPD1    C1 3099   2.353   0.363   0.022  0.5776 -0.5387  0.1448
  204MPD1    C2 3100   2.399   0.266  17.631 -0.3500  0.4597 -0.0054
  204MPD1    C3 3101   2.320   0.216  17.531 -0.2817  0.1455  0.4572
  204MPD1    C4 3102   2.189   0.260  17.519  0.4173 -0.5703  0.5218
  204MPD1    C5 3103   2.139   0.347  17.614  0.3735  0.6425 -0.0252
  204MPD1     H 3104   2.501   0.232  17.640 -0.7679 -1.0261 -0.9040
  204MPD1    H1 3105   2.120   0.229  17.441 -0.9549  3.1409  0.2431
  204MPD1    H2 3106   2.180   0.468   0.081 -2.8871 -0.2906 -0.1769
  204MPD1    H3 3107   2.037   0.382  17.608  1.0738  3.0297  1.5120
  204MPD1     N 3108   2.378   0.120  17.441  0.5077 -0.1800  0.0810
  204MPD1    H5 3109   2.459   0.073  17.479 -0.0712 -0.4265  1.0021
  204MPD1    N1 3110   2.422   0.391   0.145  0.2928  0.0906 -0.0867
  204MPD1    H6 3111   2.399   0.477   0.195  3.9914  0.9153  0.1389
  204MPD1    H7 3112   2.523   0.384   0.135  0.2588 -1.4475  0.5597
  205MPD1     C 3113   3.427   4.004  16.742 -0.0614  0.5332 -0.7103
  205MPD1    C1 3114   3.462   3.871  16.783  0.0934  0.3974 -0.3760
  205MPD1    C2 3115   3.364   3.809  16.861 -0.0416  0.4329 -0.5471
  205MPD1    C3 3116   3.245   3.860  16.902  0.2992  0.3824  0.1574
  205MPD1    C4 3117   3.217   3.989  16.860 -0.0422  0.8695  0.0079
  205MPD1    C5 3118   3.310   4.056  16.786 -0.1780 -0.5202 -0.2143
  205MPD1     H 3119   3.388   3.711  16.901  1.4683  1.4919  1.1589
  205MPD1    H1 3120   3.136   4.049  16.899  2.1365  2.0107  2.7722
  205MPD1    H2 3121   3.498   4.060  16.682  0.4207  0.3928 -0.2718
  205MPD1    H3 3122   3.289   4.158  16.757 -0.2460 -1.0573 -2.0011
  205MPD1     N 3123   3.163   3.800  16.993 -0.1625  0.3644  0.0970
  205MPD1    H5 3124   3.076   3.848  17.016 -0.4503  0.0156 -0.2604
  205MPD1    N1 3125   3.594   3.822  16.769 -0.2812 -0.0999  0.1079
  205MPD1    H6 3126   3.599   3.721  16.784 -0.6327 -0.1567 -0.1494
  205MPD1    H7 3127   3.631   3.838  16.675 -1.5148  0.1543 -0.3323
  206MPD1     C 3128   3.782   1.927  16.451  0.5652  0.1198 -0.5803
  206MPD1    C1 3129   3.664   1.976  16.497  0.2635  0.1726 -0.0649
  206MPD1    C2 3130   3.581   2.027  16.404  0.2620 -0.6510 -0.0348
  206MPD1    C3 3131   3.605   2.013  16.265 -0.1817 -0.6128 -0.2796
  206MPD1    C4 3132   3.730   1.972  16.223 -0.1340 -0.6775  0.1581
  206MPD1    C5 3133   3.813   1.926  16.318 -0.1702 -0.2051 -0.1746
  206MPD1     H 3134   3.492   2.074  16.446  1.8928  2.3463  0.1141
  206MPD1    H1 3135   3.766   1.986  16.122 -1.0522 -1.8853 -0.3272
  206MPD1    H2 3136   3.856   1.892  16.522  1.2244 -0.9109 -1.7655
  206MPD1    H3 3137   3.913   1.895  16.290  0.2493  1.0995 -0.1597
  206MPD1     N 3138   3.510   2.037  16.163 -0.0470  0.7435 -0.2320
  206MPD1    H5 3139   3.539   2.015  16.069 -0.9178  0.2999 -0.4014
  206MPD1    N1 3140   3.653   2.002  16.636 -0.0802  0.0509  0.2275
  206MPD1    H6 3141   3.687   1.923  16.691  2.4938  0.1978 -1.1046
  206MPD1    H7 3142   3.554   2.008  16.656 -0.4806 -3.5556 -0.6107
  207MPD1     C 3143   2.012   4.591   9.283  0.1194 -0.0063 -1.0355
  207MPD1    C1 3144   1.926   4.687   9.331 -0.3948 -0.1967  0.5960
  207MPD1    C2 3145   1.904   4.686   9.473 -0.3071  0.1205 -0.1429
  207MPD1    C3 3146   1.948   4.580   9.550  0.2719  0.7064 -0.6924
  207MPD1    C4 3147   2.043   4.497   9.505  0.3393  0.1952  0.3414
  207MPD1    C5 3148   2.073   4.502   9.373  0.1477 -0.0922 -0.0334
  207MPD1     H 3149   1.838   0.038   9.511 -0.3682  0.5964 -1.2383
  207MPD1    H1 3150   2.103   4.425   9.561  0.9313 -0.2649 -0.8717
  207MPD1    H2 3151   2.040   4.597   9.178 -0.5384  2.6582 -1.0493
  207MPD1    H3 3152   2.149   4.436   9.333 -0.6826 -1.2869  0.3605
  207MPD1     N 3153   1.908   4.560   9.686  0.4988  0.2880  0.0008
  207MPD1    H5 3154   1.944   4.472   9.722  3.1536  1.0525 -0.8010
  207MPD1    N1 3155   1.888   0.067   9.248 -0.7347  0.3854 -0.1568
  207MPD1    H6 3156   1.869   0.035   9.153  2.7286  1.0625 -1.0756
  207MPD1    H7 3157   1.810   0.121   9.284  1.1581  1.4389  2.3919
  208MPD1     C 3158   3.853   3.573  17.497  0.7925 -0.0864 -0.4056
  208MPD1    C1 3159   3.776   3.467  17.444 -0.7144  0.2868 -0.5700
  208MPD1    C2 3160   3.733   3.373  17.531 -0.3083  0.2852  0.1077
  208MPD1    C3 3161   3.749   3.385  17.672  0.2056 -0.2588 -0.8726
  208MPD1    C4 3162   3.831   3.482   0.017  0.0566  0.2283  0.0727
  208MPD1    C5 3163   3.874   3.585  17.630  0.0984 -0.3332  0.2372
  208MPD1     H 3164   3.667   3.292  17.500 -1.5628  1.2730  0.1714
  208MPD1    H1 3165   3.854   3.508   0.120 -1.1877 -0.0376  0.4216
  208MPD1    H2 3166   3.884   3.654  17.432 -0.1136  1.3058  0.9033
  208MPD1    H3 3167   3.937   3.663  17.672  0.0818 -0.0819 -0.2053
  208MPD1     N 3168   3.683   3.288   0.052  0.6506 -0.3780  0.4276
  208MPD1    H5 3169   3.634   3.207   0.016 -0.5095 -0.5796  2.4815
  208MPD1    N1 3170   3.767   3.454  17.310  0.0618  0.4591  0.0157
  208MPD1    H6 3171   3.721   3.535  17.270 -2.0971  0.8963  3.3840
  208MPD1    H7 3172   3.701   3.382  17.284  0.6310  0.5849 -1.7956
  209MPD1     C 3173   1.249   3.004  10.538 -1.6472  0.2080  0.8241
  209MPD1    C1 3174   1.358   3.048  10.613  0.1095 -0.1709 -0.4757
  209MPD1    C2 3175   1.382   3.181  10.643 -0.0580  0.8018 -0.1783
  209MPD1    C3 3176   1.280   3.271  10.604 -0.1332 -0.0801  0.1791
  209MPD1    C4 3177   1.164   3.229  10.551 -0.3212 -0.6148 -0.6138
  209MPD1    C5 3178   1.149   3.099  10.518 -0.3966 -0.7806 -0.1860
  209MPD1     H 3179   1.467   3.223  10.695 -0.7370  0.8215  0.9226
  209MPD1    H1 3180   1.087   3.301  10.524  1.7536  1.4377 -0.9776
  209MPD1    H2 3181   1.241   2.903  10.497  1.5836  0.3154 -0.0723
  209MPD1    H3 3182   1.061   3.066  10.464  1.0384 -1.7467 -1.9552
  209MPD1     N 3183   1.311   3.412  10.618 -0.0316 -0.1202 -0.1046
  209MPD1    H5 3184   1.397   3.427  10.669  0.6564 -0.0428 -1.2876
  209MPD1    N1 3185   1.463   2.953  10.619  0.0643  0.3240 -0.1982
  209MPD1    H6 3186   1.431   2.857  10.610 -1.4723  0.5679  2.5809
  209MPD1    H7 3187   1.515   2.949  10.706 -0.5180  0.6147  0.1669
  210MPD1     C 3188   1.556   4.128  11.224  0.4702  0.3527  0.0469
  210MPD1    C1 3189   1.590   3.994  11.224 -0.2449 -0.9514 -1.1319
  210MPD1    C2 3190   1.576   3.922  11.103  0.0971  0.3030  0.4151
  210MPD1    C3 3191   1.539   3.991  10.987  0.2025 -0.1397  0.5343
  210MPD1    C4 3192   1.513   4.131  10.984 -0.4829  0.3672  0.5739
  210MPD1    C5 3193   1.515   4.192  11.112 -0.5620  0.4558  0.0229
  210MPD1     H 3194   1.592   3.815  11.102  1.4701  0.4971  0.5448
  210MPD1    H1 3195   1.493   4.185  10.892 -0.1938  0.8765  0.8101
  210MPD1    H2 3196   1.547   4.183  11.318  0.5356  0.9841 -0.3142
  210MPD1    H3 3197   1.489   4.297  11.114 -0.8420  0.3897 -0.0515
  210MPD1     N 3198   1.518   3.928  10.865  0.6582  0.4140 -0.4706
  210MPD1    H5 3199   1.494   3.983  10.784 -2.9101  0.4348  0.6005
  210MPD1    N1 3200   1.610   3.922  11.341 -0.0112 -0.4473 -0.2179
  210MPD1    H6 3201   1.643   3.971  11.424 -1.0284  1.5479 -0.9740
  210MPD1    H7 3202   1.676   3.849  11.317 -0.3682 -0.6408 -0.6050
  211MPD1     C 3203   3.938   3.899  16.447 -0.3697  1.0111  0.1854
  211MPD1    C1 3204   3.857   4.010  16.447  0.8130  0.1563 -0.0282
  211MPD1    C2 3205   3.715   3.997  16.436  0.3157  0.3504  0.7811
  211MPD1    C3 3206   3.656   3.872  16.441  0.7148  0.1566 -0.2520
  211MPD1    C4 3207   3.735   3.758  16.443  0.1124 -0.5617 -0.5009
  211MPD1    C5 3208   3.874   3.773  16.440  0.3519 -0.1562 -0.1572
  211MPD1     H 3209   3.654   4.087  16.435  1.2736  1.0189  1.8956
  211MPD1    H1 3210   3.688   3.660  16.444 -1.3544  0.1355  0.4300
  211MPD1    H2 3211   4.046   3.900  16.456 -0.4811  1.7603  1.4543
  211MPD1    H3 3212   3.945   3.692  16.429  2.1027  1.4492 -0.5174
  211MPD1     N 3213   3.526   3.876  16.422 -0.3729 -0.8520 -0.3602
  211MPD1    H5 3214   3.485   3.966  16.400  0.6003 -0.5630 -0.9436
  211MPD1    N1 3215   3.921   4.130  16.426  0.0735 -0.2260  0.1850
  211MPD1    H6 3216   4.017   4.131  16.458 -0.0656  0.0462  0.5895
  211MPD1    H7 3217   3.871   4.218  16.441  0.8195  0.1584  0.3891
  212MPD1     C 3218   2.830   2.750  16.360  0.2808  0.6112 -0.6388
  212MPD1    C1 3219   2.915   2.663  16.422  0.3081 -0.5998  0.3964
  212MPD1    C2 3220   2.887   2.530  16.426 -0.1657  0.2862 -0.2514
  212MPD1    C3 3221   2.765   2.478  16.385  0.0922 -0.6371  0.0086
  212MPD1    C4 3222   2.682   2.565  16.321  0.4692  0.6322  0.2953
  212MPD1    C5 3223   2.716   2.695  16.298 -0.8397 -0.4250 -0.1231
  212MPD1     H 3224   2.960   2.470  16.479  1.1252  0.7424 -1.5425
  212MPD1    H1 3225   2.587   2.526  16.287 -0.1208 -0.2799  3.0401
  212MPD1    H2 3226   2.845   2.855  16.338 -1.5869  0.7053 -1.4470
  212MPD1    H3 3227   2.645   2.754  16.241  0.5961  1.3822 -0.0371
  212MPD1     N 3228   2.717   2.351  16.418  0.1280 -0.3747 -0.0412
  212MPD1    H5 3229   2.633   2.318  16.371  0.1878  0.4009 -0.7145
  212MPD1    N1 3230   3.034   2.711  16.470 -0.0327 -0.7666  0.2479
  212MPD1    H6 3231   3.072   2.639  16.531 -1.7895 -1.0388  1.0196
  212MPD1    H7 3232   3.036   2.800  16.518 -2.7118 -1.6149  1.9068
  213MPD1     C 3233   0.448   3.599  15.730  0.6539 -0.4670  0.7376
  213MPD1    C1 3234   0.339   3.561  15.656 -0.4527  0.1008  0.1883
  213MPD1    C2 3235   0.353   3.448  15.579  0.1271 -0.0462 -0.2035
  213MPD1    C3 3236   0.481   3.390  15.551 -0.3614 -0.5379 -0.1384
  213MPD1    C4 3237   0.588   3.447  15.614 -0.4824  0.2641 -0.0285
  213MPD1    C5 3238   0.574   3.542  15.712 -0.7664  0.4921 -1.1680
  213MPD1     H 3239   0.266   3.398  15.537  1.4010 -1.0014 -1.6963
  213MPD1    H1 3240   0.687   3.408  15.594 -0.8256 -0.8628  0.4366
  213MPD1    H2 3241   0.441   3.665  15.815  2.1921  1.6957 -0.8104
  213MPD1    H3 3242   0.654   3.595  15.761  0.7984 -1.8307 -1.1891
  213MPD1     N 3243   0.493   3.280  15.463  0.6861  0.2765 -0.4503
  213MPD1    H5 3244   0.409   3.238  15.425 -1.4819  1.7637  2.7068
  213MPD1    N1 3245   0.223   3.569  15.731 -0.1901  0.2865  0.3824
  213MPD1    H6 3246   0.142   3.557  15.669 -0.5005  0.9077  0.6634
  213MPD1    H7 3247   0.212   3.664  15.766 -3.6783  0.4195 -1.0390
  214MPD1     C 3248   4.559   2.793  15.001  0.3626  0.0699  0.1818
  214MPD1    C1 3249   4.580   2.856  15.118 -0.1897  0.0936 -0.6805
  214MPD1    C2 3250   4.706   2.886  15.151 -0.3415  0.3013  0.2693
  214MPD1    C3 3251   0.091   2.852  15.078  0.0166 -0.2840  0.3393
  214MPD1    C4 3252   0.073   2.785  14.961 -0.0993  0.2439  0.5133
  214MPD1    C5 3253   4.666   2.769  14.926 -0.4759 -0.1346 -0.2217
  214MPD1     H 3254   0.001   2.945  15.240  0.5980 -1.1619  1.0339
  214MPD1    H1 3255   0.154   2.769  14.890 -1.9502  2.7091 -2.1415
  214MPD1    H2 3256   4.460   2.774  14.961  0.0531  0.8780  0.5608
  214MPD1    H3 3257   4.647   2.726  14.828 -0.7558  0.6212 -0.5029
  214MPD1     N 3258   0.221   2.895  15.112  0.4571  0.4892 -0.3700
  214MPD1    H5 3259   0.292   2.874  15.042  0.9986  1.2115 -0.0310
  214MPD1    N1 3260   4.474   2.904  15.192  0.0109 -0.7440 -0.3881
  214MPD1    H6 3261   4.498   2.921  15.289 -2.6816  1.9349 -0.1868
  214MPD1    H7 3262   4.388   2.852  15.179  0.5737 -1.4496 -1.2813
  215MPD1     C 3263   1.025   3.193  10.881 -1.2230 -0.1136 -0.1295
  215MPD1    C1 3264   1.132   3.234  10.959 -0.0293  0.2712  0.7277
  215MPD1    C2 3265   1.164   3.368  10.972 -0.6746  0.4335 -0.5000
  215MPD1    C3 3266   1.081   3.463  10.912  0.2646 -0.8979 -0.3873
  215MPD1    C4 3267   0.976   3.421  10.841  0.2365 -0.6478  0.6576
  215MPD1    C5 3268   0.942   3.289  10.835 -0.6257  0.0898 -0.2978
  215MPD1     H 3269   1.251   3.398  11.029 -2.1421 -1.2859  2.6602
  215MPD1    H1 3270   0.916   3.498  10.792  0.7897 -0.3811  0.4052
  215MPD1    H2 3271   1.001   3.093  10.849 -0.9831  0.3516 -1.7698
  215MPD1    H3 3272   0.855   3.269  10.774 -1.4086 -1.6814  1.4005
  215MPD1     N 3273   1.123   3.597  10.922 -0.1055  0.4057 -0.5820
  215MPD1    H5 3274   1.193   3.618  10.992 -1.4191  1.1026  0.5206
  215MPD1    N1 3275   1.217   3.136  11.016  0.0099 -0.2311 -0.4400
  215MPD1    H6 3276   1.312   3.168  11.033 -0.6086 -0.3188  2.9979
  215MPD1    H7 3277   1.232   3.063  10.946  0.7464 -0.2364 -0.2818
  216MPD1     C 3278   1.174   0.884  17.028 -0.9048 -0.3689 -0.9162
  216MPD1    C1 3279   1.224   0.780  16.952  0.6638  0.2547  0.4595
  216MPD1    C2 3280   1.359   0.770  16.925  0.0678  0.4751 -0.3054
  216MPD1    C3 3281   1.443   0.875  16.954 -0.1948 -0.6266 -0.3425
  216MPD1    C4 3282   1.391   0.980  17.029  0.3094  0.2453 -0.1081
  216MPD1    C5 3283   1.260   0.982  17.065 -0.0173  0.0736  0.0344
  216MPD1     H 3284   1.391   0.682  16.870  0.0950  0.6134 -0.5115
  216MPD1    H1 3285   1.452   1.064  17.060  1.6600 -1.2491  1.2953
  216MPD1    H2 3286   1.071   0.885  17.062 -0.6914  0.5347 -0.2694
  216MPD1    H3 3287   1.236   1.077  17.111 -0.3487 -0.6617  1.3767
  216MPD1     N 3288   1.581   0.871  16.923  0.0045 -0.3352 -0.4178
  216MPD1    H5 3289   1.613   0.787  16.875  0.2173 -0.5821  0.1621
  216MPD1    N1 3290   1.135   0.672  16.922  0.0025 -0.4833 -0.0701
  216MPD1    H6 3291   1.159   0.614  16.842  1.4461 -0.3730  0.2646
  216MPD1    H7 3292   1.036   0.692  16.931  0.0682 -0.4460  0.5688
  217MPD1     C 3293   3.287   2.775   8.859 -0.5423  0.2391  0.4028
  217MPD1    C1 3294   3.392   2.681   8.832  0.4517 -0.2566 -0.3892
  217MPD1    C2 3295   3.503   2.681   8.909  0.0664  0.2501 -0.0151
  217MPD1    C3 3296   3.501   2.753   9.031  0.3329  0.5662 -0.3790
  217MPD1    C4 3297   3.394   2.840   9.054  0.1889 -0.6700 -0.2639
  217MPD1    C5 3298   3.297   2.850   8.965  0.6087 -0.6802  0.2222
  217MPD1     H 3299   3.578   2.605   8.892  1.5383  1.5956  0.4172
  217MPD1    H1 3300   3.396   2.897   9.146 -0.1353 -2.2211  0.6951
  217MPD1    H2 3301   3.204   2.787   8.790 -0.8730  0.2892  0.8106
  217MPD1    H3 3302   3.224   2.930   8.979  2.0403  0.2936  2.0755
  217MPD1     N 3303   3.594   2.752   9.138  0.2734  0.3183 -0.1811
  217MPD1    H5 3304   3.581   2.809   9.221 -0.1183 -0.2552  0.1530
  217MPD1    N1 3305   3.382   2.616   8.712 -0.1848  0.8762 -0.6127
  217MPD1    H6 3306   3.437   2.531   8.701  0.6562  1.6379 -2.3681
  217MPD1    H7 3307   3.285   2.588   8.716 -0.1911  1.3600  2.5602
  218MPD1     C 3308   0.241   0.097  12.661 -0.2197  0.4209 -0.4409
  218MPD1    C1 3309   0.345   0.131  12.584  0.3420 -0.0345  0.1982
  218MPD1    C2 3310   0.447   0.045  12.558  0.2149 -0.0997  0.1708
  218MPD1    C3 3311   0.443   4.643  12.610  0.4166  0.4723  0.4558
  218MPD1    C4 3312   0.337   4.608  12.693 -0.1981 -0.3652 -0.6200
  218MPD1    C5 3313   0.234   4.695  12.706 -1.3555  0.0992 -0.3901
  218MPD1     H 3314   0.521   0.073  12.483  0.3182 -1.0936 -0.0922
  218MPD1    H1 3315   0.320   4.515  12.745  0.9969 -0.5070 -0.4857
  218MPD1    H2 3316   0.156   0.162  12.679 -0.0934  0.3646  0.3973
  218MPD1    H3 3317   0.147   4.660  12.761  0.2121 -3.2970 -0.0355
  218MPD1     N 3318   0.539   4.548  12.564  0.4736  0.0254  0.0797
  218MPD1    H5 3319   0.608   4.581  12.497  0.5939  1.0524  0.7161
  218MPD1    N1 3320   0.359   0.269  12.556 -0.4057  0.3456 -0.0157
  218MPD1    H6 3321   0.274   0.318  12.530 -0.0833  1.5444  1.1650
  218MPD1    H7 3322   0.441   0.293  12.500 -0.3092 -2.0408 -0.9036
  219MPD1     C 3323   0.888   4.051  11.785 -0.4087 -0.1297  0.1296
  219MPD1    C1 3324   0.907   4.174  11.839  0.6328  0.5421 -0.1093
  219MPD1    C2 3325   0.855   4.192  11.971  0.7950 -0.1915  0.2456
  219MPD1    C3 3326   0.798   4.086  12.043  0.0977 -0.2991 -0.0366
  219MPD1    C4 3327   0.792   3.966  11.980 -0.0754 -0.0034  0.5639
  219MPD1    C5 3328   0.847   3.947  11.859 -0.4668  0.1685  0.0409
  219MPD1     H 3329   0.861   4.290  12.017 -1.1918 -0.1851  0.4563
  219MPD1    H1 3330   0.752   3.873  12.021 -0.1626 -0.5175 -0.6884
  219MPD1    H2 3331   0.920   4.032  11.684  0.1971  2.1664 -0.1219
  219MPD1    H3 3332   0.856   3.847  11.818 -0.4811 -0.3813  1.3782
  219MPD1     N 3333   0.741   4.102  12.171 -0.0504  0.0676 -0.3905
  219MPD1    H5 3334   0.704   4.022  12.221 -1.7717  1.3170  0.3267
  219MPD1    N1 3335   0.960   4.268  11.756 -0.1417  0.9517 -0.5127
  219MPD1    H6 3336   1.032   4.245  11.688  0.4184 -0.1532  0.4542
  219MPD1    H7 3337   1.003   4.346  11.805 -0.8422  1.1291 -0.1701
  220MPD1     C 3338   0.202   4.533   9.435 -0.4562 -0.1593  0.5679
  220MPD1    C1 3339   0.139   4.474   9.541 -0.4911 -0.3552  0.0108
  220MPD1    C2 3340   0.212   4.416   9.639 -0.1684  0.3895 -0.3146
  220MPD1    C3 3341   0.350   4.429   9.641  0.3932 -0.3219  0.3036
  220MPD1    C4 3342   0.412   4.496   9.538 -0.0416 -0.3485  0.0110
  220MPD1    C5 3343   0.340   4.549   9.438 -0.2449  0.5652  0.1540
  220MPD1     H 3344   0.165   4.355   9.715 -0.1092  1.3389  0.4876
  220MPD1    H1 3345   0.521   4.500   9.534 -0.2196  2.2244 -2.3537
  220MPD1    H2 3346   0.149   4.575   9.350  0.9290 -0.1226 -0.2831
  220MPD1    H3 3347   0.388   4.613   9.365 -0.4704  1.5900  0.9066
  220MPD1     N 3348   0.416   4.376   9.754  0.3840  0.0741 -0.5699
  220MPD1    H5 3349   0.362   4.317   9.816  1.0386 -0.8592 -0.8856
  220MPD1    N1 3350   0.002   4.436   9.534 -0.0948 -0.1076 -0.1239
  220MPD1    H6 3351   4.671   4.408   9.615 -0.8016  1.4037 -0.0807
  220MPD1    H7 3352   4.666   4.500   9.484  1.5309  0.5342 -1.2833
  221MPD1     C 3353   2.068   4.084  15.940 -0.4726  0.4934  0.6216
  221MPD1    C1 3354   2.056   3.950  15.941 -0.1650  0.7055 -0.1630
  221MPD1    C2 3355   2.163   3.875  15.979  0.0955 -0.3655  0.5651
  221MPD1    C3 3356   2.291   3.930  15.995  0.2603  0.7239 -1.2077
  221MPD1    C4 3357   2.311   4.066  15.977 -0.3299  0.2404  0.2860
  221MPD1    C5 3358   2.193   4.133  15.960  0.6812 -0.3138  0.6772
  221MPD1     H 3359   2.140   3.770  15.993  0.2728 -0.4942 -0.1132
  221MPD1    H1 3360   2.405   4.120  15.973 -0.1605 -0.0212  0.6616
  221MPD1    H2 3361   1.985   4.151  15.921 -0.5614 -0.1373 -1.1845
  221MPD1    H3 3362   2.206   4.234  15.922 -0.5096 -0.1075  0.7995
  221MPD1     N 3363   2.408   3.851  16.009 -0.0996 -0.4408  0.7695
  221MPD1    H5 3364   2.494   3.897  16.039  0.8793 -2.4227  1.0099
  221MPD1    N1 3365   1.923   3.890  15.939  0.7324 -0.7280  0.1562
  221MPD1    H6 3366   1.856   3.934  15.877  2.1647  2.5915  0.9857
  221MPD1    H7 3367   1.926   3.797  15.896  1.5532 -1.1040  1.0176
  222MPD1     C 3368   2.301   1.898  17.606  0.2271 -1.1016 -0.1508
  222MPD1    C1 3369   2.381   1.945  17.499 -0.3632  0.3655  0.8502
  222MPD1    C2 3370   2.354   2.082  17.468 -0.0087 -0.0887  0.3538
  222MPD1    C3 3371   2.245   2.154  17.523  0.1244  0.4859 -0.0835
  222MPD1    C4 3372   2.161   2.092  17.605  0.2881 -0.7467 -0.2117
  222MPD1    C5 3373   2.196   1.969  17.654 -0.1875  0.4451  0.3539
  222MPD1     H 3374   2.426   2.135  17.406  2.0628 -1.2880  1.7488
  222MPD1    H1 3375   2.071   2.141  17.641  0.3943 -2.1133  1.9323
  222MPD1    H2 3376   2.321   1.803  17.655  2.8990  1.2508  3.3629
  222MPD1    H3 3377   2.133   1.921   0.026  0.4690  0.0496  0.6644
  222MPD1     N 3378   2.224   2.291  17.500 -0.4190 -0.4169  0.1284
  222MPD1    H5 3379   2.154   2.327  17.565  1.2582 -3.7578  3.8537
  222MPD1    N1 3380   2.497   1.882  17.461  0.1893  0.0603 -0.5033
  222MPD1    H6 3381   2.503   1.781  17.454 -1.3527 -0.1626  1.4707
  222MPD1    H7 3382   2.512   1.925  17.370  0.6250  0.8140 -0.0792
  223MPD1     C 3383   1.571   2.694   0.171 -0.7308  0.1049 -0.1755
  223MPD1    C1 3384   1.673   2.602   0.210  0.1645  0.0234 -0.6995
  223MPD1    C2 3385   1.769   2.570   0.111  0.4925 -0.5216  0.6543
  223MPD1    C3 3386   1.777   2.643  17.693  0.6171 -0.1942 -0.0780
  223MPD1    C4 3387   1.686   2.744  17.662 -0.0009  0.7969  0.0842
  223MPD1    C5 3388   1.581   2.758   0.047  0.1192 -0.0278  0.5425
  223MPD1     H 3389   1.847   2.496   0.125  1.3711  0.3420  0.3285
  223MPD1    H1 3390   1.670   2.796  17.569 -4.3469  1.4376  1.1860
  223MPD1    H2 3391   1.486   2.723   0.232  0.3535  4.6013 -0.7756
  223MPD1    H3 3392   1.505   2.830   0.018  1.3420  1.4088  0.8835
  223MPD1     N 3393   1.882   2.597  17.607 -0.0262  0.0520  0.2471
  223MPD1    H5 3394   1.931   2.512  17.633 -0.9695 -1.2417 -2.2388
  223MPD1    N1 3395   1.652   2.522   0.321  0.8175 -0.8459 -0.5901
  223MPD1    H6 3396   1.601   2.560   0.400 -0.1162 -0.4383 -1.3923
  223MPD1    H7 3397   1.734   2.475   0.360 -0.3566 -1.8348  0.7018
  224MPD1     C 3398   0.923   3.265   9.883 -0.2986  0.2112 -0.2375
  224MPD1    C1 3399   0.829   3.367   9.863  0.1966  0.4992 -0.0003
  224MPD1    C2 3400   0.706   3.323   9.820 -0.3890  0.1073  0.5377
  224MPD1    C3 3401   0.669   3.189   9.813  0.6228  0.7907 -0.1401
  224MPD1    C4 3402   0.769   3.091   9.829 -0.3036 -0.5886  0.4774
  224MPD1    C5 3403   0.896   3.133   9.855  0.2324  1.0710 -0.2531
  224MPD1     H 3404   0.627   3.393   9.795  1.1013  1.7490  0.4918
  224MPD1    H1 3405   0.758   2.985   9.810  1.8449 -0.8794  0.9306
  224MPD1    H2 3406   1.028   3.285   9.899 -0.5613  2.9479 -1.9237
  224MPD1    H3 3407   0.972   3.056   9.858  0.0002  0.7195 -3.3588
  224MPD1     N 3408   0.539   3.136   9.801  0.9046  0.0488  0.1161
  224MPD1    H5 3409   0.529   3.035   9.801  0.1915  0.1211 -0.9388
  224MPD1    N1 3410   0.864   3.500   9.857 -0.3746 -0.4015  0.2012
  224MPD1    H6 3411   0.939   3.515   9.924 -1.7585  1.4046  1.3478
  224MPD1    H7 3412   0.790   3.568   9.874  0.2321  0.7763 -1.7235
  225MPD1     C 3413   0.176   0.600  12.592 -0.1691 -0.1073  0.1711
  225MPD1    C1 3414   0.135   0.483  12.648  0.3380  0.0958  0.2812
  225MPD1    C2 3415   0.061   0.396  12.575 -0.0016  0.9033 -0.0027
  225MPD1    C3 3416   0.057   0.413  12.437 -0.8544 -0.3827  0.1845
  225MPD1    C4 3417   0.104   0.530  12.382 -0.3285 -0.2848 -0.3410
  225MPD1    C5 3418   0.169   0.627  12.463 -0.2877 -0.8623  0.0922
  225MPD1     H 3419   0.018   0.310  12.624 -1.6226  0.7721 -1.6570
  225MPD1    H1 3420   0.081   0.545  12.277 -3.7043  0.6090  0.5399
  225MPD1    H2 3421   0.234   0.675  12.644 -0.5874 -0.3033  0.9240
  225MPD1    H3 3422   0.214   0.719  12.429 -2.3954  0.9810  2.2643
  225MPD1     N 3423   0.001   0.318  12.344 -0.1873 -0.0807 -0.1258
  225MPD1    H5 3424   4.718   0.342  12.246  1.9078  0.1560 -0.2373
  225MPD1    N1 3425   0.170   0.452  12.782  0.2393 -0.1548  0.0311
  225MPD1    H6 3426   0.199   0.537  12.829 -0.6253 -1.2378  2.5201
  225MPD1    H7 3427   0.104   0.401  12.841  1.4582 -1.8945 -0.1059
  226MPD1     C 3428   3.137   3.966   9.869  0.0156  0.3468  0.2045
  226MPD1    C1 3429   3.261   4.023   9.860 -0.3341  0.9216  0.3172
  226MPD1    C2 3430   3.285   4.115   9.762 -0.6757 -0.1086  0.9691
  226MPD1    C3 3431   3.198   4.130   9.659  0.2728 -0.3199  0.6776
  226MPD1    C4 3432   3.077   4.069   9.658  0.0957 -0.4966  0.2893
  226MPD1    C5 3433   3.050   3.990   9.767 -0.2213 -0.7610 -0.1266
  226MPD1     H 3434   3.383   4.159   9.748 -0.4780 -1.3788 -1.6576
  226MPD1    H1 3435   3.014   4.074   9.570 -1.3515 -0.1107  1.3556
  226MPD1    H2 3436   3.105   3.894   9.944  0.4313 -0.1943 -0.1322
  226MPD1    H3 3437   2.960   3.931   9.760 -0.3307 -0.6586  0.4573
  226MPD1     N 3438   3.254   4.202   9.549  0.0046 -0.0663  0.1636
  226MPD1    H5 3439   3.349   4.236   9.564 -0.8359  1.9996  0.7839
  226MPD1    N1 3440   3.345   4.011   9.971  0.7439 -0.3661 -0.2837
  226MPD1    H6 3441   3.442   4.037   9.956  1.4140 -3.6581 -1.6646
  226MPD1    H7 3442   3.343   3.916  10.008  0.1581  0.1407  0.9841
  227MPD1     C 3443   3.144   4.118   8.580  0.0087 -0.1765 -0.2296
  227MPD1    C1 3444   3.082   4.072   8.689 -0.3607 -0.2024  0.1227
  227MPD1    C2 3445   3.128   4.117   8.818 -0.0041  0.5622 -0.0996
  227MPD1    C3 3446   3.225   4.214   8.827  0.3882  0.3687 -0.6432
  227MPD1    C4 3447   3.297   4.244   8.713  0.0526  0.1801 -0.3301
  227MPD1    C5 3448   3.258   4.192   8.594 -0.6743 -0.6302  0.3157
  227MPD1     H 3449   3.089   4.074   8.909  0.6408 -2.4887 -1.2874
  227MPD1    H1 3450   3.384   4.309   8.710  0.3249 -0.0951  1.9016
  227MPD1    H2 3451   3.121   4.084   8.479  0.2261 -0.8897 -0.0416
  227MPD1    H3 3452   3.324   4.202   8.508 -2.9564  0.5151 -1.2925
  227MPD1     N 3453   3.263   4.256   8.955  0.2899  0.4984  0.1893
  227MPD1    H5 3454   3.200   4.220   9.025  0.1498 -1.4234 -0.9153
  227MPD1    N1 3455   2.965   3.999   8.675 -0.0933  0.2018 -0.0072
  227MPD1    H6 3456   2.980   3.939   8.594 -2.7777  0.1794 -0.4875
  227MPD1    H7 3457   2.942   3.952   8.762  0.3455  1.1515  0.6272
  228MPD1     C 3458   2.355   3.187  12.251 -0.7835 -0.3006 -0.2940
  228MPD1    C1 3459   2.297   3.082  12.185  0.5476  0.4135  0.3399
  228MPD1    C2 3460   2.223   2.995  12.265 -0.2504 -0.4170 -0.5057
  228MPD1    C3 3461   2.194   3.011  12.395  0.3786 -0.1720  0.3577
  228MPD1    C4 3462   2.252   3.121  12.457  0.9191  0.5271  0.2680
  228MPD1    C5 3463   2.337   3.202  12.387  0.4777  0.5736 -0.0061
  228MPD1     H 3464   2.167   2.920  12.210  0.8887  0.7457 -3.2326
  228MPD1    H1 3465   2.243   3.158  12.558 -1.6364 -1.1060  0.6511
  228MPD1    H2 3466   2.435   3.231  12.192 -0.3560 -0.0926  0.4501
  228MPD1    H3 3467   2.380   3.285  12.443  1.5581 -0.0508  0.0799
  228MPD1     N 3468   2.095   2.929  12.460 -0.8147  0.1693  0.1165
  228MPD1    H5 3469   2.050   2.861  12.400  1.2834 -0.6433 -0.5201
  228MPD1    N1 3470   2.353   3.025  12.064 -0.8728 -0.1527  0.4604
  228MPD1    H6 3471   2.423   3.082  12.017 -1.0183  1.5819  2.3058
  228MPD1    H7 3472   2.290   2.976  12.001  0.3079  0.9567 -1.5698
  229MPD1     C 3473   1.330   1.830  15.044  0.0750 -0.4079  0.4343
  229MPD1    C1 3474   1.292   1.758  14.935  0.1451  0.5510 -0.2190
  229MPD1    C2 3475   1.308   1.620  14.935 -0.4191  0.0470  0.0115
  229MPD1    C3 3476   1.365   1.558  15.046 -0.7312 -0.2909  0.0028
  229MPD1    C4 3477   1.385   1.634  15.154 -0.3007 -0.4600  0.6091
  229MPD1    C5 3478   1.361   1.764  15.154 -0.3500  0.1999  0.3179
  229MPD1     H 3479   1.271   1.560  14.852 -2.2882 -0.7483  1.4098
  229MPD1    H1 3480   1.414   1.587  15.247  0.3165  0.2103  0.7540
  229MPD1    H2 3481   1.325   1.937  15.060  0.6676 -0.4474  0.9293
  229MPD1    H3 3482   1.366   1.820  15.246 -1.7239 -0.7437  0.9799
  229MPD1     N 3483   1.400   1.420  15.055  0.3814  0.0829 -0.4561
  229MPD1    H5 3484   1.448   1.384  15.136 -0.8965  2.8377  1.5247
  229MPD1    N1 3485   1.275   1.821  14.810 -0.6372  0.6442  0.4749
  229MPD1    H6 3486   1.236   1.915  14.818 -2.1858  0.0101  0.4720
  229MPD1    H7 3487   1.217   1.759  14.753 -1.8631  1.8517  0.4135
  230MPD1     C 3488   1.059   0.411  15.049  0.8573 -0.6804 -0.1096
  230MPD1    C1 3489   1.190   0.401  15.099 -0.5756  0.4360  0.6227
  230MPD1    C2 3490   1.273   0.509  15.063 -0.4676  0.1002 -0.5452
  230MPD1    C3 3491   1.221   0.618  14.989 -0.0786  0.4446  0.3432
  230MPD1    C4 3492   1.096   0.621  14.944 -0.4979  0.3299 -0.3441
  230MPD1    C5 3493   1.011   0.512  14.974 -0.0334  0.7995 -1.1216
  230MPD1     H 3494   1.375   0.508  15.098 -0.8834 -2.1395  0.6275
  230MPD1    H1 3495   1.060   0.710  14.895 -1.2727 -0.6826 -1.6229
  230MPD1    H2 3496   0.987   0.330  15.058  0.2574  0.2468  3.2587
  230MPD1    H3 3497   0.913   0.519  14.928 -0.9102 -4.4751 -0.0001
  230MPD1     N 3498   1.298   0.739  14.978  0.6986  0.2103 -0.7835
  230MPD1    H5 3499   1.390   0.738  15.020 -0.9644  3.3130  2.8724
  230MPD1    N1 3500   1.231   0.282  15.151 -0.0995 -0.1356  0.0859
  230MPD1    H6 3501   1.156   0.224  15.189 -0.1070  0.1523  0.5133
  230MPD1    H7 3502   1.306   0.280  15.220  1.0998  3.3202 -1.1102
  231MPD1     C 3503   4.303   3.214  15.575  0.9673  0.1535 -0.3314
  231MPD1    C1 3504   4.280   3.173  15.450  0.1653 -0.5686 -0.0860
  231MPD1    C2 3505   4.384   3.169  15.358  0.3598  0.0411  0.0497
  231MPD1    C3 3506   4.505   3.230  15.391 -0.3619  0.2443 -0.5069
  231MPD1    C4 3507   4.530   3.248  15.527  1.2439 -0.4612  0.5523
  231MPD1    C5 3508   4.431   3.232  15.612  0.2957 -0.0886  0.6912
  231MPD1     H 3509   4.365   3.147  15.253  0.4732 -1.3190  0.3124
  231MPD1    H1 3510   4.626   3.283  15.563  1.1224  0.1454  0.2942
  231MPD1    H2 3511   4.234   3.206  15.658  1.6879  2.5091  0.4847
  231MPD1    H3 3512   4.450   3.249  15.717  1.9015  0.4573  0.3102
  231MPD1     N 3513   4.600   3.262  15.290  0.1257  0.2828 -0.0261
  231MPD1    H5 3514   4.568   3.234  15.198  1.9057  0.1690 -0.6169
  231MPD1    N1 3515   4.150   3.145  15.402  0.2538  0.5803  0.4576
  231MPD1    H6 3516   4.150   3.082  15.323  0.7794 -2.1530  2.6400
  231MPD1    H7 3517   4.080   3.121  15.472 -0.2841  1.6706  0.2997
  232MPD1     C 3518   1.884   0.455  17.200 -0.0929 -0.0972 -0.9234
  232MPD1    C1 3519   1.762   0.503  17.176 -0.3870  0.0468 -0.8855
  232MPD1    C2 3520   1.696   0.558  17.287 -0.8574  0.6265 -0.5999
  232MPD1    C3 3521   1.742   0.553  17.416 -0.1650 -0.3306 -0.5391
  232MPD1    C4 3522   1.865   0.492  17.437 -0.7055 -0.1738 -0.1793
  232MPD1    C5 3523   1.931   0.449  17.325  0.4285  0.0485 -0.3488
  232MPD1     H 3524   1.600   0.605  17.272  0.1432  2.7788 -0.2325
  232MPD1    H1 3525   1.915   0.486  17.533 -0.2467 -0.9486 -0.4725
  232MPD1    H2 3526   1.945   0.417  17.119  0.9737 -1.4826  0.5257
  232MPD1    H3 3527   2.029   0.403  17.335 -0.0469 -1.6262 -3.1726
  232MPD1     N 3528   1.675   0.621  17.520 -0.2850  0.1735  0.2983
  232MPD1    H5 3529   1.580   0.651  17.503 -0.3730 -0.3035 -0.0615
  232MPD1    N1 3530   1.702   0.511  17.049 -0.6684  0.2073  0.2274
  232MPD1    H6 3531   1.603   0.485  17.055 -0.7857  1.0692  2.0772
  232MPD1    H7 3532   1.754   0.451  16.985 -0.8590 -1.3901  1.5767
  233MPD1     C 3533   2.850   3.227   1.701  0.1174  0.0459  0.0561
  233MPD1    C1 3534   2.853   3.287   1.582 -0.1650 -0.3312  0.7714
  233MPD1    C2 3535   2.919   3.412   1.583  1.1003 -0.4334  0.2695
  233MPD1    C3 3536   3.007   3.456   1.686  0.1885 -0.1002  0.2289
  233MPD1    C4 3537   3.006   3.384   1.803 -0.3675 -0.4359 -0.7769
  233MPD1    C5 3538   2.930   3.272   1.802 -0.1928 -0.7440 -0.0894
  233MPD1     H 3539   2.921   3.467   1.490  0.7693  1.3223  1.2891
  233MPD1    H1 3540   3.075   3.398   1.885  0.1575  2.1209 -1.6744
  233MPD1    H2 3541   2.809   3.127   1.703 -0.0519  0.1073 -0.4010
  233MPD1    H3 3542   2.935   3.204   1.886  1.6826  0.6476  0.9225
  233MPD1     N 3543   3.090   3.568   1.678  0.9278 -0.3707  0.0376
  233MPD1    H5 3544   3.153   3.581   1.756  2.9374  0.0326 -1.6480
  233MPD1    N1 3545   2.772   3.251   1.472 -0.3042  0.4322  0.1804
  233MPD1    H6 3546   2.744   3.154   1.461 -1.2358  0.7376 -0.0761
  233MPD1    H7 3547   2.802   3.295   1.385  0.0774  1.7527  0.9710
  234MPD1     C 3548   0.000   1.296  10.035  0.5457 -0.4569  0.2058
  234MPD1    C1 3549   0.057   1.403  10.108  0.1380  0.2994 -0.2227
  234MPD1    C2 3550   0.024   1.528  10.052  0.5905 -0.1150  0.1138
  234MPD1    C3 3551   4.687   1.548   9.932  0.1123  0.4349 -0.0259
  234MPD1    C4 3552   4.655   1.440   9.855  0.0989 -0.3325  0.1481
  234MPD1    C5 3553   4.665   1.315   9.915  0.3086 -0.6951  0.2231
  234MPD1     H 3554   0.068   1.615  10.099  1.1046  1.3219 -3.0293
  234MPD1    H1 3555   4.612   1.451   9.756 -0.1754 -2.0205  0.0801
  234MPD1    H2 3556   0.006   1.191  10.062  0.0980 -0.2005  1.3196
  234MPD1    H3 3557   4.632   1.223   9.867 -0.6895 -0.1437 -0.1593
  234MPD1     N 3558   4.683   1.685   9.900  0.5694  0.4794  0.2070
  234MPD1    H5 3559   4.700   1.755   9.971 -0.5496 -0.7056  1.6446
  234MPD1    N1 3560   0.109   1.382  10.234  0.0248 -0.5158 -0.7875
  234MPD1    H6 3561   0.165   1.297  10.229  0.4893 -0.2317 -0.4427
  234MPD1    H7 3562   0.162   1.462  10.269 -1.2286 -0.6930  1.5206
  235MPD1     C 3563   1.039   4.621  10.003  0.2198 -0.1838  0.5706
  235MPD1    C1 3564   1.086   4.623  10.130  0.5224  1.1068 -0.0041
  235MPD1    C2 3565   1.168   0.003  10.168  0.0092 -0.3177  0.0554
  235MPD1    C3 3566   1.230   0.092  10.075  0.7510  0.5206  0.3008
  235MPD1    C4 3567   1.186   0.078   9.945  0.1226  0.0944 -0.4817
  235MPD1    C5 3568   1.081   4.715   9.917 -0.4577 -0.2679  0.3887
  235MPD1     H 3569   1.199   0.019  10.271 -2.5582 -3.3583  1.2869
  235MPD1    H1 3570   1.222   0.136   9.861  0.1532  2.7599  1.3736
  235MPD1    H2 3571   0.961   4.552   9.974 -1.0517  0.8862  1.4261
  235MPD1    H3 3572   1.039   4.709   9.817 -3.6495  1.2521  1.6264
  235MPD1     N 3573   1.331   0.187  10.118  0.1603  0.0543  0.1039
  235MPD1    H5 3574   1.346   0.197  10.218  0.3385 -2.7895  0.3508
  235MPD1    N1 3575   1.025   4.536  10.225  0.7397  0.1209 -0.0966
  235MPD1    H6 3576   1.081   4.522  10.308  0.4487  2.7216  0.5360
  235MPD1    H7 3577   0.985   4.450  10.187  1.9060 -1.2076  1.6598
  236MPD1     C 3578   0.589   1.248   9.352  0.3863 -0.6756  0.2575
  236MPD1    C1 3579   0.568   1.131   9.424  0.9702  0.1879 -0.6524
  236MPD1    C2 3580   0.600   1.133   9.560 -0.1441  0.3632 -0.4056
  236MPD1    C3 3581   0.625   1.256   9.623 -0.4285  0.1978 -0.7674
  236MPD1    C4 3582   0.625   1.374   9.548 -0.3022 -0.1084  0.6866
  236MPD1    C5 3583   0.604   1.368   9.415 -0.6141  0.1730 -0.7113
  236MPD1     H 3584   0.589   1.043   9.620 -1.2981 -0.3110 -1.6464
  236MPD1    H1 3585   0.638   1.472   9.592  3.2151  0.3568 -1.4198
  236MPD1    H2 3586   0.576   1.244   9.244 -0.0785  0.7405  0.2571
  236MPD1    H3 3587   0.609   1.457   9.354 -0.2770  0.9097  0.3934
  236MPD1     N 3588   0.659   1.280   9.765  0.2802  0.2873  0.4261
  236MPD1    H5 3589   0.688   1.374   9.791 -1.1031  1.3691 -1.9466
  236MPD1    N1 3590   0.560   1.009   9.347 -0.0172 -0.2747  0.2600
  236MPD1    H6 3591   0.504   1.033   9.265 -0.6333  0.4049  0.8765
  236MPD1    H7 3592   0.520   0.939   9.409  1.6688 -2.6862 -1.3803
  237MPD1     C 3593   0.085   3.962  15.531 -0.1664  0.3664  0.3510
  237MPD1    C1 3594   0.099   4.018  15.409  0.5117  0.6846 -0.2841
  237MPD1    C2 3595   4.712   4.067  15.342  0.4722 -1.0458 -0.2891
  237MPD1    C3 3596   4.594   4.084  15.409 -0.7431 -0.1410 -1.0952
  237MPD1    C4 3597   4.580   4.030  15.535  0.4383 -0.4093 -0.9017
  237MPD1    C5 3598   4.691   3.972  15.589  0.4700 -0.0816 -0.0830
  237MPD1     H 3599   0.016   4.117  15.250  3.6255 -0.9859  0.7640
  237MPD1    H1 3600   4.489   4.036  15.594  0.1845 -1.0650 -1.2174
  237MPD1    H2 3601   0.169   3.910  15.574  1.0927 -0.5572 -3.1811
  237MPD1    H3 3602   4.678   3.940  15.692 -0.2856 -2.7970 -1.0247
  237MPD1     N 3603   4.487   4.147  15.349  0.4646  0.3782  0.2381
  237MPD1    H5 3604   4.406   4.168  15.405  0.3243  1.3565 -0.3316
  237MPD1    N1 3605   0.223   4.016  15.349  0.7400  0.1989  0.3868
  237MPD1    H6 3606   0.296   4.000  15.419  0.2447 -1.0827  0.6208
  237MPD1    H7 3607   0.238   4.095  15.287 -1.0301 -1.1395 -1.7633
  238MPD1     C 3608   1.357   3.607  15.621 -0.0290  0.4760 -1.2199
  238MPD1    C1 3609   1.313   3.676  15.502  0.3087  0.0804 -0.5696
  238MPD1    C2 3610   1.356   3.621  15.380 -0.3435 -0.0609  0.5022
  238MPD1    C3 3611   1.437   3.499  15.383  0.6282 -0.2108 -0.0290
  238MPD1    C4 3612   1.474   3.437  15.500  0.1475 -0.1285  0.6628
  238MPD1    C5 3613   1.437   3.498  15.620  0.1970  0.1030 -0.3857
  238MPD1     H 3614   1.347   3.677  15.288 -0.5306 -2.4431 -0.9223
  238MPD1    H1 3615   1.525   3.341  15.494 -1.0577 -0.6845 -0.6314
  238MPD1    H2 3616   1.324   3.635  15.720 -0.8502 -1.6023 -0.8982
  238MPD1    H3 3617   1.475   3.455  15.712  3.0010 -0.3440 -1.7575
  238MPD1     N 3618   1.461   3.420  15.265  0.3240  0.6303 -0.5744
  238MPD1    H5 3619   1.491   3.323  15.275 -0.8623 -0.0905 -3.8939
  238MPD1    N1 3620   1.209   3.761  15.509  0.2257  0.4281  0.1963
  238MPD1    H6 3621   1.206   3.814  15.422 -0.4541 -1.7401 -1.0808
  238MPD1    H7 3622   1.220   3.827  15.585 -4.6966  1.1765  0.2402
  239MPD1     C 3623   1.828   3.667  14.886 -0.4838  0.6200  0.2151
  239MPD1    C1 3624   1.947   3.689  14.822 -0.0201  0.3649 -0.4932
  239MPD1    C2 3625   1.955   3.795  14.730  0.4424 -0.9547 -0.9696
  239MPD1    C3 3626   1.847   3.878  14.707  0.4830 -0.9174 -0.9347
  239MPD1    C4 3627   1.731   3.854  14.772  0.3257  0.8221  0.2423
  239MPD1    C5 3628   1.723   3.754  14.870 -0.0317  0.7213  0.5563
  239MPD1     H 3629   2.041   3.803  14.665  0.9068  1.1347 -0.0883
  239MPD1    H1 3630   1.648   3.925  14.774  2.1364  2.9590 -0.1128
  239MPD1    H2 3631   1.815   3.589  14.961  1.5231 -1.6731 -1.8205
  239MPD1    H3 3632   1.636   3.734  14.931 -1.0472 -2.0308 -1.8285
  239MPD1     N 3633   1.846   3.993  14.617 -0.2204  0.3209  0.5611
  239MPD1    H5 3634   1.758   4.040  14.598 -2.0165 -3.1147  0.3236
  239MPD1    N1 3635   2.046   3.591  14.836 -0.0034  0.1104 -0.3719
  239MPD1    H6 3636   2.133   3.633  14.805  0.2797 -0.1634  0.0600
  239MPD1    H7 3637   2.058   3.557  14.931 -2.7933  0.1981  0.0374
  240MPD1     C 3638   1.423   3.690  13.679 -0.1565 -0.5591 -0.2399
  240MPD1    C1 3639   1.300   3.624  13.680 -0.3174  0.2913 -0.6121
  240MPD1    C2 3640   1.243   3.574  13.800 -0.4926 -0.5765 -0.7990
  240MPD1    C3 3641   1.292   3.619  13.919 -0.1363 -0.5537 -0.0668
  240MPD1    C4 3642   1.410   3.687  13.918  1.2509 -0.1047 -0.1051
  240MPD1    C5 3643   1.477   3.716  13.800 -0.2041  0.1952  0.2970
  240MPD1     H 3644   1.150   3.519  13.809  0.4040 -2.1167 -1.0745
  240MPD1    H1 3645   1.458   3.718  14.010  0.6137  1.3433 -0.2718
  240MPD1    H2 3646   1.487   3.711  13.593 -0.4579 -1.6823 -0.7418
  240MPD1    H3 3647   1.582   3.743  13.806 -0.4340  1.3141 -0.8045
  240MPD1     N 3648   1.228   3.594  14.046  0.3685 -0.4112 -0.5381
  240MPD1    H5 3649   1.142   3.541  14.033 -0.0167  0.5057 -1.7016
  240MPD1    N1 3650   1.251   3.566  13.558  0.0548  0.2459 -0.0785
  240MPD1    H6 3651   1.277   3.615  13.473 -0.3854 -1.8729 -1.4365
  240MPD1    H7 3652   1.149   3.568  13.564  0.1564 -2.4630  2.7165
  241MPD1     C 3653   1.017   3.441  15.114 -0.5337  0.0585  0.3298
  241MPD1    C1 3654   1.093   3.552  15.069 -0.1708  0.5577 -0.0838
  241MPD1    C2 3655   1.124   3.570  14.935 -0.2264 -0.0724  0.4586
  241MPD1    C3 3656   1.101   3.452  14.855 -0.1755 -0.4832 -0.0219
  241MPD1    C4 3657   1.043   3.342  14.902  0.1064  0.6397  0.3880
  241MPD1    C5 3658   0.987   3.344  15.027 -0.3896  0.5890 -0.0291
  241MPD1     H 3659   1.152   3.664  14.888 -0.0897 -1.3255 -1.9707
  241MPD1    H1 3660   1.034   3.255  14.837  0.8318  0.6925  0.2111
  241MPD1    H2 3661   0.976   3.445  15.214 -0.4573 -0.3052  0.3771
  241MPD1    H3 3662   0.934   3.254  15.055  1.1372 -0.0317  0.8656
  241MPD1     N 3663   1.129   3.458  14.716  0.5568 -0.5249 -0.1696
  241MPD1    H5 3664   1.100   3.377  14.662  0.8278 -0.6806 -0.0790
  241MPD1    N1 3665   1.089   3.660  15.162 -0.1620  0.2329 -0.2972
  241MPD1    H6 3666   1.090   3.622  15.256 -2.3373 -1.2636 -0.8689
  241MPD1    H7 3667   1.174   3.716  15.160  0.5998 -0.9160  0.0640
  242MPD1     C 3668   1.082   1.953  16.007  0.0467 -0.5001 -0.0184
  242MPD1    C1 3669   0.961   1.972  15.941 -0.4081  0.9362 -0.2848
  242MPD1    C2 3670   0.954   1.934  15.806 -0.0363  0.1788 -0.0426
  242MPD1    C3 3671   1.057   1.867  15.747 -0.9012 -0.6517 -0.1972
  242MPD1    C4 3672   1.175   1.852  15.819 -0.5417  0.2602 -0.6321
  242MPD1    C5 3673   1.193   1.910  15.947 -0.0567 -0.6220 -0.4790
  242MPD1     H 3674   0.857   1.944  15.758  0.0505  3.1531  0.3834
  242MPD1    H1 3675   1.260   1.801  15.775  1.5029  2.4393  0.7846
  242MPD1    H2 3676   1.098   1.982  16.111  0.5217  0.0091 -0.2327
  242MPD1    H3 3677   1.286   1.904  16.002 -0.1422 -0.1288 -0.2846
  242MPD1     N 3678   1.045   1.799  15.627  0.0793 -0.6018  0.0416
  242MPD1    H5 3679   1.122   1.736  15.605 -0.3839 -1.0918 -0.1782
  242MPD1    N1 3680   0.849   2.015  16.012 -0.3093  0.2589 -0.1686
  242MPD1    H6 3681   0.793   2.085  15.965 -2.1717 -0.8408  0.4259
  242MPD1    H7 3682   0.878   2.056  16.101 -1.9159 -1.0492  0.9474
  243MPD1     C 3683   3.520   0.854  16.463 -0.0097 -0.3709  0.1348
  243MPD1    C1 3684   3.460   0.781  16.363  0.3655 -0.9067 -0.3395
  243MPD1    C2 3685   3.335   0.716  16.401 -0.3541  0.4311 -0.3809
  243MPD1    C3 3686   3.288   0.716  16.524  0.3346  0.0858 -0.2100
  243MPD1    C4 3687   3.358   0.785  16.625  0.3411 -0.3004 -0.2755
  243MPD1    C5 3688   3.471   0.851  16.590  0.6772  0.5412  0.1754
  243MPD1     H 3689   3.276   0.667  16.325 -2.9512  1.9446  0.6620
  243MPD1    H1 3690   3.317   0.789  16.725  0.6863  3.3497 -0.2473
  243MPD1    H2 3691   3.603   0.920  16.445  3.8971 -4.5383  2.9436
  243MPD1    H3 3692   3.508   0.924  16.662 -0.9940  1.1058  0.4561
  243MPD1     N 3693   3.161   0.648  16.547 -0.8364  0.4653 -0.2152
  243MPD1    H5 3694   3.112   0.630  16.460 -0.6452 -3.0639  0.4366
  243MPD1    N1 3695   3.506   0.784  16.230  0.3617  0.1534 -0.8580
  243MPD1    H6 3696   3.604   0.806  16.216  0.4205  0.6987  0.4454
  243MPD1    H7 3697   3.503   0.687  16.199  1.7460 -0.4701  0.9525
  244MPD1     C 3698   2.738   0.170  17.351  0.3253  0.2495  0.2477
  244MPD1    C1 3699   2.868   0.166  17.299  0.4772  0.3924 -0.1832
  244MPD1    C2 3700   2.889   0.240  17.185  0.2489 -0.0757  0.1998
  244MPD1    C3 3701   2.788   0.296  17.106 -0.9481  0.1993 -0.9540
  244MPD1    C4 3702   2.661   0.299  17.154 -0.5276 -0.0383 -0.2170
  244MPD1    C5 3703   2.642   0.239  17.276 -0.0874 -0.1207 -0.2631
  244MPD1     H 3704   2.989   0.268  17.152  0.2764  0.0603  0.3986
  244MPD1    H1 3705   2.579   0.344  17.098  0.5431  1.3185 -0.7018
  244MPD1    H2 3706   2.710   0.131  17.449  1.2477  0.3855  0.5611
  244MPD1    H3 3707   2.540   0.257  17.307  0.1143  0.4260  0.0865
  244MPD1     N 3708   2.823   0.345  16.974  0.2892 -0.0557 -0.6957
  244MPD1    H5 3709   2.917   0.334  16.939  0.8751 -0.0349  0.8681
  244MPD1    N1 3710   2.976   0.124  17.376  0.3870 -0.2324  0.4696
  244MPD1    H6 3711   3.063   0.105  17.326 -0.6632  0.5552 -1.6706
  244MPD1    H7 3712   2.938   0.040  17.420 -0.3338 -0.0338  0.2271
  245MPD1     C 3713   4.715   1.050  13.013  0.2659 -0.2787  0.3765
  245MPD1    C1 3714   4.617   1.106  13.096 -0.4517 -0.6213  0.4545
  245MPD1    C2 3715   4.660   1.211  13.170  0.1576  0.2180 -0.3612
  245MPD1    C3 3716   0.060   1.267  13.168  0.5388  0.0599  0.0956
  245MPD1    C4 3717   0.150   1.217  13.083 -0.5047  0.3878  0.4128
  245MPD1    C5 3718   0.117   1.105  13.012  0.2356 -0.4001 -0.7758
  245MPD1     H 3719   4.592   1.258  13.240  0.3506  2.0198 -1.3939
  245MPD1    H1 3720   0.254   1.246  13.075 -0.7258  0.3822 -2.3761
  245MPD1    H2 3721   4.692   0.964  12.951  1.5262  0.6416 -1.3650
  245MPD1    H3 3722   0.193   1.062  12.947  0.7566  1.9934 -1.7338
  245MPD1     N 3723   0.088   1.389  13.240  0.0528  0.9643  0.1670
  245MPD1    H5 3724   0.008   1.432  13.285  0.7596 -0.1420  2.5087
  245MPD1    N1 3725   4.478   1.079  13.081 -0.0325  0.4139  0.0871
  245MPD1    H6 3726   4.433   1.102  13.168  0.6705  1.0595  0.2829
  245MPD1    H7 3727   4.456   0.980  13.074  2.3356  0.0031 -1.6071
  246MPD1     C 3728   2.052   2.811   9.651 -0.5784  0.0262  0.8482
  246MPD1    C1 3729   1.914   2.803   9.667  0.7661 -0.0844  0.0051
  246MPD1    C2 3730   1.841   2.748   9.564  0.0795 -0.2699 -0.7364
  246MPD1    C3 3731   1.905   2.686   9.460  0.5257  0.2564  1.1532
  246MPD1    C4 3732   2.043   2.676   9.460  0.1863 -0.0546 -0.1185
  246MPD1    C5 3733   2.120   2.742   9.549 -0.4784  0.3623 -1.3585
  246MPD1     H 3734   1.733   2.736   9.573  0.1879 -2.4862 -2.5388
  246MPD1    H1 3735   2.105   2.632   9.383 -0.3489  0.2032 -0.6988
  246MPD1    H2 3736   2.116   2.854   9.728 -2.2637  1.9254  1.1880
  246MPD1    H3 3737   2.226   2.726   9.558 -1.0404 -2.6311 -0.2748
  246MPD1     N 3738   1.820   2.628   9.367 -0.1323 -0.3921  0.1712
  246MPD1    H5 3739   1.720   2.631   9.382 -0.3486  0.7080 -1.5913
  246MPD1    N1 3740   1.847   2.884   9.764 -0.6091 -0.1975 -0.2945
  246MPD1    H6 3741   1.755   2.840   9.769  0.1858 -1.9006 -0.4984
  246MPD1    H7 3742   1.890   2.876   9.856 -0.2993 -0.5529 -0.4679
  247MPD1     C 3743   4.171   1.988  16.577  0.0524  0.5472 -0.4551
  247MPD1    C1 3744   4.118   1.907  16.675  0.4607  0.5077 -0.2044
  247MPD1    C2 3745   4.075   1.776  16.641 -0.8210  0.3221  0.4274
  247MPD1    C3 3746   4.095   1.732  16.507  0.1033 -0.1550  0.1812
  247MPD1    C4 3747   4.166   1.814  16.418  0.0373 -0.6196 -0.1701
  247MPD1    C5 3748   4.201   1.945  16.453 -0.4367 -0.0585 -0.5757
  247MPD1     H 3749   4.025   1.709  16.711  0.2011 -2.3065 -1.3602
  247MPD1    H1 3750   4.178   1.789  16.314  1.8694 -2.8042  0.5575
  247MPD1    H2 3751   4.190   2.091  16.606  2.9077 -0.2960  0.6707
  247MPD1    H3 3752   4.230   2.003  16.366 -1.6665 -0.1649 -1.0614
  247MPD1     N 3753   4.063   1.605  16.453  0.3510  0.2561 -1.1311
  247MPD1    H5 3754   4.109   1.570  16.370 -0.7892 -1.0775 -1.1987
  247MPD1    N1 3755   4.118   1.957  16.806 -0.3230  0.1653 -0.2839
  247MPD1    H6 3756   4.109   2.058  16.816 -2.5284 -0.1593  1.1030
  247MPD1    H7 3757   4.056   1.912  16.874 -0.0500 -0.0584 -0.1819
  248MPD1     C 3758   0.094   1.301  17.508 -0.4568 -0.3758 -0.2068
  248MPD1    C1 3759   0.121   1.416  17.578  0.1985 -0.0589 -0.1620
  248MPD1    C2 3760   0.018   1.501  17.617  0.2467  0.3172  0.7389
  248MPD1    C3 3761   4.613   1.467  17.587 -0.4093  0.5086  0.5575
  248MPD1    C4 3762   4.586   1.346  17.522 -0.4239  0.0466  0.0984
  248MPD1    C5 3763   4.685   1.271  17.480  0.2093 -0.5479 -0.4226
  248MPD1     H 3764   0.023   1.598  17.665  0.2987  1.7418 -2.1013
  248MPD1    H1 3765   4.484   1.315  17.502 -0.6757 -0.4417  2.1968
  248MPD1    H2 3766   0.170   1.231  17.475 -0.3210  0.3729 -1.4836
  248MPD1    H3 3767   4.660   1.180  17.428 -2.0457 -0.4114  0.4203
  248MPD1     N 3768   4.510   1.553  17.641 -0.3143  0.3652  0.0072
  248MPD1    H5 3769   4.540   1.630  17.700 -0.1108 -0.2270  0.6801
  248MPD1    N1 3770   0.251   1.432  17.634  0.0079  0.1148  0.4450
  248MPD1    H6 3771   0.330   1.399  17.579 -1.7198  0.0376 -2.0028
  248MPD1    H7 3772   0.268   1.530  17.653 -1.2231 -0.0328  2.2494
  249MPD1     C 3773   1.583   3.407   9.714  0.5538  0.4692 -0.2443
  249MPD1    C1 3774   1.666   3.371   9.823  0.1998 -0.1778 -0.1287
  249MPD1    C2 3775   1.754   3.466   9.872 -0.0906  0.0679 -0.0754
  249MPD1    C3 3776   1.753   3.593   9.834 -0.4145 -0.0722  0.2522
  249MPD1    C4 3777   1.668   3.633   9.733 -0.4598  0.5982  0.0191
  249MPD1    C5 3778   1.588   3.537   9.669  0.3698 -0.6006 -0.1585
  249MPD1     H 3779   1.826   3.435   9.947 -1.0436  0.3561  0.9635
  249MPD1    H1 3780   1.668   3.730   9.686 -0.0045 -0.5908 -2.4492
  249MPD1    H2 3781   1.529   3.325   9.668  0.6917  0.7354 -0.8829
  249MPD1    H3 3782   1.531   3.572   9.584 -3.7533 -1.4620  2.2540
  249MPD1     N 3783   1.850   3.686   9.886 -0.4402 -0.0656  1.0091
  249MPD1    H5 3784   1.904   3.659   9.967  2.1395  1.1763 -0.3111
  249MPD1    N1 3785   1.683   3.239   9.868 -0.3134  0.0764 -0.1438
  249MPD1    H6 3786   1.603   3.179   9.849  0.0327  0.5143 -3.0590
  249MPD1    H7 3787   1.686   3.226   9.969 -1.0181  0.9050 -0.0168
  250MPD2     C 3788   2.300   0.416  13.068  0.2670  0.4059 -0.3929
  250MPD2    C1 3789   2.405   0.329  13.087 -0.3493 -0.1775 -0.1825
  250MPD2    C2 3790   2.390   0.194  13.077 -0.1396  0.5508  0.3216
  250MPD2    C3 3791   2.287   0.139  13.010  0.2504 -0.8471  1.0728
  250MPD2    C4 3792   2.186   0.228  12.976  0.0917 -0.4037  0.0855
  250MPD2    C5 3793   2.193   0.361  13.009  0.1912  0.6195  0.3653
  250MPD2     H 3794   2.477   0.138  13.109 -0.3888  0.6963  1.2546
  250MPD2    H1 3795   2.102   0.200  12.913 -0.6663  1.1402  0.4064
  250MPD2    H2 3796   2.308   0.524  13.073 -3.3399  0.7122 -1.1760
  250MPD2    H3 3797   2.111   0.421  12.973 -0.8979 -0.4331  1.0805
  250MPD2     N 3798   2.273   0.003  12.984 -0.8235 -0.1984 -0.3802
  250MPD2    H5 3799   2.203   4.695  12.920  0.5166 -2.8275 -0.5052
  250MPD2    N1 3800   2.523   0.370  13.154  0.6520  0.2799 -0.2044
  250MPD2    H7 3801   2.590   0.295  13.173 -0.2144 -0.4177  0.1052
  251TMC3    C1 3802   2.708   0.506  13.206 -0.1392  0.0797 -0.5778
  251TMC3    C2 3803   2.737   0.618  13.286  0.0381 -0.5180 -0.0576
  251TMC3    C3 3804   2.865   0.637  13.322  0.4020  0.8225 -0.0999
  251TMC3    C4 3805   2.797   0.411  13.162 -0.0683 -0.7608  0.0266
  251TMC3    C5 3806   2.921   0.432  13.207 -0.3108 -0.1178  1.1770
  251TMC3    C6 3807   2.956   0.545  13.282 -0.2919 -0.3165 -0.3670
  251TMC3     C 3808   2.563   0.500  13.169 -0.5599  0.1228 -0.4292
  251TMC3     O 3809   2.489   0.600  13.167 -0.5845 -0.1979  0.2766
  251TMC3     H 3810   2.649   0.666  13.327 -1.1189 -1.6793 -1.1739
  251TMC3    H1 3811   2.771   0.337  13.087 -1.4428  1.8697 -2.0743
  251TMC3    H2 3812   3.059   0.569  13.308  0.1553 -2.0242 -0.5232
  251TMC3    C7 3813   3.030   0.334  13.184  0.4363  0.3646  0.4612
  251TMC3    C8 3814   2.896   0.749  13.404 -0.6385  0.0830 -0.2221
  251TMC3    O1 3815   3.147   0.373  13.188 -0.0022 -0.2115 -0.2226
  251TMC3    O2 3816   2.821   0.845  13.404 -0.0794 -0.8984 -0.1692
  252TMC3    C1 3817   3.186   0.084   9.164 -0.2614 -0.6220  0.4849
  252TMC3    C2 3818   3.211   0.212   9.138  0.5775 -0.3510 -0.0648
  252TMC3    C3 3819   3.259   0.289   9.240  0.3508  0.2480  0.6410
  252TMC3    C4 3820   3.221   0.027   9.287  0.2993 -0.0845 -0.1947
  252TMC3    C5 3821   3.270   0.114   9.380 -0.1083  0.3293  1.1415
  252TMC3    C6 3822   3.285   0.245   9.362  0.0569  0.6020  0.0189
  252TMC3     C 3823   3.135   4.723   9.063  0.1176 -0.0701  0.0684
  252TMC3     O 3824   3.120   0.046   8.952  0.5822 -0.1063  0.2441
  252TMC3     H 3825   3.214   0.240   9.033  0.8506 -1.3637 -0.3329
  252TMC3    H1 3826   3.235   4.647   9.311  0.7175 -0.8350 -3.6960
  252TMC3    H2 3827   3.330   0.304   9.441  0.4303 -1.9726  1.7401
  252TMC3    C7 3828   3.318   0.065   9.510 -0.2698  0.4059 -0.3660
  252TMC3    C8 3829   3.327   0.407   9.194 -0.7682 -0.5299 -0.1847
  252TMC3    O1 3830   3.404   0.131   9.564  0.4389 -0.5076 -0.7009
  252TMC3    O2 3831   3.276   0.461   9.095 -0.1581  0.0681  0.4527
  253MPD2     C 3832   4.352   4.573  15.101 -1.0886  0.4772  0.0360
  253MPD2    C1 3833   4.217   4.567  15.107  0.1791  0.7233  0.0404
  253MPD2    C2 3834   4.159   4.527  15.231 -0.5126 -0.2746 -0.2473
  253MPD2    C3 3835   4.234   4.512  15.348  0.3887  0.1118  0.1645
  253MPD2    C4 3836   4.373   4.513  15.344 -0.3600  0.0878  0.2853
  253MPD2    C5 3837   4.427   4.547  15.216 -0.2355 -0.7239 -0.0023
  253MPD2     H 3838   4.052   4.529  15.244 -0.6357 -2.0146 -1.0064
  253MPD2    H1 3839   4.441   4.486  15.424  1.3730  2.1627 -0.4626
  253MPD2    H2 3840   4.404   4.595  15.009 -1.1223 -1.2818 -0.4080
  253MPD2    H3 3841   4.534   4.541  15.201  0.1760  2.3724  1.5902
  253MPD2     N 3842   4.175   4.486  15.476  0.7311 -0.2709  1.0084
  253MPD2    H5 3843   4.246   4.486  15.549 -1.1944 -2.0567  2.8868
  253MPD2    N1 3844   4.142   4.594  14.996 -0.4761  0.2878 -0.3043
  253MPD2    H7 3845   4.046   4.559  14.994 -1.0523  1.9770 -2.2877
  254TMC3    C1 3846   4.009   4.396  15.624  0.2957  0.0642 -0.4003
  254TMC3    C2 3847   3.877   4.384  15.653 -0.1487 -0.4532 -0.3217
  254TMC3    C3 3848   3.832   4.356  15.779  0.3031 -0.0320 -0.2268
  254TMC3    C4 3849   4.103   4.388  15.727 -0.0838 -0.3069  0.5900
  254TMC3    C5 3850   4.049   4.349  15.848 -0.1089  0.0659 -0.2915
  254TMC3    C6 3851   3.918   4.312  15.871 -0.5379 -0.3712  0.0296
  254TMC3     C 3852   4.041   4.473  15.505  0.0486 -0.3690  0.0596
  254TMC3     O 3853   3.949   4.501  15.425 -0.2355  0.2505  0.7136
  254TMC3     H 3854   3.806   4.396  15.572  0.5638  0.9558 -0.7482
  254TMC3    H1 3855   4.210   4.375  15.714 -0.1187  0.5712 -0.6105
  254TMC3    H2 3856   3.876   4.276  15.964  0.1419 -1.2158  0.0052
  254TMC3    C7 3857   4.133   4.340  15.962  0.0369  0.2102 -0.0395
  254TMC3    C8 3858   3.699   4.392  15.822  0.1089  0.0765 -0.0253
  254TMC3    O1 3859   4.073   4.291  16.059  0.5589  0.4796  0.1053
  254TMC3    O2 3860   3.648   4.333  15.916  0.0212 -0.1047 -0.7700
  255MPD2     C 3861   2.652   1.455  10.636 -0.3456 -0.0241 -0.2300
  255MPD2    C1 3862   2.773   1.510  10.636  0.4569  0.0072 -0.0667
  255MPD2    C2 3863   2.881   1.448  10.573 -0.4398 -0.6562 -0.0378
  255MPD2    C3 3864   2.853   1.334  10.504  0.1705 -0.3143 -0.7258
  255MPD2    C4 3865   2.731   1.274  10.506 -0.3928 -0.2377  0.0870
  255MPD2    C5 3866   2.630   1.333  10.579  0.5024 -0.1125 -0.0222
  255MPD2     H 3867   2.972   1.503  10.552 -0.0756 -1.4767 -0.5744
  255MPD2    H1 3868   2.700   1.179  10.462  0.3774  0.4174 -1.8788
  255MPD2    H2 3869   2.565   1.493  10.689 -0.2338  0.3396 -0.3060
  255MPD2    H3 3870   2.539   1.275  10.589  0.7817  0.0361  3.3883
  255MPD2     N 3871   2.955   1.284  10.414 -0.0835 -0.4525  0.3268
  255MPD2    H5 3872   3.039   1.341  10.424 -0.3914  0.4124 -2.0624
  255MPD2    N1 3873   2.787   1.643  10.693  0.9736 -0.7663  0.7759
  255MPD2    H7 3874   2.701   1.697  10.699 -0.0212 -2.1839 -0.5227
  256TMC3    C1 3875   2.913   1.849  10.713  0.3591  0.7024 -0.7998
  256TMC3    C2 3876   3.026   1.916  10.672 -0.1469  0.3387  0.1147
  256TMC3    C3 3877   3.032   2.051  10.649  0.0497  0.0020 -0.5175
  256TMC3    C4 3878   2.797   1.929  10.730  0.0328  0.1810 -0.6811
  256TMC3    C5 3879   2.803   2.066  10.719  0.3526 -0.0401  0.3537
  256TMC3    C6 3880   2.922   2.119  10.675  0.0508 -0.5501 -0.6012
  256TMC3     C 3881   2.913   1.700  10.705  0.0384 -0.0946 -0.4167
  256TMC3     O 3882   3.025   1.652  10.700  0.5255 -0.3635 -0.5714
  256TMC3     H 3883   3.118   1.861  10.655  0.3100  0.8059  1.1064
  256TMC3    H1 3884   2.703   1.893  10.770 -1.6154  2.3769 -2.5618
  256TMC3    H2 3885   2.918   2.222  10.642 -0.7388  0.0595  1.3747
  256TMC3    C7 3886   2.681   2.128  10.688 -0.4228  1.1510  0.8829
  256TMC3    C8 3887   3.062   2.067  10.509  0.7728  0.7897 -0.0333
  256TMC3    O1 3888   2.584   2.060  10.657  0.0227  0.3931  0.0041
  256TMC3    O2 3889   3.086   1.965  10.446 -0.1566  0.6012  0.3671
  257MPD2     C 3890   1.442   4.657  12.982 -0.1384 -0.2954  0.3209
  257MPD2    C1 3891   1.500   4.558  12.911 -0.0031  0.2217  0.3641
  257MPD2    C2 3892   1.553   4.454  12.985 -0.2747  0.1175  0.1965
  257MPD2    C3 3893   1.539   4.440  13.121  0.3065  0.1256  0.9216
  257MPD2    C4 3894   1.470   4.543  13.185  0.4712 -0.4869 -0.6001
  257MPD2    C5 3895   1.411   4.642  13.111 -0.0102 -0.0017  1.0812
  257MPD2     H 3896   1.615   4.379  12.937 -1.2596 -0.7922  0.3583
  257MPD2    H1 3897   1.438   4.544  13.288 -1.7702  1.1943 -1.3045
  257MPD2    H2 3898   1.418   0.027  12.934 -0.6021 -0.2312  0.6857
  257MPD2    H3 3899   1.349   4.713  13.164 -2.4317 -0.0114 -1.7096
  257MPD2     N 3900   1.600   4.322  13.178  0.3565 -0.5716  0.6788
  257MPD2    H5 3901   1.648   4.262  13.111 -0.0923 -1.8219  1.4719
  257MPD2    N1 3902   1.519   4.578  12.777 -0.1465  0.7340  0.5937
  257MPD2    H7 3903   1.501   4.667  12.733  0.8821  0.3106 -0.7041
  258TMC3    C1 3904   1.681   4.180  13.352  0.0540 -0.2977  0.2532
  258TMC3    C2 3905   1.783   4.136  13.268 -0.4048  0.9889  0.4393
  258TMC3    C3 3906   1.876   4.055  13.326  0.0479  0.3875  1.0177
  258TMC3    C4 3907   1.684   4.149  13.488  0.2875 -0.1190  0.3353
  258TMC3    C5 3908   1.783   4.078  13.540  0.1313  0.3562  0.4229
  258TMC3    C6 3909   1.883   4.022  13.460 -0.0247  0.2757  0.6952
  258TMC3     C 3910   1.591   4.282  13.311 -0.1528  0.4840 -0.5647
  258TMC3     O 3911   1.523   4.332  13.397  0.8144 -0.2318 -0.5628
  258TMC3     H 3912   1.775   4.149  13.160 -2.5031  1.8524  0.6948
  258TMC3    H1 3913   1.602   4.196  13.541 -0.1077 -0.1688 -0.2347
  258TMC3    H2 3914   1.976   3.980  13.497  0.3924  0.2792 -0.3573
  258TMC3    C7 3915   1.753   4.040  13.677 -0.6697  0.0617  0.4041
  258TMC3    C8 3916   1.995   4.036  13.246 -0.3649 -0.1847 -0.8899
  258TMC3    O1 3917   1.641   4.064  13.720 -0.3494 -0.3507  0.1556
  258TMC3    O2 3918   2.099   4.087  13.282 -0.1184  0.7059  0.1392
  259MPD2     C 3919   0.663   2.081   0.553  0.3707  0.6540 -0.3933
  259MPD2    C1 3920   0.624   1.948   0.555  1.1738  0.4437 -0.9834
  259MPD2    C2 3921   0.635   1.865   0.450  0.2842 -0.4606  0.6191
  259MPD2    C3 3922   0.688   1.920   0.335  0.3648 -0.1286 -0.5806
  259MPD2    C4 3923   0.729   2.055   0.330  0.3681  0.3416  0.3844
  259MPD2    C5 3924   0.722   2.130   0.443  0.2524 -0.8799  0.4355
  259MPD2     H 3925   0.615   1.758   0.451  0.1186 -0.4524 -1.2025
  259MPD2    H1 3926   0.772   2.104   0.244  1.0078 -2.4282 -0.8827
  259MPD2    H2 3927   0.650   2.141   0.643 -0.5118  0.5928 -0.4765
  259MPD2    H3 3928   0.748   2.235   0.433  0.6632 -1.0817 -0.6131
  259MPD2     N 3929   0.723   1.828   0.238  0.2467 -0.2877 -0.3401
  259MPD2    H5 3930   0.700   1.733   0.267  0.7088  0.0587  1.1831
  259MPD2    N1 3931   0.561   1.905   0.676  0.5753 -0.2152  0.0732
  259MPD2    H7 3932   0.577   1.967   0.755  0.3479  0.7672 -0.6586
  260TMC3    C1 3933   0.832   1.731   0.054  0.5003  0.0434 -0.1730
  260TMC3    C2 3934   0.960   1.713   0.014 -0.5735  0.4055  0.7080
  260TMC3    C3 3935   0.994   1.588  17.671  0.3706 -0.2504 -0.1242
  260TMC3    C4 3936   0.731   1.646   0.035 -0.2281  0.2823  0.2421
  260TMC3    C5 3937   0.763   1.524  17.680 -0.0169 -0.0274  0.2741
  260TMC3    C6 3938   0.896   1.497  17.645  0.4482 -0.5019  0.1866
  260TMC3     C 3939   0.806   1.857   0.126  0.2265 -0.1435  0.6134
  260TMC3     O 3940   0.872   1.957   0.105 -0.0446 -0.2165 -0.3299
  260TMC3     H 3941   1.036   1.781   0.051 -0.2743 -0.2318  1.2694
  260TMC3    H1 3942   0.630   1.679   0.058 -0.6988 -1.4684  0.6522
  260TMC3    H2 3943   0.918   1.396  17.614 -1.4298 -0.2189 -2.0528
  260TMC3    C7 3944   0.687   1.405   0.014  0.3063 -0.3145 -0.6547
  260TMC3    C8 3945   1.133   1.548  17.685 -0.0713 -0.8774 -0.0942
  260TMC3    O1 3946   0.739   1.298  17.701 -0.4672 -0.4436  0.1192
  260TMC3    O2 3947   1.202   1.647   0.001 -0.2226 -0.8220  0.0196
  261MPD2     C 3948   2.055   4.388  12.409 -0.4605  0.5375 -0.3394
  261MPD2    C1 3949   2.119   4.490  12.468 -0.1860  0.2715  0.0392
  261MPD2    C2 3950   2.123   4.612  12.398 -0.1261  0.2395  0.1822
  261MPD2    C3 3951   2.047   4.634  12.287 -0.8356  0.0525 -0.4519
  261MPD2    C4 3952   1.970   4.528  12.240 -0.2898  0.2521 -0.1991
  261MPD2    C5 3953   1.970   4.408  12.304 -0.3332 -0.5073  0.0493
  261MPD2     H 3954   2.181   4.695  12.436 -0.0708 -0.1395  0.9288
  261MPD2    H1 3955   1.916   4.531  12.146  0.6727  1.0033 -0.7292
  261MPD2    H2 3956   2.055   4.288  12.449  0.1008  0.3196 -0.8655
  261MPD2    H3 3957   1.910   4.327  12.265  0.8015 -2.3129  1.9884
  261MPD2     N 3958   2.069   0.029  12.216 -0.7356 -0.1837 -0.2915
  261MPD2    H5 3959   2.125   0.096  12.268 -0.6327 -1.4924  1.2990
  261MPD2    N1 3960   2.191   4.474  12.588  0.1467 -0.0961 -0.1758
  261MPD2    H7 3961   2.238   4.557  12.623 -0.3955  0.0464  0.2120
  262TMC3    C1 3962   2.103   0.155  12.024 -0.1841  0.2036 -0.5585
  262TMC3    C2 3963   2.051   0.201  11.909 -0.0002 -0.8764  1.1552
  262TMC3    C3 3964   2.142   0.274  11.836  0.5394  0.2241 -0.2331
  262TMC3    C4 3965   2.231   0.179  12.068 -0.7968 -0.2707  0.7669
  262TMC3    C5 3966   2.307   0.256  11.993  0.1361  0.5541  0.4897
  262TMC3    C6 3967   2.264   0.320  11.881 -0.0660  0.2186  0.9095
  262TMC3     C 3968   2.025   0.054  12.084  0.0372  0.1329  0.8335
  262TMC3     O 3969   1.940   0.005  12.012  0.1875 -0.2748  0.4316
  262TMC3     H 3970   1.948   0.189  11.876  0.5576  2.7359 -1.8432
  262TMC3    H1 3971   2.288   0.132  12.147  0.2757 -1.1716 -0.5647
  262TMC3    H2 3972   2.324   0.390  11.824  1.5548 -2.2970 -0.4752
  262TMC3    C7 3973   2.448   0.231  11.996 -0.6835  0.3089 -0.7078
  262TMC3    C8 3974   2.072   0.372  11.758  0.2732  0.1915  0.5846
  262TMC3    O1 3975   2.504   0.231  12.106 -0.7670 -0.2753 -0.5495
  262TMC3    O2 3976   2.065   0.493  11.783  0.3022  0.2818  0.1822
  263MPD2     C 3977   3.600   3.964  11.768 -0.5432 -0.7514  0.6538
  263MPD2    C1 3978   3.646   3.894  11.660  0.3677 -0.2545  0.2544
  263MPD2    C2 3979   3.656   3.956  11.539 -0.6217  0.6780  0.9044
  263MPD2    C3 3980   3.625   4.087  11.522 -0.4791 -0.0156 -0.4960
  263MPD2    C4 3981   3.558   4.147  11.624  0.6978 -0.9083 -0.3277
  263MPD2    C5 3982   3.537   4.084  11.747  0.0153  0.1471 -0.2465
  263MPD2     H 3983   3.708   3.909  11.457 -0.2502 -0.9066  2.0343
  263MPD2    H1 3984   3.520   4.248  11.615 -1.2160 -1.5981  0.0776
  263MPD2    H2 3985   3.589   3.925  11.869 -1.1586  1.0067  1.2692
  263MPD2    H3 3986   3.506   4.150  11.827  0.9034 -1.3224  1.2970
  263MPD2     N 3987   3.655   4.155  11.402  0.1771 -0.1854 -0.2778
  263MPD2    H5 3988   3.662   4.096  11.320  0.4381  0.5515 -0.7926
  263MPD2    N1 3989   3.685   3.757  11.686 -0.6456  0.2168 -0.0251
  263MPD2    H7 3990   3.664   3.717  11.777 -1.2186  0.1855 -0.1720
  264TMC3    C1 3991   3.728   4.319  11.253 -0.0512 -0.4966  0.3173
  264TMC3    C2 3992   3.741   4.452  11.235  0.2246 -0.0336 -0.1000
  264TMC3    C3 3993   3.770   4.494  11.109  0.2616 -0.0795 -0.0346
  264TMC3    C4 3994   3.774   4.230  11.158  0.2496  0.4099  0.7290
  264TMC3    C5 3995   3.802   4.276  11.038  0.0891 -0.0082 -0.1315
  264TMC3    C6 3996   3.775   4.410  11.001  0.2276  0.5582  0.4582
  264TMC3     C 3997   3.667   4.290  11.379 -0.6766 -0.4270  0.6718
  264TMC3     O 3998   3.654   4.381  11.456 -0.1350  0.2532 -0.1785
  264TMC3     H 3999   3.716   4.530  11.306  2.1468  1.2876 -0.8727
  264TMC3    H1 4000   3.774   4.123  11.170 -0.9724  0.3458  0.0697
  264TMC3    H2 4001   3.787   4.441  10.898 -1.2364  1.3170  0.5244
  264TMC3    C7 4002   3.933   4.224  10.985 -0.4303  0.3048 -0.2898
  264TMC3    C8 4003   3.880   4.591  11.100 -0.3701  0.9082 -0.0117
  264TMC3    O1 4004   3.965   4.108  10.986 -0.3375 -0.6973 -0.0764
  264TMC3    O2 4005   3.967   4.582  11.184 -0.5016 -0.3089 -0.0787
  265MPD2     C 4006   0.510   3.973  15.478  0.6129 -0.1376  0.0820
  265MPD2    C1 4007   0.507   4.089  15.400  0.0367  0.5105  0.6155
  265MPD2    C2 4008   0.573   4.093  15.278  0.3586  0.1630  0.3372
  265MPD2    C3 4009   0.629   3.983  15.226  0.4304  0.2429 -0.1665
  265MPD2    C4 4010   0.640   3.874  15.300  0.0160  0.2919 -0.1021
  265MPD2    C5 4011   0.579   3.861  15.426  0.1794  0.5790 -0.2595
  265MPD2     H 4012   0.573   4.189  15.227  3.1569  0.3704  0.7647
  265MPD2    H1 4013   0.705   3.792  15.270 -0.1475  0.6491 -1.4192
  265MPD2    H2 4014   0.480   3.972  15.582 -0.5094  2.4201 -0.2196
  265MPD2    H3 4015   0.597   3.766  15.475  0.5969  0.4961 -0.5709
  265MPD2     N 4016   0.687   3.976  15.097 -0.5580 -0.4547 -0.1367
  265MPD2    H5 4017   0.732   3.888  15.074 -1.4594 -1.5346  2.1899
  265MPD2    N1 4018   0.469   4.214  15.457  0.6104 -0.1039  0.7872
  265MPD2    H7 4019   0.497   4.300  15.412  1.3308 -0.2335  0.9861
  266TMC3    C1 4020   0.391   4.372  15.613  0.1341 -0.6027 -0.5454
  266TMC3    C2 4021   0.390   4.403  15.747 -0.0711  0.3786  0.1226
  266TMC3    C3 4022   0.380   4.537  15.782  0.4445  0.8989  0.0699
  266TMC3    C4 4023   0.350   4.452  15.517  0.7338 -0.1520  0.1791
  266TMC3    C5 4024   0.334   4.586  15.556  0.2733 -1.0454 -0.2676
  266TMC3    C6 4025   0.344   4.631  15.689  0.3461 -0.8491 -0.5676
  266TMC3     C 4026   0.420   4.235  15.585  0.0968  0.1743 -0.1252
  266TMC3     O 4027   0.368   4.156  15.662 -0.2791 -0.4011  0.4148
  266TMC3     H 4028   0.421   4.334  15.826  0.1723 -0.7683 -0.9757
  266TMC3    H1 4029   0.328   4.422  15.415 -0.1602  1.5205 -0.1233
  266TMC3    H2 4030   0.327   0.011  15.710 -0.0903 -0.3598 -3.4081
  266TMC3    C7 4031   0.321   4.688  15.450 -0.7961  0.3365  0.9064
  266TMC3    C8 4032   0.437   4.577  15.909 -0.2394 -0.1659  0.2742
  266TMC3    O1 4033   0.268   4.651  15.343  0.6139  0.0659  0.0112
  266TMC3    O2 4034   0.482   4.494  15.985 -0.1054 -0.9137 -0.1364
  267MPD2     C 4035   2.270   0.688  17.580 -0.6103 -0.0100  0.2553
  267MPD2    C1 4036   2.330   0.668  17.454 -0.2517  0.2635 -0.1059
  267MPD2    C2 4037   2.258   0.703  17.339  0.1104 -0.3016  0.3050
  267MPD2    C3 4038   2.128   0.746  17.346  0.8297  0.1593  0.2990
  267MPD2    C4 4039   2.072   0.764  17.471 -0.3838 -0.5720 -0.4092
  267MPD2    C5 4040   2.139   0.724  17.585  0.4482  0.4377  0.2435
  267MPD2     H 4041   2.312   0.703  17.245 -1.4774  0.0714 -0.6077
  267MPD2    H1 4042   1.969   0.796  17.479 -0.9468 -2.1093 -1.4477
  267MPD2    H2 4043   2.319   0.665  17.674  1.7389 -0.6881 -1.1488
  267MPD2    H3 4044   2.085   0.730  17.678  0.6223 -0.0148  0.3733
  267MPD2     N 4045   2.046   0.772  17.234  0.0660  0.7089 -0.0340
  267MPD2    H5 4046   1.956   0.815  17.251 -0.2632 -1.1812  3.1546
  267MPD2    N1 4047   2.460   0.611  17.463 -0.7137  0.6939 -0.3909
  267MPD2    H7 4048   2.505   0.605  17.554 -2.7360 -3.3814  0.3186
  268TMC3    C1 4049   2.672   0.539  17.402 -0.2742  0.1138 -1.3133
  268TMC3    C2 4050   2.785   0.570  17.327 -1.2208 -0.3144 -0.0766
  268TMC3    C3 4051   2.904   0.526  17.371  0.1457 -0.2971  0.2309
  268TMC3    C4 4052   2.681   0.466  17.515 -0.3835  0.3426  0.6434
  268TMC3    C5 4053   2.803   0.428  17.561 -0.5690  0.7786  0.8338
  268TMC3    C6 4054   2.920   0.453  17.489 -1.2028  0.0440 -0.0996
  268TMC3     C 4055   2.548   0.596  17.359 -0.2946 -0.1857 -0.2179
  268TMC3     O 4056   2.541   0.642  17.242 -0.4380  0.5883  0.6180
  268TMC3     H 4057   2.780   0.626  17.235  0.5966 -0.3643 -0.1930
  268TMC3    H1 4058   2.592   0.447  17.575  0.0209  0.2046  1.2047
  268TMC3    H2 4059   3.022   0.430  17.517 -0.5168  2.8708 -0.2145
  268TMC3    C7 4060   2.805   0.348  17.686 -0.0210  0.0367  1.2838
  268TMC3    C8 4061   3.032   0.575  17.307 -0.7991  0.5208 -0.5303
  268TMC3    O1 4062   2.711   0.363   0.059 -0.1221  0.4443  0.6490
  268TMC3    O2 4063   3.142   0.530  17.342  0.5264  0.0392 -0.7894
  269MPD2     C 4064   3.234   4.634  15.290 -0.2881  0.4601  0.6864
  269MPD2    C1 4065   3.131   4.682  15.367 -0.0904 -0.0394  0.5524
  269MPD2    C2 4066   3.106   0.094  15.360 -0.4116  0.2575 -0.3764
  269MPD2    C3 4067   3.179   0.180  15.289 -0.3942 -0.3465  0.0012
  269MPD2    C4 4068   3.282   0.129  15.215  0.6744 -0.0894  0.3467
  269MPD2    C5 4069   3.302   4.724  15.214 -0.4044  0.1705  0.2875
  269MPD2     H 4070   3.029   0.136  15.424  1.2127  3.3674 -0.4473
  269MPD2    H1 4071   3.350   0.190  15.157  1.6328 -1.9404 -0.4690
  269MPD2    H2 4072   3.249   4.528  15.273 -0.1745  0.5222  0.3936
  269MPD2    H3 4073   3.392   4.691  15.162 -0.1957 -1.6960  1.8443
  269MPD2     N 4074   3.144   0.317  15.297 -0.5213 -0.6490 -0.4762
  269MPD2    H5 4075   3.070   0.342  15.361 -2.1528 -0.2732 -2.5018
  269MPD2    N1 4076   3.051   4.585  15.440 -0.0546  0.3017 -0.0426
  269MPD2    H7 4077   3.061   4.490  15.406  0.8634 -0.5622  2.6448
  270TMC3    C1 4078   2.883   4.483  15.550  0.3117  0.1893  0.1952
  270TMC3    C2 4079   2.759   4.472  15.486 -0.3156 -0.0243 -0.1468
  270TMC3    C3 4080   2.719   4.347  15.458 -0.8063  0.2343 -0.0076
  270TMC3    C4 4081   2.949   4.381  15.611 -0.0476 -0.0501 -0.4121
  270TMC3    C5 4082   2.888   4.253  15.607 -0.0968 -0.1637 -0.0534
  270TMC3    C6 4083   2.790   4.238  15.510 -0.7780 -0.5705  0.3690
  270TMC3     C 4084   2.954   4.608  15.532 -0.0460  0.0326 -0.2077
  270TMC3     O 4085   2.891   4.713  15.550 -0.7696  1.0035 -0.1229
  270TMC3     H 4086   2.713   4.554  15.433 -0.7931 -0.1945 -0.0013
  270TMC3    H1 4087   3.043   4.399  15.663 -0.5624  1.8104 -0.1297
  270TMC3    H2 4088   2.758   4.141  15.475 -0.2542 -1.4939  2.4318
  270TMC3    C7 4089   2.958   4.139  15.677  0.3471 -0.1602 -0.9347
  270TMC3    C8 4090   2.651   4.326  15.335 -0.1709  0.0081 -0.2406
  270TMC3    O1 4091   3.078   4.149  15.700  0.4426  0.1349 -0.1501
  270TMC3    O2 4092   2.569   4.412  15.304 -0.1938 -0.1459 -0.4094
  271MPD2     C 4093   2.158   4.694  13.750 -0.2439 -0.2538 -0.0174
  271MPD2    C1 4094   2.132   4.591  13.838  0.0492  0.0555 -0.1506
  271MPD2    C2 4095   2.003   4.553  13.862  0.3724 -0.3072 -0.1660
  271MPD2    C3 4096   1.903   4.629  13.806 -0.3979 -0.5447 -0.0366
  271MPD2    C4 4097   1.925   0.020  13.737  0.2097  0.4962  0.5233
  271MPD2    C5 4098   2.052   0.045  13.703  0.2954 -0.0636  0.4239
  271MPD2     H 4099   1.988   4.471  13.932  0.7293 -1.1010 -1.0293
  271MPD2    H1 4100   1.848   0.086  13.700  0.2821 -0.5699 -1.5384
  271MPD2    H2 4101   2.260   0.003  13.740  0.0766 -1.0019  0.6871
  271MPD2    H3 4102   2.068   0.139  13.653  2.0074 -1.1355 -1.0499
  271MPD2     N 4103   1.773   4.598  13.848 -0.9609  0.3934 -0.1013
  271MPD2    H5 4104   1.696   4.655  13.817  0.0107  0.9516 -1.4928
  271MPD2    N1 4105   2.229   4.503  13.891 -0.4533 -0.1925  0.4107
  271MPD2    H7 4106   2.187   4.433  13.951  1.1085  0.2515  2.0475
  272TMC3    C1 4107   2.431   4.408  13.944  0.2197 -0.3617  0.2781
  272TMC3    C2 4108   2.562   4.375  13.913 -0.7710 -0.7869 -0.3054
  272TMC3    C3 4109   2.632   4.311  14.013  0.1550 -0.6300  0.0896
  272TMC3    C4 4110   2.379   4.375  14.068  0.1158  0.8520 -0.0262
  272TMC3    C5 4111   2.460   4.314  14.167 -0.1017  0.4763  0.4422
  272TMC3    C6 4112   2.586   4.275  14.143  0.0169 -0.3765  0.4379
  272TMC3     C 4113   2.364   4.504  13.867 -0.4296 -0.4347 -0.0761
  272TMC3     O 4114   2.432   4.581  13.796  0.8827 -0.3747  0.1509
  272TMC3     H 4115   2.605   4.402  13.816 -1.5214  1.7318  0.0579
  272TMC3    H1 4116   2.280   4.407  14.097 -0.6423 -0.7340 -0.8905
  272TMC3    H2 4117   2.651   4.239  14.221 -1.3610  0.2491  1.8738
  272TMC3    C7 4118   2.402   4.301  14.299 -0.0289  1.0138 -0.0070
  272TMC3    C8 4119   2.764   4.271  13.975 -0.3053  0.3510  0.5062
  272TMC3    O1 4120   2.281   4.307  14.304  0.0855 -0.4462 -0.2249
  272TMC3    O2 4121   2.815   4.313  13.872  0.4404  0.1990 -0.1101
  273MPD2     C 4122   4.005   2.116  11.734 -0.7178 -0.1743 -1.0068
  273MPD2    C1 4123   4.087   2.220  11.721 -0.1579 -0.4695  0.3722
  273MPD2    C2 4124   4.090   2.292  11.606 -0.0407  0.1808  0.4165
  273MPD2    C3 4125   4.015   2.258  11.497 -0.1965 -1.0615  0.0634
  273MPD2    C4 4126   3.928   2.149  11.508 -0.3812  0.1496  0.1800
  273MPD2    C5 4127   3.935   2.073  11.624  0.4804  0.4665  0.8372
  273MPD2     H 4128   4.160   2.374  11.593  1.0487 -0.6998  0.7181
  273MPD2    H1 4129   3.854   2.123  11.434 -1.7892  0.4075  1.5125
  273MPD2    H2 4130   4.004   2.060  11.826  0.2946  2.1525  0.4139
  273MPD2    H3 4131   3.873   1.986  11.643 -0.2997  0.9421  0.4706
  273MPD2     N 4132   4.007   2.326  11.372 -0.2776 -0.0969  0.0583
  273MPD2    H5 4133   3.968   2.281  11.290  0.1393  3.0470 -1.8809
  273MPD2    N1 4134   4.165   2.265  11.836  0.0588 -0.3898 -0.4533
  273MPD2    H7 4135   4.126   2.241  11.927 -0.1828 -1.9274 -0.9539
  274TMC3    C1 4136   4.027   2.509  11.213  0.9532 -0.7701 -0.0235
  274TMC3    C2 4137   3.917   2.470  11.136 -0.0122  0.1263 -1.7024
  274TMC3    C3 4138   3.876   2.556  11.038 -0.5138 -0.0384 -1.2709
  274TMC3    C4 4139   4.091   2.630  11.200 -0.2769 -0.7088 -0.1210
  274TMC3    C5 4140   4.039   2.720  11.108 -0.9328  0.3469 -0.7474
  274TMC3    C6 4141   3.933   2.687  11.028 -0.4522 -0.1678  0.0070
  274TMC3     C 4142   4.050   2.456  11.347 -0.1006 -0.3313 -0.2154
  274TMC3     O 4143   4.098   2.534  11.429 -0.0685 -0.0458 -0.8617
  274TMC3     H 4144   3.850   2.393  11.170  0.4936  0.2257 -0.4978
  274TMC3    H1 4145   4.165   2.674  11.266 -1.0348 -0.1628  0.3636
  274TMC3    H2 4146   3.896   2.768  10.965 -0.3347  1.2952  1.8195
  274TMC3    C7 4147   4.031   2.859  11.145  0.2896 -0.1530  0.0373
  274TMC3    C8 4148   3.750   2.533  10.974 -0.4385 -0.2655  0.7719
  274TMC3    O1 4149   3.925   2.888  11.189 -0.2883 -0.2654  0.1031
  274TMC3    O2 4150   3.708   2.638  10.927  0.1790 -0.2019 -0.2376
  275MPD2     C 4151   3.774   0.900  14.240  0.0152 -0.3462 -0.3452
  275MPD2    C1 4152   3.706   0.882  14.359 -0.5272 -0.2426  0.2352
  275MPD2    C2 4153   3.590   0.808  14.364  0.3947  0.0619 -0.4009
  275MPD2    C3 4154   3.543   0.742  14.249 -0.1183  0.2186 -0.0996
  275MPD2    C4 4155   3.603   0.769  14.130  0.0180 -0.5581 -0.1441
  275MPD2    C5 4156   3.719   0.847  14.125 -0.6832  0.4611 -0.2812
  275MPD2     H 4157   3.538   0.801  14.459 -0.0995 -3.9689 -0.9662
  275MPD2    H1 4158   3.553   0.741  14.038 -2.0859 -0.9909  1.1278
  275MPD2    H2 4159   3.864   0.960  14.240  0.0511 -0.3955  0.3986
  275MPD2    H3 4160   3.770   0.863  14.031 -1.2974  0.4348 -0.6222
  275MPD2     N 4161   3.423   0.669  14.253  0.3827 -0.8222 -0.2649
  275MPD2    H5 4162   3.394   0.648  14.158  0.5066 -3.9143  0.3890
  275MPD2    N1 4163   3.756   0.932  14.490 -0.0993  0.1452 -0.2268
  275MPD2    H7 4164   3.710   0.896  14.573 -2.7947  1.9782 -0.9039
  276TMC3    C1 4165   3.873   1.040  14.655 -0.4615  0.1519 -0.1907
  276TMC3    C2 4166   3.769   1.011  14.743  0.0631 -0.4638  0.3751
  276TMC3    C3 4167   3.779   1.036  14.878 -0.4321  0.1518 -0.8047
  276TMC3    C4 4168   3.991   1.094  14.700 -0.0842  0.2223 -0.3214
  276TMC3    C5 4169   3.995   1.120  14.831 -0.9802  0.2676  0.3004
  276TMC3    C6 4170   3.895   1.094  14.920 -0.5287 -0.9553 -0.5900
  276TMC3     C 4171   3.855   1.016  14.506 -0.0906 -0.0249 -0.0539
  276TMC3     O 4172   3.942   1.061  14.430  0.6945  0.4521 -0.2573
  276TMC3     H 4173   3.670   0.975  14.715 -0.8818  1.6705  0.9870
  276TMC3    H1 4174   4.064   1.128  14.627 -2.0605  2.2491 -1.3387
  276TMC3    H2 4175   3.910   1.108  15.026 -1.7880 -0.7309 -0.4324
  276TMC3    C7 4176   4.109   1.182  14.892 -0.3841  0.2838 -0.0916
  276TMC3    C8 4177   3.723   0.929  14.961 -0.4471  0.2908 -0.4751
  276TMC3    O1 4178   4.083   1.254  14.986  0.3186 -0.0541 -0.2793
  276TMC3    O2 4179   3.677   0.946  15.074 -0.2246 -0.6213  0.2109
  277MPD2     C 4180   0.976   4.277  12.976 -0.2810 -0.7153  0.3793
  277MPD2    C1 4181   0.862   4.309  13.041 -0.4404  0.2264  0.1552
  277MPD2    C2 4182   0.831   4.255  13.162 -0.0312  0.3818  0.2498
  277MPD2    C3 4183   0.918   4.161  13.215 -0.0312 -0.5311 -0.2877
  277MPD2    C4 4184   1.038   4.131  13.154 -0.0617  0.7244 -0.8539
  277MPD2    C5 4185   1.059   4.188  13.029  0.0888 -0.0277 -0.4631
  277MPD2     H 4186   0.735   4.261  13.211  0.6600 -1.9877  1.8980
  277MPD2    H1 4187   1.117   4.069  13.196 -1.0898 -0.1989 -0.2706
  277MPD2    H2 4188   0.992   4.320  12.877 -1.2337  0.4003  0.7151
  277MPD2    H3 4189   1.150   4.160  12.976  0.1850 -2.4473  0.9924
  277MPD2     N 4190   0.881   4.100  13.337  0.6879 -0.0214 -0.3669
  277MPD2    H5 4191   0.792   4.130  13.376  1.2620  0.3631  0.6359
  277MPD2    N1 4192   0.782   4.415  12.984  0.2229 -0.3067  0.2185
  277MPD2    H7 4193   0.821   4.465  12.905 -1.8515  1.7075  0.4663
  278TMC3    C1 4194   0.871   3.952  13.525 -0.2030  0.2115 -0.4424
  278TMC3    C2 4195   0.906   3.816  13.528  0.4265  0.0168 -0.9040
  278TMC3    C3 4196   0.807   3.725  13.511 -0.1589  0.3147  0.2307
  278TMC3    C4 4197   0.737   4.000  13.518  0.9003  0.2917  0.1524
  278TMC3    C5 4198   0.641   3.902  13.491  0.0056 -0.4656  0.0672
  278TMC3    C6 4199   0.676   3.765  13.479  0.0397  0.2725 -1.9931
  278TMC3     C 4200   0.944   4.005  13.409  0.6713 -0.1890  0.9026
  278TMC3     O 4201   1.045   3.941  13.385 -0.2188  0.2501  0.2690
  278TMC3     H 4202   1.011   3.789  13.530  0.3294 -0.1746  0.9024
  278TMC3    H1 4203   0.716   4.106  13.530  0.7303  0.5259 -2.2973
  278TMC3    H2 4204   0.602   3.691  13.451  1.3359 -1.8225  0.0237
  278TMC3    C7 4205   0.521   3.955  13.432 -0.2012  0.3625  0.7939
  278TMC3    C8 4206   0.868   3.602  13.451 -0.4049 -0.9125 -0.0204
  278TMC3    O1 4207   0.542   4.064  13.380  0.2907 -0.1669 -0.1760
  278TMC3    O2 4208   0.973   3.563  13.500 -0.2950  0.0128 -0.2802
  279MPD2     C 4209   3.931   4.551   0.458  0.1447 -0.1489 -0.7820
  279MPD2    C1 4210   3.883   4.670   0.416  0.0391  0.2347  0.0920
  279MPD2    C2 4211   3.928   4.725   0.298  0.0055 -0.1393  0.2569
  279MPD2    C3 4212   4.038   4.666   0.229  0.3545 -0.1652 -1.2877
  279MPD2    C4 4213   4.068   4.537   0.264  0.4956  0.0928 -0.4380
  279MPD2    C5 4214   4.026   4.486   0.381 -0.6207  0.3981 -0.8065
  279MPD2     H 4215   3.903   0.103   0.278 -1.2387 -1.1942 -3.7468
  279MPD2    H1 4216   4.145   4.484   0.208  1.4010  0.2977  0.6173
  279MPD2    H2 4217   3.899   4.498   0.547 -1.0101  1.5025 -0.2153
  279MPD2    H3 4218   4.053   4.386   0.412 -1.0923  0.0927 -1.3685
  279MPD2     N 4219   4.110   0.010   0.133  0.8161  0.5019 -0.4186
  279MPD2    H5 4220   4.200   4.692   0.113  1.4688  1.3816  0.6272
  279MPD2    N1 4221   3.801   0.021   0.509  0.0107 -0.1153 -0.1210
  279MPD2    H7 4222   3.796   4.708   0.603 -0.8425 -1.5494 -0.7562
  280TMC3    C1 4223   3.660   0.150   0.357 -0.0477 -0.2314 -0.8108
  280TMC3    C2 4224   3.628   0.042   0.278  0.4254  0.6304  0.1784
  280TMC3    C3 4225   3.553   0.056   0.162  0.4094 -0.3097 -0.5698
  280TMC3    C4 4226   3.628   0.276   0.320 -0.8472 -0.5081  0.4917
  280TMC3    C5 4227   3.555   0.284   0.204 -0.5211 -0.6218  0.0537
  280TMC3    C6 4228   3.522   0.178   0.124 -0.4315 -0.2351 -0.3117
  280TMC3     C 4229   3.736   0.140   0.489 -0.2133  0.0691  0.0531
  280TMC3     O 4230   3.712   0.222   0.578  0.0937  0.0763  0.3203
  280TMC3     H 4231   3.654   4.673   0.326  2.3009  0.5211 -1.0423
  280TMC3    H1 4232   3.663   0.360   0.378 -1.9854  0.4966 -0.2676
  280TMC3    H2 4233   3.449   0.191   0.046 -0.9905  0.6182  0.3637
  280TMC3    C7 4234   3.562   0.421   0.142 -0.0287 -0.0278  0.5372
  280TMC3    C8 4235   3.595   4.703   0.047  0.2063 -0.2263  0.8385
  280TMC3    O1 4236   3.600   0.512   0.212  0.0232  0.2028  0.1577
  280TMC3    O2 4237   3.558   0.012  17.637 -0.0141 -0.1197 -0.1218
  281TMC3    C1 4238   3.543   0.146  13.545 -0.4758 -0.3663 -0.1745
  281TMC3    C2 4239   3.554   0.149  13.408 -1.0115  0.1302  0.0266
  281TMC3    C3 4240   3.528   0.034  13.340 -0.7431  0.7402  0.1523
  281TMC3    C4 4241   3.512   0.028  13.610  0.2346 -0.2528  0.2321
  281TMC3    C5 4242   3.487   4.641  13.541  1.2065 -0.2035  0.8018
  281TMC3    C6 4243   3.504   4.632  13.406 -0.4820 -0.5395 -0.4215
  281TMC3     C 4244   3.560   0.270  13.624 -1.0157  0.6072  0.2196
  281TMC3     O 4245   3.570   0.255  13.744 -0.3491 -0.2764  0.3084
  281TMC3     H 4246   3.579   0.236  13.348  0.6098 -0.3174  0.0721
  281TMC3    H1 4247   3.503   0.026  13.718  2.0242  1.3036  0.4285
  281TMC3    H2 4248   3.474   4.540  13.356  2.8326 -1.6004 -0.4549
  281TMC3    C7 4249   3.350   4.598  13.573 -0.2545  0.5274  1.1566
  281TMC3    C8 4250   3.463   0.059  13.203 -0.0484  0.0818 -0.5252
  281TMC3    O1 4251   3.263   4.686  13.564  0.2245 -0.5207 -0.0105
  281TMC3    O2 4252   3.455   0.173  13.160  0.1221 -0.6303 -0.6323
  282MPD2     C 4253   0.709   1.339  15.205 -0.2833  0.4423  0.2196
  282MPD2    C1 4254   0.596   1.400  15.239  0.3413 -0.2081  0.7333
  282MPD2    C2 4255   0.503   1.433  15.137  0.6138  0.0708  0.2677
  282MPD2    C3 4256   0.524   1.408  15.000 -0.0437 -0.6401 -0.0241
  282MPD2    C4 4257   0.643   1.351  14.969 -0.2935  0.4534 -1.0800
  282MPD2    C5 4258   0.736   1.322  15.067  0.0237  0.3580 -0.3989
  282MPD2     H 4259   0.406   1.466  15.171  1.3210  1.7407  0.6741
  282MPD2    H1 4260   0.666   1.343  14.864  2.4044 -1.3198 -0.3830
  282MPD2    H2 4261   0.775   1.297  15.281  1.3986  0.8356 -1.0154
  282MPD2    H3 4262   0.834   1.282  15.046 -0.0227  1.6783 -3.0477
  282MPD2     N 4263   0.416   1.425  14.901 -0.1495  0.2905 -0.2882
  282MPD2    H5 4264   0.328   1.467  14.930  0.6067  1.3752  0.4299
  282MPD2    N1 4265   0.560   1.408  15.374 -0.2044 -1.1282  0.7937
  282MPD2    H7 4266   0.465   1.436  15.397  0.2772  0.0135  1.3696
  283TMC3    C1 4267   0.569   1.416  15.598  0.6325 -0.6009 -0.6752
  283TMC3    C2 4268   0.581   1.529  15.675 -0.4173  0.1200 -0.1891
  283TMC3    C3 4269   0.513   1.534  15.793 -0.3903 -0.6284  1.1409
  283TMC3    C4 4270   0.474   1.325  15.620 -0.1378  0.3464 -1.0957
  283TMC3    C5 4271   0.398   1.340  15.731 -0.1979 -0.2913  0.5058
  283TMC3    C6 4272   0.419   1.436  15.825 -0.0476  0.0472  0.0507
  283TMC3     C 4273   0.648   1.395  15.482 -0.0021 -1.2557  0.2647
  283TMC3     O 4274   0.766   1.410  15.487  0.5559  0.7688 -0.5661
  283TMC3     H 4275   0.659   1.599  15.644 -0.1881  0.5269  1.2883
  283TMC3    H1 4276   0.474   1.235  15.559 -2.1677 -0.2807 -0.1691
  283TMC3    H2 4277   0.365   1.438  15.919  1.3955  1.4182  0.8443
  283TMC3    C7 4278   0.304   1.237  15.774  0.2600 -0.0546  0.6748
  283TMC3    C8 4279   0.519   1.660  15.870  0.1210  1.1026 -0.5255
  283TMC3    O1 4280   0.284   1.223  15.896  0.2236  0.1539  0.5790
  283TMC3    O2 4281   0.484   1.660  15.988 -0.3250 -0.0924  0.4904
  284MPD2     C 4282   3.550   0.216  10.998  0.6166 -0.2874 -0.6010
  284MPD2    C1 4283   3.666   0.291  10.991  0.3543 -0.0500  0.0555
  284MPD2    C2 4284   3.750   0.271  11.100  0.3397 -0.2234  0.6116
  284MPD2    C3 4285   3.735   0.177  11.196  0.1181  1.0107  0.0522
  284MPD2    C4 4286   3.625   0.094  11.196 -0.8804 -0.3374  0.1331
  284MPD2    C5 4287   3.531   0.113  11.095  0.3052 -0.1589  0.5972
  284MPD2     H 4288   3.841   0.329  11.108 -1.5981  2.9122 -0.0319
  284MPD2    H1 4289   3.602   0.015  11.266 -0.3022  0.2646  1.0003
  284MPD2    H2 4290   3.474   0.227  10.922 -0.8051  3.2298  1.3459
  284MPD2    H3 4291   3.438   0.057  11.100 -0.9805  1.8691 -0.6694
  284MPD2     N 4292   3.838   0.164  11.291  0.2737 -0.2613 -0.2432
  284MPD2    H5 4293   3.921   0.220  11.273  0.9508 -1.2840 -0.2893
  284MPD2    N1 4294   3.697   0.395  10.898  0.8398  0.3012  0.5774
  284MPD2    H7 4295   3.763   0.462  10.936 -0.7302  1.3910  1.3617
  285TMC3    C1 4296   3.737   0.492  10.684  0.2699 -0.7156 -0.6643
  285TMC3    C2 4297   3.815   0.423  10.591  0.5243 -0.2100 -0.6320
  285TMC3    C3 4298   3.924   0.493  10.542 -0.2614 -0.0748 -0.0469
  285TMC3    C4 4299   3.749   0.619  10.715  0.9522  0.5025  0.7658
  285TMC3    C5 4300   3.852   0.689  10.644 -0.2196  0.0341 -0.0924
  285TMC3    C6 4301   3.945   0.627  10.564 -0.3801  0.2097  0.1797
  285TMC3     C 4302   3.657   0.395  10.769  0.7481  0.6806  0.3192
  285TMC3     O 4303   3.575   0.322  10.716 -0.4630  0.6078 -0.1904
  285TMC3     H 4304   3.810   0.315  10.598  2.5007 -0.1956  0.8156
  285TMC3    H1 4305   3.682   0.659  10.790 -1.6997 -3.0166  0.2406
  285TMC3    H2 4306   4.027   0.681  10.519  0.9006 -1.9683 -0.1274
  285TMC3    C7 4307   3.889   0.824  10.672 -0.5590  0.2455  0.7279
  285TMC3    C8 4308   4.058   0.430  10.534  0.0995 -0.0007 -0.9344
  285TMC3    O1 4309   4.008   0.855  10.649  0.6035  0.3211 -0.0926
  285TMC3    O2 4310   4.165   0.490  10.553 -0.0637 -0.0074 -0.5508
  286MPD2     C 4311   3.819   4.558   1.606  0.1491 -0.7683 -0.4311
  286MPD2    C1 4312   3.719   4.470   1.580 -0.4946 -0.5223  0.4561
  286MPD2    C2 4313   3.751   4.340   1.594 -0.9444  0.1137  0.9269
  286MPD2    C3 4314   3.878   4.290   1.619 -0.1348 -0.0478  0.0675
  286MPD2    C4 4315   3.982   4.380   1.623 -0.3262 -0.0593 -0.4287
  286MPD2    C5 4316   3.948   4.511   1.624 -0.0078  0.2389  0.1024
  286MPD2     H 4317   3.665   4.274   1.589  0.0728 -1.2565  1.5233
  286MPD2    H1 4318   4.087   4.353   1.623 -0.6991 -1.5356  0.1671
  286MPD2    H2 4319   3.797   4.663   1.596  0.1853 -0.5970  1.1675
  286MPD2    H3 4320   4.025   4.588   1.628 -1.2280  1.3880  1.5530
  286MPD2     N 4321   3.916   4.154   1.610 -0.3268  0.3476  0.6033
  286MPD2    H5 4322   4.015   4.139   1.598 -0.1226  1.0724  1.3937
  286MPD2    N1 4323   3.591   4.502   1.546  0.3699  0.1763  0.2371
  286MPD2    H7 4324   3.520   4.430   1.543 -0.6629  1.1379  1.6190
  287TMC3    C1 4325   3.908   3.934   1.590  0.4354 -0.0913 -0.0281
  287TMC3    C2 4326   3.870   3.849   1.488  0.1867 -0.1182  0.2056
  287TMC3    C3 4327   3.959   3.754   1.446  0.5994 -0.2171 -0.0992
  287TMC3    C4 4328   4.022   3.926   1.662  0.0937 -0.2712  0.2415
  287TMC3    C5 4329   4.106   3.829   1.621 -0.9392  0.5477 -0.0363
  287TMC3    C6 4330   4.073   3.742   1.520  0.0887  0.7405 -0.0127
  287TMC3     C 4331   3.828   4.051   1.588  0.1431 -0.4417 -0.7358
  287TMC3     O 4332   3.713   4.041   1.556 -0.3043 -0.4601 -0.4682
  287TMC3     H 4333   3.770   3.851   1.446 -0.6220 -1.7882  2.0649
  287TMC3    H1 4334   4.033   3.989   1.749 -0.7161 -1.3979  1.1532
  287TMC3    H2 4335   4.141   3.661   1.496 -1.1677 -0.2021 -0.3683
  287TMC3    C7 4336   4.228   3.816   1.703 -1.0460  0.1950  0.3131
  287TMC3    C8 4337   3.932   3.687   1.320  0.3810  0.4232  0.3425
  287TMC3    O1 4338   4.237   3.884   1.805  0.2709  0.1805  0.3659
  287TMC3    O2 4339   4.015   3.601   1.293  0.7623 -0.4506  0.4003
  288TMC3    C1 4340   0.769   3.744  14.180  0.0694 -0.3663 -0.0783
  288TMC3    C2 4341   0.715   3.814  14.277  0.9911  0.8382 -0.7421
  288TMC3    C3 4342   0.589   3.784  14.320  0.3616  0.2741  0.5165
  288TMC3    C4 4343   0.706   3.637  14.120  0.4214 -0.6790  0.8080
  288TMC3    C5 4344   0.586   3.598  14.180 -0.4306 -0.4554  0.4144
  288TMC3    C6 4345   0.524   3.682  14.265  0.2049 -0.2507  0.4054
  288TMC3     C 4346   0.889   3.791  14.111  0.5866 -0.1928  0.0068
  288TMC3     O 4347   0.943   3.707  14.039  0.1705 -0.2082 -0.3742
  288TMC3     H 4348   0.759   3.893  14.337 -0.2118  1.8236 -1.1573
  288TMC3    H1 4349   0.756   3.585  14.039 -0.4682 -1.0127  0.4725
  288TMC3    H2 4350   0.418   3.660  14.280 -0.2124 -0.5869 -2.9240
  288TMC3    C7 4351   0.511   3.518  14.088  0.8668  0.0792  0.1224
  288TMC3    C8 4352   0.556   3.831  14.448  0.2741  0.5308  0.0747
  288TMC3    O1 4353   0.401   3.550  14.057 -0.4965  0.3368  0.0565
  288TMC3    O2 4354   0.597   3.942  14.479 -0.2017 -0.9767  0.5891
  289MPD2     C 4355   0.869   3.010  14.419  0.1315 -0.1572  0.6413
  289MPD2    C1 4356   0.821   3.129  14.366  0.1307 -0.4516  0.0056
  289MPD2    C2 4357   0.698   3.141  14.317 -0.1324  0.4985 -0.2117
  289MPD2    C3 4358   0.623   3.033  14.302 -0.3052  0.1395 -0.4179
  289MPD2    C4 4359   0.663   2.914  14.352 -0.0286  1.4214 -0.5808
  289MPD2    C5 4360   0.784   2.904  14.408  0.0169  0.8315 -0.2649
  289MPD2     H 4361   0.671   3.242  14.286  1.2661  0.0934 -2.6887
  289MPD2    H1 4362   0.602   2.825  14.351  2.9404 -0.5970  0.5546
  289MPD2    H2 4363   0.962   3.002  14.473  2.2470  3.4389 -2.4325
  289MPD2    H3 4364   0.813   2.807  14.448 -2.4427 -0.0142 -0.5342
  289MPD2     N 4365   0.495   3.030  14.228 -0.3225  0.1704  0.0814
  289MPD2    H5 4366   0.449   2.941  14.213 -1.6156  1.3290 -3.1013
  289MPD2    N1 4367   0.911   3.235  14.378 -0.1033  0.3064 -0.0567
  289MPD2    H7 4368   0.994   3.220  14.434 -0.0737 -3.1158 -1.0045
  290TMC3    C1 4369   0.306   3.122  14.114  0.2103  0.8683 -0.2750
  290TMC3    C2 4370   0.235   3.236  14.077 -0.0492  0.1925 -0.0041
  290TMC3    C3 4371   0.144   3.229  13.975 -0.4678  0.4379 -0.0864
  290TMC3    C4 4372   0.278   2.997  14.064 -0.0603 -0.1204 -0.9757
  290TMC3    C5 4373   0.178   2.994  13.969 -0.2932 -0.1430  0.2414
  290TMC3    C6 4374   0.115   3.108  13.916  0.0946  0.1261  0.4445
  290TMC3     C 4375   0.422   3.146  14.196 -0.8648 -0.2400  0.7284
  290TMC3     O 4376   0.431   3.257  14.251  0.1686 -0.3948 -0.0436
  290TMC3     H 4377   0.264   3.331  14.122  0.9029  0.4927 -1.2596
  290TMC3    H1 4378   0.342   2.913  14.089 -1.4441  0.1238  3.3095
  290TMC3    H2 4379   0.031   3.094  13.849  0.2009 -0.2209  0.3862
  290TMC3    C7 4380   0.083   2.888  13.999 -0.2188 -0.3409 -0.4225
  290TMC3    C8 4381   0.074   3.354  13.942  0.4414  0.4295 -0.2722
  290TMC3    O1 4382   4.695   2.921  14.005 -0.2196 -0.7192 -0.7804
  290TMC3    O2 4383   4.723   3.349  13.844  0.1699 -0.2946  0.7491
  291MPD2     C 4384   4.374   3.042   0.295  0.0621  0.0112 -0.5418
  291MPD2    C1 4385   4.509   3.012   0.304  0.6845 -0.7511 -0.1643
  291MPD2    C2 4386   4.605   3.109   0.323  0.4042 -0.2322  1.7064
  291MPD2    C3 4387   4.572   3.243   0.345  0.2672 -0.3665  0.6844
  291MPD2    C4 4388   4.439   3.271   0.351  0.6655  0.2592 -0.3271
  291MPD2    C5 4389   4.339   3.179   0.314 -0.1531  0.6228  0.0896
  291MPD2     H 4390   4.704   3.065   0.317 -0.2568 -1.6475  1.0613
  291MPD2    H1 4391   4.417   3.376   0.368 -1.9909  0.0888 -2.7598
  291MPD2    H2 4392   4.299   2.970   0.263  1.1429 -0.1795 -2.6580
  291MPD2    H3 4393   4.238   3.210   0.290 -0.8194 -0.4379  1.4680
  291MPD2     N 4394   4.668   3.344   0.373 -0.2727  0.3688  0.1779
  291MPD2    H5 4395   4.642   3.439   0.397  1.1912  1.2181 -1.5959
  291MPD2    N1 4396   4.555   2.881   0.287  0.0503  0.3558 -0.8743
  291MPD2    H7 4397   4.654   2.874   0.267 -0.1195  0.4153 -1.7596
  292TMC3    C1 4398   4.575   2.655   0.242 -0.3886 -0.5203 -0.0072
  292TMC3    C2 4399   4.711   2.661   0.281 -0.4409  0.6649  0.1259
  292TMC3    C3 4400   0.059   2.552   0.248 -0.1638  0.3709  0.3745
  292TMC3    C4 4401   4.513   2.549   0.183 -0.0752  0.1292 -0.3060
  292TMC3    C5 4402   4.591   2.445   0.153 -0.5914  1.1701 -0.2107
  292TMC3    C6 4403   0.004   2.447   0.182  0.7189 -0.0093  0.3378
  292TMC3     C 4404   4.483   2.765   0.283  0.4891  0.2724  0.5910
  292TMC3     O 4405   4.367   2.738   0.287  0.0667  0.0554  0.0442
  292TMC3     H 4406   0.026   2.751   0.325  1.3922 -0.6048  1.0471
  292TMC3    H1 4407   4.409   2.552   0.152 -0.2043 -0.6166  0.0556
  292TMC3    H2 4408   0.068   2.361   0.164  1.6462  0.8122 -0.2954
  292TMC3    C7 4409   4.541   2.331   0.077 -0.0236 -0.8808  0.1541
  292TMC3    C8 4410   0.192   2.530   0.305 -0.4589  0.5388  0.5170
  292TMC3    O1 4411   4.625   2.275   0.008 -0.1534 -0.0532 -0.2532
  292TMC3    O2 4412   0.264   2.454   0.243  0.8010  0.1650  0.0644
  293MPD2     C 4413   1.886   4.488  12.696  0.2634 -0.4915  0.2721
  293MPD2    C1 4414   1.863   4.388  12.782 -0.1068 -0.3294  0.7779
  293MPD2    C2 4415   1.889   4.416  12.920  0.0361 -0.2580  0.0891
  293MPD2    C3 4416   1.925   4.542  12.958 -0.0784  0.0937  0.0625
  293MPD2    C4 4417   1.927   4.647  12.864  0.7097 -0.7327 -0.3153
  293MPD2    C5 4418   1.909   4.622  12.731 -0.0705  0.0302 -0.6089
  293MPD2     H 4419   1.892   4.343  12.999 -1.4347  0.8491  1.1616
  293MPD2    H1 4420   1.940   0.025  12.894 -2.9705  0.0372 -1.3150
  293MPD2    H2 4421   1.872   4.467  12.591 -0.2135 -0.2850  0.2926
  293MPD2    H3 4422   1.908   4.692  12.648  0.1842 -0.3942 -0.9781
  293MPD2     N 4423   1.954   4.572  13.094  0.5769  0.6957 -0.6089
  293MPD2    H5 4424   1.992   4.491  13.141 -1.7595 -0.8930 -1.4449
  293MPD2    N1 4425   1.828   4.261  12.730 -0.5896  0.1707  0.3681
  293MPD2    H7 4426   1.825   4.255  12.629 -0.9757 -0.7038  0.4329
  294TMC3    C1 4427   1.707   4.049  12.737 -0.0016 -0.4884 -0.5647
  294TMC3    C2 4428   1.672   3.942  12.810 -0.5662 -0.4713  0.1245
  294TMC3    C3 4429   1.619   3.837  12.749 -0.2815  0.4104  0.1802
  294TMC3    C4 4430   1.692   4.067  12.601 -0.2081 -0.4265  0.2836
  294TMC3    C5 4431   1.636   3.960  12.534  0.3401  0.0058  0.2148
  294TMC3    C6 4432   1.608   3.849  12.615  0.1126  0.3975  0.0426
  294TMC3     C 4433   1.770   4.160  12.809  0.0543 -0.1496 -0.2509
  294TMC3     O 4434   1.755   4.166  12.929 -0.0204  0.2015 -0.4154
  294TMC3     H 4435   1.686   3.933  12.917 -2.1247 -1.8927  0.2075
  294TMC3    H1 4436   1.712   4.160  12.550 -0.7003  0.3893  1.5826
  294TMC3    H2 4437   1.568   3.765  12.558  2.0047 -0.9473  0.6814
  294TMC3    C7 4438   1.717   3.914  12.429 -0.7922  0.3780 -0.2435
  294TMC3    C8 4439   1.665   3.713  12.804  0.3079 -0.2035 -0.2644
  294TMC3    O1 4440   1.772   3.812  12.462  0.0582 -0.5524  0.0290
  294TMC3    O2 4441   1.640   3.693  12.924  0.1842 -0.2202  0.2142
  295MPD2     C 4442   2.950   3.625   0.060 -0.1212 -0.0466  0.0836
  295MPD2    C1 4443   2.836   3.545   0.086 -0.3505  1.0406  0.3168
  295MPD2    C2 4444   2.847   3.468   0.198 -0.0820  0.2995 -0.0430
  295MPD2    C3 4445   2.956   3.474   0.289  1.0344  0.5480  0.4664
  295MPD2    C4 4446   3.061   3.553   0.260 -0.4322  0.2886  0.3740
  295MPD2    C5 4447   3.061   3.625   0.145 -0.0429  0.1563  0.3459
  295MPD2     H 4448   2.767   3.402   0.229  0.6639 -0.3761  0.4642
  295MPD2    H1 4449   3.149   3.558   0.324 -0.9566  0.2385  1.0901
  295MPD2    H2 4450   2.961   3.684  17.672  0.5694  1.7578  1.3456
  295MPD2    H3 4451   3.154   3.679   0.132 -1.1791  1.9339 -0.3419
  295MPD2     N 4452   2.969   3.396   0.410 -0.2086  0.0591 -0.2147
  295MPD2    H5 4453   3.061   3.395   0.453  0.1377 -0.6519 -0.9496
  295MPD2    N1 4454   2.715   3.534   0.015 -0.2327 -0.6772 -0.1229
  295MPD2    H7 4455   2.648   3.463   0.042 -0.0432 -0.9691 -0.4161
  296TMC3    C1 4456   2.894   3.290   0.611  0.1350  0.1294 -0.2620
  296TMC3    C2 4457   3.010   3.229   0.634 -0.0692  0.6522 -0.2769
  296TMC3    C3 4458   3.046   3.216   0.762  0.2150 -0.0808 -0.7940
  296TMC3    C4 4459   2.805   3.322   0.710 -0.0353  0.1090 -0.4148
  296TMC3    C5 4460   2.838   3.276   0.830 -1.0318  0.1599 -1.0576
  296TMC3    C6 4461   2.958   3.226   0.861 -0.1946 -0.2724  0.0433
  296TMC3     C 4462   2.863   3.338   0.481  0.4847 -0.4567 -0.6543
  296TMC3     O 4463   2.747   3.363   0.460 -0.1923  0.2505  0.1820
  296TMC3     H 4464   3.075   3.205   0.550 -1.8533 -0.6620 -1.2723
  296TMC3    H1 4465   2.713   3.371   0.680 -0.1611 -0.7236 -1.3992
  296TMC3    H2 4466   2.966   3.176   0.956 -1.2054  1.1089  0.8520
  296TMC3    C7 4467   2.747   3.302   0.938  0.4714 -0.3025 -0.1122
  296TMC3    C8 4468   3.133   3.101   0.772  0.7487  0.5065  0.6790
  296TMC3    O1 4469   2.702   3.416   0.954 -0.3280 -0.0884 -0.4504
  296TMC3    O2 4470   3.130   3.022   0.678  0.1018  0.6095 -0.0338
  297MPD2     C 4471   3.984   4.712  15.864  0.0204  0.4708  0.3746
  297MPD2    C1 4472   4.053   0.069  15.774 -0.2719 -0.2611 -0.3830
  297MPD2    C2 4473   4.180   0.116  15.812 -0.4989  0.2392 -0.3188
  297MPD2    C3 4474   4.225   0.098  15.944 -1.6075 -0.0341 -0.2819
  297MPD2    C4 4475   4.148   0.021  16.033 -0.1139  0.0229 -0.6488
  297MPD2    C5 4476   4.027   4.688  15.990  0.1242  0.0603  0.0752
  297MPD2     H 4477   4.237   0.175  15.741 -1.5070 -0.6766 -1.8764
  297MPD2    H1 4478   4.173   0.005  16.137 -0.7206 -0.1761 -0.5337
  297MPD2    H2 4479   3.890   4.663  15.844 -0.2431  0.1691  2.3976
  297MPD2    H3 4480   3.966   4.627  16.055  1.1068 -0.8471  0.1462
  297MPD2     N 4481   4.345   0.158  15.998  0.2358  0.0489 -0.4308
  297MPD2    H5 4482   4.358   0.153  16.098 -2.4953  0.2763 -0.0743
  297MPD2    N1 4483   4.006   0.089  15.642 -0.1428  0.0280 -0.0708
  297MPD2    H7 4484   4.072   0.140  15.585 -2.1736  3.8880  1.0841
  298TMC3    C1 4485   3.856   0.101  15.458 -0.8655 -0.1336  0.4709
  298TMC3    C2 4486   3.954   0.159  15.379  0.2263 -0.6679 -0.4516
  298TMC3    C3 4487   3.924   0.259  15.297  0.1644  0.4992  0.2956
  298TMC3    C4 4488   3.729   0.152  15.460  0.8495  0.3897  0.0141
  298TMC3    C5 4489   3.704   0.267  15.388  0.5234  0.0460  0.0364
  298TMC3    C6 4490   3.802   0.310  15.295 -0.5339  0.3417 -0.3074
  298TMC3     C 4491   3.889   0.042  15.585  0.1278 -0.5580 -0.2362
  298TMC3     O 4492   3.791   4.716  15.642  0.2962  1.0987  0.6003
  298TMC3     H 4493   4.056   0.122  15.382  0.9115  1.3396  1.2661
  298TMC3    H1 4494   3.650   0.101  15.514  2.9755 -1.3181  1.5464
  298TMC3    H2 4495   3.780   0.391  15.227 -0.5952 -0.8232 -1.6766
  298TMC3    C7 4496   3.586   0.342  15.415  0.4909 -0.4900 -0.4746
  298TMC3    C8 4497   4.032   0.308  15.207  0.4107 -0.0223 -0.2093
  298TMC3    O1 4498   3.520   0.292  15.508  0.5425 -0.1219  0.2179
  298TMC3    O2 4499   4.128   0.236  15.180 -0.3939 -0.4804  0.3396
  299MPD2     C 4500   0.941   4.228  11.146  0.8336  0.5367  0.1294
  299MPD2    C1 4501   0.940   4.268  11.007  0.0506  0.7590  1.5589
  299MPD2    C2 4502   0.861   4.193  10.918  0.6362 -0.3613 -0.2217
  299MPD2    C3 4503   0.807   4.074  10.958  0.0912  0.3821  0.6778
  299MPD2    C4 4504   0.823   4.029  11.091 -0.0165  0.8237 -0.0917
  299MPD2    C5 4505   0.895   4.103  11.181 -0.2639  0.5174 -0.4607
  299MPD2     H 4506   0.844   4.235  10.819  0.2324  0.3680  0.1595
  299MPD2    H1 4507   0.806   3.923  11.109  2.1269  0.2660 -1.3017
  299MPD2    H2 4508   1.003   4.278  11.220  0.7128 -1.7643  1.7995
  299MPD2    H3 4509   0.919   4.051  11.273 -0.8047 -1.5933 -1.5073
  299MPD2     N 4510   0.744   3.984  10.868 -0.1091 -0.2042 -0.0784
  299MPD2    H5 4511   0.707   3.896  10.903  0.8296 -0.3906  0.4296
  299MPD2    N1 4512   0.998   4.393  10.977 -0.0400 -0.1423  0.2484
  299MPD2    H7 4513   1.037   4.433  11.062 -1.2911  1.0052  0.2823
  300TMC3    C1 4514   0.652   3.914  10.657  0.0121 -0.1859 -0.4340
  300TMC3    C2 4515   0.652   3.963  10.529  0.3138 -0.5086  0.5476
  300TMC3    C3 4516   0.544   4.024  10.479  0.3630  0.0828 -0.6757
  300TMC3    C4 4517   0.534   3.896  10.723  0.3599  0.6378 -0.0182
  300TMC3    C5 4518   0.421   3.965  10.667  0.1919  1.1596 -0.7635
  300TMC3    C6 4519   0.423   4.029  10.542  0.7767  0.4650  0.4730
  300TMC3     C 4520   0.755   3.990  10.734 -0.0440 -0.5271  0.1742
  300TMC3     O 4521   0.826   4.061  10.671  0.0401 -0.2344 -0.2263
  300TMC3     H 4522   0.736   3.942  10.464 -0.6324 -3.4564  0.2642
  300TMC3    H1 4523   0.533   3.861  10.826  0.4877 -0.5623 -0.4242
  300TMC3    H2 4524   0.339   4.089  10.509  0.5178 -1.8413 -2.9776
  300TMC3    C7 4525   0.308   3.977  10.760  0.2123 -0.2667 -0.4242
  300TMC3    C8 4526   0.572   4.141  10.397  0.0766  0.4072 -1.1542
  300TMC3    O1 4527   0.315   3.921  10.867  0.3321  0.6174 -0.8227
  300TMC3    O2 4528   0.688   4.147  10.363 -0.1852 -0.1327 -0.4003
  301MPD2     C 4529   1.337   1.402   1.704  0.1404  0.1157 -0.3576
  301MPD2    C1 4530   1.272   1.398   1.580  0.1527 -0.2807  0.8102
  301MPD2    C2 4531   1.308   1.298   1.491 -0.2302 -0.1365 -0.4746
  301MPD2    C3 4532   1.417   1.212   1.519 -0.4629  0.9126 -0.4786
  301MPD2    C4 4533   1.481   1.224   1.632  0.5775  0.2126  0.0942
  301MPD2    C5 4534   1.440   1.318   1.725  0.1755  0.0277 -0.4625
  301MPD2     H 4535   1.262   1.306   1.394 -0.5084 -0.7030 -0.3915
  301MPD2    H1 4536   1.548   1.142   1.658  1.6057  0.5834 -1.4312
  301MPD2    H2 4537   1.297   1.465   1.782  1.2539 -1.9154  1.8539
  301MPD2    H3 4538   1.481   1.303   1.825  1.3579  0.6147 -0.8664
  301MPD2     N 4539   1.455   1.115   1.427  0.0182 -0.3609  0.2955
  301MPD2    H5 4540   1.541   1.064   1.447 -0.5342 -1.3646  0.1005
  301MPD2    N1 4541   1.179   1.492   1.537 -0.1105 -0.2539 -0.0719
  301MPD2    H7 4542   1.148   1.483   1.441 -0.2772 -0.3986 -0.0047
  302TMC3    C1 4543   1.445   0.977   1.239  0.0327  0.2879 -0.3513
  302TMC3    C2 4544   1.575   0.946   1.254  0.3729  0.3955 -0.5576
  302TMC3    C3 4545   1.633   0.871   1.154 -0.3448 -0.2385 -0.0366
  302TMC3    C4 4546   1.369   0.939   1.129 -0.0304 -0.2467  0.0747
  302TMC3    C5 4547   1.441   0.876   1.031 -0.6540  0.0849 -0.6421
  302TMC3    C6 4548   1.567   0.823   1.050  0.1642  0.2404  1.4292
  302TMC3     C 4549   1.376   1.070   1.326 -0.6200 -0.4171  0.1569
  302TMC3     O 4550   1.255   1.092   1.310  0.0608 -0.0732 -0.0832
  302TMC3     H 4551   1.617   0.942   1.354 -0.1034  0.0021 -0.3749
  302TMC3    H1 4552   1.273   0.982   1.102 -0.7805 -1.0388  1.4834
  302TMC3    H2 4553   1.611   0.758   0.975 -0.5214  0.0843  1.1648
  302TMC3    C7 4554   1.377   0.837   0.907 -0.1195 -0.2180  0.0568
  302TMC3    C8 4555   1.739   0.788   1.204  0.2305 -0.3365  0.2339
  302TMC3    O1 4556   1.442   0.755   0.844  0.2717  0.3418 -0.4523
  302TMC3    O2 4557   1.763   0.778   1.325  0.7229 -0.0992 -0.4367
  303MPD2     C 4558   2.359   3.837  10.920  0.4598  0.3749 -0.5084
  303MPD2    C1 4559   2.272   3.741  10.950  0.7567 -0.3531 -0.2025
  303MPD2    C2 4560   2.203   3.678  10.843  0.3423 -0.0534  0.4413
  303MPD2    C3 4561   2.222   3.727  10.714  0.1903 -0.0855 -0.6814
  303MPD2    C4 4562   2.298   3.835  10.694  0.8028 -0.2291  0.1477
  303MPD2    C5 4563   2.366   3.892  10.800 -0.5284 -0.1929 -0.0391
  303MPD2     H 4564   2.133   3.596  10.855 -2.3646  1.8893 -2.0283
  303MPD2    H1 4565   2.294   3.892  10.602  0.1137  0.4565  0.5930
  303MPD2    H2 4566   2.428   3.882  10.991 -0.4625  0.2505  0.4594
  303MPD2    H3 4567   2.422   3.983  10.777 -0.8898 -0.4870 -2.1038
  303MPD2     N 4568   2.159   3.671  10.598  0.2439 -0.0284  0.1392
  303MPD2    H5 4569   2.160   3.717  10.508 -0.6500  0.4929  0.3964
  303MPD2    N1 4570   2.266   3.695  11.079 -0.7048 -0.5070  0.7881
  303MPD2    H7 4571   2.320   3.746  11.149  1.4215 -0.2212 -1.0368
  304TMC3    C1 4572   2.198   3.570  11.258  0.3564 -0.5948  0.3559
  304TMC3    C2 4573   2.092   3.495  11.308 -0.3209  0.1668  0.5452
  304TMC3    C3 4574   2.103   3.429  11.429 -0.0109  0.4875  0.0054
  304TMC3    C4 4575   2.321   3.560  11.314 -0.1096 -0.1975 -0.0325
  304TMC3    C5 4576   2.336   3.487  11.430  0.4019 -0.2026  0.0707
  304TMC3    C6 4577   2.229   3.433  11.493  0.3755 -0.3566  0.4972
  304TMC3     C 4578   2.193   3.592  11.120  0.0736  0.7123 -0.4568
  304TMC3     O 4579   2.111   3.521  11.060 -0.6088  0.6473 -0.2570
  304TMC3     H 4580   2.003   3.483  11.249 -0.3237 -0.9105  0.7776
  304TMC3    H1 4581   2.405   3.604  11.263  1.1408 -2.2661  0.2535
  304TMC3    H2 4582   2.237   3.360  11.573 -0.1425  1.1311  1.9025
  304TMC3    C7 4583   2.424   3.377  11.416 -0.0776  0.3599 -0.1334
  304TMC3    C8 4584   2.047   3.297  11.417  0.0505  0.2185 -0.5270
  304TMC3    O1 4585   2.384   3.266  11.444  0.1198 -0.4378 -0.6711
  304TMC3    O2 4586   2.031   3.260  11.304  0.6623  0.1594 -0.4811
  305MPD2     C 4587   0.632   1.684  13.828  0.2405  0.6447  0.2263
  305MPD2    C1 4588   0.560   1.569  13.861 -1.0379  0.1359 -0.7523
  305MPD2    C2 4589   0.522   1.478  13.756 -0.7344 -0.1463 -0.4612
  305MPD2    C3 4590   0.569   1.503  13.627 -0.4050  0.4333 -0.5066
  305MPD2    C4 4591   0.656   1.610  13.601 -0.4260 -0.3144 -0.6600
  305MPD2    C5 4592   0.671   1.703  13.699 -0.4485 -0.7680  0.6915
  305MPD2     H 4593   0.460   1.393  13.781 -0.1531 -0.4430 -0.0081
  305MPD2    H1 4594   0.692   1.634  13.502  1.0194  1.2821  0.2493
  305MPD2    H2 4595   0.671   1.751  13.904 -0.6340  1.1144  0.2706
  305MPD2    H3 4596   0.723   1.796  13.676  0.7746 -2.0175 -1.4982
  305MPD2     N 4597   0.539   1.422  13.520 -0.3276 -0.4741 -0.3291
  305MPD2    H5 4598   0.571   1.455  13.429  0.1296  0.2317  0.0881
  305MPD2    N1 4599   0.537   1.553  13.998  0.3075 -0.1662  0.2622
  305MPD2    H7 4600   0.578   1.631  14.050 -1.6109  1.2747 -0.3934
  306TMC3    C1 4601   0.557   1.434  14.189  0.4738 -0.0376  0.1524
  306TMC3    C2 4602   0.655   1.341  14.211  0.8108 -0.5787 -0.3106
  306TMC3    C3 4603   0.721   1.354  14.333 -0.2799 -0.0305 -0.2177
  306TMC3    C4 4604   0.525   1.538  14.271  0.2935  0.1930  0.3592
  306TMC3    C5 4605   0.595   1.548  14.389  0.2535 -0.0153 -0.3813
  306TMC3    C6 4606   0.690   1.454  14.428  0.0715 -0.1055 -0.3427
  306TMC3     C 4607   0.496   1.435  14.058  0.2149  0.0140  0.6816
  306TMC3     O 4608   0.472   1.328  14.011 -0.0057  0.2560 -0.0757
  306TMC3     H 4609   0.691   1.276  14.132  3.7885  1.5505 -0.7414
  306TMC3    H1 4610   0.462   1.621  14.240  0.0578  1.0216  3.0434
  306TMC3    H2 4611   0.728   1.453  14.529  0.6202  0.0782 -0.5451
  306TMC3    C7 4612   0.529   1.636  14.491  0.0284  0.3559  0.6634
  306TMC3    C8 4613   0.846   1.285  14.353 -0.1208 -0.3074 -0.1483
  306TMC3    O1 4614   0.409   1.656  14.483  0.0891  0.3265  0.1129
  306TMC3    O2 4615   0.855   1.177  14.302  0.4509 -0.2626  0.3368
  307MPD2     C 4616   2.922   3.991   0.959  0.1810  0.1429 -0.1776
  307MPD2    C1 4617   2.901   4.091   0.870 -0.3102 -0.6668 -0.2571
  307MPD2    C2 4618   2.812   4.190   0.903  0.1367  0.4037  0.2700
  307MPD2    C3 4619   2.752   4.200   1.031 -0.6002 -0.3490  0.0611
  307MPD2    C4 4620   2.777   4.098   1.120 -0.6036  0.3303  0.4709
  307MPD2    C5 4621   2.860   4.000   1.083  0.6790  0.5904  0.9492
  307MPD2     H 4622   2.785   4.260   0.825 -0.1350 -1.7330 -1.5472
  307MPD2    H1 4623   2.734   4.086   1.219 -0.7990 -0.1442  0.3269
  307MPD2    H2 4624   2.997   3.917   0.938  0.9491  0.9895 -0.4137
  307MPD2    H3 4625   2.878   3.918   1.152 -1.2044 -0.3560  0.3148
  307MPD2     N 4626   2.676   4.313   1.066  0.1866  0.3908 -0.2071
  307MPD2    H5 4627   2.667   4.387   0.997  0.7578  0.5885 -0.0701
  307MPD2    N1 4628   2.954   4.096   0.741  0.0512  0.0722 -0.2286
  307MPD2    H7 4629   2.947   4.178   0.683 -2.0264  0.9828  1.3168
  308TMC3    C1 4630   2.347   4.589   1.249  0.4625 -0.1075  1.0565
  308TMC3    C2 4631   2.388   4.698   1.178  0.5765  0.0525 -0.0590
  308TMC3    C3 4632   2.496   4.676   1.102 -0.1728 -0.2877 -0.7254
  308TMC3    C4 4633   2.410   4.471   1.256  0.2622 -0.2133  0.0342
  308TMC3    C5 4634   2.522   4.456   1.174  0.4548  0.3848  0.0892
  308TMC3    C6 4635   2.576   4.564   1.103 -0.0669  0.7747  0.5356
  308TMC3     C 4636   2.237   4.607   1.338 -0.5835  0.4535 -0.0517
  308TMC3     O 4637   2.237   4.526   1.431 -0.3758  0.1045 -0.3351
  308TMC3     H 4638   2.328   0.063   1.176  1.5337  0.6859 -0.7909
  308TMC3    H1 4639   2.376   4.388   1.316 -0.1165  1.2711  1.8494
  308TMC3    H2 4640   2.678   4.565   1.064  0.2486  0.2251  1.3362
  308TMC3    C7 4641   2.602   4.334   1.179 -0.3239  0.1441  0.1395
  308TMC3    C8 4642   2.547   0.064   1.039 -0.3909  0.4462 -0.0592
  308TMC3    O1 4643   2.567   4.251   1.262  0.3272 -0.3932 -0.9829
  308TMC3    O2 4644   2.538   0.169   1.097  0.0111  0.0957 -0.6002
  309MPD2     C 4645   2.146   4.428  17.331  0.1988  0.0177 -0.2955
  309MPD2    C1 4646   2.114   4.538  17.251  0.1773  0.0110  0.0719
  309MPD2    C2 4647   2.027   4.637  17.303 -0.4555  0.2314  0.2394
  309MPD2    C3 4648   1.982   4.626  17.434  0.6097  0.5868  0.1354
  309MPD2    C4 4649   2.010   4.513  17.509 -0.4245  0.6055 -0.2411
  309MPD2    C5 4650   2.088   4.415  17.456  0.3293  0.3379  0.5460
  309MPD2     H 4651   1.986   4.719  17.245 -0.7660 -0.1715 -0.1153
  309MPD2    H1 4652   1.976   4.506  17.611  1.6913  0.2741  0.4282
  309MPD2    H2 4653   2.212   4.344  17.310 -0.8945 -0.2997 -2.4578
  309MPD2    H3 4654   2.112   4.332  17.522  1.0327 -1.1471 -1.5529
  309MPD2     N 4655   1.891   4.714  17.505  0.0732 -0.2232 -0.0682
  309MPD2    H5 4656   1.868   4.688  17.600 -0.2108  0.8004  0.1432
  309MPD2    N1 4657   2.165   4.541  17.121  0.7049 -0.1174  0.5908
  309MPD2    H7 4658   2.129   4.617  17.065  2.5783 -0.0400 -0.5158
  310TMC3    C1 4659   2.284   4.473  16.924  0.6218  0.2762  0.4604
  310TMC3    C2 4660   2.184   4.514  16.839  0.5229  0.8211  0.0032
  310TMC3    C3 4661   2.225   4.549  16.712  0.0456  0.2961 -0.1505
  310TMC3    C4 4662   2.419   4.444  16.885  0.0842 -0.4378  0.0432
  310TMC3    C5 4663   2.445   4.475  16.755  0.9941  0.8373  0.5381
  310TMC3    C6 4664   2.354   4.524  16.671 -0.2247 -0.0545 -0.2908
  310TMC3     C 4665   2.262   4.454  17.066 -0.6352  0.0440 -0.6593
  310TMC3     O 4666   2.339   4.377  17.118 -0.1014  0.2982 -0.0919
  310TMC3     H 4667   2.080   4.513  16.867  0.6168  1.3917  0.3776
  310TMC3    H1 4668   2.490   4.400  16.954 -0.3860  1.1121  1.5376
  310TMC3    H2 4669   2.377   4.550  16.569 -4.4913  1.6776 -0.8300
  310TMC3    C7 4670   2.567   4.416  16.702 -0.8799  0.2388  0.0306
  310TMC3    C8 4671   2.126   4.594  16.616 -0.1402  0.4404 -0.5090
  310TMC3    O1 4672   2.658   4.387  16.780 -0.2179 -0.0707 -0.8021
  310TMC3    O2 4673   2.150   4.584  16.495  0.1243 -0.4570 -0.3523
  311MPD2     C 4674   4.351   0.972  12.567 -0.3527 -0.1980  0.0452
  311MPD2    C1 4675   4.391   1.020  12.691  0.1699  0.3148 -0.2853
  311MPD2    C2 4676   4.293   1.026  12.788 -0.2583 -0.6578 -0.2923
  311MPD2    C3 4677   4.161   0.986  12.762 -0.0234 -0.1350 -0.0285
  311MPD2    C4 4678   4.136   0.934  12.640  0.1675  0.6428  1.1301
  311MPD2    C5 4679   4.231   0.927  12.546 -0.0679 -1.2081 -0.3565
  311MPD2     H 4680   4.309   1.075  12.883 -2.6107  0.3514 -0.4419
  311MPD2    H1 4681   4.040   0.885  12.622  0.6297  0.8707 -1.9963
  311MPD2    H2 4682   4.415   0.954  12.481 -0.8703 -1.7070 -0.0118
  311MPD2    H3 4683   4.199   0.874  12.456  2.0285 -1.3595 -1.0012
  311MPD2     N 4684   4.058   1.000  12.856 -0.2349  0.3286  0.3019
  311MPD2    H5 4685   4.093   0.999  12.951 -0.0343  1.6307  0.2423
  311MPD2    N1 4686   4.525   1.064  12.716  0.0020  0.0737  0.0155
  311MPD2    H7 4687   4.533   1.129  12.794 -0.2601  0.1238 -0.0001
  312TMC3    C1 4688   3.836   0.989  12.927 -0.4164 -0.0479 -0.1265
  312TMC3    C2 4689   3.698   1.013  12.901  0.5940 -0.0422  0.2991
  312TMC3    C3 4690   3.607   0.934  12.974  0.1677  0.3499 -0.1727
  312TMC3    C4 4691   3.883   0.901  13.024 -0.0047  0.7626  0.0972
  312TMC3    C5 4692   3.787   0.830  13.090 -0.9980 -0.5023 -0.1756
  312TMC3    C6 4693   3.655   0.840  13.058 -0.1179  0.3303  0.1966
  312TMC3     C 4694   3.926   0.996  12.817 -0.1708  0.1234 -0.6334
  312TMC3     O 4695   3.873   1.008  12.707 -0.7334  0.7147  0.4869
  312TMC3     H 4696   3.673   1.081  12.821  0.1074 -0.4338  0.1200
  312TMC3    H1 4697   3.989   0.894  13.044 -0.2049 -2.4345  0.0659
  312TMC3    H2 4698   3.586   0.789  13.125 -1.3058  0.3859 -0.9755
  312TMC3    C7 4699   3.828   0.779  13.213 -0.2477  0.1290  0.3768
  312TMC3    C8 4700   3.460   0.935  12.969  0.5972  0.2888  0.5292
  312TMC3    O1 4701   3.805   0.662  13.242  0.0929  0.5717  0.1831
  312TMC3    O2 4702   3.403   0.836  13.010  0.7206 -0.4759 -0.2956
  313MPD2     C 4703   4.491   4.194  10.237 -0.8123  0.2712 -0.0304
  313MPD2    C1 4704   4.372   4.262  10.248  0.0781  0.1174 -0.3626
  313MPD2    C2 4705   4.251   4.196  10.289  0.4158 -0.4985  0.3652
  313MPD2    C3 4706   4.247   4.068  10.335  0.4750  0.6543  0.2331
  313MPD2    C4 4707   4.370   3.998  10.330 -0.1640 -0.3278  0.1389
  313MPD2    C5 4708   4.486   4.059  10.276 -0.2224  0.1888 -0.6122
  313MPD2     H 4709   4.161   4.255  10.300  0.2907 -0.8027  0.9887
  313MPD2    H1 4710   4.364   3.893  10.355 -2.3835 -0.1975  0.1524
  313MPD2    H2 4711   4.577   4.242  10.192  0.8132  1.0912  3.9460
  313MPD2    H3 4712   4.566   3.991  10.249  1.5445  1.4419  1.5489
  313MPD2     N 4713   4.125   4.026  10.394  0.8568 -0.1727 -0.0297
  313MPD2    H5 4714   4.048   4.093  10.401  0.6891 -0.3016 -0.5585
  313MPD2    N1 4715   4.366   4.406  10.224 -0.0638  0.0305  0.2037
  313MPD2    H7 4716   4.276   4.444  10.195  1.5046  2.3136 -1.6741
  314TMC3    C1 4717   4.476   4.607  10.165  0.1218  0.3993  0.7655
  314TMC3    C2 4718   4.553   4.710  10.213  0.6998  0.6070 -0.9338
  314TMC3    C3 4719   4.535   0.104  10.153  0.0379 -0.0615  0.2843
  314TMC3    C4 4720   4.378   4.626  10.074 -0.4482  0.0204 -0.8131
  314TMC3    C5 4721   4.374   0.025  10.009 -0.0242 -0.3229  0.1865
  314TMC3    C6 4722   4.450   0.132  10.050 -0.5707  0.2154  0.0033
  314TMC3     C 4723   4.481   4.478  10.230 -0.8223 -0.1671 -0.3210
  314TMC3     O 4724   4.588   4.462  10.286 -0.1957 -0.3324 -0.2372
  314TMC3     H 4725   4.621   4.689  10.294 -2.0853  0.3729  1.3681
  314TMC3    H1 4726   4.313   4.547  10.037 -1.1884  0.0062  0.5328
  314TMC3    H2 4727   4.428   0.236  10.028  0.4120  0.8886  2.2156
  314TMC3    C7 4728   4.296   0.029   9.885 -0.1372  0.1815  0.6933
  314TMC3    C8 4729   4.581   0.222  10.228  0.4210  0.3016  0.2505
  314TMC3    O1 4730   4.243   4.648   9.855 -0.5372  0.4741 -0.2467
  314TMC3    O2 4731   4.555   0.331  10.182 -0.3596 -0.1973  0.1267
  315MPD2     C 4732   3.019   4.571  17.143 -0.2494 -0.1937 -1.0667
  315MPD2    C1 4733   3.119   4.612  17.226 -0.0181  1.1259  0.4943
  315MPD2    C2 4734   3.197   0.001  17.188  0.0817  0.5091 -0.6720
  315MPD2    C3 4735   3.182   0.062  17.066  1.0762  0.0017  0.3779
  315MPD2    C4 4736   3.088   0.014  16.981 -0.2278  0.1117 -0.8835
  315MPD2    C5 4737   2.999   4.641  17.024  0.4396  0.1143 -0.5240
  315MPD2     H 4738   3.267   0.043  17.260 -0.5364  0.7852 -0.2370
  315MPD2    H1 4739   3.063   0.060  16.886 -1.0245 -1.9582 -1.6983
  315MPD2    H2 4740   2.958   4.485  17.170 -0.8370  0.9749  1.2995
  315MPD2    H3 4741   2.930   4.601  16.951 -0.7019  0.2288  0.4946
  315MPD2     N 4742   3.262   0.175  17.028  0.0003  0.0100  0.0281
  315MPD2    H5 4743   3.352   0.174  17.075 -0.4834 -2.8951  0.9541
  315MPD2    N1 4744   3.151   4.527  17.339  0.3491  0.1103  0.1573
  315MPD2    H7 4745   3.115   4.433  17.327 -1.6626  0.7967  0.7883
  316TMC3    C1 4746   3.349   0.351  16.916 -0.1533 -0.1302  0.2482
  316TMC3    C2 4747   3.393   0.413  17.023 -0.4000 -0.6097  0.6076
  316TMC3    C3 4748   3.495   0.499  17.016  0.3818  0.2759  0.3566
  316TMC3    C4 4749   3.400   0.369  16.794 -0.6390 -0.8168 -0.0496
  316TMC3    C5 4750   3.500   0.461  16.781  0.4410  0.3955  0.7175
  316TMC3    C6 4751   3.551   0.522  16.895  0.5713  0.5241 -0.0636
  316TMC3     C 4752   3.236   0.261  16.924  0.3575 -0.2359  0.0058
  316TMC3     O 4753   3.141   0.269  16.851  0.3055 -0.0426  0.5686
  316TMC3     H 4754   3.336   0.413  17.115 -0.0995 -1.0039  0.7934
  316TMC3    H1 4755   3.353   0.312  16.714  0.3426  1.1168 -2.0208
  316TMC3    H2 4756   3.634   0.591  16.887 -0.6549  2.5290  4.2775
  316TMC3    C7 4757   3.568   0.463  16.652 -0.3678 -0.4975 -0.1343
  316TMC3    C8 4758   3.529   0.581  17.127 -0.5151  0.3393 -0.6045
  316TMC3    O1 4759   3.683   0.503  16.645 -0.8631  0.1203 -0.2410
  316TMC3    O2 4760   3.599   0.677  17.103 -0.7688 -0.2633  0.0900
  317MPD2     C 4761   0.886   2.884  12.398 -0.4332  0.1116  0.2808
  317MPD2    C1 4762   0.983   2.787  12.389 -0.0924  0.3061 -0.4123
  317MPD2    C2 4763   1.075   2.772  12.488  0.3907  0.3689  0.1474
  317MPD2    C3 4764   1.073   2.851  12.604  0.0475 -0.9939  0.0442
  317MPD2    C4 4765   0.982   2.954  12.608 -0.1372 -0.2271  0.2644
  317MPD2    C5 4766   0.888   2.963  12.507  0.6056 -0.2455 -0.5959
  317MPD2     H 4767   1.148   2.692  12.477 -1.7715 -1.4817 -0.7616
  317MPD2    H1 4768   0.979   3.021  12.693 -3.4778  1.7974 -1.4542
  317MPD2    H2 4769   0.831   2.923  12.313  0.5422 -1.0333 -0.8846
  317MPD2    H3 4770   0.817   3.045  12.511 -0.6832 -1.4685  1.9483
  317MPD2     N 4771   1.171   2.834  12.701 -0.5170  0.3106 -0.5033
  317MPD2    H5 4772   1.238   2.762  12.677 -0.7851  1.2222 -3.9892
  317MPD2    N1 4773   1.008   2.720  12.266 -0.0131 -0.6916 -0.2342
  317MPD2    H7 4774   1.083   2.652  12.265 -1.4330 -2.2993  1.7138
  318TMC3    C1 4775   1.287   2.861  12.901 -0.4244  0.6615  0.6927
  318TMC3    C2 4776   1.291   2.728  12.925  0.0977  0.2870  0.4375
  318TMC3    C3 4777   1.348   2.684  13.037 -0.4243  0.1877  0.6911
  318TMC3    C4 4778   1.319   2.949  13.005 -0.7914  0.1282  0.2817
  318TMC3    C5 4779   1.397   2.893  13.106  0.4162  0.0516  0.6691
  318TMC3    C6 4780   1.415   2.757  13.119  0.3134 -0.6487 -0.6706
  318TMC3     C 4781   1.195   2.919  12.809 -0.1813 -0.0905  0.1729
  318TMC3     O 4782   1.131   3.008  12.850 -0.1697 -0.0890  0.2454
  318TMC3     H 4783   1.264   2.657  12.848 -0.7046  0.8384  0.2087
  318TMC3    H1 4784   1.300   3.056  13.002 -1.6532 -0.0900 -2.1369
  318TMC3    H2 4785   1.454   2.704  13.205 -1.5439 -0.5717  0.2354
  318TMC3    C7 4786   1.474   2.976  13.191  0.1192 -0.5784  0.3179
  318TMC3    C8 4787   1.350   2.543  13.061 -0.1866  0.2378 -0.4279
  318TMC3    O1 4788   1.415   3.062  13.246 -0.5914  0.4475 -0.5481
  318TMC3    O2 4789   1.431   2.498  13.140 -0.5061 -0.2999  0.0978
  319MPD2     C 4790   0.553   4.504  16.688 -0.1186 -0.0296  0.7842
  319MPD2    C1 4791   0.666   4.427  16.668 -0.2487 -0.3380  0.9149
  319MPD2    C2 4792   0.653   4.299  16.628 -0.3812 -0.2757  0.1576
  319MPD2    C3 4793   0.532   4.233  16.620  0.8749 -0.7857 -0.5556
  319MPD2    C4 4794   0.417   4.316  16.635  0.6491  0.0092 -0.4784
  319MPD2    C5 4795   0.427   4.452  16.663 -0.1846  0.6803  0.4457
  319MPD2     H 4796   0.744   4.251  16.594  1.1035  1.5027  1.6978
  319MPD2    H1 4797   0.321   4.268  16.630  1.8248 -2.2311 -1.4478
  319MPD2    H2 4798   0.568   4.607  16.720  0.6369  0.1829 -0.2837
  319MPD2    H3 4799   0.334   4.508  16.665 -0.6058 -0.0127  0.2874
  319MPD2     N 4800   0.524   4.096  16.592 -0.0807 -0.2419 -0.2624
  319MPD2    H5 4801   0.434   4.050  16.582  0.4079 -1.2821  0.0231
  319MPD2    N1 4802   0.796   4.488  16.682 -0.3048  0.4225  0.4065
  319MPD2    H7 4803   0.876   4.426  16.667 -0.7429 -0.4395  1.6277
  320TMC3    C1 4804   0.587   3.894  16.502  0.4925  0.2074  0.2564
  320TMC3    C2 4805   0.538   3.931  16.383  0.6669  0.1138  0.4209
  320TMC3    C3 4806   0.547   3.842  16.276  0.1868 -0.5820 -0.1344
  320TMC3    C4 4807   0.647   3.775  16.513 -0.8189  0.2645 -0.5920
  320TMC3    C5 4808   0.659   3.694  16.402 -0.2245  0.3040  0.3471
  320TMC3    C6 4809   0.597   3.716  16.287 -0.3670  0.2660 -0.1768
  320TMC3     C 4810   0.634   4.013  16.570 -0.4410  0.3166 -0.2123
  320TMC3     O 4811   0.750   4.018  16.595  0.2456  0.2793  0.5822
  320TMC3     H 4812   0.477   4.020  16.369 -1.0410 -1.2063 -0.5448
  320TMC3    H1 4813   0.679   3.739  16.611 -0.4677 -0.4271 -0.9617
  320TMC3    H2 4814   0.607   3.658  16.195 -1.1965  0.6271 -0.4959
  320TMC3    C7 4815   0.755   3.594  16.383  0.6087  0.3292  0.7833
  320TMC3    C8 4816   0.556   3.920  16.151 -0.8201  0.2059 -0.3302
  320TMC3    O1 4817   0.709   3.495  16.327 -0.3766  0.1744  0.0739
  320TMC3    O2 4818   0.512   4.033  16.155 -0.1092 -0.1070  0.3869
  321TMC3    C1 4819   0.962   4.649  16.711 -0.0046 -1.0575  0.1087
  321TMC3    C2 4820   1.039   4.618  16.601  0.3181  0.0450 -0.4997
  321TMC3    C3 4821   1.161   4.675  16.587 -0.7055 -0.7265  0.0299
  321TMC3    C4 4822   1.005   0.024  16.802  0.6014 -0.3212  0.2759
  321TMC3    C5 4823   1.124   0.091  16.781  0.3039 -0.1843  0.1603
  321TMC3    C6 4824   1.202   0.050  16.674 -0.4653 -0.0284  0.0148
  321TMC3     C 4825   0.825   4.610  16.725  0.5766 -0.2392 -0.4195
  321TMC3     O 4826   0.755   4.700  16.770  0.0720 -0.7024 -0.0912
  321TMC3     H 4827   1.020   4.531  16.539  2.0091  0.4646 -1.6144
  321TMC3    H1 4828   0.945   0.032  16.892  1.1352  0.2163  0.5799
  321TMC3    H2 4829   1.296   0.099  16.651 -1.1499  0.4388 -1.7861
  321TMC3    C7 4830   1.214   0.104  16.896 -0.1306 -0.3133 -0.1734
  321TMC3    C8 4831   1.266   4.572  16.555 -0.1753 -0.3564 -0.6472
  321TMC3    O1 4832   1.330   0.072  16.878  0.0564  0.3342  0.2764
  321TMC3    O2 4833   1.255   4.507  16.455 -0.8485  0.2351 -0.3185
  322MPD2     C 4834   0.902   0.884  13.209 -0.3243 -0.7746  0.7614
  322MPD2    C1 4835   0.800   0.838  13.293 -1.0188 -0.7159 -0.0356
  322MPD2    C2 4836   0.747   0.714  13.268  0.3083  0.4584  0.1855
  322MPD2    C3 4837   0.784   0.636  13.159  0.4544  0.5262 -0.1763
  322MPD2    C4 4838   0.882   0.686  13.082  0.1169  0.1587 -0.3262
  322MPD2    C5 4839   0.947   0.804  13.108 -0.1619 -0.4924 -0.6090
  322MPD2     H 4840   0.660   0.685  13.327 -0.3586  1.5384 -0.2630
  322MPD2    H1 4841   0.910   0.625  12.997 -0.8775 -1.0583  0.2156
  322MPD2    H2 4842   0.943   0.984  13.214 -0.2123 -0.7925  0.2026
  322MPD2    H3 4843   1.033   0.832  13.048  0.2582 -0.7473 -0.1195
  322MPD2     N 4844   0.728   0.511  13.149 -0.1312 -0.0627 -0.1514
  322MPD2    H5 4845   0.656   0.493  13.218 -0.2025 -1.0908 -0.4950
  322MPD2    N1 4846   0.764   0.924  13.404  0.3286 -0.8418 -0.5752
  322MPD2    H7 4847   0.812   1.014  13.408 -2.4382  0.6442 -0.7153
  323TMC3    C1 4848   0.657   0.999  13.604 -0.0719  0.3299 -0.0526
  323TMC3    C2 4849   0.754   1.087  13.622  0.2195 -0.1018 -0.1644
  323TMC3    C3 4850   0.748   1.161  13.738  0.0811 -0.6261  0.5346
  323TMC3    C4 4851   0.562   0.975  13.699 -0.3790  0.0505  0.1526
  323TMC3    C5 4852   0.558   1.040  13.817  0.0556  0.2065 -0.0199
  323TMC3    C6 4853   0.653   1.141  13.834  0.3280 -1.1494 -0.4405
  323TMC3     C 4854   0.666   0.896  13.500 -0.1120  0.0143 -0.9262
  323TMC3     O 4855   0.592   0.804  13.506  0.5005 -0.9376 -0.0724
  323TMC3     H 4856   0.832   1.111  13.551  0.7518 -1.9167 -0.2075
  323TMC3    H1 4857   0.481   0.905  13.680  0.2801 -0.9265  0.9368
  323TMC3    H2 4858   0.663   1.192  13.929 -2.3814 -1.8684  0.2118
  323TMC3    C7 4859   0.511   0.962  13.937 -0.9679 -0.7836  1.2026
  323TMC3    C8 4860   0.875   1.216  13.790 -0.4974  0.0022 -0.7617
  323TMC3    O1 4861   0.493   0.843  13.920  0.0293  0.3110 -0.3681
  323TMC3    O2 4862   0.983   1.175  13.749 -0.1464 -0.4781 -0.3861
  324MPD2     C 4863   2.479   2.271  15.029 -0.0108  0.1203  0.1841
  324MPD2    C1 4864   2.457   2.299  14.897  0.1397  0.4594  0.0204
  324MPD2    C2 4865   2.330   2.287  14.848  0.2424 -0.0254  0.0869
  324MPD2    C3 4866   2.229   2.240  14.924  0.2346 -0.4743  0.1197
  324MPD2    C4 4867   2.244   2.211  15.057  0.1993 -0.8784 -0.3699
  324MPD2    C5 4868   2.371   2.229  15.108 -0.0918  0.6634  0.4107
  324MPD2     H 4869   2.316   2.312  14.744  0.4897 -0.7046 -0.1077
  324MPD2    H1 4870   2.170   2.169  15.124  1.1831  0.3164  1.4607
  324MPD2    H2 4871   2.575   2.281  15.078  0.1178 -1.7615  0.3337
  324MPD2    H3 4872   2.389   2.205  15.212  0.5773  0.1271  0.1671
  324MPD2     N 4873   2.093   2.220  14.887  0.4421  0.1556 -0.4905
  324MPD2    H5 4874   2.035   2.193  14.966 -0.8169  1.3449 -1.0030
  324MPD2    N1 4875   2.565   2.343  14.809  0.7099  0.0248 -0.1991
  324MPD2    H7 4876   2.535   2.385  14.721  0.3603  1.1449  0.4662
  325TMC3    C1 4877   1.908   2.228  14.739 -1.0584  0.1396 -0.1430
  325TMC3    C2 4878   1.873   2.131  14.649 -0.1283  0.3637 -0.1156
  325TMC3    C3 4879   1.767   2.048  14.661 -0.0370 -0.5027  0.1253
  325TMC3    C4 4880   1.822   2.247  14.846 -0.1942 -0.5437  0.3665
  325TMC3    C5 4881   1.704   2.173  14.850  0.1778 -0.3014 -0.0282
  325TMC3    C6 4882   1.673   2.070  14.758  0.2801 -0.7532 -0.5103
  325TMC3     C 4883   2.049   2.233  14.760 -0.7984 -0.4420 -0.2957
  325TMC3     O 4884   2.114   2.267  14.666 -0.2542  0.2253  0.0811
  325TMC3     H 4885   1.953   2.100  14.583 -3.4271 -0.4440 -3.7157
  325TMC3    H1 4886   1.826   2.342  14.899  1.3338  0.2799 -1.2017
  325TMC3    H2 4887   1.584   2.009  14.769 -0.4667  0.7101  1.6434
  325TMC3    C7 4888   1.588   2.235  14.917 -0.2649 -0.4708 -0.5682
  325TMC3    C8 4889   1.754   1.938  14.564  0.0035 -0.5714 -0.2676
  325TMC3    O1 4890   1.601   2.277  15.028 -0.0799 -0.5275 -0.0071
  325TMC3    O2 4891   1.840   1.918  14.480  0.7669  0.2135  0.0150
  326MPD2     C 4892   3.155   3.176  10.972 -0.2365  0.6506 -0.3382
  326MPD2    C1 4893   3.230   3.098  10.882  0.8669  0.6268  0.2573
  326MPD2    C2 4894   3.369   3.117  10.873  0.3634 -0.6575 -0.5332
  326MPD2    C3 4895   3.439   3.210  10.950  0.6833 -0.4371  0.6941
  326MPD2    C4 4896   3.362   3.282  11.036 -0.7570 -0.0357 -0.6069
  326MPD2    C5 4897   3.225   3.269  11.050  0.1780 -0.3399  0.4843
  326MPD2     H 4898   3.427   3.049  10.811  1.9804  0.9316 -0.7550
  326MPD2    H1 4899   3.412   3.352  11.102 -0.3918  0.3143 -1.2527
  326MPD2    H2 4900   3.050   3.158  10.992  0.0554  0.3018  0.9104
  326MPD2    H3 4901   3.166   3.318  11.126  0.9949  0.1305  0.8108
  326MPD2     N 4902   3.581   3.232  10.947 -0.2590  0.0662 -0.5138
  326MPD2    H5 4903   3.621   3.310  10.999 -0.9929 -0.5095  0.9120
  326MPD2    N1 4904   3.178   2.978  10.819  0.3709 -0.0318 -0.2903
  326MPD2    H7 4905   3.256   2.924  10.784  1.1098  0.1801  1.0380
  327TMC3    C1 4906   3.015   2.826  10.735 -0.7055  0.1868  0.0726
  327TMC3    C2 4907   2.919   2.828  10.636  0.0294 -0.3718 -0.0201
  327TMC3    C3 4908   2.915   2.727  10.545  0.1103 -0.1627 -0.3405
  327TMC3    C4 4909   3.109   2.725  10.755  0.5519 -0.4274 -0.1160
  327TMC3    C5 4910   3.077   2.617  10.677  0.2041 -0.3059  0.4216
  327TMC3    C6 4911   2.991   2.617  10.572 -0.0855 -0.2013  0.4799
  327TMC3     C 4912   3.044   2.948  10.801  0.2884  0.4548 -0.1021
  327TMC3     O 4913   2.951   3.014  10.837 -0.4839 -0.0461 -0.0509
  327TMC3     H 4914   2.870   2.921  10.608 -0.9800 -0.0576  2.7788
  327TMC3    H1 4915   3.192   2.721  10.824 -1.4187  0.9781  2.3193
  327TMC3    H2 4916   2.995   2.524  10.517 -4.0115 -0.9081  1.3733
  327TMC3    C7 4917   3.157   2.494  10.698 -0.2474 -0.1807  0.0398
  327TMC3    C8 4918   2.963   2.782  10.424  0.4929  0.0456  0.2021
  327TMC3    O1 4919   3.098   2.389  10.667 -0.1117 -0.6919 -0.0683
  327TMC3    O2 4920   3.071   2.734  10.388 -0.1025 -0.3950 -0.1697
  328MPD2     C 4921   1.051   3.124  17.254 -0.1362 -0.6431  0.1698
  328MPD2    C1 4922   0.922   3.074  17.269  0.0220 -0.0520 -0.1663
  328MPD2    C2 4923   0.846   3.065  17.155  0.3150  0.3423  0.3860
  328MPD2    C3 4924   0.881   3.124  17.035 -0.2525  0.5815  0.1697
  328MPD2    C4 4925   1.009   3.178  17.027 -0.1082  0.0301  0.2296
  328MPD2    C5 4926   1.087   3.180  17.133 -0.6686 -0.7493 -0.1415
  328MPD2     H 4927   0.756   3.005  17.152 -0.3267  1.3400 -0.2564
  328MPD2    H1 4928   1.045   3.231  16.940 -5.0406  1.3575 -1.0098
  328MPD2    H2 4929   1.116   3.136  17.339 -0.6865 -2.0151  0.7884
  328MPD2    H3 4930   1.182   3.229  17.114 -1.2663  1.1351  1.7149
  328MPD2     N 4931   0.794   3.141  16.925  0.2306  0.3070 -0.1191
  328MPD2    H5 4932   0.823   3.208  16.855 -0.8565  0.3078 -0.5706
  328MPD2    N1 4933   0.889   3.021  17.402  0.3495  0.8650 -0.4009
  328MPD2    H7 4934   0.955   3.034  17.478  0.2129  2.2541 -0.5366
  329TMC3    C1 4935   0.777   2.871  17.549 -0.1349 -0.1169 -0.0797
  329TMC3    C2 4936   0.815   2.943  17.657 -0.1107  0.4522 -0.2918
  329TMC3    C3 4937   0.875   2.876   0.056 -0.1834  0.2892  0.2733
  329TMC3    C4 4938   0.804   2.736  17.535 -0.3639  0.3646 -0.4407
  329TMC3    C5 4939   0.881   2.678  17.638 -0.4580 -0.4432  0.6373
  329TMC3    C6 4940   0.904   2.739   0.053 -0.4253  0.6169 -0.1447
  329TMC3     C 4941   0.780   2.942  17.426  1.1136 -0.1396 -0.0431
  329TMC3     O 4942   0.700   2.903  17.344 -0.0214  0.2279 -0.2104
  329TMC3     H 4943   0.801   3.049  17.674  0.9499  0.7632 -1.3529
  329TMC3    H1 4944   0.805   2.703  17.432 -0.9271  0.3881 -0.4516
  329TMC3    H2 4945   0.957   2.688   0.132  0.2281  2.6223  0.7008
  329TMC3    C7 4946   0.936   2.546  17.613 -0.1060  0.3196 -0.0255
  329TMC3    C8 4947   0.881   2.938   0.184 -0.2352  0.5212  0.0919
  329TMC3    O1 4948   1.035   2.523  17.686 -0.2335 -0.1073  0.0983
  329TMC3    O2 4949   0.953   2.879   0.265  0.2932 -0.1561 -0.1430
  330TMC3    C1 4950   4.013   2.063   9.678  0.9037 -0.6733 -0.1182
  330TMC3    C2 4951   3.967   1.950   9.620 -1.0085 -0.0621  0.6989
  330TMC3    C3 4952   4.032   1.826   9.647  0.7125 -0.5749 -0.2433
  330TMC3    C4 4953   4.115   2.055   9.767 -0.0399 -0.0017  0.1901
  330TMC3    C5 4954   4.173   1.932   9.798 -0.9366  0.1157  0.3452
  330TMC3    C6 4955   4.134   1.812   9.739  0.1760 -0.2489 -0.5698
  330TMC3     C 4956   3.931   2.179   9.698 -0.6340 -0.2635 -0.4246
  330TMC3     O 4957   3.934   2.233   9.809  0.1264 -0.3294 -0.3003
  330TMC3     H 4958   3.866   1.939   9.583 -0.8886  2.1070 -0.2518
  330TMC3    H1 4959   4.135   2.149   9.816  0.6070  0.6044 -1.2267
  330TMC3    H2 4960   4.183   1.715   9.748  0.9589 -0.0581 -2.6378
  330TMC3    C7 4961   4.269   1.934   9.905 -0.2421  0.5117 -0.4195
  330TMC3    C8 4962   4.011   1.710   9.561 -0.0897 -0.0993 -0.4207
  330TMC3    O1 4963   4.283   2.042   9.965 -0.3821 -0.0410 -0.3411
  330TMC3    O2 4964   3.948   1.736   9.458  0.5453 -0.2279  0.0218
  331MPD2     C 4965   2.530   1.637  12.954 -0.1349  0.3709 -1.0870
  331MPD2    C1 4966   2.570   1.637  12.827  0.1850  0.0260  0.4543
  331MPD2    C2 4967   2.496   1.558  12.737 -0.4936 -0.6041 -0.3505
  331MPD2    C3 4968   2.379   1.488  12.769 -0.1977 -0.7150 -0.3023
  331MPD2    C4 4969   2.337   1.502  12.902  0.0995 -0.7649 -0.2861
  331MPD2    C5 4970   2.410   1.578  12.986  0.2343 -0.6386  0.1547
  331MPD2     H 4971   2.526   1.560  12.633 -0.3394  0.9223 -0.2835
  331MPD2    H1 4972   2.243   1.466  12.942  0.9262  0.4313  2.6821
  331MPD2    H2 4973   2.585   1.694  13.027 -0.8668 -0.3017 -0.0145
  331MPD2    H3 4974   2.369   1.587  13.086  1.3331 -0.3140  0.5790
  331MPD2     N 4975   2.307   1.425  12.662  0.5752  0.2009 -0.4473
  331MPD2    H5 4976   2.353   1.418  12.572  0.0320  0.7029 -0.7660
  331MPD2    N1 4977   2.683   1.707  12.781  1.0803 -0.2960  0.3864
  331MPD2    H7 4978   2.724   1.766  12.852  1.6343 -0.2048 -0.0074
  332TMC3    C1 4979   2.143   1.310  12.554 -0.0725 -0.2905  0.4883
  332TMC3    C2 4980   2.186   1.361  12.432 -0.5728 -0.2484  0.0202
  332TMC3    C3 4981   2.132   1.304  12.319 -0.1021  0.0627 -0.2563
  332TMC3    C4 4982   2.052   1.209  12.570 -0.0550  0.5078 -0.2308
  332TMC3    C5 4983   2.009   1.151  12.454  0.7738  0.2471  0.1398
  332TMC3    C6 4984   2.044   1.197  12.325 -0.4946  0.4783  0.5874
  332TMC3     C 4985   2.199   1.349  12.681 -0.2984 -0.0014  0.0646
  332TMC3     O 4986   2.145   1.314  12.783  0.8232  0.0189 -0.1600
  332TMC3     H 4987   2.249   1.448  12.424  0.4730 -0.7568  2.7516
  332TMC3    H1 4988   2.001   1.173  12.659 -2.8574 -0.4695 -2.2175
  332TMC3    H2 4989   2.016   1.143  12.236  0.9845 -1.8240  1.5280
  332TMC3    C7 4990   1.992   1.008  12.463 -0.0484  0.0312 -0.4202
  332TMC3    C8 4991   2.164   1.372  12.197  0.9844 -0.5562 -0.3980
  332TMC3    O1 4992   1.937   0.944  12.369 -0.6477  0.0468  0.2853
  332TMC3    O2 4993   2.260   1.444  12.200  0.2770  0.4105  0.1787
  333MPD2     C 4994   2.472   1.193  11.429  0.2900  0.3219 -0.6678
  333MPD2    C1 4995   2.451   1.146  11.298  0.3460  0.0284 -0.3631
  333MPD2    C2 4996   2.340   1.069  11.283  0.4031 -0.5558 -0.7420
  333MPD2    C3 4997   2.253   1.034  11.383 -0.1612 -0.2217  0.3236
  333MPD2    C4 4998   2.272   1.080  11.511 -0.1830 -0.0110  0.4345
  333MPD2    C5 4999   2.382   1.170  11.529 -0.2430  0.1913  0.0160
  333MPD2     H 5000   2.308   1.028  11.188 -0.5546 -0.2791 -0.5308
  333MPD2    H1 5001   2.209   1.055  11.596  1.4366  3.4806  2.6813
  333MPD2    H2 5002   2.554   1.259  11.455  1.2133 -1.8010  1.8426
  333MPD2    H3 5003   2.399   1.209  11.629 -1.7837 -0.9260  0.7065
  333MPD2     N 5004   2.158   0.936  11.347 -0.2749  1.3310  0.4515
  333MPD2    H5 5005   2.155   0.889  11.257  1.9472 -0.3660  1.2810
  333MPD2    N1 5006   2.544   1.175  11.190 -0.0323 -1.0581 -0.2957
  333MPD2    H7 5007   2.615   1.241  11.220  0.4408 -0.9299 -1.6987
  334TMC3    C1 5008   2.619   1.185  10.980  0.1570  0.1010 -1.0407
  334TMC3    C2 5009   2.687   1.092  10.903 -0.0586  0.2806 -0.2819
  334TMC3    C3 5010   2.806   1.132  10.858 -0.5954 -0.1129 -0.1891
  334TMC3    C4 5011   2.658   1.314  11.005  0.6728  0.5651 -0.2872
  334TMC3    C5 5012   2.785   1.347  10.951  1.2896  0.3597  0.1126
  334TMC3    C6 5013   2.863   1.257  10.884 -0.2277  0.2948 -0.1433
  334TMC3     C 5014   2.525   1.127  11.062  0.7504  0.2393 -0.2471
  334TMC3     O 5015   2.468   1.028  11.033  0.5524 -0.2014 -0.3523
  334TMC3     H 5016   2.648   0.994  10.877 -1.2118 -0.4782  4.1870
  334TMC3    H1 5017   2.599   1.381  11.068 -0.6373 -1.4370  0.6024
  334TMC3    H2 5018   2.947   1.292  10.825 -1.3009  1.4544 -0.9879
  334TMC3    C7 5019   2.847   1.476  10.969  0.9044 -0.1701  0.0527
  334TMC3    C8 5020   2.868   1.053  10.750  0.2034  0.1243 -0.7385
  334TMC3    O1 5021   2.962   1.483  10.937  0.3417  0.0340 -0.7897
  334TMC3    O2 5022   2.798   0.971  10.690 -0.3080  0.3510 -0.5845
  335TMC3    C1 5023   1.467   3.065  17.051 -0.2545 -0.1616 -0.1364
  335TMC3    C2 5024   1.491   2.955  16.975 -0.2428  0.1281  0.4315
  335TMC3    C3 5025   1.593   2.964  16.880  0.3104  0.0701  0.7515
  335TMC3    C4 5026   1.543   3.183  17.034  0.5042  0.2835 -0.2087
  335TMC3    C5 5027   1.637   3.182  16.938 -0.6157  0.2634 -0.4979
  335TMC3    C6 5028   1.657   3.077  16.857  0.2680 -0.2913 -0.4144
  335TMC3     C 5029   1.425   3.042  17.187  0.0054  0.3786 -0.7330
  335TMC3     O 5030   1.414   3.145  17.254 -0.3667 -0.5545  0.0374
  335TMC3     H 5031   1.442   2.862  17.001 -1.6617  0.3825 -1.3467
  335TMC3    H1 5032   1.511   3.273  17.085 -0.9276 -0.7446  0.6909
  335TMC3    H2 5033   1.738   3.081  16.785  1.1161 -3.0463  0.4003
  335TMC3    C7 5034   1.738   3.285  16.934  0.7595  0.0598 -0.0016
  335TMC3    C8 5035   1.644   2.847  16.814  0.2722  0.3517 -0.1290
  335TMC3    O1 5036   1.824   3.268  16.847 -0.0620  0.0945 -0.4383
  335TMC3    O2 5037   1.762   2.844  16.788  0.0596 -0.4193 -0.1374
  336MPD2     C 5038   1.379   0.448  16.256  0.1372  0.5587  0.3951
  336MPD2    C1 5039   1.335   0.434  16.127 -0.2432  0.2361  0.1655
  336MPD2    C2 5040   1.317   0.303  16.082 -0.9200 -0.2715  0.7727
  336MPD2    C3 5041   1.346   0.188  16.162  0.2896  0.0029  1.1195
  336MPD2    C4 5042   1.384   0.207  16.294 -0.8722 -0.1918  0.3792
  336MPD2    C5 5043   1.400   0.335  16.336  0.0658 -0.0699  0.1203
  336MPD2     H 5044   1.282   0.295  15.980 -0.9390 -4.2008  1.0792
  336MPD2    H1 5045   1.391   0.126  16.367 -0.8457  0.2139  0.8242
  336MPD2    H2 5046   1.419   0.539  16.300  0.0277  0.7651  0.0685
  336MPD2    H3 5047   1.429   0.354  16.439 -0.4799 -1.0630  0.4567
  336MPD2     N 5048   1.361   0.054  16.114  0.6225 -0.1807 -0.1924
  336MPD2    H5 5049   1.397   4.716  16.185  1.1226 -0.9614 -1.1508
  336MPD2    N1 5050   1.314   0.553  16.056 -0.3454 -0.2300  0.4709
  336MPD2    H7 5051   1.348   0.637  16.102 -0.8052  1.1870 -1.7440
  337TMC3    C1 5052   1.281   0.703  15.878  0.5082  0.3398 -0.1179
  337TMC3    C2 5053   1.190   0.748  15.788  0.1295  0.4070  0.5235
  337TMC3    C3 5054   1.217   0.858  15.705  0.8651 -0.6694  0.0028
  337TMC3    C4 5055   1.406   0.760  15.889 -1.1479 -0.9449 -0.2216
  337TMC3    C5 5056   1.420   0.874  15.809 -0.0354  0.5528  0.1246
  337TMC3    C6 5057   1.334   0.921  15.714  0.1168 -0.0638 -0.1519
  337TMC3     C 5058   1.263   0.564  15.930  0.4691  0.7365  0.9378
  337TMC3     O 5059   1.188   0.493  15.860 -0.0217  0.1348  0.7310
  337TMC3     H 5060   1.095   0.696  15.784 -1.0788  2.5385  0.9768
  337TMC3    H1 5061   1.470   0.733  15.971  0.1025  0.7716 -0.6143
  337TMC3    H2 5062   1.347   1.005  15.647 -1.9205  0.3659 -0.0046
  337TMC3    C7 5063   1.552   0.929  15.786  0.6724 -0.8124 -0.0208
  337TMC3    C8 5064   1.105   0.937  15.663 -0.1645  0.0252 -0.1365
  337TMC3    O1 5065   1.561   1.032  15.722  0.1440  0.2888  0.3077
  337TMC3    O2 5066   1.127   0.994  15.559 -0.1321  0.7954 -0.3066
  338MPD2     C 5067   1.020   0.715   1.131 -0.5655  0.3445 -0.3594
  338MPD2    C1 5068   1.060   0.637   1.017  0.0333 -0.0623  0.1000
  338MPD2    C2 5069   0.986   0.638   0.902  0.8750 -0.9322  0.0979
  338MPD2    C3 5070   0.862   0.696   0.891 -0.4274 -0.1863 -0.0225
  338MPD2    C4 5071   0.827   0.772   0.999 -0.4252  0.6643  0.3033
  338MPD2    C5 5072   0.906   0.786   1.110  0.1008 -0.2948 -0.3296
  338MPD2     H 5073   1.022   0.567   0.828 -0.2821 -0.9105 -0.4991
  338MPD2    H1 5074   0.740   0.837   0.995 -0.1485  0.9061 -1.8396
  338MPD2    H2 5075   1.080   0.730   1.220 -0.5457  3.8791 -0.9969
  338MPD2    H3 5076   0.861   0.846   1.188 -0.8184  0.3816 -1.3849
  338MPD2     N 5077   0.782   0.678   0.771  0.4818 -0.5964 -0.4693
  338MPD2    H5 5078   0.814   0.617   0.697 -1.7049 -3.7730  1.1654
  338MPD2    N1 5079   1.177   0.560   1.014 -0.0159 -0.1019  0.7190
  338MPD2    H7 5080   1.194   0.515   0.925 -1.9210  1.8038 -0.6354
  339TMC3    C1 5081   0.592   0.669   0.636  0.5173 -0.7327  0.0197
  339TMC3    C2 5082   0.482   0.597   0.663 -0.0061  0.4366 -0.4599
  339TMC3    C3 5083   0.475   0.474   0.609 -0.3936  0.6051 -0.0343
  339TMC3    C4 5084   0.681   0.637   0.536 -0.5194  0.6303 -0.8605
  339TMC3    C5 5085   0.664   0.513   0.484 -0.1794 -0.1401 -0.2508
  339TMC3    C6 5086   0.564   0.426   0.514 -0.9130  0.1297 -1.0712
  339TMC3     C 5087   0.652   0.718   0.754 -0.6256  0.1521 -0.8620
  339TMC3     O 5088   0.581   0.750   0.848 -0.0419 -0.0823 -0.1284
  339TMC3     H 5089   0.407   0.627   0.735  0.0712  0.0272 -0.2071
  339TMC3    H1 5090   0.772   0.694   0.521 -0.2674  0.8249  1.3891
  339TMC3    H2 5091   0.557   0.327   0.471  0.4753 -0.8680  1.0381
  339TMC3    C7 5092   0.781   0.469   0.401 -0.2024 -0.3262 -0.1275
  339TMC3    C8 5093   0.385   0.383   0.678  0.5591  0.2331 -0.3120
  339TMC3    O1 5094   0.833   0.562   0.341 -0.1024  0.4852  0.7194
  339TMC3    O2 5095   0.282   0.434   0.711  0.6044 -0.0651  0.4190
  340MPD2     C 5096   2.496   2.549  10.470  0.1269  0.0997  0.0291
  340MPD2    C1 5097   2.480   2.418  10.438 -0.1752 -0.4162 -0.5102
  340MPD2    C2 5098   2.544   2.322  10.516 -0.3304 -0.0529 -0.0561
  340MPD2    C3 5099   2.631   2.365  10.615 -0.1540  0.4147  0.3790
  340MPD2    C4 5100   2.640   2.496  10.650  0.6434  0.0571  0.9506
  340MPD2    C5 5101   2.577   2.590  10.572  0.4544 -0.0187 -0.3235
  340MPD2     H 5102   2.518   2.218  10.498  1.3346 -0.9728  2.8291
  340MPD2    H1 5103   2.702   2.519  10.736  1.9113  0.5743 -0.1085
  340MPD2    H2 5104   2.447   2.633  10.421 -0.8488 -0.2270  0.4478
  340MPD2    H3 5105   2.566   2.697  10.590  1.1039 -0.1322  0.7210
  340MPD2     N 5106   2.692   2.264  10.694 -0.8255 -0.1989  0.9540
  340MPD2    H5 5107   2.760   2.297  10.762 -0.7543  0.2643  0.6529
  340MPD2    N1 5108   2.393   2.387  10.327  0.0945  0.0998  0.0564
  340MPD2    H7 5109   2.359   2.472  10.283  0.7553 -0.0300 -0.6911
  341TMC3    C1 5110   2.320   2.257  10.138 -0.1166  0.5548 -1.5453
  341TMC3    C2 5111   2.247   2.144  10.104 -0.4159  0.2534  0.0705
  341TMC3    C3 5112   2.246   2.090   9.977 -0.6536  0.3307 -0.0304
  341TMC3    C4 5113   2.404   2.303  10.036  0.3751  0.0548 -0.2099
  341TMC3    C5 5114   2.413   2.249   9.912 -0.1008  0.7610  0.0701
  341TMC3    C6 5115   2.330   2.142   9.879  0.3167  0.6096  0.2758
  341TMC3     C 5116   2.366   2.262  10.279  1.0363  0.1584 -0.2715
  341TMC3     O 5117   2.359   2.158  10.344  0.5336 -0.6809 -0.3531
  341TMC3     H 5118   2.166   2.115  10.170 -0.3793  1.1261  0.4975
  341TMC3    H1 5119   2.486   2.362  10.073  1.4294 -0.9583 -0.9240
  341TMC3    H2 5120   2.351   2.093   9.784 -0.9675  0.5415  0.0289
  341TMC3    C7 5121   2.549   2.234   9.858  0.0528  0.0798  0.5026
  341TMC3    C8 5122   2.157   1.981   9.957  0.6289  0.1751  0.1816
  341TMC3    O1 5123   2.592   2.120   9.841  0.1050 -0.0084 -0.4514
  341TMC3    O2 5124   2.059   1.977  10.028 -0.0424  0.4945  0.1978
  342MPD2     C 5125   4.165   1.028  17.201  0.5826 -0.4834 -0.8993
  342MPD2    C1 5126   4.285   1.024  17.141 -0.0282  0.1776  0.4398
  342MPD2    C2 5127   4.357   1.147  17.133 -0.2261 -0.0570  0.2004
  342MPD2    C3 5128   4.305   1.262  17.189  1.4174 -0.6131 -0.9676
  342MPD2    C4 5129   4.183   1.256  17.246  0.2585 -0.2468 -0.4704
  342MPD2    C5 5130   4.115   1.138  17.255 -0.5429  0.2360  0.2191
  342MPD2     H 5131   4.459   1.153  17.096 -1.3462  0.1109 -2.8057
  342MPD2    H1 5132   4.136   1.344  17.289 -2.2928 -2.1482  0.6895
  342MPD2    H2 5133   4.095   0.945  17.211  0.6333 -0.4380 -0.1995
  342MPD2    H3 5134   4.011   1.148  17.285 -1.1388 -0.1089 -1.7551
  342MPD2     N 5135   4.372   1.385  17.203  0.8029  0.8624 -0.1804
  342MPD2    H5 5136   4.319   1.457  17.252 -0.6246 -0.5478  0.3510
  342MPD2    N1 5137   4.338   0.897  17.098  0.2487 -0.4461  0.8057
  342MPD2    H7 5138   4.436   0.907  17.074  0.8112  0.0281  3.3290
  343TMC3    C1 5139   4.338   0.663  17.032  0.0692  0.5247 -0.3276
  343TMC3    C2 5140   4.444   0.684  16.953 -1.0319 -0.3324  0.4813
  343TMC3    C3 5141   4.480   0.584  16.867 -0.7241  0.1121 -0.7903
  343TMC3    C4 5142   4.269   0.545  17.037  0.3657  0.3459 -0.0438
  343TMC3    C5 5143   4.311   0.450  16.953  0.1215  0.2315 -0.7656
  343TMC3    C6 5144   4.410   0.463  16.865 -0.0960  0.7650  0.0101
  343TMC3     C 5145   4.276   0.775  17.111  0.1945  0.4762 -0.2685
  343TMC3     O 5146   4.163   0.743  17.153 -0.7336  0.0900  0.3405
  343TMC3     H 5147   4.503   0.774  16.956  0.8355 -1.6400  2.8224
  343TMC3    H1 5148   4.184   0.533  17.103 -0.7345  0.1518 -1.5121
  343TMC3    H2 5149   4.423   0.388  16.788 -2.6254  0.1312  0.1925
  343TMC3    C7 5150   4.243   0.321  16.953  0.2045 -0.2943  0.1203
  343TMC3    C8 5151   4.623   0.566  16.855 -0.7930  0.2257  0.5948
  343TMC3    O1 5152   4.242   0.244  16.856 -0.7199 -0.9753  0.2654
  343TMC3    O2 5153   4.685   0.613  16.946 -0.3211 -0.2347 -1.5318
  344MPD2     C 5154   1.087   0.325  10.397  0.0843 -0.4252 -0.2044
  344MPD2    C1 5155   1.095   0.370  10.527  0.1934  0.3510  0.7939
  344MPD2    C2 5156   1.111   0.508  10.549  0.2584 -0.6772  0.1239
  344MPD2    C3 5157   1.131   0.595  10.440  0.3492  0.2897  0.1042
  344MPD2    C4 5158   1.142   0.542  10.313 -0.4841  0.5014 -0.2108
  344MPD2    C5 5159   1.122   0.410  10.299 -0.7740 -0.3809  0.3486
  344MPD2     H 5160   1.097   0.550  10.648 -1.7892  1.5890 -1.1218
  344MPD2    H1 5161   1.171   0.601  10.227  0.5037  1.0243  0.4729
  344MPD2    H2 5162   1.054   0.225  10.373 -2.9159  0.2419  1.1442
  344MPD2    H3 5163   1.123   0.384  10.194  1.2007  0.7162  0.0933
  344MPD2     N 5164   1.127   0.736  10.443 -0.5700  0.0826  0.4511
  344MPD2    H5 5165   1.153   0.791  10.362  0.4618  1.1948  1.5337
  344MPD2    N1 5166   1.080   0.286  10.642 -0.4023 -0.0059 -0.3240
  344MPD2    H7 5167   1.048   0.329  10.728 -1.4479 -0.0317 -0.6977
  345TMC3    C1 5168   1.135   0.956  10.536  0.3793  0.2740  0.4220
  345TMC3    C2 5169   1.161   1.027  10.646  0.8649 -0.0569 -0.1785
  345TMC3    C3 5170   1.135   1.158  10.639  0.5023 -1.0104  0.1057
  345TMC3    C4 5171   1.098   1.009  10.413  0.7291 -1.1242  0.5901
  345TMC3    C5 5172   1.082   1.144  10.407 -0.2783 -0.1352 -0.2094
  345TMC3    C6 5173   1.080   1.213  10.527 -0.2184  0.1991 -0.4276
  345TMC3     C 5174   1.129   0.811  10.556 -0.1380 -0.6110  0.8734
  345TMC3     O 5175   1.144   0.768  10.671 -0.0029 -1.0381  0.1554
  345TMC3     H 5176   1.201   0.988  10.738  0.2392  2.5933  1.2318
  345TMC3    H1 5177   1.085   0.951  10.322  1.1945 -2.2514  1.2574
  345TMC3    H2 5178   1.049   1.317  10.527 -0.5733  0.0904 -1.1292
  345TMC3    C7 5179   1.128   1.223  10.290  0.7649  0.0616  0.1520
  345TMC3    C8 5180   1.244   1.237  10.693 -0.9542 -0.4399  0.1838
  345TMC3    O1 5181   1.187   1.330  10.312  0.1525 -0.0098 -0.1367
  345TMC3    O2 5182   1.302   1.198  10.790  0.3494 -0.5773 -0.2860
  346MPD2     C 5183   1.054   1.916  13.710  0.0356  0.0712  0.9110
  346MPD2    C1 5184   1.121   2.032  13.755 -0.2817  0.5858 -0.1600
  346MPD2    C2 5185   1.102   2.086  13.881  0.6765 -0.4813  0.0052
  346MPD2    C3 5186   0.989   2.034  13.952  0.2444  0.3961 -0.3534
  346MPD2    C4 5187   0.930   1.917  13.906 -0.4348 -0.7756  0.6812
  346MPD2    C5 5188   0.962   1.859  13.790  0.1524 -0.3190  0.2387
  346MPD2     H 5189   1.138   2.184  13.910  0.5759  0.3140 -2.5812
  346MPD2    H1 5190   0.858   1.870  13.971 -0.3878 -1.4525  0.2478
  346MPD2    H2 5191   1.087   1.862  13.622  1.1620 -1.4193  2.2536
  346MPD2    H3 5192   0.927   1.758  13.770  2.5759 -1.3914  1.3934
  346MPD2     N 5193   0.958   2.101  14.071  0.1100 -0.1372 -0.6111
  346MPD2    H5 5194   1.029   2.167  14.103 -1.9481  1.6162  0.3113
  346MPD2    N1 5195   1.211   2.100  13.675 -0.2722  0.7029 -0.6777
  346MPD2    H7 5196   1.266   2.173  13.720  0.9119 -1.1810  0.9163
  347TMC3    C1 5197   0.848   2.170  14.262 -0.2422  0.6590  0.3181
  347TMC3    C2 5198   0.964   2.188  14.333  0.2140 -0.5797  0.6822
  347TMC3    C3 5199   0.969   2.283  14.424 -0.3844 -0.1206 -0.4174
  347TMC3    C4 5200   0.738   2.240  14.282 -0.5273  0.1898  0.1892
  347TMC3    C5 5201   0.756   2.357  14.363  0.1883 -0.9019 -0.0288
  347TMC3    C6 5202   0.864   2.372  14.439  0.2020 -0.1279 -0.7202
  347TMC3     C 5203   0.844   2.085  14.145 -0.0863 -0.2315 -0.4022
  347TMC3     O 5204   0.738   2.034  14.115 -0.4431  0.0354 -0.2956
  347TMC3     H 5205   1.050   2.131  14.302  2.4668  2.4435  1.3068
  347TMC3    H1 5206   0.653   2.240  14.214  0.7144  0.3345 -1.3843
  347TMC3    H2 5207   0.877   2.465  14.494  1.1737 -0.7673  0.1302
  347TMC3    C7 5208   0.641   2.449  14.368 -0.5572 -0.4380 -0.1496
  347TMC3    C8 5209   1.086   2.297  14.508 -0.8109  0.1445  0.2505
  347TMC3    O1 5210   0.550   2.429  14.288 -0.1762  0.2959  0.2008
  347TMC3    O2 5211   1.192   2.253  14.463 -0.4427  0.7020  0.8455
  348MPD2     C 5212   4.667   1.942  12.046  0.1592  0.1963 -0.7445
  348MPD2    C1 5213   4.612   1.855  11.955 -0.3867 -0.0089 -0.2806
  348MPD2    C2 5214   4.573   1.895  11.831  0.2102  0.0865 -0.2805
  348MPD2    C3 5215   4.575   2.035  11.796 -0.4864  0.6798 -0.4147
  348MPD2    C4 5216   4.639   2.121  11.884 -0.1977 -0.5090 -0.2054
  348MPD2    C5 5217   4.691   2.071  12.003  0.0331  0.8508  0.0132
  348MPD2     H 5218   4.537   1.827  11.755  1.4046  0.2689 -0.9953
  348MPD2    H1 5219   4.657   2.222  11.848  0.5495 -0.8351 -0.7513
  348MPD2    H2 5220   4.706   1.908  12.142 -4.4970  0.4316  1.2409
  348MPD2    H3 5221   0.019   2.135  12.073  0.8239  0.5637 -0.3195
  348MPD2     N 5222   4.545   2.088  11.667 -0.0382 -0.9046 -0.0581
  348MPD2    H5 5223   4.571   2.181  11.635 -2.6432 -0.3216 -0.4322
  348MPD2    N1 5224   4.611   1.710  11.965  0.4582  0.6954 -0.3250
  348MPD2    H7 5225   4.573   1.655  11.888  0.2400 -1.0067  0.9974
  349TMC3    C1 5226   4.688   1.499  12.027  0.9943 -0.6432 -0.5053
  349TMC3    C2 5227   4.624   1.395  12.083 -0.3149 -0.0853 -0.1782
  349TMC3    C3 5228   4.630   1.274  12.014  0.0123 -0.3389 -1.0213
  349TMC3    C4 5229   0.023   1.498  11.900  0.0165  0.5670  0.1859
  349TMC3    C5 5230   0.003   1.389  11.823  0.0005  0.1786  0.4736
  349TMC3    C6 5231   4.679   1.277  11.888  0.1772  0.0154 -0.1545
  349TMC3     C 5232   4.662   1.635  12.072  0.3905 -0.4126  0.1581
  349TMC3     O 5233   4.666   1.666  12.188  0.0261  0.1322 -0.3179
  349TMC3     H 5234   4.567   1.400  12.175  1.6653  1.4489  0.9516
  349TMC3    H1 5235   0.078   1.583  11.863  0.7135 -1.1799 -2.7356
  349TMC3    H2 5236   4.674   1.187  11.828  2.0843 -0.0639 -0.1693
  349TMC3    C7 5237   4.683   1.410  11.680 -0.6141  0.8424 -0.5278
  349TMC3    C8 5238   4.593   1.159  12.086  0.6950  0.4193 -0.1315
  349TMC3    O1 5239   4.630   1.321  11.620  0.0119  0.1075 -0.4753
  349TMC3    O2 5240   4.583   1.165  12.207 -0.4125  0.2350  0.1544
  350MPD2     C 5241   3.531   3.386  10.069 -0.6846  0.4147  0.7714
  350MPD2    C1 5242   3.652   3.443  10.031  0.1198  0.0148 -0.1519
  350MPD2    C2 5243   3.708   3.543  10.104 -0.5949 -0.5149  0.2791
  350MPD2    C3 5244   3.655   3.578  10.227 -0.1885  0.5784 -0.1877
  350MPD2    C4 5245   3.540   3.516  10.260  0.5387 -0.5354  0.0193
  350MPD2    C5 5246   3.475   3.425  10.180  0.5095 -0.2863  0.3229
  350MPD2     H 5247   3.799   3.594  10.073  0.4549 -1.5706  1.6091
  350MPD2    H1 5248   3.485   3.536  10.351  0.1781 -1.2187 -0.0520
  350MPD2    H2 5249   3.480   3.317  10.003  1.4879  0.9951 -1.5091
  350MPD2    H3 5250   3.387   3.371  10.214  0.0008  0.4935  0.2526
  350MPD2     N 5251   3.718   3.669  10.312  0.2311  0.0521 -0.0554
  350MPD2    H5 5252   3.806   3.705  10.276 -1.6347  2.1786 -2.4706
  350MPD2    N1 5253   3.721   3.408   9.912 -0.1683  0.2018 -0.2015
  350MPD2    H7 5254   3.811   3.452   9.896 -0.9632  1.6315 -0.7757
  351TMC3    C1 5255   3.780   3.288   9.711 -0.4765  0.4990  0.1782
  351TMC3    C2 5256   3.916   3.303   9.730  0.3061  0.0526  0.5029
  351TMC3    C3 5257   3.997   3.285   9.625  0.3236  0.1332 -0.0417
  351TMC3    C4 5258   3.739   3.247   9.588  0.0191 -0.3013  0.1368
  351TMC3    C5 5259   3.825   3.227   9.481  0.6523  0.0306  0.6190
  351TMC3    C6 5260   3.954   3.247   9.499 -0.1233  0.4449  0.0317
  351TMC3     C 5261   3.683   3.320   9.815  0.8194 -0.8211 -0.4618
  351TMC3     O 5262   3.571   3.275   9.795  0.6152  0.2544  0.7970
  351TMC3     H 5263   3.956   3.312   9.831 -2.9726  0.7185  1.7553
  351TMC3    H1 5264   3.634   3.221   9.579 -0.1007  1.1440 -2.5703
  351TMC3    H2 5265   4.021   3.248   9.414 -1.9641  1.5202 -1.4014
  351TMC3    C7 5266   3.765   3.235   9.356 -0.2794 -0.2113  0.4790
  351TMC3    C8 5267   4.144   3.300   9.633  0.4146 -0.2057 -0.5482
  351TMC3    O1 5268   3.646   3.266   9.347 -0.4744  0.2916 -0.3865
  351TMC3    O2 5269   4.216   3.230   9.563  0.5347  0.1285 -0.4927
  352MPD2     C 5270   1.420   2.304   1.323  0.6092 -0.2922 -0.1371
  352MPD2    C1 5271   1.348   2.256   1.218  0.0326 -0.2754 -0.9135
  352MPD2    C2 5272   1.242   2.171   1.250 -1.2781 -0.7009  0.1478
  352MPD2    C3 5273   1.221   2.125   1.377 -0.5816  0.4464 -0.3822
  352MPD2    C4 5274   1.289   2.184   1.476  0.0866  0.6974  0.0317
  352MPD2    C5 5275   1.386   2.277   1.452  1.1681  0.6582  0.4706
  352MPD2     H 5276   1.195   2.120   1.167  0.1755 -0.1514 -1.0095
  352MPD2    H1 5277   1.274   2.153   1.579 -1.3489 -0.8358 -0.6437
  352MPD2    H2 5278   1.504   2.369   1.301  0.3846  0.0369 -0.0159
  352MPD2    H3 5279   1.434   2.327   1.535  1.7994  1.1760 -0.2175
  352MPD2     N 5280   1.123   2.028   1.405  0.4756  0.1592  0.0678
  352MPD2    H5 5281   1.117   2.005   1.504 -1.8847 -1.5481 -0.4558
  352MPD2    N1 5282   1.389   2.284   1.086  0.5877 -0.0068  0.1977
  352MPD2    H7 5283   1.475   2.338   1.079  0.0194  0.8356 -0.2375
  353TMC3    C1 5284   1.001   1.844   1.376  0.2835 -0.0171 -0.1433
  353TMC3    C2 5285   1.055   1.799   1.493 -0.2286  0.2910  0.0104
  353TMC3    C3 5286   1.024   1.670   1.527 -0.6804 -0.4065 -1.1590
  353TMC3    C4 5287   0.920   1.772   1.292 -0.9809  0.2364  0.2467
  353TMC3    C5 5288   0.879   1.647   1.332 -0.0367 -0.1789  0.6609
  353TMC3    C6 5289   0.940   1.598   1.448 -0.4354 -0.0150 -0.2547
  353TMC3     C 5290   1.040   1.964   1.319 -0.3767 -0.4921  0.2772
  353TMC3     O 5291   1.017   1.990   1.201 -0.5004  0.0506  0.4355
  353TMC3     H 5292   1.138   1.841   1.548  0.5777  0.1343 -1.0957
  353TMC3    H1 5293   0.866   1.818   1.210  0.2734  0.2954 -0.5488
  353TMC3    H2 5294   0.936   1.492   1.473 -1.2153  0.2688  0.8213
  353TMC3    C7 5295   0.815   1.560   1.237  0.1935 -0.4217 -0.1650
  353TMC3    C8 5296   1.127   1.601   1.603 -0.4942  0.4407  0.8541
  353TMC3    O1 5297   0.832   1.582   1.117 -0.4455 -0.2739 -0.0319
  353TMC3    O2 5298   1.151   1.646   1.713 -0.2512 -0.2262  0.3010
  354TMC3    C1 5299   3.785   3.092  13.540  0.2056  0.8603  0.4883
  354TMC3    C2 5300   3.780   3.214  13.476  0.3882 -0.8010  0.3969
  354TMC3    C3 5301   3.896   3.257  13.410 -0.2784  0.3725 -0.1323
  354TMC3    C4 5302   3.895   3.015  13.546 -0.4684  0.3909 -0.1690
  354TMC3    C5 5303   4.003   3.057  13.480 -0.6888  0.1993  0.5466
  354TMC3    C6 5304   4.013   3.178  13.416  0.5770 -0.2382  0.6951
  354TMC3     C 5305   3.672   3.058  13.630 -0.5251  0.0209  0.0634
  354TMC3     O 5306   3.556   3.083  13.602 -0.4549  0.4044 -0.7683
  354TMC3     H 5307   3.680   3.257  13.468 -0.3881 -2.7593 -0.5206
  354TMC3    H1 5308   3.877   2.917  13.587 -1.8631  0.3985 -0.7609
  354TMC3    H2 5309   4.104   3.217  13.372  0.0520  0.5809  0.3483
  354TMC3    C7 5310   4.086   2.957  13.426  0.1930  0.3073 -0.5012
  354TMC3    C8 5311   3.902   3.364  13.310  0.2452 -0.8835  0.4179
  354TMC3    O1 5312   4.130   2.878  13.509 -0.4761  0.3033  0.4484
  354TMC3    O2 5313   4.008   3.374  13.250 -0.1073  0.4611  0.3271
  355MPD2     C 5314   3.835   4.101  11.917 -0.3235  0.2460 -0.0143
  355MPD2    C1 5315   3.914   4.051  11.817  0.2277  0.8621 -0.9107
  355MPD2    C2 5316   3.968   3.925  11.841 -0.3477 -0.8051  0.4021
  355MPD2    C3 5317   3.951   3.858  11.959  0.4378 -0.3853 -0.0351
  355MPD2    C4 5318   3.865   3.905  12.056  0.6393  0.1567 -0.2606
  355MPD2    C5 5319   3.814   4.036  12.033 -0.7116  0.3647  0.3006
  355MPD2     H 5320   4.031   3.886  11.761  1.3357  0.9277  0.8852
  355MPD2    H1 5321   3.850   3.861  12.154 -2.5927 -1.9510 -1.6947
  355MPD2    H2 5322   3.787   4.196  11.897 -0.5265  0.3332  0.8711
  355MPD2    H3 5323   3.765   4.080  12.119  0.2077  1.2709  0.3594
  355MPD2     N 5324   4.040   3.748  11.992  0.6247  0.0996 -0.4134
  355MPD2    H5 5325   4.046   3.709  12.085  0.8225 -0.7106 -0.7609
  355MPD2    N1 5326   3.931   4.123  11.700  0.3358  0.0225 -0.3005
  355MPD2    H7 5327   3.880   4.210  11.697 -0.7162 -0.6211 -1.4045
  356TMC3    C1 5328   4.249   3.638  11.970  0.4819 -0.0657  0.1503
  356TMC3    C2 5329   4.355   3.619  11.884 -0.0985 -0.2349 -0.1143
  356TMC3    C3 5330   4.481   3.668  11.909 -0.5732 -0.5266  0.4157
  356TMC3    C4 5331   4.279   3.715  12.084  0.2238 -0.4376 -0.0398
  356TMC3    C5 5332   4.403   3.762  12.106 -1.1917  0.0640  0.3591
  356TMC3    C6 5333   4.507   3.747  12.019  0.3036 -0.7448  0.3753
  356TMC3     C 5334   4.132   3.702  11.901  0.0938 -0.5423  0.4990
  356TMC3     O 5335   4.138   3.708  11.777 -0.1879 -0.4008  0.3286
  356TMC3     H 5336   4.342   3.558  11.796 -1.3765  0.0086 -0.0881
  356TMC3    H1 5337   4.199   3.721  12.156  1.1590  1.3660  0.8355
  356TMC3    H2 5338   4.608   3.770  12.049  0.1421 -0.6440  0.8463
  356TMC3    C7 5339   4.431   3.852  12.221  0.1362 -0.5195  0.0294
  356TMC3    C8 5340   4.568   3.674  11.793 -0.2000  0.2772 -1.0665
  356TMC3    O1 5341   4.409   3.799  12.328 -0.3202 -0.3708 -0.4969
  356TMC3    O2 5342   4.599   3.573  11.732  0.2711  0.2388  0.2332
  357MPD2     C 5343   3.361   3.715   1.085  0.0038 -0.1616 -0.7577
  357MPD2    C1 5344   3.418   3.705   1.211  0.3806  0.1165  0.2512
  357MPD2    C2 5345   3.400   3.814   1.300 -0.4284  0.8465 -0.1137
  357MPD2    C3 5346   3.327   3.925   1.269  0.4369 -0.5354 -0.2528
  357MPD2    C4 5347   3.276   3.931   1.139  0.0321 -0.6130  0.3074
  357MPD2    C5 5348   3.295   3.825   1.051  0.6185  0.0026  0.0733
  357MPD2     H 5349   3.446   3.803   1.398  0.2339 -0.6427 -0.5969
  357MPD2    H1 5350   3.234   4.025   1.104  1.2092  0.7344  2.5403
  357MPD2    H2 5351   3.373   3.644   1.004 -0.3745 -1.3243  0.2138
  357MPD2    H3 5352   3.263   3.830   0.948 -1.0854 -3.0970  0.4484
  357MPD2     N 5353   3.324   4.050   1.347 -0.3026  0.1611 -0.4093
  357MPD2    H5 5354   3.296   4.135   1.299 -1.3148 -0.0658 -0.2260
  357MPD2    N1 5355   3.484   3.584   1.240  0.0123  0.2195 -0.1530
  357MPD2    H7 5356   3.493   3.513   1.168 -0.4701 -1.5044  1.4662
  358TMC3    C1 5357   3.632   3.445   1.348  0.2978 -0.1075 -0.0650
  358TMC3    C2 5358   3.598   3.344   1.258  0.1203  0.1382  0.1054
  358TMC3    C3 5359   3.676   3.245   1.228 -0.0046 -0.1983  0.4845
  358TMC3    C4 5360   3.746   3.432   1.417 -0.4060 -0.3824 -0.2750
  358TMC3    C5 5361   3.828   3.331   1.372 -0.2240  0.6984 -0.4788
  358TMC3    C6 5362   3.798   3.231   1.290 -0.1520 -0.3567  0.3980
  358TMC3     C 5363   3.556   3.564   1.354 -0.4823 -0.1929 -0.5814
  358TMC3     O 5364   3.593   3.637   1.446 -0.0425 -0.3556 -0.4991
  358TMC3     H 5365   3.498   3.338   1.218  0.1854  1.1762 -0.1872
  358TMC3    H1 5366   3.777   3.506   1.489  0.4538  0.2577 -1.2944
  358TMC3    H2 5367   3.883   3.180   1.247 -0.0226  0.2006 -0.0166
  358TMC3    C7 5368   3.957   3.323   1.428  0.6528 -0.4304  1.0908
  358TMC3    C8 5369   3.662   3.183   1.097 -0.0378 -0.1151  0.3247
  358TMC3    O1 5370   4.051   3.275   1.366 -0.3050 -0.4583 -0.0509
  358TMC3    O2 5371   3.588   3.246   1.023 -0.3654 -0.1023 -0.0744
  359MPD2     C 5372   4.041   2.409  12.539  0.5064 -0.4535  0.2488
  359MPD2    C1 5373   4.145   2.330  12.493 -0.5745  0.3146  0.0845
  359MPD2    C2 5374   4.175   2.214  12.556 -0.6565  0.4051  0.6585
  359MPD2    C3 5375   4.098   2.160  12.664 -0.5182  0.3080 -0.4248
  359MPD2    C4 5376   3.997   2.237  12.707 -0.1469 -0.4983 -0.2147
  359MPD2    C5 5377   3.978   2.363  12.653  0.5403  0.3662 -0.5692
  359MPD2     H 5378   4.247   2.146  12.511 -0.1799  1.2430  0.1452
  359MPD2    H1 5379   3.941   2.204  12.793 -0.3689 -1.5040 -0.7402
  359MPD2    H2 5380   4.026   2.509  12.501 -0.6872 -1.2669 -1.4608
  359MPD2    H3 5381   3.909   2.429  12.703 -0.6467 -0.6825 -0.8198
  359MPD2     N 5382   4.113   2.035  12.725  0.1961 -0.3144  0.1354
  359MPD2    H5 5383   4.052   2.007  12.800 -1.0501 -0.5126 -0.9635
  359MPD2    N1 5384   4.227   2.365  12.381 -0.1927  0.4579 -0.0223
  359MPD2    H7 5385   4.324   2.338  12.372 -0.1683  0.5684 -0.0822
  360TMC3    C1 5386   4.287   2.450  12.168 -0.8696 -0.1380  0.4099
  360TMC3    C2 5387   4.419   2.460  12.199  0.1883  0.2640 -0.7070
  360TMC3    C3 5388   4.501   2.433  12.095  0.0162  0.5943  0.4623
  360TMC3    C4 5389   4.232   2.428  12.046 -0.5112 -0.0165 -0.7287
  360TMC3    C5 5390   4.321   2.387  11.954 -0.0798 -0.0081 -0.0201
  360TMC3    C6 5391   4.453   2.410  11.969 -0.2374  0.2956 -0.4860
  360TMC3     C 5392   4.183   2.448  12.272  0.6053 -0.0434  0.6808
  360TMC3     O 5393   4.067   2.460  12.242  0.2036 -0.8498 -0.1844
  360TMC3     H 5394   4.453   2.505  12.291  1.9656 -0.3731 -1.0545
  360TMC3    H1 5395   4.126   2.434  12.024 -0.3843 -0.5313 -1.4975
  360TMC3    H2 5396   4.520   2.366  11.896 -1.2068 -0.1738 -1.0972
  360TMC3    C7 5397   4.277   2.350  11.825 -0.1454 -0.3124  0.1315
  360TMC3    C8 5398   4.641   2.436  12.122 -0.5848 -1.1745  0.1002
  360TMC3    O1 5399   4.346   2.389  11.738 -0.1259 -0.1201  0.1805
  360TMC3    O2 5400   4.680   2.454  12.241  0.0669  0.1864  0.1368
  361MPD2     C 5401   0.990   1.805  17.154 -0.0520  0.3986  0.4126
  361MPD2    C1 5402   0.907   1.696  17.143 -0.0913  0.6038  0.0685
  361MPD2    C2 5403   0.926   1.585  17.221  0.3961  0.5447  0.1320
  361MPD2    C3 5404   1.029   1.579  17.303 -0.0267  0.5160  0.3964
  361MPD2    C4 5405   1.098   1.695  17.330  0.2052 -0.2224 -0.0905
  361MPD2    C5 5406   1.084   1.808  17.257  0.2753 -0.0487 -1.1035
  361MPD2     H 5407   0.852   1.507  17.205  1.5672 -0.2216 -1.5873
  361MPD2    H1 5408   1.178   1.704  17.403  0.1880 -0.8407  0.0042
  361MPD2    H2 5409   0.981   1.895  17.092 -1.7789 -0.6338 -0.8335
  361MPD2    H3 5410   1.142   1.896  17.281  0.2284 -0.2353 -0.3199
  361MPD2     N 5411   1.071   1.463  17.367  0.4738 -0.4903  0.5170
  361MPD2    H5 5412   1.165   1.475  17.403  0.1450 -1.4810  1.7013
  361MPD2    N1 5413   0.785   1.713  17.065 -0.1471 -0.5941 -0.5991
  361MPD2    H7 5414   0.716   1.639  17.070 -1.2726  0.3647 -1.9130
  362TMC3    C1 5415   0.621   1.818  16.927 -0.8552 -0.1902  0.5279
  362TMC3    C2 5416   0.515   1.750  16.971 -0.6282 -0.4578 -0.1635
  362TMC3    C3 5417   0.403   1.747  16.890 -1.0501 -0.1524 -0.2732
  362TMC3    C4 5418   0.620   1.897  16.813 -0.3327  0.6198  0.1020
  362TMC3    C5 5419   0.502   1.897  16.742  0.1659  0.3471 -0.9255
  362TMC3    C6 5420   0.393   1.826  16.782  0.3207 -0.2809 -0.8465
  362TMC3     C 5421   0.740   1.831  17.011 -0.1152  0.1506  0.3106
  362TMC3     O 5422   0.792   1.939  16.993  0.2157  0.0707 -0.2071
  362TMC3     H 5423   0.511   1.689  17.060  2.8165 -0.6280 -0.1176
  362TMC3    H1 5424   0.708   1.951  16.780 -0.4143  1.5136  1.3715
  362TMC3    H2 5425   0.301   1.820  16.726  0.0076  1.3633 -0.5273
  362TMC3    C7 5426   0.497   1.952  16.605  0.2535  0.0676  0.2136
  362TMC3    C8 5427   0.285   1.681  16.955 -0.2375 -0.1504 -0.0704
  362TMC3    O1 5428   0.386   1.946  16.551 -1.1061  0.5365  0.3090
  362TMC3    O2 5429   0.273   1.558  16.975  0.0262 -0.1854  0.4424
  363TMC3    C1 5430   4.427   4.298   9.853  0.0926  0.4091 -0.3413
  363TMC3    C2 5431   4.432   4.175   9.915  0.0236  0.5276 -0.1128
  363TMC3    C3 5432   4.314   4.107   9.938 -0.2582 -0.0158 -0.6823
  363TMC3    C4 5433   4.307   4.349   9.811 -0.2660  0.3303  0.3156
  363TMC3    C5 5434   4.193   4.290   9.849  0.4784  0.3760  0.1804
  363TMC3    C6 5435   4.195   4.164   9.902  0.5282 -0.4712  0.5228
  363TMC3     C 5436   4.538   4.383   9.873 -0.8599  0.0933 -0.1436
  363TMC3     O 5437   4.628   4.335   9.938 -0.4552 -0.0744  0.0024
  363TMC3     H 5438   4.524   4.134   9.953 -0.3819 -1.7853 -1.6193
  363TMC3    H1 5439   4.307   4.448   9.768  2.4909  0.8595  1.4683
  363TMC3    H2 5440   4.105   4.114   9.935 -1.1327  0.7082 -2.2679
  363TMC3    C7 5441   4.066   4.327   9.792  0.3520  0.2012  0.4718
  363TMC3    C8 5442   4.309   3.976   9.998  0.5267  0.2072  0.1798
  363TMC3    O1 5443   3.980   4.237   9.775  0.2505  0.6983 -0.5524
  363TMC3    O2 5444   4.203   3.922  10.038 -0.1347 -0.6650  0.7255
  364MPD2     C 5445   3.121   3.254  10.325  0.4841 -0.3330 -0.1699
  364MPD2    C1 5446   3.183   3.144  10.390 -0.1441  0.4233 -0.2047
  364MPD2    C2 5447   3.126   3.024  10.387  0.3905  0.0150  0.3400
  364MPD2    C3 5448   2.996   3.009  10.338  0.0022 -0.2678  0.3411
  364MPD2    C4 5449   2.946   3.114  10.263  0.0921 -0.6827  0.1562
  364MPD2    C5 5450   3.006   3.230  10.252  0.2390 -0.3946  0.2729
  364MPD2     H 5451   3.172   2.942  10.441 -0.5095 -0.4376  0.4228
  364MPD2    H1 5452   2.853   3.115  10.207 -0.5901  2.3917  1.2944
  364MPD2    H2 5453   3.155   3.357  10.330 -2.4763  0.7598 -2.6364
  364MPD2    H3 5454   2.959   3.308  10.193  0.7896 -0.5208 -0.3408
  364MPD2     N 5455   2.913   2.897  10.373 -0.2351  0.4852 -0.2937
  364MPD2    H5 5456   2.813   2.904  10.359  0.0264 -0.1893 -2.4103
  364MPD2    N1 5457   3.310   3.150  10.460  0.1683 -0.3640 -0.5031
  364MPD2    H7 5458   3.347   3.061  10.491  0.2679 -1.1306 -2.8104
  365TMC3    C1 5459   3.514   3.248  10.516  0.0797 -0.3453 -0.2530
  365TMC3    C2 5460   3.580   3.134  10.463 -0.7221  0.8916  0.3731
  365TMC3    C3 5461   3.719   3.143  10.466 -0.8433 -0.0187  0.2424
  365TMC3    C4 5462   3.585   3.364  10.561 -0.0236  0.0626 -0.0928
  365TMC3    C5 5463   3.720   3.360  10.542  0.2952  0.1962  0.3694
  365TMC3    C6 5464   3.792   3.253  10.499  0.9042 -0.3130  0.5628
  365TMC3     C 5465   3.374   3.270  10.494 -0.1779  0.0999  0.3383
  365TMC3     O 5466   3.329   3.383  10.489 -0.3750 -0.2300  0.3904
  365TMC3     H 5467   3.529   3.040  10.445 -1.0842  1.1895 -0.1493
  365TMC3    H1 5468   3.525   3.448  10.593 -0.3356  0.2793 -1.2381
  365TMC3    H2 5469   3.900   3.259  10.493  0.8872 -1.2935 -0.8457
  365TMC3    C7 5470   3.800   3.445  10.622  0.0783  0.0413  0.2648
  365TMC3    C8 5471   3.786   3.018  10.502  0.3221 -0.3476 -0.1173
  365TMC3    O1 5472   3.917   3.474  10.594 -0.1446 -0.5267 -0.1792
  365TMC3    O2 5473   3.891   3.028  10.566  0.7290  0.2423  0.3796
  366MPD2     C 5474   0.842   4.355  15.319  0.0610 -0.8757 -0.1916
  366MPD2    C1 5475   0.910   4.462  15.259  0.4604 -0.3990 -0.4107
  366MPD2    C2 5476   1.006   4.446  15.170 -0.3193 -0.3245 -0.1186
  366MPD2    C3 5477   1.042   4.320  15.131  0.3426 -0.8021 -0.5634
  366MPD2    C4 5478   0.976   4.212  15.188 -0.1912 -0.1921  0.0142
  366MPD2    C5 5479   0.871   4.228  15.277 -0.6639  0.1380 -0.1334
  366MPD2     H 5480   1.052   4.529  15.118 -1.1711  0.0966 -0.2020
  366MPD2    H1 5481   0.993   4.111  15.151 -0.7948 -0.0855 -0.5642
  366MPD2    H2 5482   0.765   4.363  15.395 -0.0574 -0.7263 -0.3267
  366MPD2    H3 5483   0.826   4.135  15.311 -0.5533  0.7757  1.7798
  366MPD2     N 5484   1.148   4.308  15.046 -0.5560 -0.0841 -0.3683
  366MPD2    H5 5485   1.193   4.396  15.021  1.2214 -1.1039 -0.7390
  366MPD2    N1 5486   0.888   4.597  15.290  0.4305  0.2184  0.0819
  366MPD2    H7 5487   0.945   4.665  15.240 -0.0073  1.1983  0.9104
  367TMC3    C1 5488   0.813   0.061  15.411 -0.6103  0.6253  0.2059
  367TMC3    C2 5489   0.932   0.089  15.472  0.1846 -0.5646  0.3740
  367TMC3    C3 5490   0.984   0.212  15.458  0.0292  0.6816  0.3503
  367TMC3    C4 5491   0.743   0.156  15.332  0.5508 -1.1447  0.1261
  367TMC3    C5 5492   0.804   0.281  15.312 -1.1564 -0.9310 -0.1573
  367TMC3    C6 5493   0.926   0.307  15.375 -0.7720  0.7663  0.6504
  367TMC3     C 5494   0.793   4.647  15.382 -0.3131 -0.4062  0.4512
  367TMC3     O 5495   0.696   4.596  15.437  0.4521  0.3240 -0.1399
  367TMC3     H 5496   0.969   0.011  15.537  1.5894  0.8392  1.2489
  367TMC3    H1 5497   0.653   0.120  15.284  0.7297 -2.2552  0.6013
  367TMC3    H2 5498   0.958   0.411  15.379 -1.8022  1.1142 -0.1277
  367TMC3    C7 5499   0.748   0.377  15.221  0.4867  0.1342  0.2614
  367TMC3    C8 5500   1.113   0.239  15.530  0.3799  0.5030  0.4155
  367TMC3    O1 5501   0.816   0.477  15.231 -0.3156 -0.5572  0.2887
  367TMC3    O2 5502   1.145   0.153  15.607  0.3298  0.7767  0.5956
  368MPD2     C 5503   2.517   1.871  13.259  0.1037  0.8417 -0.0353
  368MPD2    C1 5504   2.545   1.967  13.160  0.0839  0.0298  0.2586
  368MPD2    C2 5505   2.676   2.012  13.144  0.0024  0.5270  0.2830
  368MPD2    C3 5506   2.782   1.964  13.221  0.6355  0.5897  0.6411
  368MPD2    C4 5507   2.752   1.862  13.311  0.1702  0.2849  0.1644
  368MPD2    C5 5508   2.621   1.825  13.332 -0.9844 -0.0984 -0.2938
  368MPD2     H 5509   2.698   2.082  13.064 -0.1647  1.2965  0.9124
  368MPD2    H1 5510   2.825   1.803  13.365  0.6996  2.2164  1.5361
  368MPD2    H2 5511   2.419   1.831  13.282  0.8221 -1.7571 -1.5529
  368MPD2    H3 5512   2.600   1.745  13.403 -0.4163 -0.0915 -0.1229
  368MPD2     N 5513   2.915   2.022  13.203  0.0164 -0.6124 -0.0566
  368MPD2    H5 5514   2.937   2.090  13.131 -0.8508  0.3177  0.5534
  368MPD2    N1 5515   2.437   2.026  13.098  0.0894 -0.5878  0.0153
  368MPD2    H7 5516   2.348   1.984  13.124 -1.2688  0.5120 -2.8577
  369TMC3    C1 5517   2.302   2.181  12.980  0.2210  0.3543 -0.2015
  369TMC3    C2 5518   2.281   2.309  12.932 -0.2044  0.2045 -0.7909
  369TMC3    C3 5519   2.161   2.351  12.923  0.0789 -0.6941 -0.1174
  369TMC3    C4 5520   2.193   2.101  13.022 -0.5984  0.4037 -0.2900
  369TMC3    C5 5521   2.069   2.159  13.024 -0.9975  0.4530 -0.2066
  369TMC3    C6 5522   2.049   2.280  12.958 -0.1826  0.0726 -0.1571
  369TMC3     C 5523   2.433   2.129  13.006 -0.0550 -0.5064  0.1521
  369TMC3     O 5524   2.526   2.189  12.957 -0.3736  0.4453  0.6357
  369TMC3     H 5525   2.363   2.371  12.900 -0.9602  1.4227 -0.3540
  369TMC3    H1 5526   2.207   1.998  13.050 -0.4693  0.1770 -1.1753
  369TMC3    H2 5527   1.951   2.325  12.950  0.0805  0.6605 -0.0450
  369TMC3    C7 5528   1.983   2.102  13.128 -0.1030 -0.5335 -0.3034
  369TMC3    C8 5529   2.149   2.465  12.836  0.4613  0.6684  0.6594
  369TMC3    O1 5530   2.045   2.040  13.212  0.0853  0.0776  0.1015
  369TMC3    O2 5531   2.067   2.477  12.750  0.2640 -0.1062  0.0654
  370TMC3    C1 5532   2.068   2.399  16.361 -0.0206  0.2246 -0.1073
  370TMC3    C2 5533   2.010   2.355  16.474  0.0233 -0.3300  0.3460
  370TMC3    C3 5534   1.936   2.240  16.467 -0.3000  0.0339  0.0644
  370TMC3    C4 5535   2.055   2.334  16.242 -0.4227  0.2948  0.0895
  370TMC3    C5 5536   1.970   2.223  16.232 -0.6573 -0.1679 -0.1732
  370TMC3    C6 5537   1.917   2.178  16.346 -0.5531  0.1546  0.7613
  370TMC3     C 5538   2.174   2.497  16.378  0.1847 -0.0154  0.4758
  370TMC3     O 5539   2.206   2.514  16.491  0.1863  0.0821 -0.2200
  370TMC3     H 5540   2.015   2.415  16.564  1.8097 -0.9226  0.6331
  370TMC3    H1 5541   2.110   2.370  16.156 -0.5912 -1.4367 -0.7496
  370TMC3    H2 5542   1.860   2.086  16.341 -0.9148  0.5281 -2.0690
  370TMC3    C7 5543   2.006   2.127  16.134  0.0813 -0.1176  1.5069
  370TMC3    C8 5544   1.901   2.160  16.588  0.0770 -0.3657  0.3807
  370TMC3    O1 5545   2.119   2.136  16.081  0.2532 -0.6004 -0.1232
  370TMC3    O2 5546   1.837   2.057  16.565  0.7385  0.4262  0.3128
  371TMC3    C1 5547   3.132   0.542  15.244 -0.6568  0.1053  0.3715
  371TMC3    C2 5548   3.026   0.569  15.332  0.0394  0.3678  0.2273
  371TMC3    C3 5549   2.992   0.697  15.355 -0.9944  0.3064 -0.2068
  371TMC3    C4 5550   3.182   0.644  15.171 -0.1309  0.5358  0.3835
  371TMC3    C5 5551   3.145   0.773  15.193 -0.1075  0.1608 -0.3757
  371TMC3    C6 5552   3.050   0.798  15.283 -0.2350  0.2698  0.1282
  371TMC3     C 5553   3.193   0.412  15.223 -0.1571 -0.1244  0.0080
  371TMC3     O 5554   3.278   0.402  15.135  0.4134  0.7927 -0.7975
  371TMC3     H 5555   2.971   0.485  15.370 -1.3282  1.3305  0.3687
  371TMC3    H1 5556   3.260   0.626  15.097  0.1335  0.9800  0.5577
  371TMC3    H2 5557   3.007   0.897  15.293  0.2948  0.4002  1.1581
  371TMC3    C7 5558   3.195   0.885  15.113 -0.0312 -0.0506 -0.2611
  371TMC3    C8 5559   2.883   0.721  15.449 -0.0416  0.1327 -0.2320
  371TMC3    O1 5560   3.161   0.997  15.154 -0.4547  0.1888 -0.1014
  371TMC3    O2 5561   2.828   0.619  15.495  0.2947 -0.1734 -0.0095
  372MPD2     C 5562   2.367   2.185  13.408 -0.3112 -0.1830 -0.8040
  372MPD2    C1 5563   2.488   2.161  13.473 -0.1263  0.1762 -0.5669
  372MPD2    C2 5564   2.498   2.052  13.556 -0.2115 -0.0966 -0.8889
  372MPD2    C3 5565   2.393   1.966  13.570  0.2404 -0.4844 -0.0721
  372MPD2    C4 5566   2.275   1.988  13.505  0.4021 -0.3909 -0.4646
  372MPD2    C5 5567   2.264   2.099  13.423 -0.2918  0.3015  0.2605
  372MPD2     H 5568   2.591   2.038  13.611 -0.4478  1.2027 -0.1556
  372MPD2    H1 5569   2.192   1.918  13.511 -0.2362  0.5440  2.0798
  372MPD2    H2 5570   2.344   2.268  13.342  1.0133  1.0556  0.2897
  372MPD2    H3 5571   2.169   2.129  13.380 -0.9880  0.7990  2.1399
  372MPD2     N 5572   2.421   1.853  13.655  0.3536 -0.1172 -0.1866
  372MPD2    H5 5573   2.507   1.869  13.707  0.7057  2.7217 -1.6327
  372MPD2    N1 5574   2.605   2.235  13.449 -0.7838 -0.3991 -0.0665
  372MPD2    H7 5575   2.689   2.202  13.496 -0.7598  0.1028  0.2442
  373TMC3    C1 5576   2.407   1.647  13.774  0.3987 -0.1784  0.2935
  373TMC3    C2 5577   2.346   1.622  13.892  0.1497  0.1461 -0.8818
  373TMC3    C3 5578   2.408   1.551  13.987 -0.4707 -0.0556  0.6795
  373TMC3    C4 5579   2.544   1.624  13.752 -0.5559  0.2042 -0.0850
  373TMC3    C5 5580   2.600   1.545  13.847 -0.4914  0.2717 -0.3044
  373TMC3    C6 5581   2.539   1.509  13.962  0.2853  0.0959  0.1287
  373TMC3     C 5582   2.338   1.744  13.686 -0.3674  0.0115 -0.1148
  373TMC3     O 5583   2.226   1.715  13.642  0.8004  0.3190 -1.4136
  373TMC3     H 5584   2.246   1.663  13.899  0.6353  0.8633  1.9557
  373TMC3    H1 5585   2.590   1.637  13.655 -0.0143  0.0078  0.1434
  373TMC3    H2 5586   2.587   1.448  14.037  0.2851  0.4638  0.4293
  373TMC3    C7 5587   2.734   1.506  13.821  0.8899  0.3167 -0.2713
  373TMC3    C8 5588   2.416   1.622  14.115  0.2494  0.0340 -0.1366
  373TMC3    O1 5589   2.762   1.496  13.707 -0.2206 -0.0171  0.2562
  373TMC3    O2 5590   2.530   1.631  14.163  0.1282  0.3496  0.2265
  374TMC3    C1 5591   3.491   1.274   9.699  0.0119  0.5016  0.4387
  374TMC3    C2 5592   3.557   1.388   9.733  0.1524 -0.1727 -0.5468
  374TMC3    C3 5593   3.594   1.471   9.630  0.2611 -0.3111 -0.1441
  374TMC3    C4 5594   3.453   1.245   9.573 -0.5022 -0.5926  0.2740
  374TMC3    C5 5595   3.467   1.342   9.477  0.0080 -0.0944  1.2074
  374TMC3    C6 5596   3.549   1.449   9.503 -0.1286  0.3491 -0.3367
  374TMC3     C 5597   3.493   1.171   9.799  0.1262  0.2293  0.0705
  374TMC3     O 5598   3.573   1.170   9.892  0.0266 -0.6652  0.3392
  374TMC3     H 5599   3.582   1.410   9.836  1.7950 -2.3110 -0.4967
  374TMC3    H1 5600   3.446   1.141   9.543 -3.2479  0.5618 -3.0859
  374TMC3    H2 5601   3.582   1.509   9.419  2.0634  2.1452  1.8161
  374TMC3    C7 5602   3.443   1.307   9.341  0.2091 -0.6916 -0.7738
  374TMC3    C8 5603   3.622   1.610   9.648  0.1111 -0.0054  0.8057
  374TMC3    O1 5604   3.480   1.387   9.254  1.3242 -0.2205 -0.8451
  374TMC3    O2 5605   3.605   1.691   9.557  0.0935  0.2658  0.0013
  375MPD2     C 5606   3.035   3.576  16.789 -0.2507  0.2380  0.2401
  375MPD2    C1 5607   2.935   3.488  16.756 -0.4525  0.2709 -0.6798
  375MPD2    C2 5608   2.961   3.389  16.664  0.3688 -0.0268 -0.9712
  375MPD2    C3 5609   3.086   3.376  16.603 -0.4474 -1.1827  0.1265
  375MPD2    C4 5610   3.188   3.465  16.642 -0.0948  0.0306 -0.2673
  375MPD2    C5 5611   3.160   3.567  16.730  0.4363 -0.2203  0.3383
  375MPD2     H 5612   2.885   3.315  16.640  0.1261 -0.5188  1.3305
  375MPD2    H1 5613   3.286   3.452  16.599  0.3948  0.0064  0.8752
  375MPD2    H2 5614   3.018   3.653  16.864 -0.4452  2.4629 -2.0832
  375MPD2    H3 5615   3.235   3.641  16.755  0.5145 -0.3141  0.3795
  375MPD2     N 5616   3.116   3.274  16.512 -0.2329 -0.9487 -0.1036
  375MPD2    H5 5617   3.210   3.253  16.478 -0.3136 -1.2368 -0.1551
  375MPD2    N1 5618   2.812   3.469  16.824 -0.1854  0.6729  0.2485
  375MPD2    H7 5619   2.761   3.383  16.810 -0.2973  0.2581  3.0990
  376TMC3    C1 5620   3.074   3.091  16.350 -0.3247 -0.4893  0.3585
  376TMC3    C2 5621   3.190   3.028  16.382  0.3114  0.4465  0.8284
  376TMC3    C3 5622   3.217   2.913  16.303 -0.2274  0.0168 -0.6679
  376TMC3    C4 5623   3.004   3.064  16.235 -0.0678 -0.5370  0.4009
  376TMC3    C5 5624   3.044   2.960  16.153 -0.5753  0.5971  0.0073
  376TMC3    C6 5625   3.153   2.879  16.191 -0.2186 -0.2077 -0.3423
  376TMC3     C 5626   3.019   3.206  16.429  0.5122 -0.0797  0.3073
  376TMC3     O 5627   2.902   3.235  16.417  0.3546  0.1905  0.2567
  376TMC3     H 5628   3.237   3.043  16.478 -1.0634  0.5459  1.4894
  376TMC3    H1 5629   2.910   3.115  16.221  0.8336  1.0082 -0.0456
  376TMC3    H2 5630   3.197   2.807  16.123 -1.6808 -0.8056 -0.6537
  376TMC3    C7 5631   2.986   2.948  16.020 -0.3469 -0.1839 -0.8155
  376TMC3    C8 5632   3.353   2.859  16.313  0.0217 -0.0997  0.2506
  376TMC3    O1 5633   2.969   3.048  15.957  0.2591  0.2620  0.0722
  376TMC3    O2 5634   3.441   2.932  16.361  0.2622 -0.2142  0.2557
  377MPD2     C 5635   1.717   2.389  12.759 -0.2209  0.3552  0.3484
  377MPD2    C1 5636   1.725   2.256  12.744 -1.1878 -0.2997  0.5371
  377MPD2    C2 5637   1.616   2.178  12.765  1.3480 -0.2033  0.0804
  377MPD2    C3 5638   1.496   2.234  12.806  0.6290 -0.0591 -0.1860
  377MPD2    C4 5639   1.495   2.370  12.833  0.0613  0.4470  0.0688
  377MPD2    C5 5640   1.602   2.447  12.806  0.0953  0.5765 -0.6867
  377MPD2     H 5641   1.609   2.071  12.753 -0.2986 -0.1295  0.3995
  377MPD2    H1 5642   1.396   2.409  12.853 -0.7660 -0.6854 -1.7992
  377MPD2    H2 5643   1.805   2.452  12.745  1.1981 -1.2549  2.0324
  377MPD2    H3 5644   1.596   2.555  12.800 -0.5530  0.5941  0.4893
  377MPD2     N 5645   1.372   2.172  12.824 -0.4745 -0.1619 -0.1021
  377MPD2    H5 5646   1.291   2.231  12.840 -1.5477 -2.4094  2.7178
  377MPD2    N1 5647   1.848   2.210  12.696  0.1573  0.8334  0.2915
  377MPD2    H7 5648   1.907   2.271  12.640 -0.7883  0.5490 -1.0192
  378TMC3    C1 5649   1.990   2.027  12.373 -0.1234  0.3578  0.2137
  378TMC3    C2 5650   1.935   1.999  12.496  0.4605  0.0244  0.2046
  378TMC3    C3 5651   1.988   2.050  12.608 -0.4367  0.0023  0.3341
  378TMC3    C4 5652   2.095   2.111  12.360 -0.2440  0.4604 -0.1229
  378TMC3    C5 5653   2.146   2.168  12.475 -0.1118  0.4110 -0.1291
  378TMC3    C6 5654   2.091   2.137  12.599  0.0296  0.0974  0.3701
  378TMC3     C 5655   1.909   2.017  12.257  0.3080 -0.2360  0.7022
  378TMC3     O 5656   1.794   1.989  12.283  0.1324 -0.0627  0.0951
  378TMC3     H 5657   1.836   1.957  12.506  0.5453  0.4725  3.0252
  378TMC3    H1 5658   2.145   2.127  12.265 -1.5677  0.7449 -0.7729
  378TMC3    H2 5659   2.125   2.183  12.692  0.1947  1.3290 -0.2965
  378TMC3    C7 5660   2.266   2.251  12.483 -0.3646 -0.7059  0.0891
  378TMC3    C8 5661   1.885   2.084  12.713  0.2260  0.0272  0.7045
  378TMC3    O1 5662   2.294   2.296  12.592 -0.7150  0.1681 -0.5206
  378TMC3    O2 5663   1.856   1.999  12.797  0.1501 -0.4136 -0.1580
  379MPD2     C 5664   1.741   0.184  16.526 -1.1543 -0.2025 -0.6787
  379MPD2    C1 5665   1.842   0.141  16.447 -0.9062  0.1722 -0.2065
  379MPD2    C2 5666   1.939   0.060  16.502 -1.0872  0.0275 -0.1800
  379MPD2    C3 5667   1.934   0.020  16.632 -0.4990 -0.2574 -0.0213
  379MPD2    C4 5668   1.840   0.076  16.717 -1.0018 -0.3683  0.4562
  379MPD2    C5 5669   1.742   0.163  16.661 -0.6137  0.2074 -0.1727
  379MPD2     H 5670   2.016   0.017  16.439 -1.2285  0.5487 -0.7018
  379MPD2    H1 5671   1.844   0.046  16.822  0.2866  0.3737  0.6138
  379MPD2    H2 5672   1.662   0.239  16.478  0.6202  1.4369 -1.7420
  379MPD2    H3 5673   1.653   0.194  16.714 -0.3505  0.8175 -0.0846
  379MPD2     N 5674   2.028   4.661  16.684 -0.2302  0.3821  0.4492
  379MPD2    H5 5675   2.036   4.659  16.786 -1.6059  1.7423  0.5833
  379MPD2    N1 5676   1.836   0.183  16.311 -0.4027 -0.7785  0.0183
  379MPD2    H7 5677   1.753   0.237  16.287  0.1619  0.3043  0.5039
  380TMC3    C1 5678   1.864   0.158  16.081  0.3039 -0.9276  0.2069
  380TMC3    C2 5679   1.877   0.054  15.999 -0.2690 -0.9581 -0.6091
  380TMC3    C3 5680   1.773   0.023  15.918  0.1876  0.3251  0.3443
  380TMC3    C4 5681   1.754   0.238  16.079  0.0279  0.1203  0.3834
  380TMC3    C5 5682   1.656   0.213  15.993 -0.2924  0.2533 -0.0686
  380TMC3    C6 5683   1.658   0.103  15.913 -0.4692 -0.0817 -0.1258
  380TMC3     C 5684   1.917   0.140  16.212 -0.0504  0.0665 -0.3659
  380TMC3     O 5685   2.015   0.063  16.217 -0.0367 -0.1697  0.3757
  380TMC3     H 5686   1.976   0.013  15.982 -0.1610 -0.8332 -0.2836
  380TMC3    H1 5687   1.754   0.330  16.136  0.6340  0.5964 -0.3823
  380TMC3    H2 5688   1.591   0.103  15.827  0.7799 -0.8481 -1.0948
  380TMC3    C7 5689   1.626   0.332  15.911  0.4257  0.0122 -0.1163
  380TMC3    C8 5690   1.798   4.664  15.800  1.7487  0.0425  0.0055
  380TMC3    O1 5691   1.720   0.413  15.897 -0.4846 -0.1526 -0.8052
  380TMC3    O2 5692   1.704   4.658  15.722  0.2757 -0.2482 -0.5349
  381TMC3    C1 5693   2.195   1.295  16.374  0.1514 -0.1127 -0.3893
  381TMC3    C2 5694   2.258   1.405  16.415  0.2805  0.3858 -0.2227
  381TMC3    C3 5695   2.188   1.508  16.473  0.5221  1.1617  0.5332
  381TMC3    C4 5696   2.068   1.271  16.413  0.1702 -0.7879 -0.6749
  381TMC3    C5 5697   1.990   1.378  16.458  0.2594 -0.2526 -0.4586
  381TMC3    C6 5698   2.054   1.500  16.488  0.1830  0.4689 -0.0646
  381TMC3     C 5699   2.282   1.178  16.354 -0.1534  0.1901 -0.5601
  381TMC3     O 5700   2.389   1.191  16.417 -0.4843  0.2022 -0.1238
  381TMC3     H 5701   2.364   1.422  16.400  1.0142 -1.5315  2.8617
  381TMC3    H1 5702   2.022   1.174  16.396  1.3851 -1.7691  1.5290
  381TMC3    H2 5703   1.996   1.582  16.530  0.0152 -0.9173  2.4263
  381TMC3    C7 5704   1.849   1.346  16.479  0.0156 -0.3024  0.1612
  381TMC3    C8 5705   2.234   1.639  16.441  0.4604 -0.4192 -0.0853
  381TMC3    O1 5706   1.809   1.230  16.468 -0.0150  0.2948  0.6027
  381TMC3    O2 5707   2.294   1.645  16.336  0.1911 -0.3549  0.1781
  382MPD2     C 5708   0.988   4.147  16.997 -0.3512  0.6245  0.9150
  382MPD2    C1 5709   0.898   4.134  17.098 -0.5683  0.2746  0.3407
  382MPD2    C2 5710   0.854   4.008  17.131  0.4639  0.1482 -0.2737
  382MPD2    C3 5711   0.894   3.896  17.065  0.5354  0.0285  0.2117
  382MPD2    C4 5712   0.991   3.908  16.967  0.3812 -0.4990  0.0086
  382MPD2    C5 5713   1.035   4.034  16.935 -0.0228 -0.7452  0.1140
  382MPD2     H 5714   0.782   3.996  17.211 -0.8589  1.5839 -1.2206
  382MPD2    H1 5715   1.042   3.831  16.910 -2.3199 -1.1241 -1.5460
  382MPD2    H2 5716   1.026   4.244  16.965  1.6661 -0.0505  1.2609
  382MPD2    H3 5717   1.107   4.054  16.856 -0.8020  1.9361  0.0613
  382MPD2     N 5718   0.841   3.767  17.093  0.2842 -0.0802  0.2275
  382MPD2    H5 5719   0.871   3.691  17.033  0.5054  0.0174  0.2111
  382MPD2    N1 5720   0.843   4.251  17.165  0.2997  0.6995  0.3369
  382MPD2    H7 5721   0.805   4.238  17.258 -2.0229  0.5265 -0.6326
  383TMC3    C1 5722   0.741   3.590  17.203 -0.2033 -0.3853  0.1634
  383TMC3    C2 5723   0.628   3.526  17.168  0.1918 -0.4983  0.7239
  383TMC3    C3 5724   0.599   3.402  17.219  0.0578  0.6526 -0.6752
  383TMC3    C4 5725   0.823   3.534  17.296  0.0984  0.0794 -0.1604
  383TMC3    C5 5726   0.800   3.409  17.338  0.2240  0.7947  0.0708
  383TMC3    C6 5727   0.684   3.339  17.304 -0.3730 -0.0037  0.0847
  383TMC3     C 5728   0.748   3.734  17.189 -0.6564 -0.0382  0.2568
  383TMC3     O 5729   0.707   3.797  17.286 -0.2798  0.0097 -0.4165
  383TMC3     H 5730   0.558   3.584  17.108 -0.8315 -1.6412  0.8108
  383TMC3    H1 5731   0.914   3.585  17.328  0.0738 -0.0427  0.0996
  383TMC3    H2 5732   0.671   3.236  17.337  1.2074 -0.6852 -1.4351
  383TMC3    C7 5733   0.875   3.363  17.453  0.9331  0.4380  0.1252
  383TMC3    C8 5734   0.471   3.347  17.185  0.2316 -0.6795  0.3282
  383TMC3    O1 5735   0.803   3.304  17.532 -0.2656  0.2845  0.9334
  383TMC3    O2 5736   0.383   3.424  17.144  0.1971 -0.4227 -0.6013
  384MPD2     C 5737   2.688   0.593  11.834 -0.2145 -0.2880  0.6744
  384MPD2    C1 5738   2.715   0.526  11.950  0.1987  0.0239  0.0539
  384MPD2    C2 5739   2.826   0.449  11.963 -0.1936 -0.4034  0.5047
  384MPD2    C3 5740   2.927   0.442  11.862  0.7747  0.7817  0.2627
  384MPD2    C4 5741   2.892   0.504  11.746 -0.4627 -0.6143  0.1445
  384MPD2    C5 5742   2.782   0.576  11.734 -0.2613 -1.1502 -0.0581
  384MPD2     H 5743   2.844   0.395  12.055  3.3410  1.9540  1.1966
  384MPD2    H1 5744   2.944   0.483  11.653 -0.6941 -2.0704  0.3316
  384MPD2    H2 5745   2.607   0.663  11.817 -1.4557 -1.3722  2.1719
  384MPD2    H3 5746   2.766   0.619  11.636 -1.1813 -2.7973 -0.6202
  384MPD2     N 5747   3.057   0.383  11.875 -0.4716 -1.1688  0.3535
  384MPD2    H5 5748   3.132   0.401  11.809 -0.6605  1.7603  0.9427
  384MPD2    N1 5749   2.630   0.535  12.064 -0.4020  0.0467  0.5066
  384MPD2    H7 5750   2.661   0.489  12.149  0.5209  0.3316  0.3328
  385TMC3    C1 5751   3.186   0.205  11.969  0.1571  0.7675  0.0587
  385TMC3    C2 5752   3.201   0.153  11.848  0.5444  0.2786 -0.5826
  385TMC3    C3 5753   3.212   0.017  11.839  0.5120  0.1460  0.9093
  385TMC3    C4 5754   3.182   0.125  12.083  0.4492  0.1454 -0.4870
  385TMC3    C5 5755   3.189   4.715  12.070 -0.3976 -0.3349  0.1387
  385TMC3    C6 5756   3.207   4.652  11.945 -0.0634  0.5045 -0.4166
  385TMC3     C 5757   3.091   0.316  11.995 -0.1154  0.5514 -0.2257
  385TMC3     O 5758   3.031   0.298  12.097  0.3195 -0.4000  0.4047
  385TMC3     H 5759   3.181   0.207  11.756 -0.6689 -0.7250 -0.8980
  385TMC3    H1 5760   3.190   0.179  12.177  0.7524  0.3488 -0.6295
  385TMC3    H2 5761   3.196   4.545  11.934  0.7515  0.5262 -1.4895
  385TMC3    C7 5762   3.090   4.647  12.151 -0.4459  0.2564 -0.1679
  385TMC3    C8 5763   3.276   4.703  11.719  0.2751  0.6572 -0.2304
  385TMC3    O1 5764   3.078   4.528  12.129 -0.3655 -0.0348 -0.0207
  385TMC3    O2 5765   3.348   0.058  11.658 -0.4998  0.0704 -0.0782
  386TMC3    C1 5766   3.293   2.187  12.155  0.6878 -0.4003 -0.6378
  386TMC3    C2 5767   3.389   2.173  12.059  0.6756 -0.1928 -0.4700
  386TMC3    C3 5768   3.406   2.270  11.963  0.4685  0.3333 -0.1073
  386TMC3    C4 5769   3.202   2.293  12.138 -0.0643  0.5475 -0.4438
  386TMC3    C5 5770   3.212   2.388  12.046  0.9468  0.4837 -0.2228
  386TMC3    C6 5771   3.318   2.383  11.956  0.1074  0.0090  0.9094
  386TMC3     C 5772   3.260   2.091  12.261 -0.5007  0.2049 -0.6545
  386TMC3     O 5773   3.207   2.138  12.360  0.3569  0.6504  0.1734
  386TMC3     H 5774   3.457   2.091  12.078 -0.4276 -0.6673  1.4020
  386TMC3    H1 5775   3.119   2.297  12.207 -0.7433 -1.1488 -1.1510
  386TMC3    H2 5776   3.341   2.457  11.881  0.8337 -0.4305  0.6948
  386TMC3    C7 5777   3.097   2.472  12.023 -0.0925 -0.1833  0.6069
  386TMC3    C8 5778   3.481   2.242  11.838  0.5767 -0.1223  0.2522
  386TMC3    O1 5779   3.003   2.468  12.104  0.6875 -0.3683  0.0885
  386TMC3    O2 5780   3.477   2.337  11.755 -0.0091 -0.0601  0.3576
  387MPD2     C 5781   0.918   2.622   9.845 -0.2272  0.2947 -0.2683
  387MPD2    C1 5782   1.017   2.567   9.929  0.4399  0.6391 -0.7415
  387MPD2    C2 5783   1.035   2.431   9.929 -0.0462  0.0626  0.2685
  387MPD2    C3 5784   0.941   2.348   9.861 -0.0259 -0.6342  2.2092
  387MPD2    C4 5785   0.840   2.411   9.788  0.7521  0.0833 -0.3718
  387MPD2    C5 5786   0.823   2.548   9.781  0.3799 -0.4959  0.3872
  387MPD2     H 5787   1.111   2.390   9.994  0.3921 -0.2792 -0.4636
  387MPD2    H1 5788   0.774   2.348   9.730  1.5075 -0.8043 -0.2788
  387MPD2    H2 5789   0.904   2.729   9.836  2.7646  0.7518  0.3093
  387MPD2    H3 5790   0.741   2.596   9.729 -0.3681 -2.6119 -0.3651
  387MPD2     N 5791   0.983   2.215   9.845  0.2203  0.2211  0.3283
  387MPD2    H5 5792   1.056   2.183   9.908  0.9055 -0.8875 -1.0405
  387MPD2    N1 5793   1.101   2.638  10.017  0.0140  0.1905  0.0661
  387MPD2    H7 5794   1.150   2.588  10.090  0.2694  1.3107  0.6525
  388TMC3    C1 5795   1.241   2.819  10.062 -0.3871 -0.6935  0.4712
  388TMC3    C2 5796   1.249   2.957  10.051  0.4584  0.1608  0.6311
  388TMC3    C3 5797   1.358   2.996   9.981 -0.5315 -0.2073  0.5461
  388TMC3    C4 5798   1.348   2.739  10.032 -0.4379  0.1171 -0.0146
  388TMC3    C5 5799   1.448   2.792   9.949 -0.8440  0.4110 -0.1305
  388TMC3    C6 5800   1.452   2.922   9.925 -0.5678  0.2439  0.7434
  388TMC3     C 5801   1.116   2.775  10.009 -0.0237  0.5779 -0.0166
  388TMC3     O 5802   1.069   2.854   9.928  0.3345  0.5789 -0.3545
  388TMC3     H 5803   1.164   3.022  10.069 -0.0850 -0.2839 -0.3726
  388TMC3    H1 5804   1.342   2.631  10.037  1.0519  0.0452  0.2783
  388TMC3    H2 5805   1.543   2.965   9.883 -0.1616 -0.4521  0.9138
  388TMC3    C7 5806   1.531   2.702   9.866  0.4209  0.5178  0.4158
  388TMC3    C8 5807   1.362   3.125   9.927 -0.4063  0.1740  0.0621
  388TMC3    O1 5808   1.589   2.757   9.773  0.4832  0.2341  0.3159
  388TMC3    O2 5809   1.405   3.128   9.810  0.0092 -0.1412 -0.2468
  389MPD2     C 5810   0.642   4.423  10.658 -0.0408 -0.5285 -0.3420
  389MPD2    C1 5811   0.646   4.559  10.674  0.2280 -0.2431  0.1931
  389MPD2    C2 5812   0.565   4.610  10.783 -0.2262 -0.8577  0.0364
  389MPD2    C3 5813   0.483   4.530  10.855  0.3501  0.2348 -0.2752
  389MPD2    C4 5814   0.497   4.394  10.846  0.7442  0.1938 -0.0103
  389MPD2    C5 5815   0.564   4.345  10.737  0.3141 -0.7064 -0.1492
  389MPD2     H 5816   0.563   4.717  10.800 -1.5261 -0.9739  0.6368
  389MPD2    H1 5817   0.429   4.328  10.898 -0.2363  0.5184 -0.8643
  389MPD2    H2 5818   0.690   4.378  10.571 -2.0099  0.7734 -2.1159
  389MPD2    H3 5819   0.570   4.239  10.718 -3.0393 -0.6544 -1.4173
  389MPD2     N 5820   0.383   4.583  10.935 -0.1730  0.2366 -0.1150
  389MPD2    H5 5821   0.343   4.518  11.002  2.2695 -1.2346 -0.1018
  389MPD2    N1 5822   0.716   4.644  10.588  0.2042 -0.0021  0.1142
  389MPD2    H7 5823   0.751   4.608  10.499 -1.2854  0.1517 -0.5304
  390TMC3    C1 5824   0.231   0.009  11.027 -0.5005  0.3342 -0.2349
  390TMC3    C2 5825   0.221   4.656  11.141 -0.4511  0.0276  0.5189
  390TMC3    C3 5826   0.178   4.697  11.262 -0.6418  0.6426 -0.3623
  390TMC3    C4 5827   0.202   0.140  11.040  0.5825  0.2157  0.1652
  390TMC3    C5 5828   0.191   0.192  11.162 -0.3298 -0.0183 -0.4871
  390TMC3    C6 5829   0.174   0.109  11.273 -0.1805 -0.1595 -0.0573
  390TMC3     C 5830   0.324   4.705  10.921  0.0052  0.6044  0.7034
  390TMC3     O 5831   0.337   0.063  10.834 -0.2673 -0.2692 -0.6148
  390TMC3     H 5832   0.222   4.548  11.127  0.3271  0.2576 -1.1455
  390TMC3    H1 5833   0.216   0.220  10.968 -1.2697  0.2058 -0.2069
  390TMC3    H2 5834   0.173   0.154  11.371 -0.4597 -2.6702  1.1049
  390TMC3    C7 5835   0.112   0.305  11.170 -0.3155  0.1214  0.0707
  390TMC3    C8 5836   0.064   4.633  11.313  0.1068 -0.1147  0.2731
  390TMC3    O1 5837   0.134   0.406  11.099  0.5347 -0.5440  0.3616
  390TMC3    O2 5838   0.029   4.534  11.258  0.1973  0.0571 -0.3136
  391MPD2     C 5839   4.178   1.659  11.097  0.2829 -0.0899 -0.1621
  391MPD2    C1 5840   4.277   1.746  11.048 -0.8469 -0.0959  0.4584
  391MPD2    C2 5841   4.305   1.754  10.917  0.1385  0.3256 -0.2069
  391MPD2    C3 5842   4.217   1.699  10.824 -0.2571 -0.3559 -0.5582
  391MPD2    C4 5843   4.110   1.616  10.870  0.6817  0.1232  0.2073
  391MPD2    C5 5844   4.095   1.601  11.008 -0.6377  0.7268  0.4250
  391MPD2     H 5845   4.382   1.817  10.875  1.9008 -0.9123  1.1961
  391MPD2    H1 5846   4.033   1.572  10.808  0.1705 -1.3375  1.8807
  391MPD2    H2 5847   4.156   1.650  11.202  0.9087 -0.1376 -0.0343
  391MPD2    H3 5848   4.019   1.535  11.047 -1.9697  0.4495 -2.6748
  391MPD2     N 5849   4.228   1.740  10.690  0.6965  0.3939  0.1906
  391MPD2    H5 5850   4.304   1.804  10.667 -0.7366  1.4140 -1.6883
  391MPD2    N1 5851   4.338   1.830  11.137 -0.0279 -0.1339 -0.1948
  391MPD2    H7 5852   4.311   1.826  11.235 -0.9145  1.3985 -0.3795
  392TMC3    C1 5853   4.184   1.786  10.468 -0.3150 -0.3241 -0.9731
  392TMC3    C2 5854   4.127   1.751  10.350 -0.0476 -1.0112  0.2333
  392TMC3    C3 5855   4.097   1.846  10.258  0.2962  0.3259  0.4891
  392TMC3    C4 5856   4.234   1.914  10.487  0.1337  0.1228  0.9290
  392TMC3    C5 5857   4.212   2.004  10.382 -0.1775  1.3808  0.2049
  392TMC3    C6 5858   4.140   1.973  10.272  0.8291  0.0947  0.1249
  392TMC3     C 5859   4.159   1.694  10.585 -1.1190  0.1999 -0.0116
  392TMC3     O 5860   4.088   1.597  10.578 -0.1253 -0.2150 -0.2071
  392TMC3     H 5861   4.096   1.648  10.336 -2.2580 -0.0979 -1.5386
  392TMC3    H1 5862   4.279   1.955  10.577 -1.0381 -0.2495  1.6971
  392TMC3    H2 5863   4.141   2.039  10.185 -0.5667  0.6672  0.5411
  392TMC3    C7 5864   4.308   2.114  10.383 -0.3388  0.3610  0.1110
  392TMC3    C8 5865   4.004   1.814  10.150 -0.7932  0.1484 -0.2244
  392TMC3    O1 5866   4.362   2.140  10.490 -0.1552  0.1292 -0.2484
  392TMC3    O2 5867   4.003   1.699  10.120 -0.6115  0.8046 -0.6696
  393TMC3    C1 5868   3.072   4.547  10.673  0.7024  0.2547 -0.2125
  393TMC3    C2 5869   2.978   4.538  10.773 -0.3758  1.2037  1.1229
  393TMC3    C3 5870   3.034   4.532  10.902  0.0738  0.3038 -0.1820
  393TMC3    C4 5871   3.203   4.569  10.695 -0.3351 -0.3794 -1.1526
  393TMC3    C5 5872   3.251   4.580  10.826  0.3320  0.7799  0.3699
  393TMC3    C6 5873   3.165   4.550  10.925  0.6048 -0.3744  0.5142
  393TMC3     C 5874   3.026   4.556  10.541 -0.0284  0.6894  0.0736
  393TMC3     O 5875   3.106   4.607  10.462 -0.1778 -0.7474  0.4322
  393TMC3     H 5876   2.872   4.524  10.760 -0.1794  0.2531  0.5249
  393TMC3    H1 5877   3.274   4.585  10.615 -2.7960  0.6565 -3.1212
  393TMC3    H2 5878   3.200   4.545  11.027  0.3499  0.1916  0.6278
  393TMC3    C7 5879   3.389   4.531  10.838  0.2540  0.2658  0.1624
  393TMC3    C8 5880   2.946   4.528  11.019  0.2042 -0.1781  0.3137
  393TMC3    O1 5881   3.415   4.432  10.904  0.1356 -0.1177  0.3879
  393TMC3    O2 5882   3.007   4.526  11.124  0.4296  0.2025 -0.1246
  394TMC3    C1 5883   0.794   0.116  10.500  0.0082 -0.1357 -0.1421
  394TMC3    C2 5884   0.838   0.042  10.389  0.3978 -0.6833  0.7644
  394TMC3    C3 5885   0.830   0.095  10.264 -0.0004 -0.4782 -0.0816
  394TMC3    C4 5886   0.747   0.241  10.486 -0.0621 -0.0224  0.4505
  394TMC3    C5 5887   0.752   0.299  10.361  0.3055  0.0024  0.5848
  394TMC3    C6 5888   0.797   0.224  10.259  0.4731 -0.2677  0.4614
  394TMC3     C 5889   0.749   0.048  10.619 -0.3039 -0.4646  0.0712
  394TMC3     O 5890   0.747   0.113  10.722  0.7493  0.3792  0.3064
  394TMC3     H 5891   0.878   4.668  10.406 -3.2733 -2.2842 -0.1357
  394TMC3    H1 5892   0.723   0.293  10.578  0.3080 -0.8047  0.9855
  394TMC3    H2 5893   0.789   0.270  10.161 -0.9291  0.0463  0.7213
  394TMC3    C7 5894   0.727   0.446  10.339  0.2507 -0.4820 -0.1824
  394TMC3    C8 5895   0.745   0.023  10.182  0.0640  0.0653 -0.5316
  394TMC3    O1 5896   0.717   0.489  10.223  0.0660  0.1816  0.0565
  394TMC3    O2 5897   0.664   0.091  10.124  0.1927  0.5512  0.1712
  395TMC3    C1 5898   4.104   3.124  14.234  0.6884  0.3000 -1.0112
  395TMC3    C2 5899   3.984   3.101  14.299  0.1248  0.6078 -0.0002
  395TMC3    C3 5900   3.964   3.138  14.429  0.4793 -0.6156  0.1069
  395TMC3    C4 5901   4.207   3.163  14.307 -0.1755 -0.1883  0.0838
  395TMC3    C5 5902   4.186   3.215  14.433  1.3070  0.4610  0.6811
  395TMC3    C6 5903   4.063   3.213  14.490 -0.9152  0.1309 -0.5946
  395TMC3     C 5904   4.153   3.005  14.157 -0.3542 -0.2314 -0.6470
  395TMC3     O 5905   4.175   3.015  14.038  0.5560  0.2397  0.5037
  395TMC3     H 5906   3.905   3.053  14.243 -1.0876  3.1421 -0.4699
  395TMC3    H1 5907   4.303   3.176  14.257 -0.2457 -2.7086 -0.7399
  395TMC3    H2 5908   4.054   3.241  14.594  1.4090  0.5609 -0.5020
  395TMC3    C7 5909   4.299   3.194  14.521 -0.7652 -0.4212 -0.0843
  395TMC3    C8 5910   3.916   3.034  14.513  0.4569 -0.3147 -0.2333
  395TMC3    O1 5911   4.299   3.239  14.633 -0.0927 -0.5734 -0.2129
  395TMC3    O2 5912   3.892   3.060  14.628 -0.3480 -0.9341  0.0041
  396MPD2     C 5913   3.869   3.684  17.104  0.3839 -0.4274  0.3685
  396MPD2    C1 5914   4.002   3.673  17.128  0.3302  0.2544 -0.0074
  396MPD2    C2 5915   4.086   3.771  17.079 -0.3708 -0.2666  0.8797
  396MPD2    C3 5916   4.039   3.875  16.998 -0.0510 -0.5888 -0.3161
  396MPD2    C4 5917   3.904   3.875  16.962  0.0168 -0.3733  0.4193
  396MPD2    C5 5918   3.821   3.786  17.032 -0.5294 -0.2882  0.1185
  396MPD2     H 5919   4.191   3.776  17.105 -0.1981  0.7536 -0.0065
  396MPD2    H1 5920   3.863   3.944  16.889 -0.3415 -2.6463 -1.5236
  396MPD2    H2 5921   3.798   3.612  17.142 -2.1231  1.3593 -0.9945
  396MPD2    H3 5922   3.716   3.793  17.007 -0.7697 -0.7541  0.9883
  396MPD2     N 5923   4.133   3.975  16.954  0.0187 -0.5870 -0.2067
  396MPD2    H5 5924   4.223   3.980  17.001 -0.7357  1.5360  1.0306
  396MPD2    N1 5925   4.040   3.552  17.195 -0.0073 -0.6606  0.1300
  396MPD2    H7 5926   3.963   3.498  17.232 -1.6560 -0.1894 -2.6217
  397TMC3    C1 5927   4.166   3.369  17.228  0.4960 -0.3202 -0.6459
  397TMC3    C2 5928   4.159   3.317  17.105 -0.3518  0.5344  0.3139
  397TMC3    C3 5929   4.061   3.223  17.074  0.3723 -0.3929  0.4987
  397TMC3    C4 5930   4.084   3.316  17.331 -0.2638  0.6861  0.1157
  397TMC3    C5 5931   3.995   3.213  17.302 -0.1974 -0.1696 -0.4513
  397TMC3    C6 5932   3.992   3.161  17.174 -0.0199 -0.6160  0.6706
  397TMC3     C 5933   4.172   3.508  17.204 -0.5404 -0.3680  0.0512
  397TMC3     O 5934   4.268   3.558  17.143 -0.1269 -0.0673  0.6353
  397TMC3     H 5935   4.207   3.376  17.028  0.7999 -1.4662 -0.5274
  397TMC3    H1 5936   4.069   3.367  17.425  1.2600 -1.5592  1.5569
  397TMC3    H2 5937   3.913   3.092  17.150 -0.9930  0.2726  1.3001
  397TMC3    C7 5938   3.941   3.132  17.405  0.3383 -0.0133  0.1519
  397TMC3    C8 5939   4.023   3.201  16.933  0.1828  0.5843  0.3992
  397TMC3    O1 5940   3.875   3.038  17.362 -0.1383  0.3254  0.6191
  397TMC3    O2 5941   4.065   3.286  16.853 -0.3495 -0.2169 -0.8815
  398MPD2     C 5942   1.864   4.184   0.154  0.4585  0.0034  0.0478
  398MPD2    C1 5943   1.999   4.161   0.134 -0.3886  0.5658 -0.1401
  398MPD2    C2 5944   2.084   4.266   0.123 -0.6909 -0.1222 -0.5753
  398MPD2    C3 5945   2.041   4.401   0.139  0.4680  0.0507  0.1065
  398MPD2    C4 5946   1.899   4.417   0.162 -0.0901 -0.1149 -0.2479
  398MPD2    C5 5947   1.816   4.309   0.171 -0.0258 -0.4460 -0.1789
  398MPD2     H 5948   2.187   4.237   0.110 -0.8253 -0.5991 -0.5700
  398MPD2    H1 5949   1.859   4.518   0.168  0.7794  0.2233 -0.1693
  398MPD2    H2 5950   1.793   4.103   0.155 -0.3144  0.6880 -0.0104
  398MPD2    H3 5951   1.709   4.327   0.182  0.1263  1.2290 -1.5433
  398MPD2     N 5952   2.144   4.494   0.131 -0.7654 -0.1523 -0.5505
  398MPD2    H5 5953   2.235   4.470   0.093 -1.1100 -3.4009  0.6383
  398MPD2    N1 5954   2.062   4.040   0.129 -0.5109  0.4568 -1.4287
  398MPD2    H7 5955   2.162   4.035   0.118 -0.4002  0.1141 -0.2264
  399TMC3    C1 5956   2.101   3.813   0.132  0.3378  0.4162 -0.8978
  399TMC3    C2 5957   2.233   3.830   0.163  0.1989 -0.4906  0.2209
  399TMC3    C3 5958   2.309   3.731   0.217  0.3358 -0.6801  0.3812
  399TMC3    C4 5959   2.053   3.685   0.131 -0.0887  0.4305 -0.6753
  399TMC3    C5 5960   2.133   3.585   0.174  1.1680 -0.8324 -0.7055
  399TMC3    C6 5961   2.259   3.599   0.217 -0.6152 -0.5001  0.8120
  399TMC3     C 5962   2.004   3.921   0.138  0.2588  0.1172 -0.0817
  399TMC3     O 5963   1.896   3.879   0.167 -0.3535 -0.3508  0.1353
  399TMC3     H 5964   2.283   3.924   0.147 -0.2201 -0.4894 -1.0921
  399TMC3    H1 5965   1.948   3.669   0.108  0.8408 -1.4813 -3.5733
  399TMC3    H2 5966   2.316   3.520   0.264  1.5101  0.1182 -0.7017
  399TMC3    C7 5967   2.074   3.461   0.217 -0.0141  0.1847  0.5923
  399TMC3    C8 5968   2.450   3.762   0.238  0.1380 -0.3211  0.3187
  399TMC3    O1 5969   2.101   3.434   0.331 -0.1435 -0.0778  0.5510
  399TMC3    O2 5970   2.510   3.841   0.169 -0.4841 -0.5852  0.1589
  400TMC3    C1 5971   0.580   3.184  16.829 -0.6497 -0.0161 -0.1884
  400TMC3    C2 5972   0.448   3.149  16.824  0.0205 -0.1658  0.6435
  400TMC3    C3 5973   0.353   3.243  16.790  0.6610  0.2661 -0.5582
  400TMC3    C4 5974   0.617   3.313  16.816  0.2580  0.3144  0.7079
  400TMC3    C5 5975   0.520   3.407  16.793 -0.0816  0.4187 -0.3916
  400TMC3    C6 5976   0.390   3.375  16.772  0.4307  0.2986  0.0520
  400TMC3     C 5977   0.664   3.096  16.919 -0.1411 -0.0064  0.0850
  400TMC3     O 5978   0.613   2.998  16.968  0.0918  0.5294  0.1135
  400TMC3     H 5979   0.422   3.047  16.848 -0.7535  0.4052  2.2440
  400TMC3    H1 5980   0.723   3.334  16.818  0.3266  0.2024 -1.1271
  400TMC3    H2 5981   0.315   3.450  16.751  1.3373  1.5425  1.2261
  400TMC3    C7 5982   0.561   3.544  16.808 -0.0010 -0.5985 -0.5171
  400TMC3    C8 5983   0.236   3.197  16.716  0.3064 -0.1434  0.8431
  400TMC3    O1 5984   0.682   3.558  16.809  0.8143  0.4657  0.2420
  400TMC3    O2 5985   0.143   3.280  16.704  0.6007  0.1416 -0.0963
  401MPD2     C 5986   4.637   2.695   1.446 -0.2435 -0.1550 -0.5464
  401MPD2    C1 5987   4.685   2.684   1.320  0.8845  0.2651 -0.0329
  401MPD2    C2 5988   4.624   2.591   1.236  0.2811 -0.2055  0.6134
  401MPD2    C3 5989   4.527   2.501   1.280 -0.0397 -0.8732  0.2721
  401MPD2    C4 5990   4.474   2.513   1.406  0.4447 -0.0695  0.2983
  401MPD2    C5 5991   4.529   2.610   1.489  0.5066  0.2621  0.6887
  401MPD2     H 5992   4.662   2.570   1.137  1.1877  1.5376  0.5808
  401MPD2    H1 5993   4.400   2.447   1.450 -1.0234  0.3262 -1.6081
  401MPD2    H2 5994   4.675   2.763   1.521  0.9186 -1.9875  0.5499
  401MPD2    H3 5995   4.503   2.623   1.593  1.5005 -0.1622  0.9910
  401MPD2     N 5996   4.503   2.387   1.199  0.0792  0.0116  0.4668
  401MPD2    H5 5997   4.528   2.401   1.102  0.6070 -0.6090  0.5146
  401MPD2    N1 5998   0.067   2.755   1.270  0.4408 -0.7282 -0.3442
  401MPD2    H7 5999   0.094   2.719   1.179 -2.2524 -1.7084 -0.7496
  402TMC3    C1 6000   4.442   2.173   1.129 -0.3993 -0.1467 -0.1836
  402TMC3    C2 6001   4.353   2.073   1.135 -0.1458  0.2074  0.5110
  402TMC3    C3 6002   4.355   1.981   1.041 -0.0675  0.2274 -0.6851
  402TMC3    C4 6003   4.530   2.191   1.015  0.3522  0.5169  0.1601
  402TMC3    C5 6004   4.522   2.093   0.917 -0.4081  0.2197 -0.0047
  402TMC3    C6 6005   4.442   1.986   0.936  0.2185 -0.6562 -0.1280
  402TMC3     C 6006   4.440   2.270   1.234 -0.2500  0.1758  0.1708
  402TMC3     O 6007   4.388   2.232   1.334 -0.3911 -0.0952  0.0330
  402TMC3     H 6008   4.277   2.078   1.212  1.0155  0.8320  1.6357
  402TMC3    H1 6009   4.603   2.271   1.016 -0.2513  1.0722 -0.3660
  402TMC3    H2 6010   4.447   1.906   0.863 -4.9821 -1.1509  0.0620
  402TMC3    C7 6011   4.601   2.109   0.790 -0.2959  0.6005  0.3722
  402TMC3    C8 6012   4.238   1.889   1.028  0.5397 -0.1274 -0.1808
  402TMC3    O1 6013   4.691   2.192   0.799  0.2793  0.4178  0.5992
  402TMC3    O2 6014   4.219   1.806   1.116 -0.0324  0.4660  0.1166
  403MPD2     C 6015   2.273   0.512  13.431 -0.1329 -0.5405  0.2917
  403MPD2    C1 6016   2.341   0.390  13.442 -0.3714  0.4305  0.0591
  403MPD2    C2 6017   2.464   0.393  13.501 -0.1512 -0.6775  0.6845
  403MPD2    C3 6018   2.513   0.517  13.550  0.3371  0.2531  0.0546
  403MPD2    C4 6019   2.445   0.635  13.528  0.0516 -0.2029 -0.4970
  403MPD2    C5 6020   2.326   0.629  13.467  0.3417  0.3163 -0.3279
  403MPD2     H 6021   2.520   0.304  13.527  0.4185 -0.0102  1.7172
  403MPD2    H1 6022   2.493   0.731  13.548 -0.6295  0.8883 -4.0835
  403MPD2    H2 6023   2.167   0.511  13.408 -0.1215 -2.6213  0.3300
  403MPD2    H3 6024   2.269   0.720  13.452 -1.1141 -0.5967 -0.3066
  403MPD2     N 6025   2.640   0.510  13.626 -0.0132 -0.1616  0.1154
  403MPD2    H5 6026   2.700   0.428  13.621  1.0506  0.5622  0.9859
  403MPD2    N1 6027   2.270   0.270  13.412  0.3096  0.3629 -0.4065
  403MPD2    H7 6028   2.177   0.282  13.373  0.1636 -2.2606 -0.8373
  404TMC3    C1 6029   2.224   0.035  13.402 -0.0458 -0.3260 -0.0895
  404TMC3    C2 6030   2.249   4.636  13.452  0.3714  0.6201  0.4591
  404TMC3    C3 6031   2.163   4.537  13.429  0.7526  0.5877 -0.2260
  404TMC3    C4 6032   2.118   0.058  13.322  0.3436 -0.2922 -0.0774
  404TMC3    C5 6033   2.033   4.678  13.288 -0.4960  0.9001 -0.1111
  404TMC3    C6 6034   2.053   4.553  13.342 -0.4766  0.7407  0.6896
  404TMC3     C 6035   2.322   0.141  13.430 -0.2732 -0.3017  0.0053
  404TMC3     O 6036   2.432   0.111  13.479 -0.2594 -0.0350 -0.5128
  404TMC3     H 6037   2.338   4.618  13.512  0.1679  1.7399  1.0959
  404TMC3    H1 6038   2.132   0.131  13.244  1.2136 -0.4446 -0.0570
  404TMC3    H2 6039   1.974   4.479  13.340 -0.4788  0.7667 -0.4993
  404TMC3    C7 6040   1.969   4.694  13.159 -0.0746  0.6006 -0.3273
  404TMC3    C8 6041   2.201   4.403  13.472  0.0113 -0.6242 -0.1761
  404TMC3    O1 6042   1.932   0.078  13.112 -0.1213  0.8610 -0.8485
  404TMC3    O2 6043   2.319   4.381  13.456 -0.1830  0.5343 -0.0050
  405MPD2     C 6044   2.568   0.046  14.466  0.0287 -0.0497  0.8107
  405MPD2    C1 6045   2.450   0.046  14.389  0.2796 -0.0583 -0.6365
  405MPD2    C2 6046   2.436   0.144  14.288 -0.2963  0.7728  0.1331
  405MPD2    C3 6047   2.543   0.224  14.251  0.1373  0.6098 -0.4235
  405MPD2    C4 6048   2.659   0.216  14.323  0.0955 -0.5139  0.5125
  405MPD2    C5 6049   2.670   0.130  14.431 -0.4363  0.3575  0.2761
  405MPD2     H 6050   2.346   0.142  14.227  1.0550 -2.5998 -1.7458
  405MPD2    H1 6051   2.742   0.281  14.300 -0.5143  0.9792  2.5179
  405MPD2    H2 6052   2.584   4.700  14.547 -0.7656 -1.3716 -0.1955
  405MPD2    H3 6053   2.764   0.120  14.484  0.7212 -2.1185 -2.2380
  405MPD2     N 6054   2.523   0.311  14.144 -0.1937  0.6556  0.1277
  405MPD2    H5 6055   2.425   0.314  14.116 -0.3964  2.2474  1.0488
  405MPD2    N1 6056   2.344   4.681  14.431 -0.8800  0.1074 -0.2762
  405MPD2    H7 6057   2.356   4.627  14.517  1.7539  0.9946 -0.0925
  406TMC3    C1 6058   2.450   0.701  13.993  0.2560 -0.1728  0.0732
  406TMC3    C2 6059   2.369   0.646  13.898 -0.7250 -0.4896 -0.0314
  406TMC3    C3 6060   2.369   0.516  13.865 -0.3301  0.0157  0.0298
  406TMC3    C4 6061   2.553   0.624  14.038  0.5801 -0.2686 -0.5810
  406TMC3    C5 6062   2.552   0.492  14.007 -0.1026  0.2924 -0.5887
  406TMC3    C6 6063   2.450   0.433  13.931  0.4858 -0.4090 -0.1886
  406TMC3     C 6064   2.397   0.808  14.084 -0.1131 -0.1502 -0.0818
  406TMC3     O 6065   2.486   0.874  14.135  0.1752 -0.8926 -0.4292
  406TMC3     H 6066   2.290   0.705  13.853 -1.0926 -0.1094  1.1097
  406TMC3    H1 6067   2.610   0.666  14.119 -1.5643  0.0298  0.7812
  406TMC3    H2 6068   2.476   0.332  13.899 -1.0177 -0.7210 -0.4328
  406TMC3    C7 6069   2.620   0.402  14.094 -0.1259  0.5792 -0.0950
  406TMC3    C8 6070   2.229   0.464  13.850  0.7839 -0.4060  0.0442
  406TMC3    O1 6071   2.739   0.416  14.114  0.4248 -0.5865  0.3725
  406TMC3    O2 6072   2.144   0.543  13.811  0.4238 -0.2172 -0.1145
  407MPD2     C 6073   0.431   1.857   9.782  0.6055 -0.4660  0.1509
  407MPD2    C1 6074   0.519   1.957   9.736  0.3752 -0.1088 -0.0489
  407MPD2    C2 6075   0.533   2.072   9.812 -0.0831 -0.4371  0.1956
  407MPD2    C3 6076   0.459   2.087   9.928 -0.0569 -1.0627 -0.4557
  407MPD2    C4 6077   0.375   1.987   9.969 -0.1700 -0.3754  0.1182
  407MPD2    C5 6078   0.370   1.869   9.899  0.8411  0.2712  0.1297
  407MPD2     H 6079   0.602   2.149   9.781  0.2342 -0.7296  0.1776
  407MPD2    H1 6080   0.311   1.986  10.057  0.5991  0.9669  0.6997
  407MPD2    H2 6081   0.409   1.771   9.720  0.1019 -1.2920  1.4724
  407MPD2    H3 6082   0.302   1.791   9.932  2.2628 -0.5368  1.1686
  407MPD2     N 6083   0.484   2.188  10.023 -0.3335  0.4413  0.0110
  407MPD2    H5 6084   0.446   2.175  10.116  2.6735 -3.3179  0.7018
  407MPD2    N1 6085   0.607   1.931   9.626  0.3242 -1.0600 -0.0585
  407MPD2    H7 6086   0.670   2.009   9.609  0.2553 -0.4798  2.3483
  408TMC3    C1 6087   0.733   1.834   9.461  0.3387  0.3917  0.0228
  408TMC3    C2 6088   0.776   1.713   9.403 -0.0318 -0.3200  0.3842
  408TMC3    C3 6089   0.902   1.713   9.347  0.7041 -0.3289  0.0513
  408TMC3    C4 6090   0.805   1.952   9.447  0.5537  0.2239 -1.0311
  408TMC3    C5 6091   0.918   1.950   9.376 -0.7069  0.5263 -0.3565
  408TMC3    C6 6092   0.967   1.835   9.327 -0.6867 -0.1609  0.0880
  408TMC3     C 6093   0.619   1.820   9.546  0.3450 -0.2638  0.0346
  408TMC3     O 6094   0.571   1.707   9.560 -0.0964 -0.1636 -0.5301
  408TMC3     H 6095   0.728   1.620   9.427 -0.6256 -0.0455  0.2560
  408TMC3    H1 6096   0.751   2.041   9.477 -1.5393 -0.7920 -1.7171
  408TMC3    H2 6097   1.057   1.831   9.267 -0.2805  1.5549  0.5740
  408TMC3    C7 6098   1.028   2.041   9.411 -0.6037 -0.7574  0.4575
  408TMC3    C8 6099   0.991   1.604   9.394 -0.4174 -0.3370  0.0475
  408TMC3    O1 6100   1.135   1.990   9.420  0.3934 -0.0375 -0.2177
  408TMC3    O2 6101   0.948   1.495   9.424  0.0827 -0.2200 -0.4171
  409MPD2     C 6102   4.067   2.531  16.765  0.2538 -0.2537 -0.4275
  409MPD2    C1 6103   4.162   2.551  16.859  0.6236 -0.2226  0.1910
  409MPD2    C2 6104   4.220   2.674  16.868  0.0457 -0.6300 -0.4824
  409MPD2    C3 6105   4.173   2.780  16.798 -0.7624  0.2026 -0.5370
  409MPD2    C4 6106   4.084   2.760  16.704  0.1158 -0.3933 -0.0205
  409MPD2    C5 6107   4.030   2.639  16.686  0.6268  0.2872  0.9554
  409MPD2     H 6108   4.298   2.672  16.944 -0.0567 -0.1057 -0.3663
  409MPD2    H1 6109   4.053   2.843  16.641 -2.0290 -1.4396 -0.3512
  409MPD2    H2 6110   4.012   2.437  16.764 -1.0615  0.5196 -0.1274
  409MPD2    H3 6111   3.957   2.630  16.606  1.7705 -0.4841  0.0032
  409MPD2     N 6112   4.246   2.902  16.795  0.3589 -0.5414 -0.1566
  409MPD2    H5 6113   4.222   2.971  16.724 -1.5309  0.3153  1.3099
  409MPD2    N1 6114   4.197   2.448  16.944  0.1957 -0.4453  0.3807
  409MPD2    H7 6115   4.252   2.483  17.022 -0.8836  0.2444  0.8329
  410TMC3    C1 6116   4.373   3.069  16.882 -0.3630  0.6875  0.0440
  410TMC3    C2 6117   4.489   3.096  16.950 -0.5891  0.0673 -0.6675
  410TMC3    C3 6118   4.567   3.201  16.908 -0.3897 -0.6220  0.4043
  410TMC3    C4 6119   4.343   3.146  16.774  0.3243 -0.3855 -0.0132
  410TMC3    C5 6120   4.426   3.244  16.731  0.0508  0.4722  0.4216
  410TMC3    C6 6121   4.539   3.269  16.794  0.8802  0.3381  0.1322
  410TMC3     C 6122   4.319   2.937  16.904  0.1960  0.0454 -0.7275
  410TMC3     O 6123   4.343   2.891  17.016  0.5778 -0.4522 -0.2545
  410TMC3     H 6124   4.510   3.047  17.044 -1.5916  2.0829  0.6273
  410TMC3    H1 6125   4.244   3.148  16.730 -1.0363 -0.7165  3.0399
  410TMC3    H2 6126   4.610   3.336  16.747 -0.3860  0.3673 -1.7753
  410TMC3    C7 6127   4.417   3.257  16.584  0.1137  0.1359 -0.1597
  410TMC3    C8 6128   4.700   3.220  16.960 -0.2539  0.6861 -0.1298
  410TMC3    O1 6129   4.367   3.164  16.524  0.6700 -0.1365 -0.2943
  410TMC3    O2 6130   0.025   3.329  16.974  0.0012 -0.1030 -0.6016
  411MPD2     C 6131   0.011   3.319  14.405  0.5618 -0.2454  0.0338
  411MPD2    C1 6132   4.642   3.398  14.342  0.0369  0.1580 -0.3650
  411MPD2    C2 6133   4.572   3.354  14.226 -0.9899 -0.0482 -0.5624
  411MPD2    C3 6134   4.605   3.229  14.175  0.1326  0.1086 -0.5665
  411MPD2    C4 6135   4.688   3.148  14.249  0.5368 -0.4758  0.1323
  411MPD2    C5 6136   0.032   3.191  14.354 -0.0681  0.4874  0.1541
  411MPD2     H 6137   4.517   3.425  14.165 -0.6024  1.1292  0.4491
  411MPD2    H1 6138   0.011   3.061  14.205 -0.7819 -1.0150 -0.2473
  411MPD2    H2 6139   0.076   3.354  14.485 -0.2433  0.3062  0.4400
  411MPD2    H3 6140   0.112   3.130  14.394 -1.5753 -1.8271 -0.3876
  411MPD2     N 6141   4.548   3.175  14.059  0.0567  0.4227  0.9107
  411MPD2    H5 6142   4.569   3.077  14.044  1.5177  0.6488  1.4237
  411MPD2    N1 6143   4.619   3.529  14.394  0.3194 -0.2469 -0.1457
  411MPD2    H7 6144   4.546   3.582  14.348 -2.0330 -2.4924  0.9653
  412TMC3    C1 6145   4.405   3.149  13.877 -0.2252  0.1035 -0.1645
  412TMC3    C2 6146   4.355   3.213  13.771 -0.8059  0.1101 -0.2531
  412TMC3    C3 6147   4.360   3.152  13.648  0.2543  0.2668  0.0483
  412TMC3    C4 6148   4.438   3.021  13.880  0.4410 -0.0030 -0.0774
  412TMC3    C5 6149   4.422   2.948  13.760 -0.4114  0.4810 -0.4227
  412TMC3    C6 6150   4.388   3.018  13.648  0.1769 -0.0468 -0.1588
  412TMC3     C 6151   4.448   3.231  13.988 -0.6906 -0.0159 -0.0311
  412TMC3     O 6152   4.414   3.351  13.987  0.0444 -0.6085  0.1694
  412TMC3     H 6153   4.334   3.319  13.778  1.8460  0.6233  0.0617
  412TMC3    H1 6154   4.487   2.967  13.960 -0.1755 -1.9324 -0.9948
  412TMC3    H2 6155   4.388   2.952  13.562  0.5759  0.8896 -0.8885
  412TMC3    C7 6156   4.509   2.834  13.734  0.3222  0.5607  0.2416
  412TMC3    C8 6157   4.460   3.216  13.568 -0.3136 -0.3245 -0.0852
  412TMC3    O1 6158   4.502   2.731  13.806  0.5965 -0.0011 -0.2130
  412TMC3    O2 6159   4.551   3.140  13.549  0.0802 -0.3381 -0.6624
  413MPD2     C 6160   1.135   1.076  15.226 -0.1409  0.1953  0.2318
  413MPD2    C1 6161   1.197   1.181  15.284 -0.1746  0.3629  0.1755
  413MPD2    C2 6162   1.326   1.167  15.326  0.2911  0.2152 -0.4488
  413MPD2    C3 6163   1.389   1.038  15.327 -0.1669 -1.0945  0.6845
  413MPD2    C4 6164   1.322   0.928  15.273  0.2688 -0.2823  0.0105
  413MPD2    C5 6165   1.193   0.948  15.227 -0.1934 -0.2825 -0.2119
  413MPD2     H 6166   1.374   1.254  15.369  1.2370 -1.3506  1.7339
  413MPD2    H1 6167   1.366   0.829  15.269  0.9443 -0.0229  1.0214
  413MPD2    H2 6168   1.035   1.086  15.187 -0.0316  0.8987  0.1469
  413MPD2    H3 6169   1.137   0.860  15.200  0.8371 -1.3660  1.1718
  413MPD2     N 6170   1.525   1.038  15.365 -0.1474 -0.0972  0.9653
  413MPD2    H5 6171   1.561   1.126  15.397 -2.3146  0.6614  1.3258
  413MPD2    N1 6172   1.121   1.302  15.276 -0.4055  0.3097  0.1143
  413MPD2    H7 6173   1.032   1.305  15.227 -0.5204 -2.8832  0.1245
  414TMC3    C1 6174   1.745   0.950  15.389  0.3706  0.6699 -0.1897
  414TMC3    C2 6175   1.827   0.847  15.432  0.3397  0.1695 -0.4486
  414TMC3    C3 6176   1.960   0.864  15.464  0.0171  0.1620  0.0315
  414TMC3    C4 6177   1.787   1.074  15.386 -0.2357  0.5182 -0.0452
  414TMC3    C5 6178   1.915   1.097  15.420 -0.8384 -0.9178 -0.3331
  414TMC3    C6 6179   2.007   0.998  15.461 -0.5253 -0.2649  0.1374
  414TMC3     C 6180   1.606   0.924  15.369 -1.2392  0.2458  0.4368
  414TMC3     O 6181   1.568   0.813  15.351  0.2270 -0.1567  0.3562
  414TMC3     H 6182   1.788   0.746  15.426 -1.5585  0.9244 -1.0069
  414TMC3    H1 6183   1.724   1.156  15.354  2.0663  3.0398  1.8913
  414TMC3    H2 6184   2.106   1.035  15.485 -1.0815  1.7036 -0.6280
  414TMC3    C7 6185   1.989   1.209  15.363 -1.2850 -0.1839  0.0615
  414TMC3    C8 6186   2.052   0.752  15.467 -0.0287  0.3594  0.2477
  414TMC3    O1 6187   2.045   1.276  15.452  0.2963 -0.4793 -0.1167
  414TMC3    O2 6188   2.008   0.644  15.504 -0.2664  0.3149 -0.3933
  415TMC3    C1 6189   2.053   3.493  10.487  0.3343 -0.0204  0.3814
  415TMC3    C2 6190   2.077   3.562  10.368 -0.6700 -0.2282  0.4777
  415TMC3    C3 6191   2.061   3.493  10.252 -0.0764 -0.1945 -1.2573
  415TMC3    C4 6192   2.018   3.365  10.482  0.4044 -0.0591 -0.3502
  415TMC3    C5 6193   2.001   3.301  10.360 -0.4746  0.2252 -0.2579
  415TMC3    C6 6194   2.021   3.357  10.238 -0.3762 -0.0976  0.9164
  415TMC3     C 6195   2.115   3.538  10.608  0.2383  0.4757 -0.1980
  415TMC3     O 6196   2.154   3.441  10.678 -0.0125  0.9633 -0.3254
  415TMC3     H 6197   2.076   3.670  10.367 -0.1748 -0.2193  2.8611
  415TMC3    H1 6198   1.999   3.308  10.573 -0.9470 -0.5900 -0.9575
  415TMC3    H2 6199   2.023   3.304  10.143 -2.0243  1.8867 -0.2036
  415TMC3    C7 6200   2.002   3.156  10.356 -0.0215  0.5205 -0.0962
  415TMC3    C8 6201   2.095   3.568  10.130 -0.0900 -0.2327 -0.0045
  415TMC3    O1 6202   1.985   3.100  10.250 -0.2979 -0.0122 -0.7957
  415TMC3    O2 6203   2.067   3.508  10.030 -0.0348  0.8859  0.3229
  416MPD2     C 6204   4.209   3.301  11.346  0.1149 -0.3354 -0.2681
  416MPD2    C1 6205   4.102   3.228  11.372  0.5253 -0.0626  1.3250
  416MPD2    C2 6206   4.084   3.100  11.327 -0.0562 -0.1891  0.3297
  416MPD2    C3 6207   4.171   3.051  11.236 -0.3474  0.4544 -0.7101
  416MPD2    C4 6208   4.288   3.124  11.215  0.2534  0.0718  0.0984
  416MPD2    C5 6209   4.300   3.249  11.261 -1.0976  0.3293 -0.5892
  416MPD2     H 6210   3.995   3.045  11.355 -0.6132  1.3371  1.5969
  416MPD2    H1 6211   4.366   3.089  11.148  0.9157 -0.0008  0.9100
  416MPD2    H2 6212   4.235   3.401  11.381 -1.5746 -0.5023  1.4402
  416MPD2    H3 6213   4.392   3.298  11.232 -0.2114 -1.5127 -0.8968
  416MPD2     N 6214   4.149   2.933  11.155  0.3885  0.1082  0.7949
  416MPD2    H5 6215   4.228   2.898  11.101  0.3946  1.9076 -0.3796
  416MPD2    N1 6216   3.998   3.286  11.448  0.6291 -0.8621 -0.4865
  416MPD2    H7 6217   4.024   3.382  11.465 -1.6213 -0.3041 -0.2960
  417TMC3    C1 6218   3.864   3.323  11.626  0.5576 -0.1217  0.1452
  417TMC3    C2 6219   3.895   3.313  11.758 -0.2257 -0.6615  0.1933
  417TMC3    C3 6220   3.882   3.420  11.839  0.6258 -0.6305 -0.1535
  417TMC3    C4 6221   3.826   3.444  11.571 -0.4914 -0.6018  0.1744
  417TMC3    C5 6222   3.796   3.543  11.655  0.6708  1.0939 -0.5057
  417TMC3    C6 6223   3.828   3.541  11.789  0.2314  0.6589 -0.2862
  417TMC3     C 6224   3.919   3.214  11.538 -0.2249  0.1452  0.2605
  417TMC3     O 6225   3.907   3.098  11.569 -0.1218  0.1065 -0.0415
  417TMC3     H 6226   3.927   3.218  11.799  0.4688 -0.0033  1.1688
  417TMC3    H1 6227   3.800   3.459  11.467 -1.0529 -1.5706  0.1789
  417TMC3    H2 6228   3.814   3.629  11.851  0.2571  0.3727  0.1203
  417TMC3    C7 6229   3.745   3.669  11.595  0.2000  0.0543 -0.0459
  417TMC3    C8 6230   3.929   3.419  11.972  0.2872 -0.3830 -0.4497
  417TMC3    O1 6231   3.760   3.685  11.472 -0.7032  0.5335 -0.4275
  417TMC3    O2 6232   3.856   3.479  12.053  0.1760 -0.6865 -0.0756
  418TMC3    C1 6233   2.469   4.691   0.099  0.0570  0.4485 -0.3428
  418TMC3    C2 6234   2.350   4.648   0.067 -0.2917  0.8165 -0.0303
  418TMC3    C3 6235   2.243   4.698   0.145 -0.3799  0.3236 -0.0129
  418TMC3    C4 6236   2.500   0.051   0.201  0.1023  0.2561  0.1498
  418TMC3    C5 6237   2.391   0.083   0.280  0.4251  0.5379 -0.2803
  418TMC3    C6 6238   2.262   0.047   0.249  0.9241 -0.6035 -0.6770
  418TMC3     C 6239   2.575   4.651   0.016  0.1551 -0.2522 -0.0902
  418TMC3     O 6240   2.539   4.621  17.603 -0.0535 -0.3120 -0.2747
  418TMC3     H 6241   2.323   4.577  17.692 -1.4094  0.1072  1.0359
  418TMC3    H1 6242   2.601   0.077   0.231  0.8324 -1.9009 -0.4360
  418TMC3    H2 6243   2.179   0.078   0.311 -0.7103 -1.7171 -2.3113
  418TMC3    C7 6244   2.422   0.106   0.423 -0.2694  0.0037 -0.2673
  418TMC3    C8 6245   2.120   4.628   0.150  0.0749 -0.1895  0.1716
  418TMC3    O1 6246   2.344   0.054   0.497 -0.1014  0.3498  0.4871
  418TMC3    O2 6247   2.018   4.688   0.170 -0.5740  0.0234  0.3933
  419MPD2     C 6248   1.423   3.038  12.138 -1.0568 -0.7829  0.1811
  419MPD2    C1 6249   1.513   3.092  12.229 -0.3453  0.2960  0.7304
  419MPD2    C2 6250   1.473   3.144  12.349  0.6004 -0.0240  1.3787
  419MPD2    C3 6251   1.345   3.132  12.383 -0.4839 -0.1482 -0.0259
  419MPD2    C4 6252   1.252   3.063  12.307  0.3714  0.2973 -0.5247
  419MPD2    C5 6253   1.295   3.013  12.187 -0.2889 -0.1298 -0.0520
  419MPD2     H 6254   1.543   3.189  12.419  1.3415  1.0943 -0.0584
  419MPD2    H1 6255   1.151   3.040  12.339  0.9235 -0.1727  0.8803
  419MPD2    H2 6256   1.441   3.006  12.036 -0.6303  0.1930 -0.0458
  419MPD2    H3 6257   1.215   2.977  12.124 -0.9690 -0.3540  0.9345
  419MPD2     N 6258   1.312   3.207  12.498  0.9324 -0.4026  0.2694
  419MPD2    H5 6259   1.391   3.234  12.556  0.4842 -1.4578  1.3638
  419MPD2    N1 6260   1.648   3.113  12.199 -0.3385 -0.0831  0.0344
  419MPD2    H7 6261   1.690   3.173  12.268 -0.8926  2.0016 -1.4381
  420TMC3    C1 6262   1.189   3.270  12.678 -0.0063 -0.5544 -0.4720
  420TMC3    C2 6263   1.095   3.364  12.706 -0.3293 -0.4203 -0.7515
  420TMC3    C3 6264   1.115   3.453  12.809  0.5062  0.4195 -0.0632
  420TMC3    C4 6265   1.303   3.267  12.749  0.4169 -0.7491 -0.1088
  420TMC3    C5 6266   1.312   3.356  12.857 -0.0251 -0.6178 -0.0751
  420TMC3    C6 6267   1.222   3.455  12.887  0.1564 -0.5105  0.6022
  420TMC3     C 6268   1.186   3.221  12.545 -0.3803 -0.2171  0.2198
  420TMC3     O 6269   1.080   3.236  12.486 -0.3818 -0.0050  0.1265
  420TMC3     H 6270   1.010   3.380  12.641 -2.3897 -0.5777  1.8972
  420TMC3    H1 6271   1.385   3.197  12.741  0.6253 -0.7522  2.0567
  420TMC3    H2 6272   1.251   3.540  12.948 -0.3000  0.1330 -0.0759
  420TMC3    C7 6273   1.431   3.339  12.937  0.5600 -0.4758  0.0251
  420TMC3    C8 6274   1.026   3.568  12.809  0.1961 -0.3143 -0.2131
  420TMC3    O1 6275   1.529   3.298  12.875 -0.1816  0.5787  0.3681
  420TMC3    O2 6276   0.947   3.579  12.720  0.3623 -0.2776  0.5684
  421TMC3    C1 6277   2.807   0.599  13.778 -0.3348  0.0649  1.0882
  421TMC3    C2 6278   2.829   0.688  13.882 -0.0968 -1.0373  0.1391
  421TMC3    C3 6279   2.936   0.671  13.964  0.4346 -0.5217  0.3105
  421TMC3    C4 6280   2.898   0.505  13.739 -0.5512 -0.1386  0.1144
  421TMC3    C5 6281   3.007   0.494  13.824  0.2349  0.0214  0.0548
  421TMC3    C6 6282   3.027   0.569  13.938  0.4928  0.7942  0.2617
  421TMC3     C 6283   2.678   0.621  13.703 -0.3670  0.4235 -0.2117
  421TMC3     O 6284   2.611   0.721  13.735  0.6721  0.4852 -0.1441
  421TMC3     H 6285   2.746   0.753  13.909  0.3494 -0.0615 -0.8781
  421TMC3    H1 6286   2.898   0.461  13.640  1.4666  0.1568 -0.0179
  421TMC3    H2 6287   3.113   0.556  14.003 -0.8003  0.2854  1.8598
  421TMC3    C7 6288   3.108   0.398  13.794 -0.0643 -0.2493  0.4764
  421TMC3    C8 6289   2.950   0.766  14.060 -0.1062 -0.5348 -0.1227
  421TMC3    O1 6290   3.221   0.444  13.801 -0.0622 -0.5276 -0.6263
  421TMC3    O2 6291   2.854   0.831  14.096 -0.0400 -1.1045 -0.7427
  422TMC3    C1 6292   0.257   1.059  12.683 -0.2444  0.0448  0.0792
  422TMC3    C2 6293   0.275   1.196  12.708  1.0760  0.8995 -0.6223
  422TMC3    C3 6294   0.163   1.272  12.720 -0.4297 -0.8402  0.6692
  422TMC3    C4 6295   0.129   1.009  12.674  0.5352  0.4412 -0.2722
  422TMC3    C5 6296   0.022   1.087  12.689  0.4634 -0.4532 -0.5628
  422TMC3    C6 6297   0.034   1.220  12.717  0.7571  0.7356 -1.0231
  422TMC3     C 6298   0.367   0.980  12.634 -0.1818 -0.3727  0.4671
  422TMC3     O 6299   0.364   0.856  12.653  0.0910 -0.0206 -0.1401
  422TMC3     H 6300   0.373   1.237  12.728  0.6628  0.5165  2.2210
  422TMC3    H1 6301   0.118   0.904  12.651  1.5738  0.8411 -2.6188
  422TMC3    H2 6302   4.676   1.289  12.718  1.4213  1.5361 -1.2526
  422TMC3    C7 6303   4.627   1.036  12.630  0.5625 -0.1255 -0.0383
  422TMC3    C8 6304   0.181   1.399  12.791  0.1996  0.2950  0.1021
  422TMC3    O1 6305   4.629   0.968  12.525 -0.0238  0.2885  0.0266
  422TMC3    O2 6306   0.284   1.461  12.770  0.7120  0.5462  0.7327
  423MPD2     C 6307   1.498   1.892   0.355 -0.2468  0.2078 -0.1809
  423MPD2    C1 6308   1.530   2.022   0.324 -0.2728 -0.3553 -0.3656
  423MPD2    C2 6309   1.602   2.040   0.205 -0.2455 -0.1281 -0.3919
  423MPD2    C3 6310   1.631   1.939   0.115 -0.2909  0.7735 -0.2377
  423MPD2    C4 6311   1.595   1.812   0.153 -0.4871 -0.2055  0.3355
  423MPD2    C5 6312   1.535   1.787   0.271 -0.2407  0.5898  0.8011
  423MPD2     H 6313   1.625   2.137   0.164 -1.5615 -0.3116 -1.5888
  423MPD2    H1 6314   1.617   1.725   0.092 -2.5478  0.1991 -0.9542
  423MPD2    H2 6315   1.452   1.854   0.445  1.2816  0.3570  0.6605
  423MPD2    H3 6316   1.486   1.693   0.290  0.3590  0.1513  0.1979
  423MPD2     N 6317   1.688   1.952  17.690 -0.0433 -0.2707  0.1554
  423MPD2    H5 6318   1.699   1.863  17.643  0.7115  0.8164 -1.6947
  423MPD2    N1 6319   1.505   2.128   0.416 -0.4736 -0.1448 -0.0552
  423MPD2    H7 6320   1.558   2.212   0.393 -1.1001  0.1241 -0.5097
  424TMC3    C1 6321   1.450   2.209   0.629  1.0923  0.5826 -0.3128
  424TMC3    C2 6322   1.392   2.182   0.749 -0.0043 -0.3968  0.4304
  424TMC3    C3 6323   1.418   2.260   0.853  0.2299  0.1842 -0.7089
  424TMC3    C4 6324   1.534   2.315   0.606  0.7511  0.0280 -0.2276
  424TMC3    C5 6325   1.563   2.395   0.715  0.7324 -0.3956  0.1683
  424TMC3    C6 6326   1.501   2.365   0.836  0.1205 -0.3082  0.4593
  424TMC3     C 6327   1.415   2.117   0.519 -0.0005 -0.5320 -0.3725
  424TMC3     O 6328   1.340   2.026   0.551 -0.4305  0.1500  0.2128
  424TMC3     H 6329   1.329   2.097   0.772 -0.7449 -0.1139 -0.5242
  424TMC3    H1 6330   1.577   2.340   0.509 -1.4660 -0.4157 -1.3323
  424TMC3    H2 6331   1.522   2.418   0.928 -1.7615 -0.4457  0.9578
  424TMC3    C7 6332   1.671   2.491   0.711  0.1557  0.2275  0.6258
  424TMC3    C8 6333   1.332   2.238   0.971  0.1127 -0.0466  0.4667
  424TMC3    O1 6334   1.742   2.494   0.612  0.2008  0.0047  0.0703
  424TMC3    O2 6335   1.223   2.177   0.954 -0.4673  0.3833 -0.7469
  425MPD2     C 6336   0.624   1.620  17.384 -0.6326  0.2834 -0.1890
  425MPD2    C1 6337   0.538   1.508  17.373 -0.7346 -1.4459  0.0415
  425MPD2    C2 6338   0.402   1.514  17.362  0.5507 -0.6230 -0.7337
  425MPD2    C3 6339   0.332   1.632  17.352  0.3772  0.6421  0.1691
  425MPD2    C4 6340   0.414   1.745  17.362 -0.4255  0.6244 -0.7418
  425MPD2    C5 6341   0.550   1.737  17.382 -0.5082 -0.4960 -0.0516
  425MPD2     H 6342   0.347   1.422  17.348  1.2742 -1.1218 -0.2647
  425MPD2    H1 6343   0.368   1.842  17.350 -1.5594  0.3254  1.1923
  425MPD2    H2 6344   0.732   1.618  17.393 -0.6185  0.3902 -0.3311
  425MPD2    H3 6345   0.608   1.826  17.403 -0.6219 -0.3670 -0.2902
  425MPD2     N 6346   0.196   1.626  17.331 -0.5147  0.3901 -0.5471
  425MPD2    H5 6347   0.161   1.532  17.313  0.6969  0.0760 -1.2495
  425MPD2    N1 6348   0.600   1.383  17.383  0.1489  0.0271 -0.2373
  425MPD2    H7 6349   0.701   1.374  17.377  0.5981  2.0039  3.7598
  426TMC3    C1 6350   0.616   1.148  17.396  0.4260 -0.6385 -0.3188
  426TMC3    C2 6351   0.624   1.120  17.264  0.2743  0.5616 -1.0998
  426TMC3    C3 6352   0.569   0.999  17.225  0.3013 -1.0516 -0.3770
  426TMC3    C4 6353   0.573   1.060  17.493 -0.8785  0.4133 -0.8156
  426TMC3    C5 6354   0.526   0.941  17.452 -0.5730 -0.0329 -0.0348
  426TMC3    C6 6355   0.524   0.906  17.315  0.0076 -0.4615 -0.2224
  426TMC3     C 6356   0.542   1.269  17.423  0.4302  0.1329  0.1662
  426TMC3     O 6357   0.435   1.249  17.489 -0.2388  0.0072 -0.7519
  426TMC3     H 6358   0.667   1.191  17.195 -1.2233 -0.3315 -2.9477
  426TMC3    H1 6359   0.584   1.086  17.598  1.0830  0.7419 -1.1024
  426TMC3    H2 6360   0.475   0.814  17.287  1.6574 -2.0743  2.1817
  426TMC3    C7 6361   0.406   0.893  17.521 -0.6774  0.5488  0.5922
  426TMC3    C8 6362   0.541   0.980  17.086 -0.0970 -0.0863  0.6583
  426TMC3    O1 6363   0.361   0.781  17.506  0.6850 -0.0071  0.0066
  426TMC3    O2 6364   0.634   1.001  17.015 -0.5048 -0.4801  0.1638
  427MPD2     C 6365   3.927   3.687  14.484  0.1701 -0.4486  0.6515
  427MPD2    C1 6366   3.860   3.608  14.567  0.1473  0.0894  0.1347
  427MPD2    C2 6367   3.728   3.584  14.543  0.2456  0.1462 -0.2052
  427MPD2    C3 6368   3.656   3.652  14.436  0.4052 -0.3792 -0.0327
  427MPD2    C4 6369   3.723   3.758  14.364  0.9213 -0.0629 -0.2380
  427MPD2    C5 6370   3.857   3.767  14.393 -0.1547 -0.4484 -0.1295
  427MPD2     H 6371   3.679   3.516  14.611 -0.1051  0.0152 -0.5891
  427MPD2    H1 6372   3.676   3.831  14.299  2.2840 -0.4255 -1.6610
  427MPD2    H2 6373   4.027   3.724  14.498 -0.7400  1.9209  0.9226
  427MPD2    H3 6374   3.915   3.832  14.329  1.2917 -0.3906  1.2475
  427MPD2     N 6375   3.518   3.635  14.419 -0.6913  0.4010 -0.2337
  427MPD2    H5 6376   3.466   3.687  14.350  0.4860  0.2272 -1.2468
  427MPD2    N1 6377   3.915   3.537  14.678  0.4870 -0.1339 -0.7190
  427MPD2    H7 6378   3.847   3.487  14.733 -0.6426  1.1647 -0.9428
  428TMC3    C1 6379   4.072   3.461  14.840 -0.0323 -0.0893  0.5504
  428TMC3    C2 6380   3.997   3.355  14.883  0.3219 -0.2567 -0.2096
  428TMC3    C3 6381   4.043   3.294  15.001 -0.8223 -0.0512  0.5707
  428TMC3    C4 6382   4.192   3.505  14.903  0.2262 -0.6328  0.5288
  428TMC3    C5 6383   4.231   3.442  15.013  0.4565 -0.1909  0.1623
  428TMC3    C6 6384   4.155   3.344  15.068  0.9550 -0.0636 -0.1273
  428TMC3     C 6385   4.048   3.528  14.717  0.0233 -0.5470 -0.5332
  428TMC3     O 6386   4.147   3.572  14.668 -0.2545 -0.1894  0.4539
  428TMC3     H 6387   3.909   3.321  14.830 -0.4509  0.5679  0.5443
  428TMC3    H1 6388   4.245   3.595  14.875  4.6990 -3.5036 -0.1948
  428TMC3    H2 6389   4.201   3.288  15.148  0.3229 -2.1212 -1.2108
  428TMC3    C7 6390   4.339   3.502  15.086  1.0576 -0.2629  0.7545
  428TMC3    C8 6391   3.973   3.172  15.048  0.1687 -0.4321 -0.5802
  428TMC3    O1 6392   4.326   3.509  15.206  0.2983 -0.0923  0.4290
  428TMC3    O2 6393   3.853   3.178  15.044 -0.4938  0.3659 -0.0697
  429MPD2     C 6394   4.216   3.631  17.572 -0.1999  0.4397  0.2613
  429MPD2    C1 6395   4.350   3.585  17.541  0.3337  0.7113  0.7792
  429MPD2    C2 6396   4.432   3.667  17.464 -0.0027 -0.2113  0.3658
  429MPD2    C3 6397   4.382   3.784  17.412  0.0161  0.1846  0.2388
  429MPD2    C4 6398   4.250   3.818  17.434 -0.1408 -0.5662 -0.2479
  429MPD2    C5 6399   4.175   3.750  17.526  0.0963  0.1824 -0.4264
  429MPD2     H 6400   4.532   3.636  17.436 -1.0686 -1.4680 -2.0966
  429MPD2    H1 6401   4.209   3.907  17.387 -0.4717 -0.6638 -0.1488
  429MPD2    H2 6402   4.148   3.581  17.640  0.0907  1.1366  1.0613
  429MPD2    H3 6403   4.077   3.788  17.550  0.3544  0.6547 -0.1146
  429MPD2     N 6404   4.475   3.864  17.342 -0.1855 -0.1804 -0.0003
  429MPD2    H5 6405   4.565   3.820  17.324  1.7106  2.6436  2.4702
  429MPD2    N1 6406   4.409   3.470  17.594 -0.4167 -0.1152  0.4242
  429MPD2    H7 6407   4.505   3.452  17.569  0.0002 -0.4026  2.2226
  430TMC3    C1 6408   4.579   4.052  17.236 -0.8972  0.1485 -0.3644
  430TMC3    C2 6409   4.553   4.162  17.158 -0.2066 -0.2874 -0.4930
  430TMC3    C3 6410   4.655   4.214  17.089 -0.3769  0.3407  1.0039
  430TMC3    C4 6411   4.703   4.006  17.260 -0.1768 -0.4846  0.0311
  430TMC3    C5 6412   0.076   4.053  17.179 -0.0784  0.2103 -0.9390
  430TMC3    C6 6413   0.054   4.167  17.099  0.8482 -0.4252  0.7109
  430TMC3     C 6414   4.453   3.984  17.284 -0.4567 -0.2193 -0.7853
  430TMC3     O 6415   4.348   4.046  17.284  0.4084 -0.6306  0.2962
  430TMC3     H 6416   4.451   4.174  17.122  0.0074  0.3810 -0.8706
  430TMC3    H1 6417   4.718   3.916  17.319 -4.3805  0.5335  2.6220
  430TMC3    H2 6418   0.140   4.210  17.049  0.7156 -1.0769 -0.0521
  430TMC3    C7 6419   0.177   3.968  17.129  0.1824 -0.1059 -1.1568
  430TMC3    C8 6420   4.629   4.244  16.953  0.6038 -0.1479  0.6104
  430TMC3    O1 6421   0.156   3.850  17.144  0.6818  0.4791  0.3420
  430TMC3    O2 6422   4.564   4.164  16.891 -0.0369  0.0428  0.0362
  431MPD2     C 6423   1.827   3.465  12.831  0.0388 -0.6919 -0.7005
  431MPD2    C1 6424   1.815   3.536  12.715  0.3171  0.1780  0.5509
  431MPD2    C2 6425   1.868   3.483  12.594  0.3919  0.2736  0.3922
  431MPD2    C3 6426   1.915   3.347  12.583  0.8485  0.4585 -0.7886
  431MPD2    C4 6427   1.927   3.281  12.698  0.2872 -0.7739  0.2064
  431MPD2    C5 6428   1.883   3.339  12.815 -0.7622 -0.1162 -0.3566
  431MPD2     H 6429   1.860   3.544  12.505  1.0015  0.8040  0.7025
  431MPD2    H1 6430   1.961   3.179  12.685 -1.4343 -1.1261 -1.5186
  431MPD2    H2 6431   1.806   3.505  12.929 -1.7519  2.1397 -2.2069
  431MPD2    H3 6432   1.896   3.281  12.906  0.3542  0.3875 -0.1914
  431MPD2     N 6433   1.965   3.292  12.467  0.0071 -0.1033 -0.2571
  431MPD2    H5 6434   1.998   3.197  12.479 -1.2670 -0.1455  3.0816
  431MPD2    N1 6435   1.735   3.654  12.710 -0.3254 -0.8893  0.2095
  431MPD2    H7 6436   1.743   3.708  12.624 -0.2086 -1.7745 -0.3462
  432TMC3    C1 6437   1.999   3.252  12.237 -0.7732  0.2935 -0.0992
  432TMC3    C2 6438   2.043   3.319  12.134 -0.2078  0.6723 -0.2314
  432TMC3    C3 6439   1.993   3.280  12.011 -0.4559 -0.3625  0.1868
  432TMC3    C4 6440   1.912   3.148  12.228  0.3574  0.3119 -0.0684
  432TMC3    C5 6441   1.861   3.113  12.108  0.0534  0.4767  0.5951
  432TMC3    C6 6442   1.911   3.168  11.997 -0.7711 -0.5808 -0.0466
  432TMC3     C 6443   1.965   3.348  12.341 -1.0801  0.3609  0.0198
  432TMC3     O 6444   1.952   3.468  12.311  0.2215  0.0737 -0.4840
  432TMC3     H 6445   2.133   3.379  12.147  0.8419 -1.0339  0.4278
  432TMC3    H1 6446   1.870   3.110  12.320 -0.1407  1.8657  0.3519
  432TMC3    H2 6447   1.858   3.157  11.903 -0.1400 -1.4218 -0.3043
  432TMC3    C7 6448   1.720   3.073  12.090  0.5497 -0.2994  0.1960
  432TMC3    C8 6449   2.009   3.357  11.888 -1.0288  0.1839 -0.6095
  432TMC3    O1 6450   1.670   3.040  11.981  0.2086  0.4404  0.2138
  432TMC3    O2 6451   1.949   3.326  11.782 -0.5940 -0.4844 -0.0968
  433MPD2     C 6452   0.236   2.160  10.637  0.3266 -0.0564 -0.7003
  433MPD2    C1 6453   0.342   2.090  10.687  0.4459  0.6861  0.6680
  433MPD2    C2 6454   0.382   2.108  10.814 -0.7465  0.4430 -0.2593
  433MPD2    C3 6455   0.328   2.211  10.892 -0.3546  0.0641  0.0148
  433MPD2    C4 6456   0.230   2.291  10.838  0.7838  0.4462 -0.1556
  433MPD2    C5 6457   0.182   2.262  10.708  0.1757 -1.1351  0.6918
  433MPD2     H 6458   0.454   2.043  10.863 -0.7262  3.8001  4.1783
  433MPD2    H1 6459   0.170   2.361  10.895 -0.6430 -1.1778  0.3464
  433MPD2    H2 6460   0.178   2.141  10.547  2.5071 -0.6557 -1.9644
  433MPD2    H3 6461   0.088   2.301  10.673  1.3599  1.9391  0.9590
  433MPD2     N 6462   0.359   2.218  11.027 -0.3270  0.3904 -0.5093
  433MPD2    H5 6463   0.420   2.148  11.066 -0.4820  0.8142  0.4989
  433MPD2    N1 6464   0.397   1.974  10.626 -0.3862  0.7585  0.3896
  433MPD2    H7 6465   0.476   1.942  10.680 -2.0144 -2.4335  0.9291
  434TMC3    C1 6466   0.432   1.792  10.474  0.4011 -0.4134 -0.5269
  434TMC3    C2 6467   0.494   1.729  10.575 -0.6970 -0.8730  0.5996
  434TMC3    C3 6468   0.566   1.618  10.542  0.7150  0.0993 -0.1082
  434TMC3    C4 6469   0.435   1.755  10.348 -0.0859 -0.1304 -0.1023
  434TMC3    C5 6470   0.520   1.654  10.319  0.5325  0.4855 -0.2181
  434TMC3    C6 6471   0.585   1.579  10.418 -0.1288 -0.2199  0.6350
  434TMC3     C 6472   0.361   1.913  10.509  1.1343  1.0629  0.3930
  434TMC3     O 6473   0.274   1.953  10.434  0.3054  0.3696  0.1506
  434TMC3     H 6474   0.466   1.739  10.679  1.7400  0.3422  1.1505
  434TMC3    H1 6475   0.400   1.821  10.269  2.2887 -1.3944 -2.2369
  434TMC3    H2 6476   0.652   1.497  10.395  0.8947  0.6124  0.6604
  434TMC3    C7 6477   0.509   1.608  10.190 -0.7482 -0.3515 -0.0436
  434TMC3    C8 6478   0.603   1.541  10.655  0.4110  0.0245  0.0284
  434TMC3    O1 6479   0.531   1.682  10.092  0.2124 -0.0778  0.5362
  434TMC3    O2 6480   0.533   1.530  10.755  0.8820  0.5523 -0.1012
  435MPD2     C 6481   1.944   2.173  15.503  0.4608  0.4256 -0.5730
  435MPD2    C1 6482   1.909   2.200  15.629  0.3915  0.1008 -0.6571
  435MPD2    C2 6483   2.010   2.176  15.732 -0.7373 -0.0870 -0.1215
  435MPD2    C3 6484   2.132   2.111  15.695  0.3092  0.3969  0.0171
  435MPD2    C4 6485   2.158   2.078  15.566  0.1886  0.1869 -0.7219
  435MPD2    C5 6486   2.064   2.115  15.474 -0.0661 -0.5881  0.9432
  435MPD2     H 6487   1.995   2.201  15.837  2.7951 -0.9661  0.6070
  435MPD2    H1 6488   2.247   2.025  15.534  1.8260  2.1566  0.6062
  435MPD2    H2 6489   1.883   2.191  15.415  0.6972  0.9189 -0.6381
  435MPD2    H3 6490   2.086   2.095  15.370  0.4780 -0.7213  1.0861
  435MPD2     N 6491   2.234   2.083  15.793 -0.1536 -0.1346 -0.7099
  435MPD2    H5 6492   2.225   2.122  15.887  0.2458 -0.3867 -0.5680
  435MPD2    N1 6493   1.789   2.271  15.666  0.6314  0.7223  0.0448
  435MPD2    H7 6494   1.781   2.286  15.766  0.5025 -0.6470  0.2261
  436TMC3    C1 6495   1.421   2.355  15.816  0.1896 -0.3137 -0.3589
  436TMC3    C2 6496   1.537   2.301  15.765  0.1581  0.7922  0.8116
  436TMC3    C3 6497   1.578   2.360  15.641 -0.4041  0.2805 -0.8656
  436TMC3    C4 6498   1.349   2.447  15.747  0.0646 -0.1967 -0.4579
  436TMC3    C5 6499   1.396   2.503  15.632  0.2745  0.8515  0.1950
  436TMC3    C6 6500   1.506   2.453  15.575  0.1759  0.1695 -0.3755
  436TMC3     C 6501   1.369   2.284  15.931 -0.2738  0.1992 -0.2295
  436TMC3     O 6502   1.415   2.173  15.964  0.5137  0.5419 -0.2381
  436TMC3     H 6503   1.593   2.227  15.819 -2.1672  0.0263  2.1551
  436TMC3    H1 6504   1.261   2.487  15.796  1.6535  1.8186  0.7056
  436TMC3    H2 6505   1.543   2.493  15.481 -0.0252  1.4377  0.0901
  436TMC3    C7 6506   1.343   2.626  15.577 -0.5641 -0.3478  0.2922
  436TMC3    C8 6507   1.696   2.312  15.580  0.1335 -0.5471 -0.1739
  436TMC3    O1 6508   1.433   2.691  15.522  0.2798 -0.1349  0.4650
  436TMC3    O2 6509   1.707   2.331  15.461 -0.4496 -0.6489 -0.0413
  437TMC3    C1 6510   1.667   3.540  11.738 -0.2862  0.2405  0.8903
  437TMC3    C2 6511   1.660   3.500  11.866 -1.3481  0.0953 -0.5284
  437TMC3    C3 6512   1.643   3.592  11.968  0.7842  0.0200 -0.2612
  437TMC3    C4 6513   1.650   3.676  11.704 -0.3110  0.0124 -0.2235
  437TMC3    C5 6514   1.630   3.759  11.809  0.6129  0.2979  0.6361
  437TMC3    C6 6515   1.624   3.724  11.944  0.5909  0.9098 -0.1773
  437TMC3     C 6516   1.701   3.441  11.636 -0.0907  0.6432 -1.2904
  437TMC3     O 6517   1.743   3.493  11.532  0.1647 -0.9426 -0.3283
  437TMC3     H 6518   1.667   3.398  11.902 -0.7214  0.9784  1.8297
  437TMC3    H1 6519   1.658   3.706  11.600  0.1577  0.1967 -0.1367
  437TMC3    H2 6520   1.621   3.797  12.024 -1.7750  1.5796 -0.8789
  437TMC3    C7 6521   1.623   3.898  11.770  0.3029  0.5697  0.3934
  437TMC3    C8 6522   1.583   3.541  12.091  0.4124  0.3419 -0.3615
  437TMC3    O1 6523   1.651   3.925  11.652 -0.2810  0.8215  0.2235
  437TMC3    O2 6524   1.606   3.426  12.117 -0.3830  0.1719  0.2072
  438MPD2     C 6525   2.496   0.059  16.444 -0.4017 -0.4429  0.4681
  438MPD2    C1 6526   2.616   0.038  16.511  0.2845  0.1835 -0.2634
  438MPD2    C2 6527   2.632   0.073  16.641 -0.0882  0.3689  0.5445
  438MPD2    C3 6528   2.523   0.107  16.720 -0.3782  0.0648  0.0636
  438MPD2    C4 6529   2.404   0.117  16.650 -0.0677  0.3749  0.4340
  438MPD2    C5 6530   2.387   0.094  16.518 -0.0363 -0.2523 -0.8080
  438MPD2     H 6531   2.727   0.042  16.683 -0.1449  0.5945  0.8414
  438MPD2    H1 6532   2.317   0.132  16.713  0.0651  1.5264  0.3418
  438MPD2    H2 6533   2.488   0.044  16.337 -0.0310 -1.1953  0.5436
  438MPD2    H3 6534   2.292   0.116  16.471  0.6320  1.6867 -1.2799
  438MPD2     N 6535   2.515   0.097  16.853 -0.8531 -0.1449  0.1074
  438MPD2    H5 6536   2.425   0.125  16.893 -1.1968 -4.1519  2.1780
  438MPD2    N1 6537   2.733   4.715  16.443 -0.2744  0.1080 -0.1910
  438MPD2    H7 6538   2.817   4.715  16.500 -0.3955 -1.0177 -0.0225
  439TMC3    C1 6539   2.876   4.621  16.274 -0.7868 -0.2697 -0.5929
  439TMC3    C2 6540   2.916   4.615  16.146 -0.7320  0.3225  0.7159
  439TMC3    C3 6541   3.041   4.561  16.116  0.2440  0.2647 -0.3607
  439TMC3    C4 6542   2.959   4.573  16.375  0.1429  0.4550 -0.5256
  439TMC3    C5 6543   3.078   4.510  16.343 -0.8517  0.2434 -0.1210
  439TMC3    C6 6544   3.123   4.510  16.210  0.3239 -0.0793  0.2945
  439TMC3     C 6545   2.748   4.684  16.311  0.4185 -0.2883  0.4374
  439TMC3     O 6546   2.673   4.706  16.219  0.7372 -0.0937 -0.0077
  439TMC3     H 6547   2.854   4.656  16.066 -0.1381 -0.4788 -0.1574
  439TMC3    H1 6548   2.935   4.563  16.480  1.3898  1.3689 -0.1537
  439TMC3    H2 6549   3.212   4.459  16.176 -0.5819 -1.9064  0.6689
  439TMC3    C7 6550   3.182   4.465  16.436  0.2169 -0.2587  0.1802
  439TMC3    C8 6551   3.091   4.589  15.978 -0.7338 -0.1093 -0.4590
  439TMC3    O1 6552   3.289   4.423  16.392 -0.6752 -0.2661 -0.0913
  439TMC3    O2 6553   3.037   4.682  15.920 -0.5114  0.5303  0.2359
  440MPD2     C 6554   1.978   0.916  15.062  0.0459  0.1350  1.0385
  440MPD2    C1 6555   1.873   0.827  15.051 -0.1298 -0.8541 -0.6934
  440MPD2    C2 6556   1.890   0.686  15.048  0.7240  0.5175  0.7854
  440MPD2    C3 6557   2.018   0.640  15.070  0.0497  0.2878 -0.0344
  440MPD2    C4 6558   2.122   0.726  15.070  0.3123 -0.9607 -0.4492
  440MPD2    C5 6559   2.098   0.862  15.060 -0.0124 -0.2905  0.5948
  440MPD2     H 6560   1.801   0.624  15.045 -0.8127  2.6765  1.6626
  440MPD2    H1 6561   2.224   0.693  15.079  0.5863 -0.1028 -0.4468
  440MPD2    H2 6562   1.970   1.024  15.051  2.3594  0.1043 -0.8751
  440MPD2    H3 6563   2.185   0.924  15.041 -0.8893  0.5864 -0.5704
  440MPD2     N 6564   2.055   0.502  15.071  0.9545  0.4578 -0.2131
  440MPD2    H5 6565   2.155   0.491  15.086  0.2387 -2.1650  2.6622
  440MPD2    N1 6566   1.744   0.879  15.050 -0.1302  0.6810 -0.0245
  440MPD2    H7 6567   1.663   0.818  15.045 -0.1837  0.9027 -1.9134
  441TMC3    C1 6568   2.041   0.263  15.096  0.1756 -0.1724 -0.0835
  441TMC3    C2 6569   2.176   0.271  15.084 -0.9065 -0.2787  0.0389
  441TMC3    C3 6570   2.244   0.167  15.152  0.0251  0.0946  0.1938
  441TMC3    C4 6571   1.966   0.165  15.156 -0.1991  0.0818  0.1470
  441TMC3    C5 6572   2.042   0.067  15.213  0.0691 -0.2554  0.2615
  441TMC3    C6 6573   2.181   0.057  15.207  0.0792 -0.1853 -0.0551
  441TMC3     C 6574   1.969   0.389  15.066 -0.8536 -0.1417 -0.1554
  441TMC3     O 6575   1.852   0.381  15.034 -0.3796  0.0698  0.5341
  441TMC3     H 6576   2.236   0.356  15.053 -0.6000 -0.4442  0.1691
  441TMC3    H1 6577   1.858   0.162  15.156 -0.1654 -0.7317  1.0490
  441TMC3    H2 6578   2.234   4.710  15.267 -0.0816  1.5120  2.1520
  441TMC3    C7 6579   1.967   4.706  15.301  0.4036 -0.7896  0.3558
  441TMC3    C8 6580   2.338   0.226  15.241  0.1561 -0.2732  0.1478
  441TMC3    O1 6581   1.861   0.028  15.347 -0.1698 -0.0348 -0.0206
  441TMC3    O2 6582   2.455   0.216  15.213  0.0398 -0.3225 -0.3538
  442MPD2     C 6583   4.708   0.958  16.485  0.1828 -0.1125  0.1822
  442MPD2    C1 6584   4.614   0.856  16.508 -0.2448 -0.5741 -0.8369
  442MPD2    C2 6585   4.630   0.738  16.437 -0.2362  0.4252 -0.1948
  442MPD2    C3 6586   4.721   0.717  16.339  0.1224 -0.6352  0.3231
  442MPD2    C4 6587   0.088   0.819  16.327 -0.1351  0.4231 -0.0917
  442MPD2    C5 6588   0.084   0.936  16.397 -0.6351 -0.4478 -0.7401
  442MPD2     H 6589   4.562   0.658  16.464  0.0649 -0.0829 -0.9338
  442MPD2    H1 6590   0.175   0.804  16.264 -0.0105  1.9284 -0.2720
  442MPD2    H2 6591   4.721   1.051  16.540  0.1441 -0.1219  0.2069
  442MPD2    H3 6592   0.155   1.016  16.385  0.3391 -1.4837 -1.8302
  442MPD2     N 6593   0.001   0.607  16.249  0.7184  0.1442 -0.2425
  442MPD2    H5 6594   0.066   0.612  16.171 -0.2969  1.0647 -1.0493
  442MPD2    N1 6595   4.517   0.853  16.604  0.0576 -0.1493 -0.3332
  442MPD2    H7 6596   4.451   0.776  16.604  0.7032 -0.6991 -1.7141
  443TMC3    C1 6597   4.357   0.953  16.760 -0.8184  0.1379  0.2084
  443TMC3    C2 6598   4.313   1.068  16.813  0.3988  0.4897  0.0448
  443TMC3    C3 6599   4.177   1.080  16.836  0.0094 -0.0860  0.2893
  443TMC3    C4 6600   4.277   0.848  16.728  0.2240  0.2260  0.0778
  443TMC3    C5 6601   4.155   0.863  16.773  0.9257  0.4872 -0.1885
  443TMC3    C6 6602   4.099   0.972  16.840  0.2609 -0.1098  0.8502
  443TMC3     C 6603   4.484   0.963  16.688 -0.3871 -0.4642 -0.5333
  443TMC3     O 6604   4.564   1.047  16.721  0.3706 -0.1051  0.0397
  443TMC3     H 6605   4.383   1.146  16.838  0.6403  0.3735 -0.2672
  443TMC3    H1 6606   4.307   0.756  16.679  0.9496 -0.0287  0.9944
  443TMC3    H2 6607   3.993   0.969  16.865  0.1001 -1.0573  0.0680
  443TMC3    C7 6608   4.071   0.741  16.760 -0.1701 -0.0158 -0.3591
  443TMC3    C8 6609   4.106   1.207  16.851  0.1230  0.6911  0.8370
  443TMC3    O1 6610   4.080   0.675  16.657 -0.2568 -0.2348 -0.1480
  443TMC3    O2 6611   4.018   1.200  16.931  0.0924 -0.0225  0.1152
  444MPD2     C 6612   0.177   0.514  16.769  0.2467  0.3011 -0.3836
  444MPD2    C1 6613   0.065   0.464  16.708 -0.5842 -0.0273 -0.2789
  444MPD2    C2 6614   0.081   0.371  16.604  0.1791  0.5080  0.4648
  444MPD2    C3 6615   0.209   0.322  16.574  0.9701 -0.3606  0.1892
  444MPD2    C4 6616   0.316   0.373  16.640  0.0585 -0.4721  0.2835
  444MPD2    C5 6617   0.304   0.469  16.736 -0.2315  0.2481  0.3082
  444MPD2     H 6618   4.715   0.338  16.555  0.2226  2.4998 -0.9532
  444MPD2    H1 6619   0.418   0.337  16.636  0.2433 -0.1643  2.3750
  444MPD2    H2 6620   0.174   0.586  16.850 -0.0132 -0.6655  0.4728
  444MPD2    H3 6621   0.385   0.510  16.796  0.2908  0.4649 -0.5488
  444MPD2     N 6622   0.231   0.218  16.483  0.1512 -0.1646  0.1628
  444MPD2    H5 6623   0.150   0.191  16.429  0.1765 -1.4807  0.7659
  444MPD2    N1 6624   4.660   0.498  16.743  0.4549 -0.1556  0.4538
  444MPD2    H7 6625   4.584   0.460  16.688  0.6717 -2.4613  1.7700
  445TMC3    C1 6626   0.322   0.023  16.378 -0.1500 -0.1249  0.7082
  445TMC3    C2 6627   0.211   0.016  16.282 -0.4549  0.2765 -0.5244
  445TMC3    C3 6628   0.203   4.629  16.208  0.1047  0.3637 -0.4080
  445TMC3    C4 6629   0.423   4.646  16.379 -0.3793  0.7607  0.0195
  445TMC3    C5 6630   0.395   4.539  16.309 -0.4279  0.3921  0.4579
  445TMC3    C6 6631   0.287   4.516  16.226 -0.1130  0.2534  0.5171
  445TMC3     C 6632   0.339   0.142  16.464  0.2553 -0.1625 -0.2735
  445TMC3     O 6633   0.448   0.140  16.519 -0.0743  0.2588 -0.1159
  445TMC3     H 6634   0.143   0.099  16.268  0.6319  1.1639 -0.4991
  445TMC3    H1 6635   0.511   4.645  16.441  1.8136 -0.9089 -3.1395
  445TMC3    H2 6636   0.286   4.423  16.171 -0.0647  0.0426  0.8716
  445TMC3    C7 6637   0.483   4.426  16.308 -0.3246  0.0964 -0.3635
  445TMC3    C8 6638   0.130   4.629  16.080 -0.0800  0.4168  0.7268
  445TMC3    O1 6639   0.429   4.313  16.308 -0.5911  0.6511 -0.2464
  445TMC3    O2 6640   0.086   0.009  16.043 -0.3403 -0.0525  0.0413
  446MPD2     C 6641   0.105   1.308  11.085 -0.1849 -0.6806 -0.5693
  446MPD2    C1 6642   0.173   1.310  10.964  0.2860  0.0488 -0.6447
  446MPD2    C2 6643   0.271   1.405  10.954  0.4382  0.0739 -0.6040
  446MPD2    C3 6644   0.320   1.482  11.056 -0.2553  0.7872 -0.9469
  446MPD2    C4 6645   0.253   1.471  11.176 -0.4207  0.0573  0.0006
  446MPD2    C5 6646   0.144   1.385  11.188 -0.8699 -0.0449 -0.4955
  446MPD2     H 6647   0.317   1.413  10.856 -0.8533  3.7907 -0.9044
  446MPD2    H1 6648   0.280   1.528  11.265 -0.6229  0.9059 -0.4850
  446MPD2    H2 6649   0.027   1.235  11.106 -2.9987  2.5343  0.0095
  446MPD2    H3 6650   0.096   1.381  11.285 -1.2042  0.2196 -0.6486
  446MPD2     N 6651   0.445   1.556  11.039 -0.0854  0.2596 -0.2070
  446MPD2    H5 6652   0.479   1.567  10.944  1.0776  0.1720  0.1934
  446MPD2    N1 6653   0.147   1.231  10.852  0.9516 -0.8065 -0.3703
  446MPD2    H7 6654   0.192   1.243  10.762  3.6636 -1.1036  0.9500
  447TMC3    C1 6655   0.633   1.693  11.096 -0.6329  0.9341  0.4876
  447TMC3    C2 6656   0.638   1.748  10.967 -0.1513 -0.5641  0.3914
  447TMC3    C3 6657   0.750   1.810  10.926  0.3762  0.0001  0.3314
  447TMC3    C4 6658   0.740   1.698  11.177  0.2404  0.4463 -0.5271
  447TMC3    C5 6659   0.853   1.751  11.128 -0.2860 -0.4574  0.0244
  447TMC3    C6 6660   0.868   1.799  10.997 -0.0359 -0.0855 -0.1701
  447TMC3     C 6661   0.519   1.611  11.142 -0.4671  0.0066  0.4020
  447TMC3     O 6662   0.515   1.571  11.259  0.1971  0.3411  0.1203
  447TMC3     H 6663   0.544   1.770  10.917  0.9049  0.4747 -1.1009
  447TMC3    H1 6664   0.732   1.665  11.280  0.1716  0.9723 -0.3648
  447TMC3    H2 6665   0.955   1.845  10.952 -0.1432  1.3102  1.0580
  447TMC3    C7 6666   0.978   1.770  11.209  0.1911 -0.2378 -0.7398
  447TMC3    C8 6667   0.755   1.874  10.789 -0.0027  0.1816  0.0767
  447TMC3    O1 6668   1.057   1.858  11.172  0.6532  1.0357 -0.7003
  447TMC3    O2 6669   0.649   1.911  10.742 -0.7088 -0.4832 -0.1789
  448TMC3    C1 6670   3.040   1.377  16.632  0.1042 -0.0635 -0.3698
  448TMC3    C2 6671   2.967   1.320  16.532 -0.7822 -0.8500 -0.5011
  448TMC3    C3 6672   2.957   1.184  16.536  1.0201 -0.5023 -0.4323
  448TMC3    C4 6673   3.110   1.310  16.734  0.2731  0.4698  0.1843
  448TMC3    C5 6674   3.084   1.178  16.740  0.5845  0.3620 -0.0197
  448TMC3    C6 6675   3.011   1.117  16.639 -0.2296  0.2564  0.7211
  448TMC3     C 6676   3.025   1.522  16.644  0.1900 -0.4164 -0.8853
  448TMC3     O 6677   3.048   1.567  16.753 -0.4142 -0.3604  0.8352
  448TMC3     H 6678   2.889   1.375  16.480  0.1840  0.9866  0.0298
  448TMC3    H1 6679   3.176   1.370  16.795  0.5310  0.9139 -0.5226
  448TMC3    H2 6680   2.989   1.011  16.650  0.0762  0.0093 -0.9779
  448TMC3    C7 6681   3.168   1.110  16.835 -0.5935 -0.9467 -0.0628
  448TMC3    C8 6682   2.910   1.102  16.422  0.2021 -0.4412 -0.1356
  448TMC3    O1 6683   3.255   1.172  16.896 -0.5729 -0.3161  0.1898
  448TMC3    O2 6684   2.912   0.982  16.434 -0.3396  1.2635 -0.5570
  449MPD2     C 6685   0.125   0.392  13.863  0.4155  0.3999  0.0877
  449MPD2    C1 6686   0.030   0.292  13.878  1.1702  0.7072  0.1656
  449MPD2    C2 6687   0.043   0.198  13.975  0.0279  0.4364 -0.0922
  449MPD2    C3 6688   0.157   0.192  14.050 -0.0543 -0.9577  0.0848
  449MPD2    C4 6689   0.252   0.286  14.039  0.5702  0.0315 -0.6770
  449MPD2    C5 6690   0.238   0.380  13.936 -0.0289  0.0378  0.5964
  449MPD2     H 6691   4.690   0.127  13.998 -0.5226  1.0314 -0.1180
  449MPD2    H1 6692   0.341   0.289  14.100  0.1103  1.2795 -0.0676
  449MPD2    H2 6693   0.115   0.476  13.795  2.0931  0.0244 -0.6319
  449MPD2    H3 6694   0.320   0.450  13.928 -1.1909  1.5000  1.6485
  449MPD2     N 6695   0.164   0.094  14.144 -0.4700 -0.2195 -0.8902
  449MPD2    H5 6696   0.093   0.022  14.134 -1.7323  0.6909  1.6387
  449MPD2    N1 6697   4.633   0.294  13.805  0.0028 -0.7265 -0.4598
  449MPD2    H7 6698   4.561   0.233  13.842  1.8400 -0.5877  3.2789
  450TMC3    C1 6699   4.471   0.303  13.653 -1.0088 -0.2692 -0.3085
  450TMC3    C2 6700   4.492   0.228  13.538 -0.3929 -0.0496 -0.1036
  450TMC3    C3 6701   4.434   0.101  13.531  0.3083 -0.4910  0.1667
  450TMC3    C4 6702   4.387   0.265  13.751  0.3533 -0.1382  0.3194
  450TMC3    C5 6703   4.335   0.138  13.746  0.2758 -0.7221  0.1008
  450TMC3    C6 6704   4.349   0.059  13.635 -0.6561 -0.4053 -0.1105
  450TMC3     C 6705   4.597   0.367  13.697  0.0448  0.4344  0.1157
  450TMC3     O 6706   4.670   0.418  13.613 -0.1625 -0.0571 -1.2091
  450TMC3     H 6707   4.572   0.250  13.469 -0.6246  1.7724  0.2033
  450TMC3    H1 6708   4.385   0.320  13.845 -2.8692 -0.2266  0.3121
  450TMC3    H2 6709   4.308   4.684  13.629 -1.6080 -0.0137 -0.0267
  450TMC3    C7 6710   4.367   0.074  13.863  0.1988  1.4381  0.1122
  450TMC3    C8 6711   4.475   4.718  13.444  0.1982  0.6660 -0.1869
  450TMC3    O1 6712   4.455   0.130  13.931  0.2192 -0.1555 -0.8009
  450TMC3    O2 6713   4.423   4.610  13.464  0.3844 -0.2634 -0.0699
  451MPD2     C 6714   0.748   3.847   1.874 -0.0485 -1.2354 -0.1980
  451MPD2    C1 6715   0.782   3.824   1.742  0.3505 -0.6282 -0.0485
  451MPD2    C2 6716   0.912   3.791   1.701  0.4787 -0.4331  0.4692
  451MPD2    C3 6717   1.012   3.770   1.796 -0.4021 -0.0693 -0.1171
  451MPD2    C4 6718   0.973   3.782   1.930  0.3760  0.2403 -0.2363
  451MPD2    C5 6719   0.852   3.835   1.965  1.0264 -0.0153 -0.6474
  451MPD2     H 6720   0.922   3.786   1.593  0.4488  1.8645  0.3705
  451MPD2    H1 6721   1.036   3.757   2.014 -1.0111  0.6733  0.9397
  451MPD2    H2 6722   0.649   3.886   1.895  2.2865  4.4121  0.4605
  451MPD2    H3 6723   0.838   3.852   2.071  3.9353 -0.1523 -0.2364
  451MPD2     N 6724   1.145   3.733   1.761 -0.1972  0.0682  0.4804
  451MPD2    H5 6725   1.206   3.717   1.840  1.1889  0.6949 -0.4621
  451MPD2    N1 6726   0.672   3.844   1.655 -0.0694  0.2575  0.7366
  451MPD2    H7 6727   0.578   3.861   1.692  0.3010 -0.2991  1.9456
  452TMC3    C1 6728   1.348   3.689   1.633 -0.4557 -0.2481 -0.4218
  452TMC3    C2 6729   1.418   3.743   1.737 -0.0939  0.2924  0.2174
  452TMC3    C3 6730   1.554   3.730   1.720  0.4019 -1.1099 -0.5571
  452TMC3    C4 6731   1.395   3.618   1.530 -0.7018  0.4029  0.0481
  452TMC3    C5 6732   1.529   3.607   1.524 -0.1594  0.4131 -0.6304
  452TMC3    C6 6733   1.611   3.660   1.621  0.0564 -0.0884 -0.7748
  452TMC3     C 6734   1.203   3.716   1.637  0.7058 -0.0567 -0.9141
  452TMC3     O 6735   1.147   3.690   1.531 -0.3892  0.2588  0.2333
  452TMC3     H 6736   1.374   3.814   1.806 -1.2326  2.1860 -2.4396
  452TMC3    H1 6737   1.323   3.578   1.460  1.4217 -2.3673 -0.5580
  452TMC3    H2 6738   1.719   3.671   1.613  0.1186 -0.9068 -1.1268
  452TMC3    C7 6739   1.595   3.530   1.415 -0.1558  0.0289 -0.6241
  452TMC3    C8 6740   1.625   3.812   1.810 -0.3987 -0.3185 -0.8233
  452TMC3    O1 6741   1.524   3.499   1.320  0.5655 -1.0635 -0.4988
  452TMC3    O2 6742   1.722   3.862   1.760 -0.3822  0.2174  0.0394
  453TMC3    C1 6743   2.636   0.866  11.506  0.2100  0.5355  0.2167
  453TMC3    C2 6744   2.521   0.795  11.472 -0.5358 -0.8020  0.2523
  453TMC3    C3 6745   2.501   0.764  11.338  0.4979 -0.0617 -0.1266
  453TMC3    C4 6746   2.724   0.904  11.410  1.6229  0.5305 -0.4382
  453TMC3    C5 6747   2.701   0.879  11.278  0.0584 -0.1362  0.8874
  453TMC3    C6 6748   2.583   0.819  11.238 -0.0094 -0.1078 -1.1533
  453TMC3     C 6749   2.662   0.912  11.647 -0.1284 -0.6905 -0.2624
  453TMC3     O 6750   2.775   0.943  11.682 -0.0603  0.3337 -0.0214
  453TMC3     H 6751   2.464   0.754  11.554  1.5105  1.1093  2.6090
  453TMC3    H1 6752   2.809   0.959  11.449 -0.0275  0.7691  2.8116
  453TMC3    H2 6753   2.571   0.789  11.135 -1.1832  0.1643 -1.0995
  453TMC3    C7 6754   2.809   0.878  11.178  0.2657 -0.0232  0.2079
  453TMC3    C8 6755   2.387   0.685  11.290 -0.4629  0.2426  0.2845
  453TMC3    O1 6756   2.798   0.812  11.077  0.2669  0.1400  1.2134
  453TMC3    O2 6757   2.381   0.663  11.168 -0.5469  0.0067 -0.3366
  454MPD2     C 6758   1.039   0.185  16.294 -1.0732  0.1709  0.0758
  454MPD2    C1 6759   0.999   0.240  16.170 -0.7599  0.3200  0.6951
  454MPD2    C2 6760   0.938   0.360  16.173 -0.3647  0.5033 -0.5644
  454MPD2    C3 6761   0.919   0.425  16.291  0.0268 -0.0846 -1.0115
  454MPD2    C4 6762   0.958   0.366  16.412  0.6000  0.1984 -0.4196
  454MPD2    C5 6763   1.021   0.247  16.411 -0.3577  0.4330 -0.1537
  454MPD2     H 6764   0.883   0.384  16.083 -0.4750 -1.7788 -1.1253
  454MPD2    H1 6765   0.952   0.418  16.507  2.2219  1.1708 -0.8513
  454MPD2    H2 6766   1.083   0.086  16.293  1.2511  1.2015 -0.0433
  454MPD2    H3 6767   1.058   0.208  16.505 -0.0620  1.0852 -0.0004
  454MPD2     N 6768   0.821   0.528  16.315  0.3073 -0.3711 -0.4607
  454MPD2    H5 6769   0.776   0.534  16.406  1.6432 -2.5335  0.3319
  454MPD2    N1 6770   1.004   0.165  16.041 -0.6495  0.0568  0.1418
  454MPD2    H7 6771   0.980   0.220  15.959 -0.9771  1.9524  1.4896
  455TMC3    C1 6772   0.647   0.671  16.246  0.3988 -0.0507  0.4455
  455TMC3    C2 6773   0.632   0.724  16.373  0.3224 -0.3255 -0.3068
  455TMC3    C3 6774   0.512   0.710  16.438  0.3407  0.2497 -0.2985
  455TMC3    C4 6775   0.549   0.601  16.186  0.0052 -0.0666 -0.0380
  455TMC3    C5 6776   0.435   0.576  16.256 -0.2825 -0.9911 -0.9561
  455TMC3    C6 6777   0.411   0.632  16.386  0.0835 -0.0404 -0.9819
  455TMC3     C 6778   0.772   0.608  16.219 -0.4662 -0.4684 -0.2283
  455TMC3     O 6779   0.806   0.616  16.100 -0.3606 -0.0657 -0.5476
  455TMC3     H 6780   0.709   0.779  16.426 -1.8644  0.0892  2.4230
  455TMC3    H1 6781   0.581   0.549  16.096 -0.8386 -2.3016  0.9407
  455TMC3    H2 6782   0.320   0.607  16.438  0.4525  2.6298  0.9805
  455TMC3    C7 6783   0.397   0.433  16.241  0.0215 -1.0134  0.0496
  455TMC3    C8 6784   0.496   0.763  16.576  0.4090  0.6373  0.8281
  455TMC3    O1 6785   0.283   0.403  16.216  0.0902 -0.1222  0.3723
  455TMC3    O2 6786   0.601   0.782  16.631  0.4054 -0.4049 -0.4030
  456MPD2     C 6787   3.512   0.702  15.386  0.0459 -0.1130 -0.6887
  456MPD2    C1 6788   3.492   0.568  15.413  0.2538 -0.2707 -0.6236
  456MPD2    C2 6789   3.383   0.537  15.498 -0.2733  0.2495  0.1332
  456MPD2    C3 6790   3.316   0.639  15.554  0.0732  0.4962 -0.2068
  456MPD2    C4 6791   3.336   0.770  15.524  0.2284 -0.1704 -0.6376
  456MPD2    C5 6792   3.431   0.796  15.435 -0.2462 -0.8477 -0.0877
  456MPD2     H 6793   3.354   0.435  15.521 -2.6979  0.1146 -3.5099
  456MPD2    H1 6794   3.268   0.850  15.550 -0.8620 -1.4296  0.3981
  456MPD2    H2 6795   3.602   0.734  15.334  1.5872  0.0766  2.0789
  456MPD2    H3 6796   3.448   0.899  15.407  0.8161 -0.6250  1.3722
  456MPD2     N 6797   3.231   0.604  15.663 -0.6935  0.2808 -0.1307
  456MPD2    H5 6798   3.237   0.507  15.694 -1.6446  0.4210  0.4678
  456MPD2    N1 6799   3.584   0.474  15.374 -0.1319 -0.3998  0.3836
  456MPD2    H7 6800   3.669   0.504  15.327 -0.2056 -0.2998  0.3138
  457TMC3    C1 6801   3.070   0.611  15.826 -0.5646  0.6977  0.0014
  457TMC3    C2 6802   2.948   0.664  15.863 -0.2196  0.0965  0.5363
  457TMC3    C3 6803   2.886   0.608  15.971 -0.4453 -0.4698  0.0101
  457TMC3    C4 6804   3.146   0.540  15.913 -0.1484 -0.3542  0.0062
  457TMC3    C5 6805   3.089   0.502  16.030 -0.6779 -0.5825 -0.0050
  457TMC3    C6 6806   2.949   0.519  16.053 -0.2961  1.2493  0.4319
  457TMC3     C 6807   3.131   0.677  15.711 -0.5914 -0.7972 -0.7874
  457TMC3     O 6808   3.088   0.785  15.672  0.0292  0.1318 -0.2585
  457TMC3     H 6809   2.893   0.718  15.787 -0.1417 -2.3262 -1.2540
  457TMC3    H1 6810   3.251   0.520  15.897 -0.6687 -2.3894 -0.8572
  457TMC3    H2 6811   2.900   0.473  16.138  1.4220 -0.1866  0.6530
  457TMC3    C7 6812   3.172   0.471  16.149  0.3103 -0.4082 -0.0430
  457TMC3    C8 6813   2.839   0.718  16.052 -0.6276 -0.0979 -0.3292
  457TMC3    O1 6814   3.119   0.485  16.254 -0.9369 -0.5459  0.7025
  457TMC3    O2 6815   2.861   0.704  16.171 -0.9417 -0.0701 -0.3176
  458MPD2     C 6816   1.564   4.403  11.864  0.9692 -0.2929  0.6112
  458MPD2    C1 6817   1.559   4.336  11.988 -0.3726 -1.1249  0.2111
  458MPD2    C2 6818   1.570   4.193  11.985 -0.6828  0.2239 -0.7831
  458MPD2    C3 6819   1.581   4.119  11.869 -0.1889 -0.3084 -0.3359
  458MPD2    C4 6820   1.578   4.187  11.744 -0.1412 -0.5098  0.0526
  458MPD2    C5 6821   1.575   4.325  11.752 -0.4111  0.0277 -0.1664
  458MPD2     H 6822   1.557   4.136  12.076  1.6837  3.0910  1.3179
  458MPD2    H1 6823   1.580   4.145  11.644  0.0798 -0.4890  0.0477
  458MPD2    H2 6824   1.563   4.511  11.864 -1.1451 -0.3278 -0.2883
  458MPD2    H3 6825   1.577   4.390  11.666 -1.7768  1.8445  1.1670
  458MPD2     N 6826   1.583   3.974  11.874  0.0095 -0.7786  0.3899
  458MPD2    H5 6827   1.564   3.945  11.969 -0.2603 -0.2099  0.5055
  458MPD2    N1 6828   1.545   4.415  12.103  0.6701 -0.4833  0.1151
  458MPD2    H7 6829   1.535   4.515  12.089  0.1794 -0.7075 -1.1997
  459TMC3    C1 6830   1.570   4.468  12.331 -0.0858 -0.0453  0.2658
  459TMC3    C2 6831   1.642   4.583  12.303 -0.2401  0.4853  0.4254
  459TMC3    C3 6832   1.662   4.672  12.407  0.2716  0.3804  0.5416
  459TMC3    C4 6833   1.547   4.440  12.461  0.1716  0.2556 -0.5443
  459TMC3    C5 6834   1.569   4.528  12.557 -0.8333 -0.6134 -0.3581
  459TMC3    C6 6835   1.626   4.650  12.538 -0.5274  0.1042  0.2833
  459TMC3     C 6836   1.556   4.370  12.225 -0.1666 -0.6896 -0.0201
  459TMC3     O 6837   1.579   4.254  12.270  0.3609 -0.5194  0.2786
  459TMC3     H 6838   1.660   4.606  12.199 -1.9967 -0.5700 -0.0955
  459TMC3    H1 6839   1.493   4.351  12.491 -0.4795  1.4837  1.9207
  459TMC3    H2 6840   1.652   4.720  12.616  1.0329  0.0821 -0.2178
  459TMC3    C7 6841   1.547   4.479  12.688  0.1142  0.4386  0.5054
  459TMC3    C8 6842   1.729   0.076  12.384 -0.1561  0.6549  0.0458
  459TMC3    O1 6843   1.545   4.354  12.705 -0.1313 -0.2513 -0.1597
  459TMC3    O2 6844   1.788   0.126  12.480  0.0835 -0.2658  0.2030
  460MPD2     C 6845   1.064   1.975  10.610 -0.0922 -0.2155 -0.2856
  460MPD2    C1 6846   0.925   1.964  10.631 -0.0569  0.6751  0.5493
  460MPD2    C2 6847   0.841   2.055  10.565  0.0652  0.4663  0.1432
  460MPD2    C3 6848   0.884   2.138  10.468 -0.5344 -0.3436  0.1217
  460MPD2    C4 6849   1.019   2.139  10.438 -0.4140 -0.2244 -0.2935
  460MPD2    C5 6850   1.102   2.058  10.512  0.3669 -0.5933 -0.9928
  460MPD2     H 6851   0.734   2.051  10.583 -0.1680 -1.0290 -1.5905
  460MPD2    H1 6852   1.066   2.200  10.362 -0.1703 -1.7789 -1.3805
  460MPD2    H2 6853   1.143   1.921  10.662  0.4742  2.1512  1.2620
  460MPD2    H3 6854   1.210   2.059  10.500  0.5422  0.6724  0.6643
  460MPD2     N 6855   0.794   2.224  10.411 -0.2265 -0.3039  0.1834
  460MPD2    H5 6856   0.694   2.211  10.424 -0.7723  2.1286 -1.5360
  460MPD2    N1 6857   0.879   1.878  10.737  0.7593 -0.1631  0.0762
  460MPD2    H7 6858   0.951   1.818  10.777 -0.0163 -0.0998  1.5674
  461TMC3    C1 6859   0.718   2.402  10.270  0.4687 -0.4695  0.6386
  461TMC3    C2 6860   0.639   2.331  10.195 -1.0985  0.1003  0.1618
  461TMC3    C3 6861   0.577   2.390  10.093  0.4524  0.4470 -0.7079
  461TMC3    C4 6862   0.745   2.536  10.239 -0.3081  0.3012 -0.1976
  461TMC3    C5 6863   0.675   2.599  10.134  0.0326 -0.0843 -0.2525
  461TMC3    C6 6864   0.596   2.523  10.058 -0.5946  1.0529 -0.0147
  461TMC3     C 6865   0.831   2.335  10.337 -0.5505 -0.1109 -0.4852
  461TMC3     O 6866   0.939   2.383  10.321  0.0668  0.0144 -0.3451
  461TMC3     H 6867   0.625   2.225  10.212 -1.6725  0.1211 -0.1806
  461TMC3    H1 6868   0.821   2.587  10.297  0.9391 -0.1089 -1.4730
  461TMC3    H2 6869   0.554   2.552   9.962 -0.8633  0.4771 -0.0698
  461TMC3    C7 6870   0.687   2.743  10.105  0.1719 -0.1158  0.0226
  461TMC3    C8 6871   0.542   2.304   9.984 -0.0090  0.7668  0.9715
  461TMC3    O1 6872   0.599   2.792  10.037 -0.3051  0.7809  0.1639
  461TMC3    O2 6873   0.555   2.347   9.873 -0.1190 -0.6200 -0.0620
  462TMC3    C1 6874   0.172   3.556   0.648 -0.3597  0.2857  0.2896
  462TMC3    C2 6875   0.308   3.577   0.622  0.4900 -0.6325 -0.1883
  462TMC3    C3 6876   0.360   3.522   0.511 -0.1548  0.3851  0.5749
  462TMC3    C4 6877   0.091   3.493   0.558 -1.0320  0.5755 -0.6755
  462TMC3    C5 6878   0.146   3.448   0.437  1.2648 -0.4041 -0.2227
  462TMC3    C6 6879   0.279   3.454   0.419 -0.2831  0.2836  0.4241
  462TMC3     C 6880   0.119   3.594   0.774  0.0217 -0.5524  0.2989
  462TMC3     O 6881   0.000   3.622   0.788  0.0266  0.1636 -0.0676
  462TMC3     H 6882   0.369   3.641   0.685 -1.6404  1.2758 -0.0495
  462TMC3    H1 6883   4.720   3.466   0.599 -0.0332 -1.3380  0.3872
  462TMC3    H2 6884   0.324   3.447   0.321  0.9373  2.0365  0.8465
  462TMC3    C7 6885   0.081   3.330   0.373  0.1185 -0.0938 -0.2622
  462TMC3    C8 6886   0.486   3.458   0.532  0.1151 -0.1775  0.3929
  462TMC3    O1 6887   0.163   3.252   0.324 -0.3438  0.1217  0.1566
  462TMC3    O2 6888   0.546   3.504   0.623 -0.4087 -0.4096 -0.2424
  463MPD2     C 6889   1.490   2.758   1.648 -0.4021  0.0013 -0.2185
  463MPD2    C1 6890   1.480   2.690   1.524 -0.5212 -0.1381 -0.8196
  463MPD2    C2 6891   1.592   2.688   1.445  0.0834 -0.3603 -0.5184
  463MPD2    C3 6892   1.708   2.739   1.492  0.2756 -0.1154 -0.2607
  463MPD2    C4 6893   1.717   2.805   1.611  0.0278 -0.4490  0.2002
  463MPD2    C5 6894   1.605   2.827   1.678  0.4153  0.4413  0.2041
  463MPD2     H 6895   1.586   2.637   1.349  0.0767  0.6325 -1.0461
  463MPD2    H1 6896   1.791   2.882   1.632 -2.3331  1.3507  1.8749
  463MPD2    H2 6897   1.400   2.774   1.706  0.2745  0.5342  0.6778
  463MPD2    H3 6898   1.619   2.893   1.762 -1.4839 -0.5261  1.2897
  463MPD2     N 6899   1.830   2.715   1.428 -0.1373 -0.2990  0.2018
  463MPD2    H5 6900   1.908   2.761   1.475 -0.0715  0.3358 -0.5251
  463MPD2    N1 6901   1.361   2.634   1.469  0.0871  0.0828  0.1842
  463MPD2    H7 6902   1.359   2.624   1.368  1.4396 -0.4063  0.2019
  464TMC3    C1 6903   1.134   2.559   1.481 -0.1427  0.0240 -0.3646
  464TMC3    C2 6904   1.084   2.633   1.372  1.0843 -0.2016 -0.5252
  464TMC3    C3 6905   0.962   2.611   1.325 -0.2837  0.0335  0.3676
  464TMC3    C4 6906   1.064   2.463   1.544 -0.6200 -0.0421  0.0225
  464TMC3    C5 6907   0.942   2.440   1.484  0.0466 -0.0438 -0.2606
  464TMC3    C6 6908   0.888   2.507   1.380  0.0586 -0.1917  0.1397
  464TMC3     C 6909   1.250   2.610   1.556 -0.0567  0.8931  0.2662
  464TMC3     O 6910   1.258   2.579   1.678 -0.1134  0.4863 -0.4943
  464TMC3     H 6911   1.149   2.701   1.319 -2.3545  1.9594 -1.9717
  464TMC3    H1 6912   1.098   2.402   1.627  0.7049  0.6491 -0.0068
  464TMC3    H2 6913   0.785   2.494   1.346 -0.0289  0.8698  0.0034
  464TMC3    C7 6914   0.873   2.326   1.541  0.6863  0.1492 -0.5703
  464TMC3    C8 6915   0.905   2.691   1.214 -0.7459  0.4204  0.4090
  464TMC3    O1 6916   0.906   2.290   1.652 -0.2163  0.5557 -0.4378
  464TMC3    O2 6917   0.875   2.625   1.114 -0.4270 -0.1108 -0.1351
  465MPD2     C 6918   2.539   0.356  16.181  0.1298 -0.3170 -0.2660
  465MPD2    C1 6919   2.496   0.381  16.313  0.7700  0.0457  0.5688
  465MPD2    C2 6920   2.365   0.373  16.344  0.9068 -0.9416  0.2687
  465MPD2    C3 6921   2.274   0.360  16.240  0.2086  0.2205 -0.0621
  465MPD2    C4 6922   2.309   0.335  16.109 -0.3097  0.9181 -0.6210
  465MPD2    C5 6923   2.441   0.333  16.086  0.3572  0.2503 -0.0067
  465MPD2     H 6924   2.335   0.396  16.445  0.1197 -3.0042  0.4843
  465MPD2    H1 6925   2.234   0.320  16.031 -0.1611 -0.9463 -0.3954
  465MPD2    H2 6926   2.642   0.370  16.151  0.7903 -0.0378  2.0722
  465MPD2    H3 6927   2.478   0.336  15.984  2.0154 -1.1005  0.5567
  465MPD2     N 6928   2.151   0.408  16.289  0.1063  0.9024  0.3435
  465MPD2    H5 6929   2.127   0.431  16.385 -0.5151 -0.5466  0.5270
  465MPD2    N1 6930   2.575   0.416  16.429  0.3386  0.2828  0.1564
  465MPD2    H7 6931   2.528   0.437  16.516  1.2086 -0.3481  0.7797
  466TMC3    C1 6932   1.862   0.759  16.222  0.7260  0.4795  0.3413
  466TMC3    C2 6933   1.913   0.835  16.327 -0.2755 -0.5975  0.1073
  466TMC3    C3 6934   2.006   0.766  16.402 -0.4265  0.3361  0.5131
  466TMC3    C4 6935   1.898   0.628  16.194  0.3926  0.4420 -0.2974
  466TMC3    C5 6936   1.982   0.556  16.276  0.0624 -0.0008 -0.3499
  466TMC3    C6 6937   2.044   0.631  16.375  0.3748 -0.3085  0.3436
  466TMC3     C 6938   1.734   0.799  16.154  0.4392 -0.2395 -0.7251
  466TMC3     O 6939   1.648   0.717  16.116  0.0447 -0.3493  0.5378
  466TMC3     H 6940   1.885   0.938  16.347 -0.6700 -0.7959  0.5640
  466TMC3    H1 6941   1.861   0.589  16.100 -1.3747  3.7082 -0.9578
  466TMC3    H2 6942   2.114   0.585  16.444  1.4183 -0.1938 -0.6363
  466TMC3    C7 6943   2.051   0.454  16.204  0.1246 -0.0891 -0.1739
  466TMC3    C8 6944   2.086   0.829  16.503 -0.2630 -0.7192  0.2271
  466TMC3    O1 6945   2.053   0.455  16.081  0.1195 -0.1071  0.1080
  466TMC3    O2 6946   2.202   0.793  16.529  0.2174 -0.1094  0.1287
  467TMC3    C1 6947   3.401   3.639  13.667 -0.5968 -0.4220 -0.8233
  467TMC3    C2 6948   3.340   3.740  13.596 -0.1056  0.5641 -0.2271
  467TMC3    C3 6949   3.234   3.808  13.646 -0.1436 -0.3759  0.1628
  467TMC3    C4 6950   3.347   3.595  13.786  0.0772 -0.7439 -0.1179
  467TMC3    C5 6951   3.240   3.667  13.836 -0.0245 -0.2311 -0.8451
  467TMC3    C6 6952   3.182   3.766  13.765 -0.3779 -0.3822  0.7191
  467TMC3     C 6953   3.542   3.631  13.650  0.4535 -0.8318  0.0432
  467TMC3     O 6954   3.587   3.738  13.611 -0.1345  0.4490  0.2233
  467TMC3     H 6955   3.382   3.765  13.499 -0.4482 -0.4548 -0.6406
  467TMC3    H1 6956   3.383   3.506  13.836 -1.1261 -1.2483 -0.1557
  467TMC3    H2 6957   3.114   3.836  13.814  1.0887  0.4579  1.5738
  467TMC3    C7 6958   3.168   3.613  13.946 -0.5079  0.1733  0.1105
  467TMC3    C8 6959   3.259   3.950  13.643  0.7667 -0.3799  0.0888
  467TMC3    O1 6960   3.223   3.519  14.004 -0.1512 -0.0454 -0.0459
  467TMC3    O2 6961   3.366   3.995  13.596 -0.5865  0.9096 -0.0154
  468MPD2     C 6962   2.793   1.981  11.060 -0.2491 -0.0956  0.1684
  468MPD2    C1 6963   2.910   1.907  11.054 -0.0662 -0.3056 -0.0090
  468MPD2    C2 6964   2.892   1.772  11.050  0.0355 -0.2726  0.8339
  468MPD2    C3 6965   2.771   1.707  11.042 -0.6954 -0.2098 -0.8570
  468MPD2    C4 6966   2.660   1.783  11.057 -0.0201 -0.1788 -0.3487
  468MPD2    C5 6967   2.668   1.921  11.068  0.0218 -0.2432 -0.2981
  468MPD2     H 6968   2.978   1.707  11.042 -0.0017 -0.1706 -0.3620
  468MPD2    H1 6969   2.562   1.738  11.048  0.5244 -1.7420  1.6236
  468MPD2    H2 6970   2.789   2.089  11.067 -0.7217 -0.1153  0.1690
  468MPD2    H3 6971   2.581   1.984  11.072  1.7164  2.0337  0.5325
  468MPD2     N 6972   2.757   1.561  11.017 -0.2550 -0.4899 -0.3452
  468MPD2    H5 6973   2.660   1.530  11.018 -0.2973 -0.3358  0.2392
  468MPD2    N1 6974   3.043   1.968  11.043 -0.0470 -0.5623 -0.3459
  468MPD2    H7 6975   3.130   1.917  11.050 -0.1762 -1.0970 -2.9056
  469TMC3    C1 6976   3.204   2.150  11.038 -0.0626 -0.4819  0.4638
  469TMC3    C2 6977   3.298   2.064  11.081  0.0724  0.9121  0.0105
  469TMC3    C3 6978   3.405   2.116  11.145 -0.6668 -0.4581  0.0889
  469TMC3    C4 6979   3.218   2.282  11.047  0.2863 -0.0145  0.1452
  469TMC3    C5 6980   3.323   2.331  11.112  0.2541 -0.7033 -0.8818
  469TMC3    C6 6981   3.419   2.248  11.163  0.2832  0.0407  0.7230
  469TMC3     C 6982   3.063   2.110  11.040  0.0871  0.0142 -0.5916
  469TMC3     O 6983   2.986   2.198  11.022 -0.7401 -0.1031 -0.2861
  469TMC3     H 6984   3.295   1.956  11.081  1.2515  0.8895 -1.6327
  469TMC3    H1 6985   3.140   2.345  11.007  0.3565 -0.3447 -0.5043
  469TMC3    H2 6986   3.491   2.295  11.229  0.2606  2.0298 -0.6857
  469TMC3    C7 6987   3.336   2.475  11.136 -0.2290  0.1165 -0.4805
  469TMC3    C8 6988   3.488   2.032  11.219  0.3294 -0.7762  0.1488
  469TMC3    O1 6989   3.448   2.509  11.154  0.0279 -0.6407 -0.3372
  469TMC3    O2 6990   3.508   1.915  11.178 -0.0926 -0.1601  0.0134
  470TMC3    C1 6991   4.548   3.086   0.674 -0.9329  0.1277  0.5106
  470TMC3    C2 6992   4.458   3.188   0.690  0.1235  0.4515 -0.0591
  470TMC3    C3 6993   4.499   3.288   0.770  0.4326  0.2919 -0.4686
  470TMC3    C4 6994   4.672   3.088   0.729 -1.0611  0.5423 -0.2887
  470TMC3    C5 6995   4.707   3.199   0.802  0.2380  0.0824 -0.2646
  470TMC3    C6 6996   4.628   3.303   0.817 -0.6236  0.3112 -0.7987
  470TMC3     C 6997   4.482   2.951   0.664  0.0464  0.7197  0.5321
  470TMC3     O 6998   4.363   2.936   0.663  0.2090  0.2492 -0.2242
  470TMC3     H 6999   4.356   3.183   0.653  0.3378  0.5846 -0.6796
  470TMC3    H1 7000   0.009   2.999   0.735  0.9276  2.0016  1.0599
  470TMC3    H2 7001   4.664   3.385   0.877  1.0867 -1.2490  0.2755
  470TMC3    C7 7002   0.106   3.184   0.869  0.4744 -0.2749  0.0630
  470TMC3    C8 7003   4.415   3.404   0.789  0.3044 -0.2307  0.7874
  470TMC3    O1 7004   0.191   3.129   0.795  0.5260 -0.2213  0.3165
  470TMC3    O2 7005   4.451   3.478   0.875  1.1651  0.1190  0.1216
  471MPD2     C 7006   0.044   4.466  16.514 -0.4892  0.4476  0.4595
  471MPD2    C1 7007   4.720   4.341  16.533  0.4390 -0.2725 -0.5518
  471MPD2    C2 7008   4.687   4.310  16.663  1.0089  0.3205  0.3024
  471MPD2    C3 7009   4.714   4.395  16.774 -0.6572 -0.3130 -0.0795
  471MPD2    C4 7010   0.051   4.513  16.751  0.5764  0.6338 -0.1811
  471MPD2    C5 7011   0.056   4.555  16.621 -0.3868  0.3740 -0.1944
  471MPD2     H 7012   4.658   4.207  16.680  2.6113 -0.3241 -0.8992
  471MPD2    H1 7013   0.093   4.576  16.828  1.9102  1.6405 -1.7344
  471MPD2    H2 7014   0.073   4.496  16.413 -0.2932 -2.0713 -0.2279
  471MPD2    H3 7015   0.097   4.653  16.599 -0.6055  0.4171 -0.4027
  471MPD2     N 7016   4.695   4.355  16.908 -0.4055 -0.1462  0.0569
  471MPD2    H5 7017   0.006   4.417  16.980 -1.4582  0.9351 -0.3510
  471MPD2    N1 7018   4.693   4.244  16.431 -0.3446  0.0879  0.1671
  471MPD2    H7 7019   4.645   4.159  16.460  0.3972 -0.1042  0.8364
  472TMC3    C1 7020   4.662   4.145  16.218  0.9574  1.0574  1.1802
  472TMC3    C2 7021   4.627   4.164  16.091  0.1067  0.4789  0.0127
  472TMC3    C3 7022   4.607   4.051  16.012  0.0759  0.3401 -0.2598
  472TMC3    C4 7023   4.682   4.022  16.278  0.3023 -0.3636 -0.6214
  472TMC3    C5 7024   4.654   3.912  16.198 -0.0595 -0.0805  0.3987
  472TMC3    C6 7025   4.619   3.928  16.070  0.1138  0.3613  0.5951
  472TMC3     C 7026   4.691   4.267  16.296 -0.2185  0.4965  0.7666
  472TMC3     O 7027   0.023   4.363  16.242  0.2266  0.3853  0.2570
  472TMC3     H 7028   4.614   4.264  16.052  0.5560  0.4184 -0.2863
  472TMC3    H1 7029   4.715   4.013  16.381 -1.7906 -1.1227 -0.0305
  472TMC3    H2 7030   4.594   3.848  16.002 -1.1340  0.0922  1.3709
  472TMC3    C7 7031   4.642   3.782  16.266 -0.2777 -0.4428 -0.5533
  472TMC3    C8 7032   4.490   4.059  15.924 -0.9552  0.9185 -0.6446
  472TMC3    O1 7033   4.670   3.790  16.385 -0.0277 -0.0253  0.5134
  472TMC3    O2 7034   4.483   4.138  15.829  0.2293  0.7419  0.2357
  473MPD2     C 7035   0.084   1.549  14.011  0.3095 -1.5174  0.6026
  473MPD2    C1 7036   0.174   1.638  13.954 -0.4753 -0.1150 -0.4358
  473MPD2    C2 7037   0.242   1.728  14.034  0.5351  0.4118  0.1018
  473MPD2    C3 7038   0.236   1.728  14.175  0.4541 -0.2910  0.1165
  473MPD2    C4 7039   0.159   1.629  14.222  0.6425 -0.0496 -0.4341
  473MPD2    C5 7040   0.086   1.549  14.145 -0.0527 -0.3086  0.3377
  473MPD2     H 7041   0.312   1.788  13.976 -0.1965  0.1090 -1.0999
  473MPD2    H1 7042   0.137   1.617  14.328 -1.1402  0.3265 -0.7614
  473MPD2    H2 7043   0.010   1.489  13.960  1.7847 -1.1489 -1.9256
  473MPD2    H3 7044   0.021   1.475  14.191 -1.2969 -0.9631 -2.5071
  473MPD2     N 7045   0.301   1.821  14.257 -0.5774 -0.6153  0.0067
  473MPD2    H5 7046   0.301   1.806  14.358  0.9258 -0.1070  0.0797
  473MPD2    N1 7047   0.203   1.648  13.811  0.7068 -0.1229  0.0369
  473MPD2    H7 7048   0.249   1.730  13.773  2.3054 -1.0679 -0.0794
  474TMC3    C1 7049   0.363   2.019  14.326 -0.1315  0.2644  0.2613
  474TMC3    C2 7050   0.335   2.150  14.316  0.1333  0.1245  0.0426
  474TMC3    C3 7051   0.358   2.228  14.422 -0.8042  0.2613  0.2355
  474TMC3    C4 7052   0.439   1.972  14.434 -0.8005  1.2628  0.2410
  474TMC3    C5 7053   0.474   2.059  14.538 -0.2648  0.1218  0.2905
  474TMC3    C6 7054   0.433   2.190  14.530  0.1463  0.0718 -0.1993
  474TMC3     C 7055   0.344   1.940  14.216 -0.4211  0.7301  0.2408
  474TMC3     O 7056   0.370   1.985  14.103 -0.4609  0.1156  0.1512
  474TMC3     H 7057   0.264   2.182  14.241  1.3725 -0.4713 -1.3689
  474TMC3    H1 7058   0.497   1.882  14.416 -2.0239  0.2935  1.0851
  474TMC3    H2 7059   0.458   2.264  14.606  1.5423 -1.5815  0.9693
  474TMC3    C7 7060   0.600   2.027  14.610  0.0803  0.5329  0.2228
  474TMC3    C8 7061   0.263   2.331  14.433 -0.3603  0.2933  0.8218
  474TMC3    O1 7062   0.681   1.971  14.540 -0.0340  0.2314  0.8176
  474TMC3    O2 7063   0.231   2.371  14.542 -0.2921  0.3104 -0.1565
  475MPD2     C 7064   3.819   4.482  10.566 -0.3331  0.1629  0.3534
  475MPD2    C1 7065   3.738   4.389  10.622 -0.1452 -0.3259 -0.9188
  475MPD2    C2 7066   3.618   4.424  10.673  0.0286  1.5512  0.4322
  475MPD2    C3 7067   3.580   4.557  10.682 -0.7381 -0.7749 -0.1692
  475MPD2    C4 7068   3.658   4.653  10.615  0.2280  0.0232 -0.2512
  475MPD2    C5 7069   3.781   4.616  10.567 -0.3204 -0.5588  0.1074
  475MPD2     H 7070   3.553   4.343  10.702  0.4017  1.5105  1.1540
  475MPD2    H1 7071   3.630   0.033  10.614  0.1759  0.0264  2.8923
  475MPD2    H2 7072   3.916   4.466  10.520 -1.6209 -0.0809 -2.2602
  475MPD2    H3 7073   3.836   4.694  10.517 -0.5743  0.1027  0.8638
  475MPD2     N 7074   3.472   4.609  10.761 -0.3676 -0.0387 -0.9277
  475MPD2    H5 7075   3.446   4.704  10.736  1.0184  0.9019  1.1139
  475MPD2    N1 7076   3.792   4.260  10.598 -0.2761  0.2971  0.4202
  475MPD2    H7 7077   3.870   4.254  10.534  0.0733  0.2538  0.8453
  476TMC3    C1 7078   3.780   4.027  10.566 -0.1054 -0.1816  0.0241
  476TMC3    C2 7079   3.698   3.923  10.536 -0.4348 -0.1429  0.0705
  476TMC3    C3 7080   3.757   3.813  10.479 -0.3097  0.2510  0.0351
  476TMC3    C4 7081   3.913   4.019  10.547  0.1532 -1.0367 -0.4099
  476TMC3    C5 7082   3.967   3.899  10.495 -0.1283 -0.1059  0.0051
  476TMC3    C6 7083   3.890   3.791  10.473 -0.5800 -0.2027 -0.6188
  476TMC3     C 7084   3.723   4.142  10.623  0.4444  0.3800  0.8806
  476TMC3     O 7085   3.617   4.122  10.682 -0.0628 -0.1597 -0.3575
  476TMC3     H 7086   3.591   3.938  10.532 -0.2699  1.0650  0.2310
  476TMC3    H1 7087   3.974   4.098  10.590  0.4267 -1.1444 -0.5977
  476TMC3    H2 7088   3.938   3.710  10.419  0.1828 -0.7220  0.8434
  476TMC3    C7 7089   4.101   3.903  10.441 -0.0019 -0.1942  0.0320
  476TMC3    C8 7090   3.666   3.717  10.428  0.6771 -0.1013 -0.3032
  476TMC3    O1 7091   4.156   3.798  10.417  0.0464 -0.8173  0.2731
  476TMC3    O2 7092   3.554   3.716  10.472 -0.0922 -0.0906  0.4041
  477MPD2     C 7093   1.180   1.322  11.636  0.3276 -0.5352  0.8236
  477MPD2    C1 7094   1.084   1.218  11.638  0.0836 -0.1032  0.3947
  477MPD2    C2 7095   1.092   1.125  11.741  0.1329 -0.3625  0.0634
  477MPD2    C3 7096   1.199   1.131  11.832 -1.1121 -0.1458  0.0673
  477MPD2    C4 7097   1.291   1.241  11.824  0.2962  0.4090  0.7505
  477MPD2    C5 7098   1.281   1.336  11.728  0.1841 -0.8513 -0.7504
  477MPD2     H 7099   1.026   1.043  11.767  0.2834  0.2060  2.2587
  477MPD2    H1 7100   1.365   1.256  11.902  0.3424 -0.5114  0.8867
  477MPD2    H2 7101   1.164   1.409  11.573 -0.8520 -0.7444  0.8303
  477MPD2    H3 7102   1.354   1.416  11.727  1.5763 -2.1238 -1.5004
  477MPD2     N 7103   1.197   1.038  11.940  0.8862  0.1532  0.3273
  477MPD2    H5 7104   1.118   0.974  11.943 -0.8799  2.3542  1.2064
  477MPD2    N1 7105   0.988   1.212  11.533  0.6076  0.9022 -0.8699
  477MPD2    H7 7106   0.999   1.283  11.461 -0.2582 -0.1804 -2.0718
  478TMC3    C1 7107   0.765   1.171  11.461  0.1838 -1.0467 -0.1223
  478TMC3    C2 7108   0.634   1.170  11.506  0.5855  0.0046  0.5189
  478TMC3    C3 7109   0.542   1.230  11.427 -0.1712 -0.1501 -0.2341
  478TMC3    C4 7110   0.805   1.196  11.332  0.5017 -0.8696 -0.1358
  478TMC3    C5 7111   0.702   1.237  11.249 -0.3470  0.9375 -0.4135
  478TMC3    C6 7112   0.573   1.267  11.296  0.7307 -0.4177 -0.0176
  478TMC3     C 7113   0.867   1.145  11.562  0.1437 -0.0281 -0.6936
  478TMC3     O 7114   0.831   1.091  11.665  0.4241 -0.2747  0.0406
  478TMC3     H 7115   0.618   1.140  11.609  0.1977 -1.5965 -0.0089
  478TMC3    H1 7116   0.907   1.182  11.298  0.2962  0.9846 -1.5168
  478TMC3    H2 7117   0.504   1.317  11.229 -0.1457  1.3369  2.1842
  478TMC3    C7 7118   0.714   1.293  11.114 -0.8005 -0.5940  0.3012
  478TMC3    C8 7119   0.430   1.292  11.503 -0.5144 -0.4052 -0.2989
  478TMC3    O1 7120   0.625   1.262  11.032 -0.4881 -0.4431  0.0283
  478TMC3    O2 7121   0.399   1.245  11.611 -0.1814 -0.0550  0.2096
  479MPD2     C 7122   4.653   3.621  14.949 -0.0263  0.1092 -0.2862
  479MPD2    C1 7123   4.565   3.587  15.045  0.1447 -0.3221  0.0412
  479MPD2    C2 7124   4.591   3.611  15.178  0.1814 -0.2543  0.2068
  479MPD2    C3 7125   4.704   3.677  15.228 -0.2012  0.0691  0.5287
  479MPD2    C4 7126   0.068   3.708  15.135  0.2007 -0.4205 -0.5813
  479MPD2    C5 7127   0.046   3.674  15.000  0.4747 -0.2605  0.0243
  479MPD2     H 7128   4.531   3.559  15.252 -2.3800  1.0400 -0.9697
  479MPD2    H1 7129   0.159   3.757  15.166  0.5781 -1.4397 -0.0728
  479MPD2    H2 7130   4.627   3.610  14.845  1.1387 -0.2854 -0.5351
  479MPD2    H3 7131   0.131   3.683  14.933  0.2185 -0.7005 -0.3574
  479MPD2     N 7132   0.008   3.701  15.367 -0.0324  0.0192 -0.1199
  479MPD2    H5 7133   0.093   3.755  15.380 -0.5806  0.9073 -0.2047
  479MPD2    N1 7134   4.441   3.533  15.004 -0.1696 -0.1432 -0.2646
  479MPD2    H7 7135   4.440   3.499  14.908 -0.6212 -1.1288  0.0850
  480TMC3    C1 7136   4.336   3.623  15.618 -0.1727  0.2022 -0.0486
  480TMC3    C2 7137   4.271   3.733  15.574  0.5855 -0.0431 -0.2101
  480TMC3    C3 7138   4.336   3.809  15.476  0.1641 -0.3645  0.0906
  480TMC3    C4 7139   4.464   3.595  15.580 -0.1570  0.3014 -0.3738
  480TMC3    C5 7140   4.524   3.667  15.486  0.8994  0.3115 -0.8287
  480TMC3    C6 7141   4.460   3.776  15.433  0.7433  0.1236  0.4100
  480TMC3     C 7142   4.274   3.531  15.715  0.0449  0.0744  0.6529
  480TMC3     O 7143   4.353   3.472  15.788  0.8334 -0.4662  0.3353
  480TMC3     H 7144   4.166   3.756  15.591  0.1915 -1.4611 -0.6540
  480TMC3    H1 7145   4.524   3.509  15.609 -0.5468 -0.2442 -1.1810
  480TMC3    H2 7146   4.505   3.830  15.350  2.0766 -0.8286  0.5098
  480TMC3    C7 7147   4.667   3.655  15.482 -0.1416 -0.4235 -0.1410
  480TMC3    C8 7148   4.245   3.853  15.369  0.1414 -0.0405 -0.3220
  480TMC3    O1 7149   4.711   3.644  15.597  0.5377  0.6718  0.0220
  480TMC3    O2 7150   4.138   3.902  15.400 -0.6963 -0.7325  0.4567
  481MPD2     C 7151   1.635   3.584  14.299 -0.6073  0.6708  0.2988
  481MPD2    C1 7152   1.567   3.460  14.290 -0.0978 -0.4697  0.0216
  481MPD2    C2 7153   1.523   3.399  14.409 -0.1609  0.2236  0.0969
  481MPD2    C3 7154   1.535   3.465  14.530 -0.1241 -0.4696  0.1285
  481MPD2    C4 7155   1.606   3.580  14.533  0.1829 -0.1511 -0.0902
  481MPD2    C5 7156   1.653   3.640  14.420 -0.2654  0.5400 -0.1936
  481MPD2     H 7157   1.492   3.296  14.396  0.5016 -0.1929  1.8383
  481MPD2    H1 7158   1.644   3.627  14.624 -1.3021 -0.3248  0.6175
  481MPD2    H2 7159   1.693   3.617  14.214 -0.7577  0.8196  0.2545
  481MPD2    H3 7160   1.717   3.728  14.427 -0.2608  0.4300  1.2312
  481MPD2     N 7161   1.489   3.416  14.659  0.0667 -0.1119  0.0661
  481MPD2    H5 7162   1.504   3.480  14.736  0.8251  1.5218 -1.4414
  481MPD2    N1 7163   1.554   3.406  14.162 -0.4842  1.0324  0.3991
  481MPD2    H7 7164   1.582   3.456  14.078  0.5639 -0.2637 -0.0317
  482TMC3    C1 7165   1.435   3.322  13.976  0.0402 -0.1279 -0.3704
  482TMC3    C2 7166   1.328   3.246  13.928  0.0833  0.1575 -0.1665
  482TMC3    C3 7167   1.314   3.230  13.790  0.6734 -0.0784  0.3305
  482TMC3    C4 7168   1.534   3.366  13.888 -0.2383 -0.0427 -0.6875
  482TMC3    C5 7169   1.514   3.341  13.752  0.4774 -0.2469  0.1546
  482TMC3    C6 7170   1.403   3.278  13.702  0.1796  0.3473 -0.2508
  482TMC3     C 7171   1.455   3.322  14.120 -0.1465  0.7994  0.1744
  482TMC3     O 7172   1.371   3.266  14.190  0.1122  0.5014  0.0729
  482TMC3     H 7173   1.249   3.205  13.991  1.0630  0.4261  1.2450
  482TMC3    H1 7174   1.627   3.407  13.924 -0.6490 -0.2948  0.6494
  482TMC3    H2 7175   1.392   3.241  13.600  5.1168  0.6717 -0.9063
  482TMC3    C7 7176   1.609   3.391  13.649 -0.1968  0.1136 -0.0681
  482TMC3    C8 7177   1.263   3.098  13.753  0.5533 -0.2808  0.1187
  482TMC3    O1 7178   1.731   3.398  13.673  0.0053 -0.2901  0.1397
  482TMC3    O2 7179   1.303   3.006  13.827 -0.2674 -0.1870 -0.1512
  483TMC3    C1 7180   0.255   2.886   1.245  0.0685  0.2018  1.0189
  483TMC3    C2 7181   0.229   2.870   1.107  0.0553 -0.3217  0.5542
  483TMC3    C3 7182   0.338   2.836   1.029 -0.1981 -0.0655  0.4132
  483TMC3    C4 7183   0.371   2.860   1.304 -0.0539  0.2478 -0.7202
  483TMC3    C5 7184   0.473   2.827   1.215  0.5450 -0.0784  0.2074
  483TMC3    C6 7185   0.456   2.816   1.082  0.0972  0.0875 -0.2242
  483TMC3     C 7186   0.149   2.845   1.334  0.3796 -0.3309  0.3434
  483TMC3     O 7187   0.158   2.868   1.453 -0.2357 -0.5266 -0.2172
  483TMC3     H 7188   0.132   2.897   1.069 -0.8010 -4.6691 -0.3968
  483TMC3    H1 7189   0.386   2.872   1.411 -2.1925  0.9885 -0.5033
  483TMC3    H2 7190   0.536   2.789   1.014  1.1242  1.2932  0.4957
  483TMC3    C7 7191   0.535   2.703   1.254 -0.0295  1.0365  0.0738
  483TMC3    C8 7192   0.312   2.778   0.895 -0.5816  0.2571 -0.1798
  483TMC3    O1 7193   0.547   2.617   1.171 -0.1074 -0.5905 -0.0916
  483TMC3    O2 7194   0.206   2.801   0.838 -0.5973  0.4187  0.0615
  484MPD2     C 7195   1.735   0.304  12.097  0.0261  0.1687 -0.0128
  484MPD2    C1 7196   1.787   0.243  12.208  0.5915 -0.3752 -0.1533
  484MPD2    C2 7197   1.898   0.299  12.265 -0.9388 -0.2161  0.0319
  484MPD2    C3 7198   1.960   0.410  12.213 -0.7702  0.6875 -0.7004
  484MPD2    C4 7199   1.907   0.476  12.107 -0.4263 -0.1829  0.1619
  484MPD2    C5 7200   1.798   0.416  12.044 -0.0897 -0.1662 -0.1012
  484MPD2     H 7201   1.940   0.250  12.352  0.3702  0.3727 -0.2660
  484MPD2    H1 7202   1.960   0.562  12.068 -1.2317  0.9873  1.6600
  484MPD2    H2 7203   1.648   0.254  12.055  0.2062 -0.8198  0.7795
  484MPD2    H3 7204   1.765   0.454  11.948  0.0178  0.5284  0.1309
  484MPD2     N 7205   2.086   0.448  12.255  0.4104  0.5301 -0.1790
  484MPD2    H5 7206   2.119   0.539  12.225 -1.9868  0.7383 -2.1444
  484MPD2    N1 7207   1.725   0.126  12.253 -0.0246  0.0631 -0.3211
  484MPD2    H7 7208   1.674   0.071  12.185 -4.7593  1.9634  1.7119
  485TMC3    C1 7209   2.303   0.435  12.323 -0.0819 -0.6518 -0.2100
  485TMC3    C2 7210   2.397   0.367  12.395  0.1365 -0.4159 -0.3527
  485TMC3    C3 7211   2.530   0.406  12.379 -0.3945 -0.9112  0.1910
  485TMC3    C4 7212   2.334   0.531  12.230 -0.3252  0.0079 -0.4798
  485TMC3    C5 7213   2.459   0.567  12.213 -0.5414 -1.0691 -0.1245
  485TMC3    C6 7214   2.557   0.512  12.298 -0.2352 -0.4132 -0.1341
  485TMC3     C 7215   2.182   0.369  12.310  0.7616 -0.3538  0.3586
  485TMC3     O 7216   2.169   0.258  12.361  0.1457  0.3559 -0.0060
  485TMC3     H 7217   2.365   0.291  12.466  1.3011  0.9742  1.6487
  485TMC3    H1 7218   2.264   0.587  12.168 -0.1633  0.4145 -0.2909
  485TMC3    H2 7219   2.655   0.555  12.315 -1.8296  3.1444 -0.0646
  485TMC3    C7 7220   2.508   0.598  12.077  0.6576 -0.3340 -0.5621
  485TMC3    C8 7221   2.640   0.316  12.403  0.4704 -0.6669  0.6412
  485TMC3    O1 7222   2.432   0.655  12.000 -0.0343 -1.0945  0.5310
  485TMC3    O2 7223   2.751   0.356  12.428 -0.0243  0.2590  0.3580
  486MPD2     C 7224   4.599   3.801  12.916  0.2069 -0.2147  0.2118
  486MPD2    C1 7225   4.531   3.772  12.799  0.4838 -0.8891  0.1672
  486MPD2    C2 7226   4.453   3.873  12.735 -0.8575  0.1082  0.4129
  486MPD2    C3 7227   4.447   3.998  12.793 -0.8159 -0.4140  0.1282
  486MPD2    C4 7228   4.506   4.017  12.915  0.9387  0.4672  0.1201
  486MPD2    C5 7229   4.587   3.918  12.976  0.0876  0.9309 -0.0775
  486MPD2     H 7230   4.383   3.852  12.655  0.7803  1.2152 -1.2964
  486MPD2    H1 7231   4.505   4.111  12.968  0.7241 -0.0118  0.9722
  486MPD2    H2 7232   4.665   3.727  12.960 -0.4261 -1.1107 -0.3483
  486MPD2    H3 7233   4.640   3.951  13.064  0.3312  0.9329 -0.2232
  486MPD2     N 7234   4.364   4.092  12.729 -0.0917  0.0764 -0.5699
  486MPD2    H5 7235   4.334   4.066  12.636 -0.2159 -2.5404  0.2144
  486MPD2    N1 7236   4.529   3.627  12.763 -0.2289 -0.1243 -0.4967
  486MPD2    H7 7237   4.585   3.561  12.815 -0.7720  0.0889  0.3538
  487TMC3    C1 7238   4.454   3.426  12.672  0.2856  0.0453  0.0286
  487TMC3    C2 7239   4.352   3.343  12.711 -0.4671 -0.1653  0.8412
  487TMC3    C3 7240   4.388   3.211  12.727  0.7346  0.4007  0.3551
  487TMC3    C4 7241   4.575   3.375  12.655 -0.3164  0.7792  0.0396
  487TMC3    C5 7242   4.601   3.245  12.655 -0.4231  0.0888  0.7403
  487TMC3    C6 7243   4.507   3.161  12.696 -0.0777  0.1702 -0.1581
  487TMC3     C 7244   4.441   3.571  12.676  0.0836 -0.0420 -0.3003
  487TMC3     O 7245   4.345   3.615  12.620 -0.0175 -0.3455  0.3335
  487TMC3     H 7246   4.256   3.394  12.713  0.3176  1.2803  1.3780
  487TMC3    H1 7247   4.657   3.435  12.616 -0.6335  0.3491 -1.3037
  487TMC3    H2 7248   4.526   3.060  12.730  1.5598  0.3677 -0.4968
  487TMC3    C7 7249   0.017   3.207  12.689 -0.6947 -0.1761  0.1166
  487TMC3    C8 7250   4.320   3.154  12.848 -0.6180  0.0317  0.0118
  487TMC3    O1 7251   0.085   3.292  12.736 -0.3927 -0.1247  0.0343
  487TMC3    O2 7252   4.228   3.218  12.892  0.3347  0.2778 -0.6206
  488MPD2     C 7253   4.100   0.454  15.999  0.3016 -0.6856 -0.2842
  488MPD2    C1 7254   4.123   0.483  16.135 -0.6115 -0.4550  1.3391
  488MPD2    C2 7255   4.058   0.410  16.229 -0.1269 -0.1629  0.3305
  488MPD2    C3 7256   3.968   0.307  16.193 -0.1444 -0.6404  0.0820
  488MPD2    C4 7257   3.947   0.287  16.059  0.2112  0.2048  0.0803
  488MPD2    C5 7258   4.014   0.362  15.963  0.1700 -0.4556 -0.4195
  488MPD2     H 7259   4.085   0.414  16.334  0.9330 -0.6263  0.0693
  488MPD2    H1 7260   3.896   0.201  16.017 -0.8902  0.8799  0.0119
  488MPD2    H2 7261   4.144   0.504  15.914 -1.6760 -2.2279 -2.1879
  488MPD2    H3 7262   4.002   0.347  15.856 -0.5233  0.2305 -0.4383
  488MPD2     N 7263   3.923   0.219  16.296 -0.0909  0.1425  0.3104
  488MPD2    H5 7264   3.954   0.249  16.388 -1.0781 -0.2598  0.7821
  488MPD2    N1 7265   4.217   0.590  16.174 -0.7016 -0.0049  0.3601
  488MPD2    H7 7266   4.231   0.602  16.274  0.6618  1.8754 -0.0575
  489TMC3    C1 7267   3.803   0.058  16.410  0.6684 -0.2894 -0.2359
  489TMC3    C2 7268   3.882   0.090  16.515 -0.1440  0.1236  0.3053
  489TMC3    C3 7269   3.833   0.099  16.641 -0.6425  0.6448  0.0694
  489TMC3    C4 7270   3.668   0.046  16.432 -0.1729  0.4986  0.2045
  489TMC3    C5 7271   3.622   0.028  16.562 -0.2019  0.1339  0.2672
  489TMC3    C6 7272   3.702   0.063  16.670 -1.1334  0.2097 -0.1351
  489TMC3     C 7273   3.830   0.117  16.281  0.3322  0.8356  0.1228
  489TMC3     O 7274   3.775   0.078  16.176  0.0482  0.1487 -0.0961
  489TMC3     H 7275   3.988   0.093  16.490 -0.6114 -0.7114 -1.8311
  489TMC3    H1 7276   3.604   0.054  16.346 -1.1128 -0.2349  0.8389
  489TMC3    H2 7277   3.662   0.078  16.770 -0.1274 -0.8194  0.4241
  489TMC3    C7 7278   3.480   0.037  16.589  0.1952  0.9189  0.0970
  489TMC3    C8 7279   3.881   0.234  16.683  0.4624  0.2227  0.9378
  489TMC3    O1 7280   3.441   0.048  16.704 -0.2827 -0.1197 -0.1951
  489TMC3    O2 7281   3.944   0.300  16.601  0.3666 -0.2075 -0.7559
  490MPD2     C 7282   4.424   0.714   0.231  0.0366  0.1715  0.1404
  490MPD2    C1 7283   4.486   0.609   0.168 -0.0673 -0.1362 -0.0705
  490MPD2    C2 7284   4.617   0.576   0.192 -0.3457 -0.8663 -0.1163
  490MPD2    C3 7285   4.692   0.670   0.270  0.2188  0.1733  0.1958
  490MPD2    C4 7286   4.629   0.780   0.327 -0.2499 -0.8257 -0.4757
  490MPD2    C5 7287   4.493   0.801   0.310 -0.1203  1.6520 -0.3929
  490MPD2     H 7288   4.656   0.480   0.161  2.0965 -0.1856  0.8637
  490MPD2    H1 7289   4.680   0.853   0.388 -0.8099 -1.9015  1.2720
  490MPD2    H2 7290   4.321   0.746   0.219 -0.8494 -2.1824  1.3951
  490MPD2    H3 7291   4.445   0.886   0.356 -3.5017  0.3899 -1.5714
  490MPD2     N 7292   0.106   0.656   0.294 -0.0994  0.2702 -0.2814
  490MPD2    H5 7293   0.154   0.713   0.362 -1.3367  1.7631 -0.6667
  490MPD2    N1 7294   4.399   0.529   0.090  0.1672 -0.2556 -0.6217
  490MPD2    H7 7295   4.300   0.555   0.093  0.8790  2.3078  1.0296
  491TMC3    C1 7296   4.344   0.347  17.642 -0.5997  0.0788  0.3886
  491TMC3    C2 7297   4.263   0.297   0.033 -0.1791 -0.2021  0.2381
  491TMC3    C3 7298   4.203   0.177   0.001 -0.7655  0.2481 -0.3583
  491TMC3    C4 7299   4.383   0.281  17.530 -0.4559  0.8122  0.0221
  491TMC3    C5 7300   4.338   0.154  17.513  0.4624  0.4808  0.6866
  491TMC3    C6 7301   4.231   0.108  17.585  0.2330 -0.4365  1.1216
  491TMC3     C 7302   4.440   0.443  17.692  0.6194 -0.0532 -0.2184
  491TMC3     O 7303   4.551   0.416  17.650 -0.3206 -0.7003  0.1202
  491TMC3     H 7304   4.225   0.347   0.122 -2.6009 -1.4905 -0.0636
  491TMC3    H1 7305   4.464   0.325  17.473  0.3737 -0.0906  0.4886
  491TMC3    H2 7306   4.184   0.012  17.565  1.6726 -0.7403 -0.7516
  491TMC3    C7 7307   4.368   0.079  17.391  0.4758  0.6466 -0.6082
  491TMC3    C8 7308   4.092   0.136   0.088  0.0674 -0.5981 -0.5910
  491TMC3    O1 7309   4.333   4.688  17.381  0.2044 -0.2830  0.0323
  491TMC3    O2 7310   4.019   0.221   0.134  0.1294  0.1886  0.2518
  492MPD2     C 7311   0.873   0.406  11.272 -0.5729  0.3531 -0.2091
  492MPD2    C1 7312   0.913   0.273  11.264  0.4183 -0.1568 -0.1235
  492MPD2    C2 7313   0.866   0.184  11.363 -0.0871  0.0624  0.5244
  492MPD2    C3 7314   0.774   0.223  11.464 -0.0438  0.0250 -0.0225
  492MPD2    C4 7315   0.750   0.364  11.465 -0.0464  0.5036 -0.4950
  492MPD2    C5 7316   0.792   0.448  11.372 -0.0770 -0.3265  0.3778
  492MPD2     H 7317   0.893   0.080  11.349 -2.1818 -0.4439  0.1180
  492MPD2    H1 7318   0.672   0.398  11.533 -0.2487 -0.2550 -0.3452
  492MPD2    H2 7319   0.882   0.477  11.191 -2.7151  1.4261  0.4980
  492MPD2    H3 7320   0.750   0.547  11.382  2.4527  0.6854  1.1716
  492MPD2     N 7321   0.723   0.140  11.564  0.1103 -0.1921 -0.0366
  492MPD2    H5 7322   0.652   0.184  11.622 -0.0100 -2.0223  1.2128
  492MPD2    N1 7323   0.990   0.233  11.147 -0.2424 -0.0261  0.4065
  492MPD2    H7 7324   0.979   0.291  11.064  0.0991  0.7631  0.9061
  493TMC3    C1 7325   1.083   0.071  11.008 -0.4599 -0.0150 -0.1720
  493TMC3    C2 7326   1.093   0.149  10.895 -0.1015 -0.4573 -0.0225
  493TMC3    C3 7327   1.065   0.091  10.776 -0.0881  0.1891  0.0462
  493TMC3    C4 7328   1.050   4.665  10.999 -0.2962  0.1792  0.4216
  493TMC3    C5 7329   1.024   4.604  10.879 -0.0864 -0.4033  0.2113
  493TMC3    C6 7330   1.032   4.683  10.766  0.0183 -0.2477  0.1207
  493TMC3     C 7331   1.063   0.119  11.141  0.2627 -0.3172 -0.4050
  493TMC3     O 7332   1.074   0.031  11.227  0.7479  0.4397 -0.7099
  493TMC3     H 7333   1.133   0.249  10.897  2.4058 -1.4764  0.8828
  493TMC3    H1 7334   1.037   4.603  11.087 -1.8252 -0.5505 -0.3221
  493TMC3    H2 7335   0.990   4.637  10.677  0.0919  1.8717 -1.0325
  493TMC3    C7 7336   0.984   4.470  10.864  0.2012 -0.4499 -0.3347
  493TMC3    C8 7337   1.095   0.148  10.650  0.6359 -0.0323  0.1449
  493TMC3    O1 7338   0.960   4.435  10.752  0.2690 -0.2419  0.3012
  493TMC3    O2 7339   1.117   0.072  10.554  0.1470 -0.2137  0.1792
  494TMC3    C1 7340   1.119   2.208   0.282 -0.2976 -0.8614 -0.5805
  494TMC3    C2 7341   1.096   2.098   0.361 -0.6107 -0.1343 -0.0756
  494TMC3    C3 7342   1.141   1.980   0.312 -0.5302  0.5482  0.2371
  494TMC3    C4 7343   1.199   2.211   0.169  0.9498  0.6103 -0.1640
  494TMC3    C5 7344   1.231   2.091   0.120 -0.7341  0.5524 -0.1868
  494TMC3    C6 7345   1.204   1.971   0.187  0.0604  0.2782 -0.5171
  494TMC3     C 7346   1.007   2.302   0.285 -1.4142  0.5576 -0.3419
  494TMC3     O 7347   0.986   2.349   0.397  0.3358 -0.3653  0.6057
  494TMC3     H 7348   1.014   2.118   0.430 -2.0668  0.8337 -2.0875
  494TMC3    H1 7349   1.200   2.302   0.110 -0.7172  0.6637 -0.1146
  494TMC3    H2 7350   1.244   1.878   0.148 -1.7317 -0.1422 -1.3723
  494TMC3    C7 7351   1.304   2.085  17.692 -0.0044 -0.4135 -0.5144
  494TMC3    C8 7352   1.106   1.855   0.378  0.2501  0.2216  0.5814
  494TMC3    O1 7353   1.292   1.979  17.625 -0.1680 -0.0336  0.3353
  494TMC3    O2 7354   1.081   1.767   0.301  0.7848  0.3035  0.4359
  495TMC3    C1 7355   4.642   3.732  14.494 -0.7867 -0.1608 -0.0424
  495TMC3    C2 7356   4.558   3.788  14.399 -0.6680 -0.2530 -0.2669
  495TMC3    C3 7357   4.482   3.894  14.429 -0.0635  1.1432 -0.3673
  495TMC3    C4 7358   4.636   3.792  14.623 -0.2580 -0.4555  0.1721
  495TMC3    C5 7359   4.561   3.902  14.646  0.7817 -0.2655 -0.8916
  495TMC3    C6 7360   4.487   3.961  14.548 -0.1638 -0.3229  0.7135
  495TMC3     C 7361   4.687   3.591  14.494  0.1131  0.2837  0.1762
  495TMC3     O 7362   0.030   3.544  14.588  0.7270 -0.1398  0.4454
  495TMC3     H 7363   4.557   3.743  14.300 -0.5517  0.4951 -0.6050
  495TMC3    H1 7364   4.687   3.750  14.709 -0.9399  0.7138  1.1558
  495TMC3    H2 7365   4.433   4.052  14.572 -1.3872 -1.0836  0.8929
  495TMC3    C7 7366   4.498   3.913  14.776  0.2957  0.4915  0.4779
  495TMC3    C8 7367   4.418   3.959  14.323  1.0111  0.6246  0.1767
  495TMC3    O1 7368   4.568   3.891  14.869 -0.3462  0.0117  0.1516
  495TMC3    O2 7369   4.419   4.081  14.333  0.7023 -0.1848  0.8982
  496MPD2     C 7370   1.398   4.101  15.418 -0.5569 -0.6594 -0.2707
  496MPD2    C1 7371   1.458   3.993  15.484 -0.2451  0.8252 -0.1363
  496MPD2    C2 7372   1.415   3.963  15.605  1.1924 -0.0419  0.4525
  496MPD2    C3 7373   1.305   4.028  15.664  0.4480  0.3601 -0.1979
  496MPD2    C4 7374   1.243   4.129  15.593  0.3400 -0.1186  0.1917
  496MPD2    C5 7375   1.284   4.161  15.467 -0.3290 -0.2360  0.3256
  496MPD2     H 7376   1.469   3.882  15.652 -1.0852 -0.1837  2.8584
  496MPD2    H1 7377   1.154   4.181  15.628  1.6550  0.8384  2.1238
  496MPD2    H2 7378   1.428   4.135  15.320  1.2193 -1.4304  0.0040
  496MPD2    H3 7379   1.224   4.233  15.412  0.3910  0.2326  0.1521
  496MPD2     N 7380   1.263   4.001  15.796 -0.2963  0.0314  0.0383
  496MPD2    H5 7381   1.174   4.044  15.819  0.2855  0.6573  1.1091
  496MPD2    N1 7382   1.562   3.920  15.424 -0.4035  0.8949  0.3106
  496MPD2    H7 7383   1.610   3.854  15.485 -0.8642  0.3154  0.0508
  497TMC3    C1 7384   1.244   3.885  15.995 -0.2255 -0.0211 -0.7435
  497TMC3    C2 7385   1.122   3.835  15.955  0.7958 -0.2866 -0.7370
  497TMC3    C3 7386   1.035   3.795  16.056  0.0473 -0.0076 -1.1066
  497TMC3    C4 7387   1.277   3.904  16.124 -0.0073 -0.5518 -0.0281
  497TMC3    C5 7388   1.186   3.870  16.216  0.3763  0.1327 -0.2609
  497TMC3    C6 7389   1.068   3.812  16.189  0.5448  0.1081 -0.1181
  497TMC3     C 7390   1.336   3.926  15.889 -0.5992 -0.1447 -0.2164
  497TMC3     O 7391   1.456   3.901  15.879  0.4265  0.2585 -0.3295
  497TMC3     H 7392   1.090   3.817  15.854 -1.5044  1.0112 -0.2288
  497TMC3    H1 7393   1.373   3.952  16.137 -0.5524  1.0679 -1.9064
  497TMC3    H2 7394   1.017   3.750  16.262  0.9599 -0.3131 -0.1885
  497TMC3    C7 7395   1.229   3.877  16.351 -0.8559  0.3084  0.4368
  497TMC3    C8 7396   0.959   3.682  16.028 -0.5300 -0.3028 -0.7212
  497TMC3    O1 7397   1.153   3.925  16.432 -0.1349 -0.4465 -0.2560
  497TMC3    O2 7398   0.844   3.676  16.072  0.2085 -0.1393 -0.1101
  498MPD2     C 7399   2.427   3.834   9.837 -0.1424 -0.2315 -0.2564
  498MPD2    C1 7400   2.463   3.856   9.972 -0.6443  0.2902 -0.4646
  498MPD2    C2 7401   2.382   3.799  10.072  0.5126 -0.2681  0.4698
  498MPD2    C3 7402   2.265   3.718  10.040 -0.0741 -0.2323  0.3506
  498MPD2    C4 7403   2.230   3.710   9.901 -0.1274 -0.0813 -0.0114
  498MPD2    C5 7404   2.312   3.774   9.813  0.9653 -0.5286  0.1807
  498MPD2     H 7405   2.408   3.805  10.177  2.7317  1.6280 -0.1893
  498MPD2    H1 7406   2.139   3.666   9.863  0.7822  0.0493 -2.3544
  498MPD2    H2 7407   2.480   3.851   9.744  1.2434 -0.4871  0.4823
  498MPD2    H3 7408   2.292   3.757   9.708 -0.0066 -1.3343  0.5069
  498MPD2     N 7409   2.198   3.656  10.145  0.0073 -0.3259 -0.8427
  498MPD2    H5 7410   2.237   3.668  10.238 -0.4334  2.6828 -1.0592
  498MPD2    N1 7411   2.580   3.927  10.003 -0.4699 -0.1023  0.1875
  498MPD2    H7 7412   2.588   3.938  10.103  1.5507 -0.7490  0.0999
  499TMC3    C1 7413   2.754   4.086   9.986 -0.6952  0.3941 -0.3604
  499TMC3    C2 7414   2.778   4.067  10.123  0.5406 -0.1834 -0.4068
  499TMC3    C3 7415   2.872   4.154  10.179 -0.3912 -0.6808 -0.0011
  499TMC3    C4 7416   2.801   4.193   9.915  0.7229  0.6616  0.3942
  499TMC3    C5 7417   2.900   4.268   9.975  0.5183 -0.6698 -0.3731
  499TMC3    C6 7418   2.940   4.248  10.102 -0.0431  0.4568 -0.1871
  499TMC3     C 7419   2.654   4.005   9.915 -0.0830  0.0427 -0.6949
  499TMC3     O 7420   2.637   4.011   9.795  0.4776 -0.2051 -0.6240
  499TMC3     H 7421   2.734   3.992  10.187  0.6140  1.0754  1.0939
  499TMC3    H1 7422   2.779   4.196   9.809  1.2801 -2.0366  0.2185
  499TMC3    H2 7423   3.012   4.310  10.155 -1.4347  0.3355  1.8134
  499TMC3    C7 7424   2.971   4.357   9.883  0.3782 -0.7719 -0.2061
  499TMC3    C8 7425   2.890   4.150  10.325 -0.3149  0.6665 -0.4709
  499TMC3    O1 7426   2.909   4.389   9.782  0.3593  0.1928  0.3153
  499TMC3    O2 7427   2.786   4.140  10.393  0.0107  0.0084  0.3491
  500MPD2     C 7428   4.385   0.762  10.097  0.2772 -0.1965  0.2271
  500MPD2    C1 7429   4.480   0.764   9.995  0.2771 -0.9703  0.2895
  500MPD2    C2 7430   4.444   0.794   9.867  0.2824 -0.1577 -0.3657
  500MPD2    C3 7431   4.316   0.824   9.831 -0.1795 -0.0918  0.5918
  500MPD2    C4 7432   4.220   0.831   9.932  0.0112 -0.0506 -0.2901
  500MPD2    C5 7433   4.256   0.806  10.064 -0.3070 -1.2728  0.7428
  500MPD2     H 7434   4.528   0.805   9.799  0.5713  0.9190  0.1682
  500MPD2    H1 7435   4.114   0.834   9.910  0.4153  0.5374 -2.0865
  500MPD2    H2 7436   4.405   0.730  10.199  0.6612 -0.7103 -0.0105
  500MPD2    H3 7437   4.186   0.810  10.147  1.0905  1.1489  1.8150
  500MPD2     N 7438   4.268   0.841   9.695  0.6099  0.1803  0.3791
  500MPD2    H5 7439   4.168   0.847   9.681  0.6581 -1.8665 -0.8794
  500MPD2    N1 7440   4.615   0.744  10.017 -0.0470  0.2015  0.1121
  500MPD2    H7 7441   4.678   0.763   9.939  0.0724  0.8987  0.3780
  501TMC3    C1 7442   0.093   0.715  10.136 -0.8958  0.3335  0.3598
  501TMC3    C2 7443   0.146   0.830  10.078 -0.2192 -0.0997  0.2378
  501TMC3    C3 7444   0.277   0.847  10.089  0.3088  0.8652 -0.5516
  501TMC3    C4 7445   0.173   0.632  10.218  0.9074 -0.7777  0.1000
  501TMC3    C5 7446   0.302   0.663  10.236  0.0066 -0.8123 -0.3195
  501TMC3    C6 7447   0.354   0.768  10.166 -0.3298 -0.1033 -0.7130
  501TMC3     C 7448   4.671   0.705  10.141 -0.7253  0.2346  0.7327
  501TMC3     O 7449   4.619   0.667  10.247  0.7281  0.4048  0.0103
  501TMC3     H 7450   0.082   0.916  10.060  1.8733  1.4378  0.0357
  501TMC3    H1 7451   0.120   0.577  10.295  0.8974  0.7299  1.1622
  501TMC3    H2 7452   0.457   0.798  10.182 -1.3012  1.9091  1.9298
  501TMC3    C7 7453   0.333   0.665  10.378 -0.1132  0.4933 -0.1400
  501TMC3    C8 7454   0.312   0.988  10.108 -0.7579  0.4840 -0.1879
  501TMC3    O1 7455   0.311   0.559  10.440 -0.3283 -0.5874  0.9193
  501TMC3    O2 7456   0.367   1.007  10.219 -0.1066  0.8327  0.6120
  502TMC3    C1 7457   4.073   4.719  14.807  0.5244  0.7535  0.2431
  502TMC3    C2 7458   4.048   0.130  14.813 -0.6006 -0.4131  0.8605
  502TMC3    C3 7459   3.924   0.168  14.787  0.2662 -0.5514 -0.5940
  502TMC3    C4 7460   3.978   4.627  14.772  0.2128 -0.0984  0.0677
  502TMC3    C5 7461   3.855   4.673  14.732  0.2906  0.6265 -0.1531
  502TMC3    C6 7462   3.822   0.084  14.746 -0.0113  0.1985 -0.0220
  502TMC3     C 7463   4.185   4.686  14.894 -0.0810  0.3128 -0.0628
  502TMC3     O 7464   4.279   0.035  14.898 -0.4886 -0.4373  0.8446
  502TMC3     H 7465   4.125   0.194  14.854  0.8383 -1.8292  0.3989
  502TMC3    H1 7466   4.009   4.528  14.742 -1.3042 -0.4458 -0.3726
  502TMC3    H2 7467   3.724   0.125  14.728 -0.7405 -0.9714  1.2581
  502TMC3    C7 7468   3.749   4.568  14.712 -0.3956  0.6633  0.1270
  502TMC3    C8 7469   3.891   0.303  14.828 -0.1848 -0.2873  0.3938
  502TMC3    O1 7470   3.783   4.451  14.695  0.0458  0.1857 -0.1443
  502TMC3    O2 7471   3.972   0.381  14.779 -0.2937 -0.0062  0.2055
  503MPD2     C 7472   1.015   0.624  17.653  0.1674 -0.4375  0.3124
  503MPD2    C1 7473   1.139   0.666  17.605 -1.0483 -0.4531  0.3551
  503MPD2    C2 7474   1.239   0.574  17.598  0.5778  0.7422  0.1251
  503MPD2    C3 7475   1.224   0.450  17.652 -0.6794  0.5848  0.1726
  503MPD2    C4 7476   1.103   0.421   0.010  0.3220 -0.1015  0.1910
  503MPD2    C5 7477   1.000   0.502   0.002 -0.4229 -1.0702  0.5859
  503MPD2     H 7478   1.327   0.602  17.541  1.2582 -0.9547  0.3800
  503MPD2    H1 7479   1.083   0.324   0.055 -0.2612 -0.9188 -1.8044
  503MPD2    H2 7480   0.935   0.697  17.648 -0.5911 -1.3152 -0.5522
  503MPD2    H3 7481   0.902   0.479   0.041 -1.7623  0.7032 -1.7676
  503MPD2     N 7482   1.333   0.360  17.651  0.3634  0.9003 -0.1017
  503MPD2    H5 7483   1.323   0.274   0.002  1.5399  0.4384 -0.6361
  503MPD2    N1 7484   1.167   0.799  17.555 -0.2019 -0.2534  0.3414
  503MPD2    H7 7485   1.256   0.815  17.508 -0.1590  0.1886  0.5763
  504TMC3    C1 7486   1.538   0.275  17.612 -0.0025  0.0380 -0.3143
  504TMC3    C2 7487   1.539   0.220   0.036 -0.4818  0.3170  0.2407
  504TMC3    C3 7488   1.653   0.158   0.069 -0.1482 -0.4027  0.5524
  504TMC3    C4 7489   1.639   0.249  17.519  0.6472 -0.6851 -0.0581
  504TMC3    C5 7490   1.740   0.162  17.559  0.3043 -0.7447 -0.0865
  504TMC3    C6 7491   1.751   0.128  17.686  0.1528 -1.5325 -0.0629
  504TMC3     C 7492   1.445   0.374  17.569 -0.8187  0.8557  0.3586
  504TMC3     O 7493   1.455   0.426  17.461  0.0597 -0.2887 -0.3641
  504TMC3     H 7494   1.458   0.248   0.103  0.1491 -1.1848  1.6178
  504TMC3    H1 7495   1.630   0.280  17.416  2.7419 -0.7174 -0.2578
  504TMC3    H2 7496   1.846   0.096   0.026  1.0400  1.8049  0.4487
  504TMC3    C7 7497   1.820   0.096  17.453 -0.3956  0.3459  0.1509
  504TMC3    C8 7498   1.653   0.070   0.181 -0.0944  0.1932  0.7094
  504TMC3    O1 7499   1.807   0.139  17.341  0.0003  0.1212 -0.0163
  504TMC3    O2 7500   1.706   4.688   0.162  0.4798 -0.4331  0.1962
  505MPD2     C 7501   2.002   2.796  11.532 -0.5790 -0.9156 -0.0225
  505MPD2    C1 7502   2.084   2.864  11.446  0.2917 -0.1380  0.3740
  505MPD2    C2 7503   2.099   3.002  11.450  0.2124 -0.0218  0.0785
  505MPD2    C3 7504   2.023   3.079  11.533 -0.2130  0.2548  0.6554
  505MPD2    C4 7505   1.953   3.017  11.635  0.3591  0.0476  0.5693
  505MPD2    C5 7506   1.938   2.877  11.628  0.7245 -0.8287  0.0425
  505MPD2     H 7507   2.181   3.046  11.393  0.1813  0.0860  0.1167
  505MPD2    H1 7508   1.896   3.077  11.705  0.2983  0.2599  0.3395
  505MPD2    H2 7509   1.979   2.691  11.538  1.9938 -1.5218 -0.6675
  505MPD2    H3 7510   1.891   2.816  11.704  0.2111 -1.9651 -1.2127
  505MPD2     N 7511   2.034   3.219  11.534  0.3442  0.0306  0.1255
  505MPD2    H5 7512   2.017   3.262  11.624  0.8663 -0.7546  0.5993
  505MPD2    N1 7513   2.155   2.781  11.355  0.0374 -0.2649 -0.3942
  505MPD2    H7 7514   2.141   2.683  11.377 -1.5180 -0.1440 -0.8956
  506TMC3    C1 7515   2.295   2.705  11.197 -0.2306 -0.2689  0.9250
  506TMC3    C2 7516   2.240   2.674  11.075  0.3452  0.5369  0.1608
  506TMC3    C3 7517   2.319   2.688  10.966  0.3177 -0.0395 -0.0586
  506TMC3    C4 7518   2.430   2.744  11.205 -0.5251  0.0098 -1.1132
  506TMC3    C5 7519   2.500   2.750  11.086  0.4917 -0.4941 -0.1824
  506TMC3    C6 7520   2.451   2.710  10.965 -0.6060 -0.0238 -0.2270
  506TMC3     C 7521   2.231   2.818  11.249  0.5541 -0.7766 -0.1993
  506TMC3     O 7522   2.284   2.927  11.216  0.0613  0.3580  0.7905
  506TMC3     H 7523   2.137   2.649  11.056  1.2770 -0.1912 -3.8486
  506TMC3    H1 7524   2.471   2.781  11.298 -1.3874 -0.2867 -0.6135
  506TMC3    H2 7525   2.509   2.716  10.874 -0.1333  0.8408  0.1355
  506TMC3    C7 7526   2.591   2.861  11.075 -0.1293 -0.0071 -0.5396
  506TMC3    C8 7527   2.262   2.669  10.844 -0.2842  0.4073  0.0553
  506TMC3    O1 7528   2.681   2.862  10.992  0.0336 -0.1861  0.3534
  506TMC3    O2 7529   2.202   2.568  10.822 -0.4279  0.1824  0.0494
  507TMC3    C1 7530   1.973   4.663  14.564 -0.2026  0.1023  0.0838
  507TMC3    C2 7531   1.870   4.662  14.465 -0.5147 -0.1858  0.6311
  507TMC3    C3 7532   1.903   4.612  14.348 -0.3241 -0.7051  0.1707
  507TMC3    C4 7533   2.096   4.613  14.536  0.0270  0.1421  0.2330
  507TMC3    C5 7534   2.127   4.582  14.407  0.1280 -0.2118  0.0093
  507TMC3    C6 7535   2.030   4.565  14.317  0.5077  0.3188 -0.9693
  507TMC3     C 7536   1.933   4.670  14.705  0.7825 -0.6979 -0.3049
  507TMC3     O 7537   1.963   4.569  14.770  0.1552  0.2037  0.3249
  507TMC3     H 7538   1.769   4.689  14.495 -1.0747  0.1954 -1.6351
  507TMC3    H1 7539   2.173   4.621  14.612 -1.2419 -0.0758  1.5362
  507TMC3    H2 7540   2.053   4.522  14.220  2.0676  0.4301 -0.6524
  507TMC3    C7 7541   2.246   4.641  14.349  0.4690 -0.9936  0.4322
  507TMC3    C8 7542   1.848   4.699  14.245 -0.1237  0.6119  0.5854
  507TMC3    O1 7543   2.224   4.655  14.227 -0.1400 -0.3252 -0.4776
  507TMC3    O2 7544   1.731   0.009  14.256 -0.0561  0.1980 -0.1063
  508MPD2     C 7545   2.931   2.646  15.823  0.0484  0.0409 -0.8504
  508MPD2    C1 7546   2.923   2.779  15.855 -0.4160 -0.5625 -0.2120
  508MPD2    C2 7547   2.876   2.857  15.748  0.6733 -0.6193  0.1440
  508MPD2    C3 7548   2.822   2.800  15.625 -0.2317  0.0405 -0.0859
  508MPD2    C4 7549   2.814   2.663  15.617  0.7692  0.2150  0.2868
  508MPD2    C5 7550   2.879   2.591  15.710 -0.1770 -0.6185  0.1128
  508MPD2     H 7551   2.869   2.965  15.756  2.2777 -0.4953 -0.1469
  508MPD2    H1 7552   2.775   2.611  15.530  0.6583  1.0967 -0.1940
  508MPD2    H2 7553   2.963   2.573  15.897 -0.8300 -0.6780 -1.1754
  508MPD2    H3 7554   2.890   2.484  15.694  0.1399 -0.1662 -2.7258
  508MPD2     N 7555   2.780   2.883  15.518  0.7515 -0.0211 -0.0747
  508MPD2    H5 7556   2.817   2.978  15.522 -1.8234  1.0344 -0.9529
  508MPD2    N1 7557   2.966   2.818  15.979  0.0152  0.5590  0.2115
  508MPD2    H7 7558   3.004   2.752  16.045  1.5953 -0.1604 -1.4219
  509TMC3    C1 7559   2.764   2.948  15.039  0.0273 -0.0979  0.2056
  509TMC3    C2 7560   2.901   2.968  15.032  0.2773  0.3001 -0.0320
  509TMC3    C3 7561   2.972   2.965  15.143 -0.4386  0.2313 -0.2557
  509TMC3    C4 7562   2.703   2.927  15.159 -0.5291  0.2128  0.1987
  509TMC3    C5 7563   2.780   2.913  15.273  0.1586 -0.0397  0.0024
  509TMC3    C6 7564   2.918   2.932  15.261  0.6903 -1.4143 -0.0244
  509TMC3     C 7565   2.678   3.017  14.944 -0.4135 -0.0700  0.1745
  509TMC3     O 7566   2.559   3.009  14.946  0.1835  0.3668  0.3067
  509TMC3     H 7567   2.948   2.980  14.936  0.5299 -2.8795 -0.3222
  509TMC3    H1 7568   2.599   2.897  15.164  0.3850 -3.1644 -0.8356
  509TMC3    H2 7569   2.988   2.889  15.332 -0.1116  0.1419  1.7297
  509TMC3    C7 7570   2.731   2.838  15.394 -0.6821  0.4397  0.2287
  509TMC3    C8 7571   3.119   2.983  15.130 -0.1696  0.0028  0.7119
  509TMC3    O1 7572   2.638   2.756  15.372  0.1652 -0.5189 -0.3867
  509TMC3    O2 7573   3.166   2.962  15.020 -0.4578  0.4128  0.2345
  510MPD2     C 7574   1.178   4.427  14.477 -0.3334 -0.2879  0.1422
  510MPD2    C1 7575   1.195   4.287  14.497  0.3875 -0.3037 -0.2625
  510MPD2    C2 7576   1.320   4.240  14.456 -0.6668  0.4416 -0.0181
  510MPD2    C3 7577   1.422   4.322  14.412 -0.5765  0.4226 -0.4096
  510MPD2    C4 7578   1.401   4.459  14.391  0.0519 -0.2215 -0.2977
  510MPD2    C5 7579   1.276   4.504  14.430 -0.0392 -0.5738  0.3054
  510MPD2     H 7580   1.352   4.137  14.467 -0.1041  0.8982  2.7642
  510MPD2    H1 7581   1.476   4.529  14.356  0.0212 -0.0281  0.0210
  510MPD2    H2 7582   1.085   4.468  14.512 -1.6297 -1.4407 -1.9724
  510MPD2    H3 7583   1.260   4.608  14.406  1.3027  0.2863  3.0980
  510MPD2     N 7584   1.543   4.256  14.381  0.4249 -0.0726 -0.1291
  510MPD2    H5 7585   1.557   4.165  14.423  0.9365  1.2126  2.5004
  510MPD2    N1 7586   1.101   4.200  14.563 -0.4004 -0.4096  0.2278
  510MPD2    H7 7587   1.130   4.105  14.580  0.0093 -0.7385 -2.3423
  511TMC3    C1 7588   0.929   4.130  14.718  0.3422 -0.4026 -0.2450
  511TMC3    C2 7589   0.868   4.156  14.846  0.5225 -0.3458  0.7962
  511TMC3    C3 7590   0.801   4.050  14.901 -0.2101  0.6967 -0.7082
  511TMC3    C4 7591   0.916   4.008  14.647  0.2197 -0.0422 -0.5954
  511TMC3    C5 7592   0.832   3.914  14.707  0.3241 -0.4388 -0.0473
  511TMC3    C6 7593   0.778   3.932  14.833  0.3688 -0.3357 -0.1714
  511TMC3     C 7594   0.987   4.242  14.641 -0.2511  0.1180  0.5249
  511TMC3     O 7595   0.948   4.354  14.667 -0.2342 -0.4712  0.4485
  511TMC3     H 7596   0.891   4.250  14.896  0.4485 -2.0041  3.9370
  511TMC3    H1 7597   0.954   3.991  14.547  1.5660 -1.7114  0.2067
  511TMC3    H2 7598   0.705   3.865  14.877 -1.2140  1.6199  0.1484
  511TMC3    C7 7599   0.844   3.781  14.649 -0.7388 -0.2955 -0.9173
  511TMC3    C8 7600   0.718   4.083  15.010 -0.2521 -0.0103  0.1454
  511TMC3    O1 7601   0.892   3.762  14.536  0.5303  0.0932  0.1814
  511TMC3    O2 7602   0.690   4.200  15.028 -0.2962  0.3754 -0.1544
  512TMC3    C1 7603   0.448   3.297  12.637  0.9694 -0.1064  0.6648
  512TMC3    C2 7604   0.566   3.309  12.713 -0.3426  0.2055 -0.5444
  512TMC3    C3 7605   0.641   3.202  12.735 -0.0105 -0.1229  0.2392
  512TMC3    C4 7606   0.420   3.176  12.577  0.6784 -0.0903  0.2947
  512TMC3    C5 7607   0.505   3.067  12.603 -0.7812 -0.2537 -0.2026
  512TMC3    C6 7608   0.612   3.083  12.678  0.2060  0.6584  0.5087
  512TMC3     C 7609   0.362   3.412  12.630  0.7388  0.1408  0.0980
  512TMC3     O 7610   0.363   3.498  12.716 -0.3257  0.0755 -0.4300
  512TMC3     H 7611   0.594   3.410  12.740  2.2453 -0.0441 -2.3114
  512TMC3    H1 7612   0.325   3.164  12.527  1.5179 -0.1448 -1.2837
  512TMC3    H2 7613   0.683   3.001  12.683  0.2227  0.5348 -1.4480
  512TMC3    C7 7614   0.491   2.949  12.514  0.3524  0.3008 -0.1228
  512TMC3    C8 7615   0.749   3.202  12.833  0.0846 -0.4739  0.1027
  512TMC3    O1 7616   0.431   2.978  12.409 -0.2992 -0.2340  0.1234
  512TMC3    O2 7617   0.815   3.098  12.844 -0.1485  0.0231 -0.8288
  513MPD2     C 7618   2.142   3.512  12.964  0.3645 -0.3673  0.6373
  513MPD2    C1 7619   2.261   3.578  12.942  0.0314 -0.1620 -0.0599
  513MPD2    C2 7620   2.317   3.669  13.041 -0.0842 -0.0114  0.3206
  513MPD2    C3 7621   2.240   3.698  13.149  0.0784 -0.1279 -0.4006
  513MPD2    C4 7622   2.126   3.628  13.171  0.6693 -0.2298  0.3931
  513MPD2    C5 7623   2.070   3.543  13.078 -0.1767 -0.2326  0.2647
  513MPD2     H 7624   2.412   3.719  13.026 -0.5928  1.9562  3.6488
  513MPD2    H1 7625   2.062   3.651  13.255 -0.6090  0.3817 -0.7689
  513MPD2    H2 7626   2.081   3.449  12.900  1.3677 -1.5276  0.8313
  513MPD2    H3 7627   1.977   3.492  13.101 -0.7467  0.4275 -0.6234
  513MPD2     N 7628   2.288   3.787  13.241  0.3000  0.7105  0.0617
  513MPD2    H5 7629   2.375   3.832  13.212  0.6666 -0.7765 -1.1213
  513MPD2    N1 7630   2.341   3.555  12.828 -0.3216 -0.0827 -0.3765
  513MPD2    H7 7631   2.414   3.626  12.818 -0.9345  0.5086 -0.6170
  514TMC3    C1 7632   2.383   3.513  12.616 -0.5131 -0.4843 -0.1518
  514TMC3    C2 7633   2.312   3.612  12.554 -0.2086  0.5574  0.2510
  514TMC3    C3 7634   2.380   3.716  12.503 -0.5402  0.0907  0.0718
  514TMC3    C4 7635   2.515   3.533  12.643 -0.2909 -0.2318 -0.0302
  514TMC3    C5 7636   2.580   3.649  12.603  0.1373  0.6209 -0.2814
  514TMC3    C6 7637   2.513   3.733  12.519  0.6963  0.0410  0.7185
  514TMC3     C 7638   2.308   3.472  12.726  0.5848  0.2661  0.6448
  514TMC3     O 7639   2.255   3.362  12.725 -0.3031 -0.2397 -0.7290
  514TMC3     H 7640   2.205   3.601  12.549 -0.1006 -1.0374  1.3108
  514TMC3    H1 7641   2.559   3.471  12.721  0.4771  2.3646  1.6232
  514TMC3    H2 7642   2.553   3.831  12.492 -2.0089  0.0458 -3.1853
  514TMC3    C7 7643   2.636   3.711  12.727 -0.1836 -0.2651 -0.5839
  514TMC3    C8 7644   2.308   3.812  12.421 -0.0647 -0.3183  0.0196
  514TMC3    O1 7645   2.608   3.824  12.754 -0.7062 -0.2347 -0.0070
  514TMC3    O2 7646   2.189   3.815  12.447 -0.2487 -0.1286  0.1358
  515MPD2     C 7647   4.686   0.665  15.016  0.6882  0.2121  0.2499
  515MPD2    C1 7648   0.044   0.658  14.906  0.3526 -0.5734  0.5526
  515MPD2    C2 7649   0.155   0.746  14.909 -0.6295  0.3211  0.3856
  515MPD2    C3 7650   0.172   0.842  15.009  0.9377  0.4505  0.4865
  515MPD2    C4 7651   0.092   0.834  15.124 -0.2333  0.0290 -0.5782
  515MPD2    C5 7652   4.716   0.741  15.124  0.8032  0.1099  0.1459
  515MPD2     H 7653   0.228   0.727  14.831  0.2628 -4.6815  2.4374
  515MPD2    H1 7654   0.098   0.899  15.211 -0.8940  0.3380 -0.7595
  515MPD2    H2 7655   4.603   0.597  15.031 -0.0806  0.7153 -1.8179
  515MPD2    H3 7656   4.660   0.733  15.216  2.6533 -0.7369  1.1907
  515MPD2     N 7657   0.275   0.941  15.009 -0.8938  0.5296  0.2585
  515MPD2    H5 7658   0.268   1.012  15.082  3.6692 -1.2266  2.3479
  515MPD2    N1 7659   0.025   0.566  14.803  0.1448 -0.3546 -0.5436
  515MPD2    H7 7660   0.095   0.564  14.729 -1.8044 -1.7409 -2.3220
  516TMC3    C1 7661   4.684   0.378  14.685 -0.1124 -0.0979  0.6523
  516TMC3    C2 7662   4.715   0.433  14.564 -0.2786  0.8123 -0.4847
  516TMC3    C3 7663   4.681   0.354  14.453  0.0776  0.4016  0.4378
  516TMC3    C4 7664   4.622   0.256  14.696 -0.1937  0.0557 -0.4251
  516TMC3    C5 7665   4.585   0.190  14.582 -0.4758  0.2953 -0.0490
  516TMC3    C6 7666   4.618   0.230  14.459 -0.1699 -0.1529  0.1655
  516TMC3     C 7667   4.656   0.467  14.796  1.1227  0.0670  0.7899
  516TMC3     O 7668   4.566   0.440  14.879  0.3182  0.0970 -0.3070
  516TMC3     H 7669   0.019   0.535  14.546  0.1611  1.0169  1.3391
  516TMC3    H1 7670   4.598   0.226  14.797  1.2007 -0.3882 -0.2368
  516TMC3    H2 7671   4.579   0.183  14.370 -1.7028 -1.4071  1.5011
  516TMC3    C7 7672   4.509   0.066  14.608 -0.3877 -0.5797  0.6438
  516TMC3    C8 7673   4.678   0.415  14.321 -0.1755  0.5374  0.7056
  516TMC3    O1 7674   4.506   0.036  14.727 -0.4511 -0.3170  0.3244
  516TMC3    O2 7675   4.591   0.385  14.237 -0.0867 -0.2225 -0.5888
  517MPD2     C 7676   4.197   2.038  17.538  0.1408 -0.5786 -0.7116
  517MPD2    C1 7677   4.334   2.034  17.540 -0.9562  0.0226 -0.3409
  517MPD2    C2 7678   4.408   2.111  17.627  0.6956  0.1540  0.1836
  517MPD2    C3 7679   4.346   2.208   0.001  0.2308 -0.4470 -1.1754
  517MPD2    C4 7680   4.208   2.214  17.692  0.1126  0.6558 -0.1915
  517MPD2    C5 7681   4.139   2.132  17.611 -0.0096  0.7051 -0.2465
  517MPD2     H 7682   4.516   2.107  17.626  0.6237 -0.4764 -4.8379
  517MPD2    H1 7683   4.161   2.301   0.034 -0.5597  0.8791 -1.3634
  517MPD2    H2 7684   4.140   1.979  17.468 -0.2938 -0.4821 -0.4368
  517MPD2    H3 7685   4.031   2.132  17.601  0.1337 -0.5268 -1.8749
  517MPD2     N 7686   4.406   2.298   0.083  0.1326  0.4457  0.5646
  517MPD2    H5 7687   4.346   2.350   0.146  0.3734 -0.9261  1.9281
  517MPD2    N1 7688   4.414   1.933  17.479  0.0473  0.3266 -0.3811
  517MPD2    H7 7689   4.511   1.925  17.508 -0.8152  0.3452  2.5341
  518TMC3    C1 7690   4.478   1.752  17.325  0.2990  0.1586  0.0018
  518TMC3    C2 7691   4.444   1.640  17.251  0.4396 -0.7042  0.0444
  518TMC3    C3 7692   4.539   1.548  17.222 -0.6048  0.2765 -0.4286
  518TMC3    C4 7693   4.612   1.773  17.356 -0.5952 -0.1657 -0.3919
  518TMC3    C5 7694   4.700   1.678  17.321 -0.2212  0.3667  0.0499
  518TMC3    C6 7695   4.672   1.565  17.250 -0.4482 -0.2696  0.4109
  518TMC3     C 7696   4.368   1.828  17.400 -0.0130 -0.1881  0.5204
  518TMC3     O 7697   4.251   1.800  17.375  0.5566  1.0122  0.0401
  518TMC3     H 7698   4.339   1.619  17.232 -0.5303  2.5741  1.8509
  518TMC3    H1 7699   4.647   1.862  17.407  0.8745 -0.6142 -0.6165
  518TMC3    H2 7700   0.013   1.483  17.222 -0.3658  0.4973 -1.6432
  518TMC3    C7 7701   0.112   1.727  17.334 -0.1279 -0.7980 -0.6152
  518TMC3    C8 7702   4.503   1.416  17.178 -0.2992  0.0108 -0.3951
  518TMC3    O1 7703   0.129   1.846  17.343  0.2963 -0.0753  0.3150
  518TMC3    O2 7704   4.591   1.340  17.141 -0.4486  0.3665 -0.6906
  519MPD2     C 7705   1.385   0.464  14.262 -0.3982  0.1406  0.1465
  519MPD2    C1 7706   1.283   0.405  14.192 -0.5354 -0.6141 -0.1599
  519MPD2    C2 7707   1.308   0.279  14.143  0.5463 -0.2902 -0.5876
  519MPD2    C3 7708   1.425   0.209  14.180  0.0176  0.2223 -0.2613
  519MPD2    C4 7709   1.519   0.273  14.251 -0.4502  0.4161  0.0616
  519MPD2    C5 7710   1.502   0.401  14.290  0.0212 -0.1082  0.3969
  519MPD2     H 7711   1.237   0.239  14.071 -0.4521  0.2625  0.0908
  519MPD2    H1 7712   1.614   0.229  14.279 -0.8087  0.8966  2.0272
  519MPD2    H2 7713   1.383   0.565  14.301  0.5349  0.1523  0.1749
  519MPD2    H3 7714   1.575   0.445  14.358  2.5685 -3.1298 -0.3861
  519MPD2     N 7715   1.457   0.079  14.142 -0.3285  0.5921 -0.3930
  519MPD2    H5 7716   1.553   0.054  14.166 -1.2819 -1.4675  1.3815
  519MPD2    N1 7717   1.170   0.486  14.151 -0.1387  0.8210  0.2981
  519MPD2    H7 7718   1.176   0.584  14.177 -1.2007  1.1939 -0.8621
  520TMC3    C1 7719   1.417   4.605  14.008 -0.3890 -0.4847 -0.4743
  520TMC3    C2 7720   1.334   4.537  13.922 -0.8334  0.3194  0.1043
  520TMC3    C3 7721   1.393   4.440  13.848  1.0063 -0.3242  0.0926
  520TMC3    C4 7722   1.553   4.581  14.011 -0.3726 -0.8432  0.1351
  520TMC3    C5 7723   1.600   4.479  13.945  0.3244  0.4981  0.3439
  520TMC3    C6 7724   1.522   4.401  13.859  0.1146 -0.2003  0.5973
  520TMC3     C 7725   1.364   4.721  14.076  0.3321 -0.2931 -0.1822
  520TMC3     O 7726   1.243   0.005  14.076  0.5672  0.0033  0.0175
  520TMC3     H 7727   1.231   4.568  13.923 -0.9153  0.0666 -1.2078
  520TMC3    H1 7728   1.619   4.636  14.077  1.9236 -2.1441 -1.1008
  520TMC3    H2 7729   1.567   4.335  13.786 -1.4219  0.7251 -1.2096
  520TMC3    C7 7730   1.738   4.487  13.918  0.6006 -0.0621 -0.1311
  520TMC3    C8 7731   1.323   4.388  13.732 -0.6157  0.6420  0.0844
  520TMC3    O1 7732   1.795   4.377  13.913 -0.3416  0.3048  0.7578
  520TMC3    O2 7733   1.355   4.276  13.687 -0.1554 -0.2161  0.1263
  521MPD2     C 7734   1.807   3.572  17.145  0.0254  0.2125 -0.7379
  521MPD2    C1 7735   1.834   3.463  17.071 -0.7038 -0.1448  0.2798
  521MPD2    C2 7736   1.964   3.434  17.031  0.5915 -0.6923 -0.8001
  521MPD2    C3 7737   2.068   3.526  17.061 -1.1485  0.1702 -0.0524
  521MPD2    C4 7738   2.031   3.644  17.120  0.1234 -0.2884 -0.2342
  521MPD2    C5 7739   1.903   3.666  17.170  0.6083 -0.5613 -0.0192
  521MPD2     H 7740   1.990   3.351  16.966  1.3001  0.1943 -1.6321
  521MPD2    H1 7741   2.105   3.722  17.136 -1.0508  0.6010  0.8000
  521MPD2    H2 7742   1.708   3.595  17.182  0.1047 -2.8008  1.3085
  521MPD2    H3 7743   1.879   3.757  17.223  0.2328 -1.3182  1.1309
  521MPD2     N 7744   2.198   3.489  17.025 -0.4142  0.3148 -0.2104
  521MPD2    H5 7745   2.203   3.407  16.966  0.5448  1.3434 -1.5832
  521MPD2    N1 7746   1.732   3.375  17.034  0.1480  0.4529 -0.1634
  521MPD2    H7 7747   1.640   3.389  17.075  0.2496  0.5106  0.0441
  522TMC3    C1 7748   2.425   3.467  17.033  0.5887  0.6244  0.5885
  522TMC3    C2 7749   2.536   3.538  17.020 -0.9884 -0.3210  0.4517
  522TMC3    C3 7750   2.645   3.469  16.984  0.1244 -0.6998 -0.6472
  522TMC3    C4 7751   2.414   3.334  17.007  0.7952  0.1803 -0.5279
  522TMC3    C5 7752   2.530   3.264  16.971 -0.5573 -0.4839  0.2381
  522TMC3    C6 7753   2.648   3.333  16.960  0.2141 -0.2859  0.1951
  522TMC3     C 7754   2.312   3.549  17.071  0.1421  0.2609  0.0480
  522TMC3     O 7755   2.327   3.651  17.137 -0.0408 -0.1273 -0.0626
  522TMC3     H 7756   2.528   3.646  17.027 -0.1722 -0.2942  0.8776
  522TMC3    H1 7757   2.321   3.279  17.014  0.2344  1.1819 -0.0583
  522TMC3    H2 7758   2.740   3.277  16.951  0.1471 -0.2160 -0.9474
  522TMC3    C7 7759   2.527   3.132  16.905 -0.6693  0.1691  0.0163
  522TMC3    C8 7760   2.756   3.540  16.924  0.0803  0.2308  0.4210
  522TMC3    O1 7761   2.631   3.073  16.879  0.5139  0.6849  0.0920
  522TMC3    O2 7762   2.793   3.645  16.972 -0.3908 -0.0152 -0.3039
  523MPD2     C 7763   0.946   2.974  10.220  0.0346 -0.6162  0.4171
  523MPD2    C1 7764   0.819   2.938  10.179  1.0171 -1.0397 -0.2202
  523MPD2    C2 7765   0.716   3.034  10.162  0.2567 -0.0278 -0.4338
  523MPD2    C3 7766   0.749   3.164  10.187 -0.3289 -0.4526  0.0968
  523MPD2    C4 7767   0.882   3.198  10.220 -0.2057  0.2952 -0.6966
  523MPD2    C5 7768   0.981   3.104  10.231 -0.3345  0.4871 -0.1601
  523MPD2     H 7769   0.620   3.011  10.119 -0.7039  0.9081  1.1892
  523MPD2    H1 7770   0.914   3.301  10.230 -0.4890  0.3439 -0.3143
  523MPD2    H2 7771   1.021   2.896  10.231  0.9647  0.2322  0.1172
  523MPD2    H3 7772   1.078   3.126  10.274  0.1751  0.7695 -1.4519
  523MPD2     N 7773   0.660   3.271  10.173  0.0326 -0.0865  0.1270
  523MPD2    H5 7774   0.701   3.363  10.164 -0.8694  0.3880  0.8361
  523MPD2    N1 7775   0.793   2.804  10.162  0.4343 -0.0847  0.4117
  523MPD2    H7 7776   0.865   2.733  10.165 -1.1346 -1.5604  3.5910
  524TMC3    C1 7777   0.461   3.397  10.142 -0.2296  0.1589 -0.2330
  524TMC3    C2 7778   0.524   3.484  10.057  0.2483  0.2958 -0.4800
  524TMC3    C3 7779   0.444   3.559   9.969 -0.0204  0.0521  0.2530
  524TMC3    C4 7780   0.325   3.401  10.153 -0.4093  0.8874  0.5156
  524TMC3    C5 7781   0.248   3.490  10.075 -0.3348  0.3314 -0.2712
  524TMC3    C6 7782   0.306   3.572   9.981 -0.3503  0.3430  0.6007
  524TMC3     C 7783   0.524   3.263  10.163  0.4480 -0.3536  0.2585
  524TMC3     O 7784   0.451   3.168  10.188  0.4705 -0.0609 -0.6869
  524TMC3     H 7785   0.631   3.484  10.039  0.4300 -1.4023  0.5799
  524TMC3    H1 7786   0.275   3.328  10.214  1.3166 -0.6611  0.0665
  524TMC3    H2 7787   0.241   3.627   9.914 -0.2084 -0.3612 -0.1138
  524TMC3    C7 7788   0.103   3.483  10.102  0.0269 -0.2882  0.2725
  524TMC3    C8 7789   0.518   3.669   9.905 -1.1696 -0.2960  0.2049
  524TMC3    O1 7790   0.070   3.385  10.164 -0.2191  0.0451 -0.3236
  524TMC3    O2 7791   0.638   3.678   9.915  0.0293 -0.1605  0.3227
  525MPD2     C 7792   2.804   4.599  14.168 -0.7271 -0.3117  0.1362
  525MPD2    C1 7793   2.924   4.613  14.239 -0.3726 -0.0611 -0.2100
  525MPD2    C2 7794   2.995   0.008  14.223  0.4227  0.0730 -0.3623
  525MPD2    C3 7795   2.936   0.108  14.143 -0.5527  0.2029  0.0244
  525MPD2    C4 7796   2.817   0.095  14.079  0.1434 -0.3721  0.0643
  525MPD2    C5 7797   2.753   4.699  14.090  0.0378  0.1010 -0.6067
  525MPD2     H 7798   3.087   0.018  14.279  0.0784  1.2767 -0.0019
  525MPD2    H1 7799   2.774   0.167  14.011  1.1961 -0.1231 -0.3372
  525MPD2    H2 7800   2.734   4.517  14.179 -1.4801  0.1788 -0.9577
  525MPD2    H3 7801   2.654   4.682  14.050 -0.3256 -2.8156  1.5244
  525MPD2     N 7802   2.997   0.239  14.134 -0.4148 -0.3375  0.1104
  525MPD2    H5 7803   2.944   0.310  14.084 -0.5816 -1.1102 -0.8035
  525MPD2    N1 7804   2.983   4.508  14.318 -0.0657 -0.0717 -0.7587
  525MPD2    H7 7805   3.075   4.524  14.358 -0.2717 -2.1829  0.5325
  526TMC3    C1 7806   2.981   4.308  14.449  0.3500 -0.0136  0.2985
  526TMC3    C2 7807   2.918   4.247  14.555  0.4628 -0.2535 -0.5773
  526TMC3    C3 7808   2.989   4.166  14.632  0.3181 -0.3378 -0.7800
  526TMC3    C4 7809   3.110   4.288  14.410 -0.5378 -0.1933 -0.3528
  526TMC3    C5 7810   3.178   4.198  14.496 -0.1968  0.5295 -0.8513
  526TMC3    C6 7811   3.119   4.135  14.606  0.3251 -0.2544 -0.4815
  526TMC3     C 7812   2.909   4.406  14.379  0.4225  0.2987  0.0626
  526TMC3     O 7813   2.791   4.377  14.362  0.0479  0.1850  0.5950
  526TMC3     H 7814   2.811   4.262  14.564  0.6320  1.1133 -0.8808
  526TMC3    H1 7815   3.143   4.321  14.312  0.1526  0.4773  0.1044
  526TMC3    H2 7816   3.180   4.070  14.668 -1.5214 -3.3578 -1.9584
  526TMC3    C7 7817   3.296   4.139  14.431  0.0833 -0.5007  0.2406
  526TMC3    C8 7818   2.936   4.123  14.762 -0.6759 -0.2968 -0.0622
  526TMC3    O1 7819   3.329   4.028  14.473  0.0149 -0.0402  0.1812
  526TMC3    O2 7820   3.011   4.087  14.852  0.2636 -0.2706  0.2037
  527MPD2     C 7821   1.966   2.828   0.951  0.1163  0.5395  0.2247
  527MPD2    C1 7822   1.843   2.835   1.002 -0.0933  0.1424 -0.1967
  527MPD2    C2 7823   1.741   2.753   0.962  0.0992  0.1575  0.5734
  527MPD2    C3 7824   1.770   2.659   0.859  0.0919  0.4597  0.1206
  527MPD2    C4 7825   1.891   2.667   0.797  0.5966  0.1546  0.1302
  527MPD2    C5 7826   1.995   2.745   0.845 -0.2252  0.8399  0.5413
  527MPD2     H 7827   1.646   2.758   1.015 -0.5554 -0.8003 -0.4982
  527MPD2    H1 7828   1.941   2.591   0.738  2.9837  2.3404 -0.6755
  527MPD2    H2 7829   2.051   2.876   0.998  0.8007 -1.5347  1.0796
  527MPD2    H3 7830   2.098   2.735   0.814 -0.4236  0.4236  0.0268
  527MPD2     N 7831   1.669   2.573   0.816 -0.5160  0.3862 -0.1223
  527MPD2    H5 7832   1.597   2.578   0.887 -1.1180  0.3009 -0.7323
  527MPD2    N1 7833   1.823   2.925   1.113 -0.3131  0.1293  0.3679
  527MPD2    H7 7834   1.735   2.924   1.164 -0.6917  0.0301 -0.2828
  528TMC3    C1 7835   1.878   3.074   1.277  0.0007  0.5558  0.4020
  528TMC3    C2 7836   1.973   3.101   1.371 -0.4388 -0.7985  0.1279
  528TMC3    C3 7837   1.935   3.133   1.499 -0.6928 -0.0340 -0.4002
  528TMC3    C4 7838   1.740   3.071   1.308  0.1239 -1.1632  0.1416
  528TMC3    C5 7839   1.707   3.106   1.440 -0.0245  0.7732  0.1317
  528TMC3    C6 7840   1.806   3.125   1.531  0.4802 -0.6032 -0.0228
  528TMC3     C 7841   1.927   3.011   1.165 -0.2808  0.0954 -0.2991
  528TMC3     O 7842   2.035   3.049   1.120 -0.4829 -0.0909  0.6600
  528TMC3     H 7843   2.077   3.095   1.342 -0.2320  1.2695  0.4949
  528TMC3    H1 7844   1.656   3.052   1.242  2.2744 -2.4207 -2.2218
  528TMC3    H2 7845   1.766   3.176   1.618  1.3680 -0.9601  0.6077
  528TMC3    C7 7846   1.563   3.136   1.472 -0.2004 -0.7486  0.6138
  528TMC3    C8 7847   2.025   3.191   1.587 -0.3680  1.1119 -0.0232
  528TMC3    O1 7848   1.529   3.113   1.589  0.1154 -0.2498 -0.3300
  528TMC3    O2 7849   1.974   3.255   1.680 -0.3856 -0.7831  0.1537
  529MPD2     C 7850   3.015   4.696   0.266 -0.1378 -0.0385  0.7211
  529MPD2    C1 7851   2.942   0.077   0.313  0.6901 -0.3428 -0.2304
  529MPD2    C2 7852   2.901   0.165   0.211 -0.1154 -0.4512 -0.1424
  529MPD2    C3 7853   2.950   0.165   0.081  0.2270 -0.6547  0.1612
  529MPD2    C4 7854   3.044   0.071   0.060  0.2764 -0.1594 -0.2056
  529MPD2    C5 7855   3.070   4.699   0.144  0.2448 -0.0531 -0.2509
  529MPD2     H 7856   2.830   0.242   0.239 -1.2408 -0.9994 -1.5207
  529MPD2    H1 7857   3.101   0.067  17.670  0.3802  0.2060 -0.1534
  529MPD2    H2 7858   3.048   4.608   0.319  0.6851 -0.9121 -1.2360
  529MPD2    H3 7859   3.150   4.630   0.121  1.1625  1.2447 -0.9399
  529MPD2     N 7860   2.913   0.258  17.679 -0.0490  0.7386 -0.6480
  529MPD2    H5 7861   2.962   0.253  17.590  0.9738 -1.3947  0.0142
  529MPD2    N1 7862   2.905   0.099   0.448  0.0350 -0.2924  0.6078
  529MPD2    H7 7863   2.869   0.193   0.466  2.6581  0.6957  0.5780
  530TMC3    C1 7864   2.955   0.069   0.682 -0.4408 -0.6288 -0.1976
  530TMC3    C2 7865   2.987   0.201   0.697 -0.1197 -0.9472 -0.0994
  530TMC3    C3 7866   3.018   0.237   0.824  0.0151  0.0622  0.0475
  530TMC3    C4 7867   2.919   4.715   0.791 -0.4242  0.7723 -0.7427
  530TMC3    C5 7868   2.951   0.032   0.918 -0.4414 -0.2479 -0.7437
  530TMC3    C6 7869   3.000   0.159   0.937  0.1071  0.6794  0.3144
  530TMC3     C 7870   2.937   0.006   0.554 -0.4338 -0.1085 -0.7376
  530TMC3     O 7871   2.960   4.610   0.554 -0.0188 -0.0790  0.2293
  530TMC3     H 7872   3.046   0.249   0.619  1.4561  0.1703  1.7882
  530TMC3    H1 7873   2.892   4.611   0.774 -0.1791  0.6910 -0.6344
  530TMC3    H2 7874   3.055   0.181   1.028 -0.2545 -1.2924  1.0068
  530TMC3    C7 7875   2.919   4.680   1.033 -0.6340 -0.6091  0.1533
  530TMC3    C8 7876   3.103   0.358   0.832 -0.1654  0.4660 -0.0217
  530TMC3    O1 7877   2.914   4.560   1.023 -0.1257  0.2553 -0.7371
  530TMC3    O2 7878   3.087   0.441   0.743  0.1357 -0.0585  0.4876
  531MPD2     C 7879   2.889   3.667  13.160 -0.5149 -1.0601  0.1077
  531MPD2    C1 7880   2.777   3.745  13.125  0.3929 -0.1103  0.0992
  531MPD2    C2 7881   2.730   3.742  12.995  0.6293 -0.8646  1.4008
  531MPD2    C3 7882   2.789   3.653  12.906 -0.1946 -0.7342 -0.3295
  531MPD2    C4 7883   2.902   3.585  12.937  0.4587  0.4994 -0.3226
  531MPD2    C5 7884   2.954   3.594  13.061  0.3161 -0.8002  0.2356
  531MPD2     H 7885   2.637   3.787  12.964  2.5168  3.2400  1.7530
  531MPD2    H1 7886   2.941   3.515  12.864  2.1345 -0.1851  1.2296
  531MPD2    H2 7887   2.922   3.682  13.262  0.9595  0.1571 -0.5504
  531MPD2    H3 7888   3.040   3.535  13.090 -0.0596 -1.6740 -0.4533
  531MPD2     N 7889   2.734   3.632  12.781  0.1633  0.6230  0.0559
  531MPD2    H5 7890   2.762   3.551  12.726  0.3554 -0.5363  1.8726
  531MPD2    N1 7891   2.718   3.819  13.230  0.0571 -0.6133  0.5378
  531MPD2    H7 7892   2.773   3.815  13.316  0.4339  3.4910  0.4782
  532TMC3    C1 7893   2.553   3.932  13.344 -0.8832 -0.8884 -0.3338
  532TMC3    C2 7894   2.421   3.965  13.341 -0.0854 -0.4645 -0.4636
  532TMC3    C3 7895   2.337   3.908  13.435 -0.3162 -0.6943 -0.4696
  532TMC3    C4 7896   2.610   3.873  13.459  0.5975  0.6377 -0.1393
  532TMC3    C5 7897   2.524   3.827  13.553  1.0862 -0.1526 -0.5236
  532TMC3    C6 7898   2.391   3.850  13.545  0.2635 -0.3012  0.1884
  532TMC3     C 7899   2.612   3.904  13.215 -0.7871  0.1038 -0.0547
  532TMC3     O 7900   2.534   3.915  13.122  0.0641 -0.1178  0.0006
  532TMC3     H 7901   2.384   4.022  13.256 -0.9152 -1.0626 -0.5087
  532TMC3    H1 7902   2.717   3.881  13.478  0.9122  1.2596 -2.1637
  532TMC3    H2 7903   2.325   3.800  13.615 -0.2081  0.9698  0.6496
  532TMC3    C7 7904   2.557   3.718  13.644 -0.3053  0.2757  0.7163
  532TMC3    C8 7905   2.246   3.817  13.367 -0.1408  0.5709 -0.2455
  532TMC3    O1 7906   2.481   3.695  13.739 -0.2421 -0.2593 -0.4085
  532TMC3    O2 7907   2.167   3.757  13.438  0.0522  0.1729  0.1499
  533TMC3    C1 7908   3.095   0.425  14.220 -0.3845  0.0923  0.6766
  533TMC3    C2 7909   3.211   0.493  14.235  0.1096  0.0331 -0.5145
  533TMC3    C3 7910   3.216   0.590  14.322 -0.2275 -0.6678 -0.5734
  533TMC3    C4 7911   2.992   0.440  14.312 -1.0069  0.4895 -0.3347
  533TMC3    C5 7912   3.007   0.532  14.408  0.2456 -0.0784 -0.7445
  533TMC3    C6 7913   3.115   0.610  14.420 -0.2077 -0.2619  0.2969
  533TMC3     C 7914   3.110   0.285  14.202 -0.3125  0.6817  0.0650
  533TMC3     O 7915   3.191   0.223  14.268 -0.4392 -0.4140 -0.3115
  533TMC3     H 7916   3.297   0.465  14.175 -0.1883 -1.9990  0.0084
  533TMC3    H1 7917   2.908   0.372  14.321 -1.2325  0.6415 -1.2990
  533TMC3    H2 7918   3.135   0.671  14.508  1.7907 -0.9314  0.3167
  533TMC3    C7 7919   2.946   0.486  14.532  0.5695 -0.1455  0.2569
  533TMC3    C8 7920   3.341   0.645  14.360 -0.1413  0.2503 -0.0343
  533TMC3    O1 7921   2.912   0.370  14.541 -0.5247  0.0137 -0.0953
  533TMC3    O2 7922   3.359   0.658  14.478 -1.1712 -0.2837 -0.1159
  534MPD2     C 7923   0.731   2.075   1.592 -0.1449  0.1124 -0.1533
  534MPD2    C1 7924   0.739   2.131   1.463  0.6523  0.6845  0.3956
  534MPD2    C2 7925   0.674   2.065   1.359 -0.2806  0.9565  0.0381
  534MPD2    C3 7926   0.609   1.938   1.386 -0.0168  0.2488 -0.0506
  534MPD2    C4 7927   0.600   1.889   1.514 -0.0728  0.8969 -0.4885
  534MPD2    C5 7928   0.664   1.960   1.611  0.6947 -0.3467  0.0256
  534MPD2     H 7929   0.677   2.109   1.260 -0.6689  0.4628 -0.1914
  534MPD2    H1 7930   0.547   1.798   1.542  0.7977  0.5778  0.1101
  534MPD2    H2 7931   0.773   2.118   1.683  0.2916 -0.7063  0.0279
  534MPD2    H3 7932   0.673   1.922   1.712  0.7657 -3.4699 -1.1543
  534MPD2     N 7933   0.562   1.859   1.282 -0.8975 -0.1397 -0.2783
  534MPD2    H5 7934   0.532   1.766   1.311  1.0212 -0.4217  0.8256
  534MPD2    N1 7935   0.804   2.254   1.440  0.8734 -0.0694 -0.5801
  534MPD2    H7 7936   0.817   2.273   1.341  1.3976 -0.3838 -0.5720
  535TMC3    C1 7937   0.520   1.786   1.053  0.4394 -0.2186 -0.3729
  535TMC3    C2 7938   0.401   1.728   1.091 -0.6687 -0.1567 -0.4818
  535TMC3    C3 7939   0.321   1.682   0.988 -0.5695 -0.3025 -0.2331
  535TMC3    C4 7940   0.567   1.791   0.931  0.2741 -0.5652  0.0598
  535TMC3    C5 7941   0.475   1.762   0.838  0.2561 -0.9345  0.1010
  535TMC3    C6 7942   0.355   1.704   0.860  0.3044  0.8490 -0.8544
  535TMC3     C 7943   0.586   1.879   1.145  0.0372  0.9607 -0.7936
  535TMC3     O 7944   0.638   1.980   1.090  0.0711 -0.1616 -0.3511
  535TMC3     H 7945   0.368   1.731   1.195 -0.2349 -0.0921 -0.3456
  535TMC3    H1 7946   0.672   1.812   0.914 -0.1884  1.0303 -0.9199
  535TMC3    H2 7947   0.292   1.665   0.782 -0.3745 -0.9357  0.5779
  535TMC3    C7 7948   0.500   1.782   0.694  0.6864 -0.0601 -0.4515
  535TMC3    C8 7949   0.215   1.581   1.008 -0.4694 -0.2312 -0.4993
  535TMC3    O1 7950   0.452   1.706   0.609 -0.1308 -0.0342  0.4769
  535TMC3    O2 7951   0.169   1.524   0.909  0.5683  0.0984  0.0942
  536MPD2     C 7952   4.489   4.544  16.274  0.9482 -0.8356 -0.5036
  536MPD2    C1 7953   4.393   4.447  16.302 -0.5656 -0.2003 -0.3891
  536MPD2    C2 7954   4.317   4.392  16.197 -0.5605 -0.1843 -0.2543
  536MPD2    C3 7955   4.329   4.442  16.063 -0.4285  0.0426  0.3640
  536MPD2    C4 7956   4.425   4.538  16.038  0.6528 -0.3070 -0.3034
  536MPD2    C5 7957   4.511   4.581  16.139  0.2585 -0.1044  0.4712
  536MPD2     H 7958   4.251   4.310  16.224  0.1433 -0.5958  0.2151
  536MPD2    H1 7959   4.422   4.588  15.942  2.4834 -0.7677 -0.5994
  536MPD2    H2 7960   4.543   4.595  16.352 -3.8670  2.7143  0.4667
  536MPD2    H3 7961   4.590   4.655  16.131  3.7521 -3.7903  1.1408
  536MPD2     N 7962   4.246   4.411  15.956 -0.0414  0.6895  0.0414
  536MPD2    H5 7963   4.283   4.449  15.869 -2.1091  1.2476 -0.5919
  536MPD2    N1 7964   4.382   4.411  16.437  0.1591  0.6228 -0.8792
  536MPD2    H7 7965   4.445   4.442  16.510 -0.9292  3.3620 -1.0967
  537TMC3    C1 7966   4.303   4.289  16.631  0.1541 -0.0777  0.2614
  537TMC3    C2 7967   4.351   4.380  16.722  0.2219 -0.1255  0.1390
  537TMC3    C3 7968   4.314   4.360  16.854 -0.0704 -0.1432  0.5407
  537TMC3    C4 7969   4.244   4.173  16.666  0.3342  0.5979 -0.3263
  537TMC3    C5 7970   4.235   4.142  16.799  0.1076 -0.0881 -0.4633
  537TMC3    C6 7971   4.273   4.232  16.894  0.7286 -0.0176  0.5593
  537TMC3     C 7972   4.296   4.316  16.488 -0.5388  0.1021 -0.1672
  537TMC3     O 7973   4.213   4.254  16.426  0.4953 -0.4733  0.0345
  537TMC3     H 7974   4.389   4.474  16.684 -1.1876  0.4728  0.1931
  537TMC3    H1 7975   4.214   4.099  16.593 -0.6601  3.4615 -2.8673
  537TMC3    H2 7976   4.253   4.215  16.999  0.3017 -2.1150  0.1409
  537TMC3    C7 7977   4.118   4.049  16.835 -0.1682 -0.1880 -0.2048
  537TMC3    C8 7978   4.336   4.470  16.953  0.8820 -0.5595 -0.2568
  537TMC3    O1 7979   4.024   4.050  16.752  0.8590  0.1869 -0.0990
  537TMC3    O2 7980   4.296   4.446  17.063 -0.8037 -0.0335  0.6573
  538TMC3    C1 7981   0.831   2.201  10.996  0.5566 -0.1142 -0.1336
  538TMC3    C2 7982   0.971   2.178  10.974 -0.6428 -0.1334 -0.1275
  538TMC3    C3 7983   1.028   2.244  10.862 -0.0244  0.6042  0.3751
  538TMC3    C4 7984   0.751   2.257  10.900 -0.8618  0.0857  0.2113
  538TMC3    C5 7985   0.813   2.324  10.800  0.5479 -0.2767  0.0529
  538TMC3    C6 7986   0.951   2.328  10.778  0.3433 -0.6384  0.4670
  538TMC3     C 7987   0.766   2.141  11.112  0.3389 -0.1221  1.1290
  538TMC3     O 7988   0.648   2.117  11.109 -0.0009  0.3594  0.2835
  538TMC3     H 7989   1.021   2.097  11.025 -1.4559 -0.5578  0.0012
  538TMC3    H1 7990   0.647   2.276  10.922 -0.5957  2.4423 -0.5934
  538TMC3    H2 7991   0.984   2.364  10.681  1.0914  0.8299  1.2748
  538TMC3    C7 7992   0.730   2.416  10.724 -0.2928  0.0199  0.1663
  538TMC3    C8 7993   1.168   2.218  10.830 -0.0933  0.9889  0.1321
  538TMC3    O1 7994   0.616   2.385  10.707 -0.2423  0.1317 -0.0173
  538TMC3    O2 7995   1.224   2.127  10.885 -0.0605 -0.4390 -0.2688
  539MPD2     C 7996   0.368   1.515  11.694  0.0332  0.2993  0.0058
  539MPD2    C1 7997   0.382   1.530  11.555 -0.3677  0.7275  0.1187
  539MPD2    C2 7998   0.370   1.663  11.512 -0.6973  0.6671  0.1783
  539MPD2    C3 7999   0.330   1.771  11.595  0.0550  0.1917 -0.7834
  539MPD2    C4 8000   0.302   1.744  11.729  0.0617  0.1044 -0.3012
  539MPD2    C5 8001   0.321   1.615  11.770  0.8022  0.4641  0.0551
  539MPD2     H 8002   0.390   1.680  11.407 -1.3166  0.5739  0.0460
  539MPD2    H1 8003   0.257   1.811  11.801 -2.0185  0.2466 -1.7285
  539MPD2    H2 8004   0.388   1.431  11.760  2.2814  0.9242  0.0955
  539MPD2    H3 8005   0.294   1.596  11.873 -0.4683  0.5569 -0.2591
  539MPD2     N 8006   0.304   1.901  11.545  0.6320 -0.2964 -0.2699
  539MPD2    H5 8007   0.279   1.974  11.611 -3.7295 -0.2821 -1.9658
  539MPD2    N1 8008   0.421   1.424  11.473  0.1161  0.0970 -0.6968
  539MPD2    H7 8009   0.448   1.458  11.381 -2.8224  1.0147 -1.2348
  540TMC3    C1 8010   0.375   2.080  11.398  0.7171  0.9759 -0.0086
  540TMC3    C2 8011   0.339   2.132  11.276  0.1763 -0.1680  0.5756
  540TMC3    C3 8012   0.337   2.266  11.257 -0.0437  0.0336  0.2404
  540TMC3    C4 8013   0.392   2.150  11.511 -0.8798 -0.3952 -0.2131
  540TMC3    C5 8014   0.366   2.287  11.488  0.9434  0.0446  0.5750
  540TMC3    C6 8015   0.339   2.345  11.369 -0.3349  0.0640 -1.1265
  540TMC3     C 8016   0.344   1.938  11.418 -0.0720  0.1858 -0.1878
  540TMC3     O 8017   0.323   1.866  11.317 -0.6542 -0.1707  0.1462
  540TMC3     H 8018   0.305   2.063  11.200  0.8787 -1.1860  1.1909
  540TMC3    H1 8019   0.399   2.100  11.607  1.8269  3.3082  1.5291
  540TMC3    H2 8020   0.316   2.451  11.360 -0.7227  0.1755  1.0631
  540TMC3    C7 8021   0.322   2.364  11.604 -0.1041  0.0274  0.2015
  540TMC3    C8 8022   0.321   2.309  11.122  0.5206 -0.4954  0.3432
  540TMC3    O1 8023   0.217   2.423  11.585  0.2071  0.1188 -0.1355
  540TMC3    O2 8024   0.278   2.425  11.100  0.4043 -0.6133  0.1795
  541MPD2     C 8025   3.676   3.652  13.267 -0.1188  0.1675 -0.0677
  541MPD2    C1 8026   3.784   3.568  13.247 -0.3985 -0.0644 -0.1131
  541MPD2    C2 8027   3.870   3.601  13.141 -0.3786 -0.0568  0.5280
  541MPD2    C3 8028   3.830   3.702  13.050  0.0743 -0.0826 -0.3946
  541MPD2    C4 8029   3.726   3.782  13.077  0.1531 -0.5485 -0.2929
  541MPD2    C5 8030   3.644   3.753  13.184 -0.3545 -0.3684  0.1175
  541MPD2     H 8031   3.960   3.547  13.117 -0.7776 -0.2751 -0.4805
  541MPD2    H1 8032   3.708   3.867  13.013  1.6982  0.6180  0.8235
  541MPD2    H2 8033   3.611   3.622  13.348 -0.2610  0.5713 -0.0307
  541MPD2    H3 8034   3.564   3.821  13.208  0.7596 -0.3318  3.7670
  541MPD2     N 8035   3.903   3.741  12.940 -0.1054  0.4889  0.2791
  541MPD2    H5 8036   3.887   3.833  12.899 -0.3930  0.5404  0.5054
  541MPD2    N1 8037   3.796   3.448  13.324  0.8521 -0.0787  0.2780
  541MPD2    H7 8038   3.715   3.430  13.383  1.0989 -0.8754  0.3614
  542TMC3    C1 8039   4.052   3.742  12.769  0.6533  0.1866  0.0495
  542TMC3    C2 8040   4.071   3.667  12.660 -0.5094 -0.3547  0.3972
  542TMC3    C3 8041   4.047   3.731  12.543  0.9272 -0.5128 -0.0577
  542TMC3    C4 8042   4.040   3.880  12.774  0.6889 -0.3013  0.2387
  542TMC3    C5 8043   4.009   3.937  12.653 -0.0928 -0.1313  0.2101
  542TMC3    C6 8044   4.000   3.863  12.535  0.2023  0.2695  0.0062
  542TMC3     C 8045   4.004   3.666  12.887  0.4276 -0.1170  0.5922
  542TMC3     O 8046   4.018   3.546  12.886 -0.0095  0.5688 -0.0625
  542TMC3     H 8047   4.098   3.562  12.667 -0.0097 -0.0636  2.8239
  542TMC3    H1 8048   4.057   3.936  12.865 -1.1508 -1.6570  1.4267
  542TMC3    H2 8049   3.968   3.896  12.437  0.9802  2.7285  0.5655
  542TMC3    C7 8050   3.946   4.067  12.651 -0.5799 -0.4077 -0.3458
  542TMC3    C8 8051   4.072   3.664  12.418  0.1400 -0.2860  0.4162
  542TMC3    O1 8052   3.912   4.113  12.758 -0.5160 -0.8749  0.6487
  542TMC3    O2 8053   4.016   3.711  12.322 -0.6463  0.3282 -0.0310
  543TMC3    C1 8054   2.556   4.716  17.058 -0.0622 -0.0724  0.0692
  543TMC3    C2 8055   2.621   4.614  17.121 -0.1427  0.2552 -0.1733
  543TMC3    C3 8056   2.567   4.565  17.238  0.2145 -0.3724  0.5726
  543TMC3    C4 8057   2.457   0.054  17.115  0.2861 -0.6356 -0.2374
  543TMC3    C5 8058   2.404   0.004  17.235 -0.2845 -0.0475 -0.3345
  543TMC3    C6 8059   2.455   4.620  17.298 -0.0691 -0.4894 -0.3603
  543TMC3     C 8060   2.611   0.031  16.928 -0.2440 -0.4864 -0.3072
  543TMC3     O 8061   2.721   4.711  16.901 -0.5577  0.1411 -0.7190
  543TMC3     H 8062   2.709   4.568  17.078 -0.4146 -0.0181 -0.4395
  543TMC3    H1 8063   2.415   0.142  17.068 -0.0705 -0.9286 -0.4617
  543TMC3    H2 8064   2.402   4.583  17.384  2.1734  0.0667  1.2671
  543TMC3    C7 8065   2.332   0.099  17.312  0.2403  0.1086  0.0092
  543TMC3    C8 8066   2.625   4.439  17.281  0.5645 -0.3984 -0.6138
  543TMC3    O1 8067   2.252   0.163  17.252 -0.0577 -0.3425 -0.6215
  543TMC3    O2 8068   2.694   4.383  17.196  0.4071 -0.0902  0.3150
  544MPD2     C 8069   2.610   4.026  17.587 -0.1396  0.0877  0.1567
  544MPD2    C1 8070   2.688   4.050  17.477  0.0768 -0.1447  0.1305
  544MPD2    C2 8071   2.662   4.167  17.404 -0.0894 -0.3132  0.0740
  544MPD2    C3 8072   2.587   4.266  17.456  0.1565 -0.1122 -0.6396
  544MPD2    C4 8073   2.504   4.235  17.562 -0.2647  0.1393 -0.3071
  544MPD2    C5 8074   2.511   4.113  17.625 -0.0961  0.2118 -0.1826
  544MPD2     H 8075   2.709   4.182  17.307  1.8952 -1.6836  0.8107
  544MPD2    H1 8076   2.443   4.314  17.603  0.0225  0.2993 -0.1892
  544MPD2    H2 8077   2.633   3.941  17.649  0.9561  1.6150  1.8357
  544MPD2    H3 8078   2.445   4.084   0.004  0.0114  2.4025  0.6698
  544MPD2     N 8079   2.559   4.383  17.386  0.1706 -0.1174  0.2295
  544MPD2    H5 8080   2.485   4.436  17.431  1.3294  0.9152  0.9282
  544MPD2    N1 8081   2.780   3.946  17.435 -0.4545 -0.3621 -0.2500
  544MPD2    H7 8082   2.787   3.865  17.496 -2.0113  1.3764  2.2334
  545TMC3    C1 8083   2.915   3.818  17.293 -0.5333  0.7421  0.5089
  545TMC3    C2 8084   3.029   3.821  17.217 -0.3988  0.0804  0.0695
  545TMC3    C3 8085   3.090   3.702  17.192  0.2534 -0.6173 -0.9967
  545TMC3    C4 8086   2.850   3.704  17.321  0.0349  0.1543  0.2647
  545TMC3    C5 8087   2.925   3.590  17.308  0.1070 -0.0546 -0.4301
  545TMC3    C6 8088   3.046   3.588  17.251  0.3202 -0.7756 -0.2294
  545TMC3     C 8089   2.857   3.947  17.328  0.1070 -0.8265 -0.4457
  545TMC3     O 8090   2.880   4.038  17.252  0.4450 -0.3292 -0.2083
  545TMC3     H 8091   3.067   3.914  17.177  0.4043 -0.6476 -0.8513
  545TMC3    H1 8092   2.745   3.698  17.347  0.0840  1.4864  0.7660
  545TMC3    H2 8093   3.095   3.493  17.233 -0.6450 -1.2931 -0.1111
  545TMC3    C7 8094   2.878   3.473  17.386 -0.4144  0.8553 -0.1244
  545TMC3    C8 8095   3.184   3.690  17.077  0.2473 -0.2301 -0.3025
  545TMC3    O1 8096   2.762   3.443  17.395 -0.1620 -0.7000  0.0415
  545TMC3    O2 8097   3.275   3.605  17.078  0.6545  0.2690  0.4453
  546MPD2     C 8098   3.961   4.708  17.202  0.7408  0.1570  0.0363
  546MPD2    C1 8099   4.003   4.695  17.072  0.3380 -0.3928  0.5794
  546MPD2    C2 8100   4.097   0.071  17.032 -0.0643 -0.3991  0.5244
  546MPD2    C3 8101   4.123   0.179  17.114  0.5000 -0.6008  0.2155
  546MPD2    C4 8102   4.083   0.180  17.244  0.0997 -0.0898 -0.1555
  546MPD2    C5 8103   3.999   0.083  17.291  0.5608 -0.0117  0.3263
  546MPD2     H 8104   4.139   0.066  16.932 -0.2457 -4.6754  0.6996
  546MPD2    H1 8105   4.121   0.264  17.302 -0.3292  0.3245 -0.4687
  546MPD2    H2 8106   3.886   4.639  17.238  0.6477  0.0134 -0.4347
  546MPD2    H3 8107   3.975   0.082  17.397  1.4545 -0.4246  0.5334
  546MPD2     N 8108   4.205   0.286  17.078  0.0847 -0.3545 -0.4103
  546MPD2    H5 8109   4.228   0.351  17.151  0.2734 -0.1331 -0.6672
  546MPD2    N1 8110   3.953   4.585  16.998  0.0030 -0.0444 -0.0016
  546MPD2    H7 8111   3.890   4.522  17.046  0.0291 -0.0292  0.0525
  547TMC3    C1 8112   3.947   4.426  16.836 -0.3177  0.2397 -0.1117
  547TMC3    C2 8113   3.873   4.413  16.722  1.1343 -0.5848  0.6328
  547TMC3    C3 8114   3.781   4.312  16.716 -0.2617 -0.0008  0.2182
  547TMC3    C4 8115   3.938   4.337  16.936 -0.5229  0.5891  0.2440
  547TMC3    C5 8116   3.849   4.234  16.930  0.3100  1.1228  0.4989
  547TMC3    C6 8117   3.770   4.220  16.818  0.6077  0.8749  0.0501
  547TMC3     C 8118   3.992   4.555  16.873  0.1132 -0.5145  0.1218
  547TMC3     O 8119   4.042   4.626  16.784  0.1852 -0.1790  0.0647
  547TMC3     H 8120   3.877   4.494  16.650 -0.5979 -1.1262 -0.0601
  547TMC3    H1 8121   4.001   4.357  17.022 -2.4300  5.4462  0.5664
  547TMC3    H2 8122   3.720   4.129  16.789  0.8335  0.0883  2.0885
  547TMC3    C7 8123   3.781   4.193  17.048 -0.3802 -0.4143  0.7782
  547TMC3    C8 8124   3.657   4.351  16.672  0.2582  0.1119  0.8703
  547TMC3    O1 8125   3.658   4.180  17.041 -0.3562  0.0739 -0.0839
  547TMC3    O2 8126   3.643   4.420  16.574  0.1492 -0.2625  0.3714
  548MPD2     C 8127   3.983   0.574  12.119  0.3535  0.4153  0.4268
  548MPD2    C1 8128   4.017   0.522  12.240 -0.1842 -0.3534 -0.2180
  548MPD2    C2 8129   4.122   0.428  12.235  0.1700 -0.3358  0.2442
  548MPD2    C3 8130   4.187   0.399  12.118  1.2648 -0.0673  0.5302
  548MPD2    C4 8131   4.156   0.466  11.998  0.1522  0.3717  0.2868
  548MPD2    C5 8132   4.048   0.551  11.998  0.2046  0.1394  0.0379
  548MPD2     H 8133   4.160   0.394  12.331  0.5869 -0.7741 -0.0783
  548MPD2    H1 8134   4.204   0.446  11.903 -0.1760  0.3416  0.1251
  548MPD2    H2 8135   3.914   0.658  12.129 -0.2968 -0.1853  0.9297
  548MPD2    H3 8136   4.006   0.581  11.903  1.1559  0.1221 -0.3865
  548MPD2     N 8137   4.284   0.303  12.134 -0.3456 -0.5029 -0.2880
  548MPD2    H5 8138   4.294   0.265  12.228 -1.2852 -1.4942 -0.5844
  548MPD2    N1 8139   3.958   0.583  12.353  0.5484  0.1067  0.1086
  548MPD2    H7 8140   3.877   0.643  12.341  1.0899  0.9127  0.4645
  549TMC3    C1 8141   3.918   0.605  12.595  1.3312  0.8336  0.5147
  549TMC3    C2 8142   3.824   0.708  12.572  0.3143 -0.0548  0.3570
  549TMC3    C3 8143   3.730   0.720  12.672 -0.8826  0.1971 -0.1325
  549TMC3    C4 8144   3.910   0.508  12.696  0.4804 -0.2773 -0.1319
  549TMC3    C5 8145   3.810   0.527  12.788  0.3659 -1.0028  0.7703
  549TMC3    C6 8146   3.725   0.631  12.772  0.5909  0.4335  1.2377
  549TMC3     C 8147   4.009   0.565  12.484 -0.3203 -0.1839  0.5491
  549TMC3     O 8148   4.108   0.505  12.524 -0.0540 -0.2321  0.1192
  549TMC3     H 8149   3.827   0.773  12.485 -2.1187 -0.7463 -0.2525
  549TMC3    H1 8150   3.982   0.428  12.702  0.6707 -0.0234  1.1033
  549TMC3    H2 8151   3.640   0.644  12.838 -2.0278  0.7643 -2.1617
  549TMC3    C7 8152   3.769   0.419  12.882 -0.7013  0.1719  0.5220
  549TMC3    C8 8153   3.613   0.795  12.637 -0.1741  0.5166 -0.1312
  549TMC3    O1 8154   3.692   0.447  12.975 -0.4075 -0.4095 -0.5907
  549TMC3    O2 8155   3.506   0.746  12.670 -0.4177 -0.0649  0.5835
  550TMC3    C1 8156   3.169   3.670  12.644 -0.3431  0.4099 -0.2714
  550TMC3    C2 8157   3.135   3.759  12.743 -0.4082 -0.2256 -0.5435
  550TMC3    C3 8158   3.086   3.881  12.702 -0.1913 -0.0390 -0.1682
  550TMC3    C4 8159   3.166   3.698  12.513  0.4508  0.5588  0.2034
  550TMC3    C5 8160   3.115   3.817  12.470 -0.1675  0.1460  0.2482
  550TMC3    C6 8161   3.057   3.892  12.563 -0.5233  0.1097 -0.7440
  550TMC3     C 8162   3.234   3.546  12.685  0.4890  0.4096 -0.8979
  550TMC3     O 8163   3.190   3.495  12.790 -0.4688  0.1408  0.3479
  550TMC3     H 8164   3.148   3.731  12.847 -0.4477 -0.1366 -0.5149
  550TMC3    H1 8165   3.208   3.627  12.443  0.4338 -0.1869  0.9526
  550TMC3    H2 8166   2.996   3.978  12.536 -1.1084  0.5002  1.7884
  550TMC3    C7 8167   3.060   3.827  12.338 -0.0067  0.0097 -0.4656
  550TMC3    C8 8168   2.994   3.955  12.793 -0.0258 -0.3846  0.0215
  550TMC3    O1 8169   2.968   3.907  12.320 -0.0871  0.3596 -0.2973
  550TMC3    O2 8170   2.896   3.997  12.731 -0.0981  0.2160 -0.7365
  551TMC3    C1 8171   0.428   1.038  13.276  0.4041  0.0565 -0.2543
  551TMC3    C2 8172   0.537   1.056  13.194  0.3349 -0.7617 -0.0590
  551TMC3    C3 8173   0.610   1.165  13.221  0.4115 -0.0171 -0.1874
  551TMC3    C4 8174   0.400   1.118  13.384  0.4410 -0.5884  0.9343
  551TMC3    C5 8175   0.480   1.228  13.399 -0.6710  0.3460  0.1005
  551TMC3    C6 8176   0.592   1.257  13.320 -0.1692 -0.3854  0.1091
  551TMC3     C 8177   0.332   0.946  13.223  0.1937 -0.3677 -0.3268
  551TMC3     O 8178   0.352   0.910  13.105  0.1955 -0.3295  0.2258
  551TMC3     H 8179   0.549   1.008  13.098  0.9676 -2.9739  1.1196
  551TMC3    H1 8180   0.302   1.117  13.431 -0.4643 -2.0524 -1.0215
  551TMC3    H2 8181   0.675   1.319  13.352 -1.9434  2.0887 -0.1409
  551TMC3    C7 8182   0.471   1.300  13.524 -0.4214  0.4165  0.3812
  551TMC3    C8 8183   0.719   1.182  13.122 -0.0637  0.0862 -0.1668
  551TMC3    O1 8184   0.397   1.255  13.608  0.6484 -0.4231 -0.3307
  551TMC3    O2 8185   0.749   1.087  13.056  0.6622  0.2744 -0.5326
  552MPD2     C 8186   2.275   3.497  14.021 -0.0715  0.1753  0.5228
  552MPD2    C1 8187   2.325   3.398  13.936  0.9514  0.2634  0.5110
  552MPD2    C2 8188   2.398   3.290  13.988 -0.1916 -0.1903 -0.0420
  552MPD2    C3 8189   2.417   3.262  14.122 -0.0826 -0.1506 -0.8530
  552MPD2    C4 8190   2.358   3.354  14.209  0.1580  1.0090  0.3527
  552MPD2    C5 8191   2.284   3.465  14.162  0.7579  0.0046 -0.2578
  552MPD2     H 8192   2.430   3.210  13.923 -2.1368 -1.4679  0.5809
  552MPD2    H1 8193   2.364   3.351  14.317 -1.2536 -1.0874  0.3858
  552MPD2    H2 8194   2.210   3.574  13.982  0.1737 -0.2738 -0.7703
  552MPD2    H3 8195   2.230   3.527  14.233 -2.1167 -1.9908 -0.6882
  552MPD2     N 8196   2.488   3.144  14.163  0.1957 -0.1560 -0.1686
  552MPD2    H5 8197   2.527   3.074  14.101 -0.2825  1.1936 -1.9968
  552MPD2    N1 8198   2.297   3.420  13.800  0.0089 -0.1541 -0.5467
  552MPD2    H7 8199   2.263   3.513  13.778 -2.1381 -1.5489 -2.9725
  553TMC3    C1 8200   2.233   3.360  13.582  0.0731 -0.5829 -0.0384
  553TMC3    C2 8201   2.308   3.450  13.514  0.0024  0.1718 -1.2658
  553TMC3    C3 8202   2.306   3.433  13.378 -0.2273  0.1122 -0.0204
  553TMC3    C4 8203   2.174   3.253  13.523 -0.5481 -0.7790  0.3086
  553TMC3    C5 8204   2.187   3.235  13.388  0.5978  0.1862  0.0969
  553TMC3    C6 8205   2.224   3.340  13.315  0.3553  0.6653  0.0606
  553TMC3     C 8206   2.289   3.321  13.710 -0.4238  0.5564 -0.5262
  553TMC3     O 8207   2.287   3.202  13.734  0.3235  0.1888  0.1657
  553TMC3     H 8208   2.371   3.525  13.561  1.1786  0.0840 -2.6817
  553TMC3    H1 8209   2.110   3.188  13.582 -0.1913 -2.7703 -1.4812
  553TMC3    H2 8210   2.212   3.352  13.208 -0.2972 -0.3795  0.0269
  553TMC3    C7 8211   2.271   3.123  13.353  0.1183 -0.3651 -0.2077
  553TMC3    C8 8212   2.436   3.464  13.317 -0.0920 -0.7383  0.1835
  553TMC3    O1 8213   2.296   3.107  13.234  0.2931  0.7481  0.2962
  553TMC3    O2 8214   2.517   3.513  13.393  0.3443 -0.2537  0.1701
  554TMC3    C1 8215   4.455   2.089  11.444  0.1003 -0.3469 -0.1028
  554TMC3    C2 8216   4.422   1.999  11.348 -0.5016  0.1479  0.5569
  554TMC3    C3 8217   4.394   2.044  11.223  0.6516  0.3722 -0.5338
  554TMC3    C4 8218   4.465   2.223  11.426  0.0666  0.0680  0.4530
  554TMC3    C5 8219   4.446   2.263  11.292  0.0235  0.0596  0.8103
  554TMC3    C6 8220   4.400   2.173  11.199  0.6805  0.4355  0.2116
  554TMC3     C 8221   4.472   2.024  11.572  0.1189 -0.5019 -0.5439
  554TMC3     O 8222   4.429   1.909  11.586  0.1025 -0.5381 -0.5793
  554TMC3     H 8223   4.415   1.894  11.370 -1.3917  0.1249  0.1665
  554TMC3    H1 8224   4.477   2.293  11.508  1.6593  0.5276 -0.1646
  554TMC3    H2 8225   4.380   2.193  11.094  0.7584  0.3771  0.1857
  554TMC3    C7 8226   4.493   2.390  11.237 -0.0911  0.6934 -0.3666
  554TMC3    C8 8227   4.398   1.953  11.106 -0.6085 -0.9515 -0.8923
  554TMC3    O1 8228   4.445   2.424  11.133  0.3250  0.3192 -0.3185
  554TMC3    O2 8229   4.446   1.991  10.999 -0.3066 -0.1816 -0.2421
  555TMC3    C1 8230   3.533   1.688  14.842 -0.2977  0.2209 -0.1820
  555TMC3    C2 8231   3.555   1.772  14.951  0.1845  0.5966 -0.3687
  555TMC3    C3 8232   3.539   1.719  15.072  0.1251  0.0697 -0.2734
  555TMC3    C4 8233   3.510   1.552  14.847  0.0858 -0.7492 -0.3188
  555TMC3    C5 8234   3.492   1.505  14.974  0.4475  0.3970 -0.2749
  555TMC3    C6 8235   3.504   1.589  15.083 -0.1694  0.2049  0.1922
  555TMC3     C 8236   3.503   1.749  14.713 -0.4536  0.3160 -0.2835
  555TMC3     O 8237   3.503   1.685  14.608 -0.3482  0.1154  0.3579
  555TMC3     H 8238   3.580   1.877  14.954  1.0918  0.3107  2.2815
  555TMC3    H1 8239   3.501   1.498  14.753  1.1072  1.2923 -1.5966
  555TMC3    H2 8240   3.476   1.541  15.176 -1.0211 -0.0308 -0.1848
  555TMC3    C7 8241   3.458   1.360  14.988 -0.1187 -0.3673 -0.6870
  555TMC3    C8 8242   3.568   1.806  15.184 -0.1296  0.0093 -0.2293
  555TMC3    O1 8243   3.411   1.330  15.093 -0.2501  0.6422  0.2442
  555TMC3    O2 8244   3.549   1.926  15.167  0.3409  0.1679 -0.6392
  556MPD2     C 8245   1.725   3.489  10.475 -0.3879  0.5951  0.1216
  556MPD2    C1 8246   1.716   3.382  10.560 -0.0535  0.0495  0.6979
  556MPD2    C2 8247   1.676   3.266  10.508  0.6740 -0.1041  0.6168
  556MPD2    C3 8248   1.654   3.242  10.375  0.9636 -0.7244  0.2760
  556MPD2    C4 8249   1.666   3.351  10.293 -0.0070 -0.1836  0.0096
  556MPD2    C5 8250   1.695   3.476  10.343  0.1670 -0.8858 -0.9756
  556MPD2     H 8251   1.663   3.187  10.582 -0.8736 -0.9058 -0.5128
  556MPD2    H1 8252   1.635   3.348  10.189  0.5460  0.8778 -0.1838
  556MPD2    H2 8253   1.751   3.589  10.510  0.1081  0.5825 -0.2109
  556MPD2    H3 8254   1.690   3.563  10.277 -1.0359 -0.6788 -0.6036
  556MPD2     N 8255   1.614   3.105  10.340  0.0284  0.0047  0.1136
  556MPD2    H5 8256   1.596   3.045  10.420  0.7182  1.4148  1.3508
  556MPD2    N1 8257   1.730   3.397  10.705 -0.0295 -0.6312  0.1890
  556MPD2    H7 8258   1.712   3.318  10.766  0.1470 -0.5573  0.3366
  557TMC3    C1 8259   1.641   2.905  10.234  0.1085  0.1635 -0.3653
  557TMC3    C2 8260   1.729   2.847  10.146 -0.0387  0.0415  0.3713
  557TMC3    C3 8261   1.741   2.708  10.147 -0.2102 -0.3877  0.0865
  557TMC3    C4 8262   1.569   2.831  10.320 -0.6713 -0.6217  0.3394
  557TMC3    C5 8263   1.592   2.691  10.332  0.2758 -0.0408  0.2758
  557TMC3    C6 8264   1.687   2.632  10.247  0.1232 -0.7896 -0.2282
  557TMC3     C 8265   1.629   3.048  10.219  0.5164  0.8243  0.8257
  557TMC3     O 8266   1.660   3.106  10.116 -0.5808 -0.3721 -0.3046
  557TMC3     H 8267   1.769   2.910  10.068  1.8435 -0.0087  1.2843
  557TMC3    H1 8268   1.484   2.875  10.371 -0.4679 -2.2497  2.0983
  557TMC3    H2 8269   1.710   2.527  10.257  1.6041 -0.3790  0.5780
  557TMC3    C7 8270   1.523   2.613  10.433 -0.5401 -0.7374 -0.3211
  557TMC3    C8 8271   1.851   2.659  10.063  0.5291 -0.8578 -0.2273
  557TMC3    O1 8272   1.440   2.678  10.491  0.0699 -0.2809 -0.1392
  557TMC3    O2 8273   1.912   2.758  10.019  0.3764  0.7966  0.8112
  558TMC3    C1 8274   4.270   0.801   9.468 -0.1916 -0.0473 -0.9115
  558TMC3    C2 8275   4.316   0.690   9.397  0.3674  0.7942 -0.1988
  558TMC3    C3 8276   4.225   0.631   9.313  0.2924  0.7239 -0.6593
  558TMC3    C4 8277   4.135   0.835   9.470 -0.3126 -0.1843  0.7584
  558TMC3    C5 8278   4.052   0.775   9.377 -0.3217  0.6701  0.4062
  558TMC3    C6 8279   4.098   0.676   9.293  0.6530  0.6658 -0.2295
  558TMC3     C 8280   4.344   0.823   9.585  0.0232 -0.2630  0.2670
  558TMC3     O 8281   4.461   0.796   9.579  0.5608 -0.3784  0.4539
  558TMC3     H 8282   4.419   0.655   9.399 -0.2278 -0.8606  1.2511
  558TMC3    H1 8283   4.089   0.915   9.527  0.0275  0.7462 -0.2707
  558TMC3    H2 8284   4.023   0.614   9.244 -0.3217  1.9353 -0.3506
  558TMC3    C7 8285   3.915   0.815   9.358 -0.4472  0.4410 -0.4778
  558TMC3    C8 8286   4.229   0.488   9.311  0.2759  0.2508 -0.3736
  558TMC3    O1 8287   3.881   0.928   9.386  0.2596 -0.0357  0.2680
  558TMC3    O2 8288   4.186   0.429   9.212 -0.1470  0.1672 -0.3825
  559MPD2     C 8289   4.219   1.168  10.224  0.3149  0.1508  0.5723
  559MPD2    C1 8290   4.227   1.192  10.363 -0.2454  0.2142 -0.7155
  559MPD2    C2 8291   4.355   1.193  10.409 -0.0818  0.7879  0.0498
  559MPD2    C3 8292   4.468   1.158  10.340 -0.2100 -0.5224 -0.5587
  559MPD2    C4 8293   4.454   1.128  10.206 -0.2761 -0.2929  0.4796
  559MPD2    C5 8294   4.329   1.123  10.151 -0.4287 -0.1426 -0.2798
  559MPD2     H 8295   4.365   1.209  10.516  0.4779 -1.4683  0.3399
  559MPD2    H1 8296   4.534   1.089  10.144 -0.8226 -1.0443  0.2439
  559MPD2    H2 8297   4.123   1.159  10.174  0.4714  1.8069 -0.0227
  559MPD2    H3 8298   4.324   1.086  10.049  0.8504 -0.4265 -0.2335
  559MPD2     N 8299   4.595   1.156  10.402  0.2069 -0.3835 -0.4040
  559MPD2    H5 8300   4.588   1.186  10.499 -0.6606 -0.8238 -0.3318
  559MPD2    N1 8301   4.114   1.220  10.447 -0.1804 -0.0818 -0.0779
  559MPD2    H7 8302   4.137   1.226  10.546 -0.2313  0.0232 -0.0724
  560TMC3    C1 8303   0.050   1.034  10.486  0.5029  0.0132  0.0964
  560TMC3    C2 8304   0.035   0.899  10.500  0.4869  0.2700 -0.7593
  560TMC3    C3 8305   0.020   0.854  10.626  0.6926 -0.3701 -0.6539
  560TMC3    C4 8306   0.057   1.113  10.594 -0.1691  0.2536  0.3562
  560TMC3    C5 8307   0.046   1.064  10.723  0.3017  1.3327 -0.1940
  560TMC3    C6 8308   0.028   0.933  10.741 -0.2356  0.4328  0.8226
  560TMC3     C 8309   4.699   1.083  10.362  0.0970 -0.0644 -0.3494
  560TMC3     O 8310   4.709   1.012  10.269  0.0850  0.6149  0.3545
  560TMC3     H 8311   0.032   0.830  10.416 -0.4257 -1.4953  0.7105
  560TMC3    H1 8312   0.049   1.221  10.589 -0.9261  0.1573 -0.5103
  560TMC3    H2 8313   0.019   0.884  10.837  0.1988 -1.8475 -0.2899
  560TMC3    C7 8314   0.053   1.131  10.852  0.2978 -0.2039 -0.8367
  560TMC3    C8 8315   0.039   0.708  10.655  0.0186 -0.2234  0.4432
  560TMC3    O1 8316   4.692   1.100  10.934 -0.2974 -0.5177 -0.2771
  560TMC3    O2 8317   0.087   0.673  10.762  0.3361  0.1286 -0.5085
  561TMC3    C1 8318   1.918   0.683  11.165 -1.3742 -0.5007 -1.4288
  561TMC3    C2 8319   1.865   0.582  11.231 -0.1017 -0.3594  0.7869
  561TMC3    C3 8320   1.867   0.587  11.366 -0.4887  1.0241  0.2765
  561TMC3    C4 8321   1.977   0.786  11.224 -0.2146  0.0509 -0.1798
  561TMC3    C5 8322   1.983   0.781  11.363 -0.3237  0.1689 -0.2954
  561TMC3    C6 8323   1.927   0.689  11.442  1.0101  0.3285 -0.0336
  561TMC3     C 8324   1.972   0.655  11.032 -0.4272  0.0533 -0.1721
  561TMC3     O 8325   2.042   0.739  10.979 -0.6280 -0.1377 -0.3771
  561TMC3     H 8326   1.817   0.498  11.181  2.5076 -0.2761 -1.8294
  561TMC3    H1 8327   2.014   0.867  11.162  0.5568 -0.2134 -0.0622
  561TMC3    H2 8328   1.939   0.684  11.550  0.3072 -2.2775 -0.0880
  561TMC3    C7 8329   2.072   0.875  11.431  0.7196 -0.3167 -0.2640
  561TMC3    C8 8330   1.805   0.478  11.443  0.0608 -0.3177  0.2226
  561TMC3    O1 8331   2.047   0.878  11.552 -0.1512 -0.3384 -0.2626
  561TMC3    O2 8332   1.797   0.369  11.388 -0.0508  0.0098  0.1701
  562TMC3    C1 8333   3.305   2.115  16.077  0.3828 -0.2357 -0.4564
  562TMC3    C2 8334   3.194   2.199  16.080 -0.3405  0.0370  0.5942
  562TMC3    C3 8335   3.100   2.189  15.978 -0.4488 -0.7075  1.4038
  562TMC3    C4 8336   3.315   2.018  15.976 -0.5001  0.7419 -0.3328
  562TMC3    C5 8337   3.220   2.021  15.874  0.3424 -0.6342  0.5079
  562TMC3    C6 8338   3.120   2.113  15.869  0.0241 -0.3931 -0.3483
  562TMC3     C 8339   3.398   2.120  16.189  0.6461 -0.1024  0.0719
  562TMC3     O 8340   3.381   2.199  16.278 -0.1038  0.4079  0.3267
  562TMC3     H 8341   3.180   2.276  16.155  2.6376  1.5889 -0.4449
  562TMC3    H1 8342   3.379   1.931  15.980 -1.4330 -0.0463 -2.3176
  562TMC3    H2 8343   3.075   2.129  15.772  0.8328 -1.9855 -0.9819
  562TMC3    C7 8344   3.240   1.936  15.756 -0.0231  0.2356  0.3232
  562TMC3    C8 8345   2.982   2.269  15.990 -0.3783  0.2572 -0.2583
  562TMC3    O1 8346   3.250   1.998  15.650 -0.2985 -0.1587 -0.4902
  562TMC3    O2 8347   2.986   2.353  16.084 -0.6229 -0.5775 -0.8605
  563MPD2     C 8348   0.381   3.151  15.816  0.2168  0.2549 -0.1134
  563MPD2    C1 8349   0.437   3.231  15.912  0.0668 -0.2376  0.6627
  563MPD2    C2 8350   0.548   3.184  15.972 -0.2486 -0.1419  0.5569
  563MPD2    C3 8351   0.603   3.064  15.946 -0.7222  0.4573  0.6428
  563MPD2    C4 8352   0.537   2.981  15.858 -0.6302 -0.4764  0.3949
  563MPD2    C5 8353   0.434   3.032  15.780 -0.1149 -0.0937 -0.1235
  563MPD2     H 8354   0.584   3.238  16.058 -0.9818  2.0887 -0.5350
  563MPD2    H1 8355   0.569   2.887  15.815  1.6263  0.6093 -0.3264
  563MPD2    H2 8356   0.290   3.183  15.767  1.4469  1.4909 -1.6043
  563MPD2    H3 8357   0.383   2.966  15.711  0.1023  0.7006 -1.0282
  563MPD2     N 8358   0.727   3.025  16.005  0.2187 -0.3389 -0.4532
  563MPD2    H5 8359   0.759   3.085  16.080 -0.5614 -0.3183 -0.1306
  563MPD2    N1 8360   0.360   3.344  15.949  0.1878 -0.3579 -0.3399
  563MPD2    H7 8361   0.266   3.350  15.911 -0.4959 -0.5914  1.2854
  564TMC3    C1 8362   0.276   3.454  16.122 -0.7445  0.9033  0.2491
  564TMC3    C2 8363   0.161   3.410  16.061  0.0619 -0.0645 -0.2358
  564TMC3    C3 8364   0.076   3.340  16.145  0.0424  0.0386 -0.4831
  564TMC3    C4 8365   0.310   3.446  16.251 -0.0080 -0.3001 -0.2905
  564TMC3    C5 8366   0.229   3.373  16.326  0.2360 -0.3537 -0.3228
  564TMC3    C6 8367   0.108   3.321  16.281  0.5335  0.5737 -0.0149
  564TMC3     C 8368   0.390   3.433  16.046 -0.0248 -0.0468 -0.2611
  564TMC3     O 8369   0.506   3.445  16.092 -1.0136  0.2125  0.2656
  564TMC3     H 8370   0.142   3.445  15.960  0.9348 -0.3687 -0.5098
  564TMC3    H1 8371   0.399   3.487  16.296 -0.4260  0.4788 -0.1729
  564TMC3    H2 8372   0.049   3.253  16.342  1.2711  0.4644  0.5836
  564TMC3    C7 8373   0.310   3.267  16.380  0.0253 -0.2403  0.7719
  564TMC3    C8 8374   0.062   3.215  16.089 -0.0106  0.2400 -0.2712
  564TMC3    O1 8375   0.410   3.302  16.445 -0.6769 -0.3369 -0.7027
  564TMC3    O2 8376   0.053   3.119  16.163 -0.2100 -0.2533  0.0041
  565TMC3    C1 8377   1.779   4.657  10.121 -0.2973  1.2683  0.2552
  565TMC3    C2 8378   1.752   4.524  10.157  0.5096  1.0658 -0.0154
  565TMC3    C3 8379   1.738   4.432  10.054 -0.3270 -0.8821 -0.3854
  565TMC3    C4 8380   1.804   4.696   9.992  0.0840  0.0900  0.6118
  565TMC3    C5 8381   1.810   4.598   9.896  0.6472 -0.5129 -0.2499
  565TMC3    C6 8382   1.764   4.469   9.924  0.0178 -0.3030  0.5043
  565TMC3     C 8383   1.775   0.047  10.207 -0.3138  0.2011 -0.0594
  565TMC3     O 8384   1.840   0.146  10.183 -0.2754  0.1579  0.3160
  565TMC3     H 8385   1.738   4.501  10.262  0.4355  1.0768 -0.0230
  565TMC3    H1 8386   1.839   0.072   9.975 -1.7877  0.2689 -2.0628
  565TMC3    H2 8387   1.795   4.391   9.855 -1.6902  0.2468 -0.8964
  565TMC3    C7 8388   1.831   4.647   9.761  0.4453 -0.4744  0.4709
  565TMC3    C8 8389   1.696   4.296  10.096  0.2153  0.3426 -0.3332
  565TMC3    O1 8390   1.797   0.038   9.734 -0.1021  0.2345  0.1803
  565TMC3    O2 8391   1.690   4.281  10.218 -0.4369 -0.0373  0.6668
  566MPD2     C 8392   2.263   2.023  14.391 -0.6914 -0.2262  0.4628
  566MPD2    C1 8393   2.387   1.965  14.372  0.2027 -0.6998  0.0082
  566MPD2    C2 8394   2.397   1.848  14.293  0.8947 -0.1636 -0.1421
  566MPD2    C3 8395   2.284   1.789  14.237 -0.2628  0.0422 -0.2065
  566MPD2    C4 8396   2.160   1.840  14.273  0.3450 -0.1302 -0.1211
  566MPD2    C5 8397   2.156   1.957  14.345  0.0432 -0.0040 -0.4713
  566MPD2     H 8398   2.494   1.819  14.255  0.6169 -0.7175 -0.4233
  566MPD2    H1 8399   2.070   1.791  14.237  0.1197  0.5908 -0.5333
  566MPD2    H2 8400   2.255   2.121  14.436 -0.1946 -0.9496  2.1488
  566MPD2    H3 8401   2.059   2.005  14.341 -0.2527 -0.8257 -2.9940
  566MPD2     N 8402   2.296   1.687  14.146  0.4197  0.5313 -0.1859
  566MPD2    H5 8403   2.214   1.661  14.093  2.4542 -3.0654 -1.5579
  566MPD2    N1 8404   2.506   2.034  14.415 -0.4513 -0.5049 -0.1822
  566MPD2    H7 8405   2.498   2.131  14.444 -1.2083 -0.6637  0.1393
  567TMC3    C1 8406   2.743   2.061  14.436  0.2129 -0.6199  0.1396
  567TMC3    C2 8407   2.776   2.099  14.310 -0.7274 -0.5763  0.5449
  567TMC3    C3 8408   2.906   2.081  14.266 -0.0299  1.0139  0.3276
  567TMC3    C4 8409   2.836   2.007  14.515 -0.2101  0.7250 -0.2000
  567TMC3    C5 8410   2.961   1.978  14.466  0.1753  0.3679  0.2769
  567TMC3    C6 8411   2.999   2.018  14.344  0.2014 -0.4881  0.4220
  567TMC3     C 8412   2.626   1.973  14.426  0.3762  0.9784  0.8775
  567TMC3     O 8413   2.654   1.856  14.437  0.2115  0.1253  0.0243
  567TMC3     H 8414   2.706   2.161  14.255  1.2485  0.7887 -0.3996
  567TMC3    H1 8415   2.795   1.952  14.600  0.0698  2.7138  1.2123
  567TMC3    H2 8416   3.097   1.995  14.306 -0.8864 -1.7172 -1.6443
  567TMC3    C7 8417   3.038   1.871  14.524 -0.1252  0.4885 -0.0229
  567TMC3    C8 8418   2.941   2.124  14.129 -0.4020 -0.4499  0.3526
  567TMC3    O1 8419   3.118   1.819  14.445 -0.3459  0.0758 -0.8572
  567TMC3    O2 8420   2.859   2.206  14.091  0.0495 -0.5217  0.1365
  568MPD2     C 8421   0.770   2.088  16.406 -0.2767 -0.5523  0.3075
  568MPD2    C1 8422   0.639   2.071  16.456 -0.5427 -0.1180  0.1952
  568MPD2    C2 8423   0.543   2.161  16.397 -0.2358 -0.3549 -0.3555
  568MPD2    C3 8424   0.569   2.247  16.289 -0.6423 -0.2066  0.3462
  568MPD2    C4 8425   0.695   2.242  16.241 -0.9766 -0.0252  0.1357
  568MPD2    C5 8426   0.788   2.171  16.300  0.5162  0.1597 -0.8801
  568MPD2     H 8427   0.440   2.153  16.429  0.7680 -3.8597  1.9076
  568MPD2    H1 8428   0.730   2.303  16.158 -0.1663 -1.2313 -0.3962
  568MPD2    H2 8429   0.851   2.033  16.453 -2.0699 -1.2257  2.6004
  568MPD2    H3 8430   0.885   2.184  16.253  0.6817 -0.8302 -0.8044
  568MPD2     N 8431   0.466   2.331  16.243 -0.0830 -0.6208 -0.4027
  568MPD2    H5 8432   0.372   2.303  16.265 -0.6466  1.8178  0.3258
  568MPD2    N1 8433   0.622   1.975  16.558  0.0425 -0.5467 -0.3300
  568MPD2    H7 8434   0.703   1.929  16.596  0.5017  0.4015 -0.1616
  569TMC3    C1 8435   0.356   2.494  16.111  0.1106 -0.8193 -0.2297
  569TMC3    C2 8436   0.271   2.525  16.211  0.0564  0.0059  0.4144
  569TMC3    C3 8437   0.146   2.557  16.178  0.1924 -0.9310  0.2036
  569TMC3    C4 8438   0.328   2.514  15.975 -0.8144  0.0771  0.4384
  569TMC3    C5 8439   0.202   2.532  15.945  0.9187  0.4618  0.1139
  569TMC3    C6 8440   0.108   2.550  16.051  0.5257  0.3706  0.2776
  569TMC3     C 8441   0.483   2.430  16.143  0.5554 -0.1684 -0.1557
  569TMC3     O 8442   0.576   2.463  16.070  0.0369  0.2916 -0.0485
  569TMC3     H 8443   0.306   2.518  16.313 -0.7084 -1.2394  0.5868
  569TMC3    H1 8444   0.403   2.512  15.897 -1.9562  2.2344 -0.7142
  569TMC3    H2 8445   0.005   2.564  16.020  0.5704 -0.4993 -0.2853
  569TMC3    C7 8446   0.181   2.633  15.840  0.2738 -0.5184  0.5107
  569TMC3    C8 8447   0.076   2.659  16.247 -0.4449  0.5357  0.1776
  569TMC3    O1 8448   0.257   2.631  15.746 -0.6503 -0.1421 -0.3731
  569TMC3    O2 8449   4.706   2.711  16.191  0.3854  0.0423  0.0709
  570TMC3    C1 8450   4.385   0.760  16.157 -0.0421 -0.3466 -0.8477
  570TMC3    C2 8451   4.489   0.799  16.077 -0.3359  0.0428 -0.2297
  570TMC3    C3 8452   4.531   0.927  16.093  0.2616  0.5254  0.2931
  570TMC3    C4 8453   4.322   0.843  16.243  0.3236  0.6452  0.0783
  570TMC3    C5 8454   4.361   0.975  16.253  0.7926 -0.5874  0.6225
  570TMC3    C6 8455   4.467   1.016  16.180 -0.3627  0.4435 -0.2745
  570TMC3     C 8456   4.302   0.660  16.084 -0.2706  0.3144  0.3366
  570TMC3     O 8457   4.328   0.645  15.964  0.7429 -0.2645 -0.5926
  570TMC3     H 8458   4.527   0.746  15.990  0.4038 -1.3290  0.9263
  570TMC3    H1 8459   4.232   0.812  16.293 -0.0754  2.6754  0.6282
  570TMC3    H2 8460   4.504   1.118  16.182  0.3432  0.1880 -0.0432
  570TMC3    C7 8461   4.306   1.057  16.368 -0.4764  0.3542  1.1451
  570TMC3    C8 8462   4.614   0.996  16.000  0.4319  0.7607  0.6211
  570TMC3    O1 8463   4.230   0.994  16.442 -0.2271 -0.3351 -0.4686
  570TMC3    O2 8464   4.675   1.092  16.037 -0.5541  0.1576  0.2180
  571MPD2     C 8465   2.633   2.904  17.229  0.0439 -0.0068 -0.1854
  571MPD2    C1 8466   2.506   2.927  17.272  0.2722 -0.0684 -0.4253
  571MPD2    C2 8467   2.470   3.063  17.307 -0.3862  0.3097 -0.2182
  571MPD2    C3 8468   2.568   3.158  17.312  0.1417 -0.4934 -0.1811
  571MPD2    C4 8469   2.695   3.128  17.270  1.0170  0.0985 -0.7128
  571MPD2    C5 8470   2.728   3.002  17.232 -0.2563  0.0392 -0.5467
  571MPD2     H 8471   2.371   3.081  17.347 -0.8985 -1.6974 -0.6015
  571MPD2    H1 8472   2.771   3.205  17.258  1.5889 -0.2910  0.4713
  571MPD2    H2 8473   2.674   2.811  17.189 -0.1007  0.5707 -1.6823
  571MPD2    H3 8474   2.832   2.975  17.218 -0.2919 -0.4889  0.2146
  571MPD2     N 8475   2.533   3.285  17.361  0.4374 -0.2341  0.9097
  571MPD2    H5 8476   2.609   3.349  17.381 -1.1103  1.4218  1.4966
  571MPD2    N1 8477   2.405   2.827  17.259  0.6813  0.7531  0.4426
  571MPD2    H7 8478   2.434   2.732  17.236  0.3123  0.7521 -0.0117
  572TMC3    C1 8479   2.407   3.452  17.445  0.0566 -0.5978 -0.0339
  572TMC3    C2 8480   2.515   3.470  17.527  0.1286  0.3769  0.2395
  572TMC3    C3 8481   2.542   3.599  17.571 -0.3205  0.0446 -0.0948
  572TMC3    C4 8482   2.315   3.544  17.417  0.8895 -0.4545  0.9465
  572TMC3    C5 8483   2.338   3.671  17.469 -0.5747 -0.1938  0.0050
  572TMC3    C6 8484   2.450   3.702  17.544 -0.7991 -0.0894 -0.0744
  572TMC3     C 8485   2.404   3.328  17.365 -0.4529 -0.3681  0.0437
  572TMC3     O 8486   2.309   3.292  17.295 -0.1843 -0.2734 -0.3920
  572TMC3     H 8487   2.591   3.396  17.548  1.3196  1.4170 -0.4197
  572TMC3    H1 8488   2.248   3.522  17.334  0.2307  4.6970  0.1435
  572TMC3    H2 8489   2.472   3.801  17.582 -2.4084  0.8651 -1.5920
  572TMC3    C7 8490   2.231   3.771  17.464 -0.7722  0.0482 -0.3238
  572TMC3    C8 8491   2.670   3.628  17.627 -1.1748 -0.4559  0.2655
  572TMC3    O1 8492   2.265   3.892  17.472 -0.0826  0.1803  0.8365
  572TMC3    O2 8493   2.715   3.741  17.605 -0.1088 -0.1995  0.5627
  573MPD2     C 8494   3.839   2.892   0.943  0.2956  0.3808  0.1500
  573MPD2    C1 8495   3.757   3.002   0.950 -0.0142  0.3201  0.6073
  573MPD2    C2 8496   3.692   3.042   0.838 -0.6081  0.4898 -0.3844
  573MPD2    C3 8497   3.715   2.981   0.713  0.0968 -1.3162 -0.1911
  573MPD2    C4 8498   3.797   2.874   0.709 -0.7777 -0.4478 -0.1338
  573MPD2    C5 8499   3.859   2.824   0.825  1.0013 -0.9260  0.4447
  573MPD2     H 8500   3.632   3.132   0.839 -0.8880  0.2936  0.4710
  573MPD2    H1 8501   3.807   2.819   0.616  1.0446 -0.2947 -0.0204
  573MPD2    H2 8502   3.859   2.842   1.038 -0.2069 -0.9957 -0.4690
  573MPD2    H3 8503   3.906   2.726   0.830  0.9296 -1.0391 -1.2713
  573MPD2     N 8504   3.648   3.020   0.592 -0.3131  0.3386 -0.0171
  573MPD2    H5 8505   3.661   2.978   0.501 -0.9093 -2.4274  1.1506
  573MPD2    N1 8506   3.745   3.071   1.076 -0.2076  0.0333 -0.0741
  573MPD2    H7 8507   3.786   3.026   1.157  2.4777  1.2629 -0.7450
  574TMC3    C1 8508   3.534   3.156   0.454 -0.2204  0.5182  0.1785
  574TMC3    C2 8509   3.399   3.159   0.422 -0.2269 -0.4421 -0.1603
  574TMC3    C3 8510   3.363   3.200   0.299 -0.1039  0.5456  0.6070
  574TMC3    C4 8511   3.635   3.168   0.368  0.8168  0.0661  0.2786
  574TMC3    C5 8512   3.599   3.193   0.243  0.0981 -0.0757  0.6015
  574TMC3    C6 8513   3.466   3.220   0.215  0.2061 -0.1250  0.0644
  574TMC3     C 8514   3.559   3.128   0.588  0.2790 -0.5795 -0.1463
  574TMC3     O 8515   3.518   3.203   0.676 -0.2425 -0.4285  0.0068
  574TMC3     H 8516   3.333   3.141   0.506  0.7554 -1.4883  0.3890
  574TMC3    H1 8517   3.740   3.160   0.396  0.1480 -3.3202  1.8475
  574TMC3    H2 8518   3.447   3.267   0.120 -1.2520 -0.2349  0.3031
  574TMC3    C7 8519   3.690   3.291   0.192  0.2022  0.2693 -0.3225
  574TMC3    C8 8520   3.227   3.168   0.255  0.1896 -0.2192  0.0037
  574TMC3    O1 8521   3.774   3.345   0.266 -0.2691 -0.1528  0.0067
  574TMC3    O2 8522   3.157   3.092   0.322 -0.3988  0.1876  0.3347
  575TMC3    C1 8523   1.462   3.765  10.711  0.3457  0.2609 -0.0741
  575TMC3    C2 8524   1.380   3.658  10.700  0.3375  0.0196 -0.0950
  575TMC3    C3 8525   1.324   3.636  10.575 -0.2622  0.2231  0.3469
  575TMC3    C4 8526   1.497   3.843  10.606 -0.7395  0.1094 -0.3602
  575TMC3    C5 8527   1.450   3.804  10.484  0.0970  0.2216 -0.9742
  575TMC3    C6 8528   1.360   3.706  10.465 -0.0514  0.4203 -0.3993
  575TMC3     C 8529   1.510   3.791  10.847  0.1246 -0.2221  0.4514
  575TMC3     O 8530   1.505   3.701  10.932  0.2603 -0.1802  0.1775
  575TMC3     H 8531   1.363   3.597  10.788 -0.5479  0.4455  0.0242
  575TMC3    H1 8532   1.566   3.926  10.618  0.0022 -0.5306 -0.1714
  575TMC3    H2 8533   1.326   3.684  10.365  2.1298 -2.7183 -0.4546
  575TMC3    C7 8534   1.495   3.892  10.382 -0.6068 -0.6843 -0.9604
  575TMC3    C8 8535   1.251   3.515  10.554 -1.0294  0.4421 -0.4000
  575TMC3    O1 8536   1.552   3.991  10.421 -0.2791 -0.1622  0.1840
  575TMC3    O2 8537   1.169   3.511  10.458  0.2495 -0.0122  0.3044
  576MPD2     C 8538   1.618   0.836  12.624 -0.4126 -0.2033 -0.6508
  576MPD2    C1 8539   1.558   0.938  12.567 -0.1829 -0.2094 -0.6902
  576MPD2    C2 8540   1.594   1.070  12.600 -0.6650  0.0135  0.8779
  576MPD2    C3 8541   1.694   1.101  12.684  0.8783 -0.0487 -0.2614
  576MPD2    C4 8542   1.742   0.990  12.759 -0.1417  0.0828  0.1894
  576MPD2    C5 8543   1.708   0.860  12.723 -0.1803 -0.3178 -0.0036
  576MPD2     H 8544   1.562   1.151  12.536  0.5682  0.7788  1.2286
  576MPD2    H1 8545   1.831   1.003  12.820  0.3901 -0.1449 -0.5427
  576MPD2    H2 8546   1.595   0.732  12.602 -1.0171  0.0907 -1.4085
  576MPD2    H3 8547   1.753   0.775  12.773 -0.0661 -1.9094 -2.8052
  576MPD2     N 8548   1.741   1.234  12.690 -0.2116  0.3282  0.1990
  576MPD2    H5 8549   1.693   1.293  12.623 -1.8809 -2.1695 -0.8288
  576MPD2    N1 8550   1.472   0.918  12.460 -0.2644  0.1177 -0.9346
  576MPD2    H7 8551   1.451   1.000  12.405  0.4871  1.3381  0.6051
  577TMC3    C1 8552   1.336   0.797  12.300  0.2583  0.0284  0.1523
  577TMC3    C2 8553   1.341   0.675  12.237  0.1699  0.1602  0.0889
  577TMC3    C3 8554   1.317   0.671  12.104 -0.2712 -0.4822 -0.7252
  577TMC3    C4 8555   1.304   0.915  12.237 -0.1743 -0.0864  0.6459
  577TMC3    C5 8556   1.290   0.904  12.104 -0.2025 -0.1702 -0.5551
  577TMC3    C6 8557   1.290   0.782  12.034  0.2892  0.0393  0.8528
  577TMC3     C 8558   1.409   0.802  12.425  0.0230 -0.3102 -0.6266
  577TMC3     O 8559   1.418   0.691  12.477 -0.0777  0.0578  0.4300
  577TMC3     H 8560   1.379   0.581  12.274 -0.7680  0.4565  1.8232
  577TMC3    H1 8561   1.329   1.010  12.282  0.7415  0.5084 -1.1149
  577TMC3    H2 8562   1.285   0.782  11.926 -0.7388  0.1965  0.8941
  577TMC3    C7 8563   1.299   1.027  12.029  0.2400  0.7949  0.0049
  577TMC3    C8 8564   1.374   0.552  12.041  0.5985 -0.0093  0.1736
  577TMC3    O1 8565   1.385   1.108  12.072 -0.1111  0.0301  0.3565
  577TMC3    O2 8566   1.387   0.449  12.107  0.0125  0.2648 -0.0472
  578MPD2     C 8567   4.132   1.766   0.698 -1.2178 -0.5350  0.0267
  578MPD2    C1 8568   4.157   1.762   0.832  0.0411 -0.1210  0.3860
  578MPD2    C2 8569   4.144   1.643   0.902  0.4923  0.5237  0.3545
  578MPD2    C3 8570   4.125   1.523   0.835 -0.1786  0.7638  0.1101
  578MPD2    C4 8571   4.094   1.534   0.698 -0.1010 -0.2202 -0.1224
  578MPD2    C5 8572   4.088   1.655   0.634  0.7681 -0.0275  0.5035
  578MPD2     H 8573   4.160   1.629   1.008 -0.1301  0.6454  0.4656
  578MPD2    H1 8574   4.066   1.447   0.640 -0.5041  1.1506 -1.9588
  578MPD2    H2 8575   4.142   1.860   0.644 -1.0410 -0.3024  0.4589
  578MPD2    H3 8576   4.070   1.640   0.528 -3.5311  0.1000  1.2035
  578MPD2     N 8577   4.145   1.402   0.904  0.2325 -0.6803 -0.0670
  578MPD2    H5 8578   4.171   1.403   1.002 -2.3717  0.1016  0.6139
  578MPD2    N1 8579   4.204   1.874   0.900  0.1126  0.4318 -0.1347
  578MPD2    H7 8580   4.220   1.956   0.841  1.0193  2.0088  2.3124
  579TMC3    C1 8581   4.187   1.178   0.919 -0.5800 -0.1277  0.8027
  579TMC3    C2 8582   4.290   1.210   1.000 -0.0743  0.1700 -0.1703
  579TMC3    C3 8583   4.351   1.113   1.071 -0.3942 -0.2801 -0.0149
  579TMC3    C4 8584   4.153   1.048   0.894  0.1360 -0.6648  0.8088
  579TMC3    C5 8585   4.214   0.956   0.979  0.6740 -0.0051  0.0854
  579TMC3    C6 8586   4.317   0.985   1.068 -0.7770  0.0892  0.7704
  579TMC3     C 8587   4.128   1.282   0.843 -0.4230 -0.4616  0.9583
  579TMC3     O 8588   4.059   1.248   0.747 -0.2201  0.4028  0.4547
  579TMC3     H 8589   4.330   1.310   1.013  0.5791 -0.1465  0.2513
  579TMC3    H1 8590   4.085   1.022   0.813 -1.5726  2.1372  1.3740
  579TMC3    H2 8591   4.362   0.912   1.135 -0.9329  1.1435  2.0181
  579TMC3    C7 8592   4.200   0.814   0.944 -0.5451 -0.5213  0.0808
  579TMC3    C8 8593   4.448   1.161   1.171 -0.6568 -0.0582 -0.3968
  579TMC3    O1 8594   4.297   0.741   0.962  0.1470 -0.3547  0.2767
  579TMC3    O2 8595   4.449   1.087   1.273  0.2284 -0.4776 -0.0822
  580TMC3    C1 8596   3.949   0.101  11.493  0.2048 -0.3264  0.2857
  580TMC3    C2 8597   4.025   0.217  11.478  0.5334  0.5127  0.8440
  580TMC3    C3 8598   4.098   0.260  11.581 -1.0303  0.4146  0.2494
  580TMC3    C4 8599   3.945   0.045  11.621  0.5572 -0.3289  0.1487
  580TMC3    C5 8600   4.023   0.098  11.725  0.4418  0.1413 -0.2148
  580TMC3    C6 8601   4.093   0.209  11.710  0.6943 -0.2648 -0.2098
  580TMC3     C 8602   3.834   0.081  11.404  0.0899  0.0159 -0.2317
  580TMC3     O 8603   3.742   0.017  11.446  0.2116 -0.4873 -0.4097
  580TMC3     H 8604   4.044   0.267  11.383 -2.5386  1.2272  0.6197
  580TMC3    H1 8605   3.884   4.683  11.641 -2.2869  1.3635 -1.1413
  580TMC3    H2 8606   4.150   0.261  11.786  2.4574 -0.5891 -1.3156
  580TMC3    C7 8607   4.056   0.017  11.841 -0.9978  0.0932  0.2115
  580TMC3    C8 8608   4.201   0.364  11.552  0.2022  0.2148 -0.1537
  580TMC3    O1 8609   4.081   0.074  11.945  0.7289 -0.1816 -0.0099
  580TMC3    O2 8610   4.215   0.451  11.632  0.5475  0.9895  0.1200
  581MPD2     C 8611   1.424   0.138  14.619 -0.1293  0.6199 -0.0023
  581MPD2    C1 8612   1.322   0.057  14.677  0.5857 -0.1316  0.3514
  581MPD2    C2 8613   1.200   0.117  14.711 -0.0423  0.7934  0.6845
  581MPD2    C3 8614   1.167   0.245  14.673 -0.5685  0.1376  0.1042
  581MPD2    C4 8615   1.268   0.318  14.617  0.1977 -0.5034  0.3185
  581MPD2    C5 8616   1.396   0.265  14.599  0.4838  0.4394  0.2411
  581MPD2     H 8617   1.117   0.057  14.747  1.3326  0.3420  3.0684
  581MPD2    H1 8618   1.256   0.423  14.592 -2.5862 -0.4103  2.0413
  581MPD2    H2 8619   1.521   0.095  14.595  0.0980 -0.1090  2.2895
  581MPD2    H3 8620   1.470   0.336  14.564 -0.2570  1.7075  1.2136
  581MPD2     N 8621   1.029   0.289  14.691  0.1341  0.0038  0.0330
  581MPD2    H5 8622   0.957   0.231  14.735  1.4967 -0.6193  1.4281
  581MPD2    N1 8623   1.364   4.659  14.730  0.1646 -0.6200 -0.3384
  581MPD2    H7 8624   1.454   4.620  14.703  1.5243  1.1051  1.7265
  582TMC3    C1 8625   1.350   4.449  14.830  0.0739  0.0631  0.2000
  582TMC3    C2 8626   1.462   4.448  14.899  0.1161  0.5109 -0.3236
  582TMC3    C3 8627   1.495   4.339  14.978 -0.5194 -0.3807 -0.6528
  582TMC3    C4 8628   1.266   4.347  14.837  0.1031 -0.4043  0.1638
  582TMC3    C5 8629   1.300   4.234  14.905 -0.0047 -0.1340 -1.1298
  582TMC3    C6 8630   1.413   4.226  14.974 -0.9288  0.2883 -0.0767
  582TMC3     C 8631   1.289   4.577  14.815 -0.0273  0.2712  0.0334
  582TMC3     O 8632   1.181   4.578  14.868  0.5293  0.1904 -0.1841
  582TMC3     H 8633   1.521   4.538  14.911  2.4464 -1.0227 -0.2414
  582TMC3    H1 8634   1.169   4.365  14.792 -0.7643 -3.0551  0.9181
  582TMC3    H2 8635   1.422   4.144  15.044  1.2752 -1.6689 -2.6250
  582TMC3    C7 8636   1.189   4.192  14.991  0.1216 -0.0528  0.2258
  582TMC3    C8 8637   1.512   4.391  15.112 -0.2065 -0.6300  0.1678
  582TMC3    O1 8638   1.168   4.075  15.017 -0.2933  0.3867 -0.0769
  582TMC3    O2 8639   1.435   4.478  15.146 -0.2797 -0.8744 -0.5101
  583MPD2     C 8640   1.555   1.354  16.538 -0.4052 -0.3063  1.1885
  583MPD2    C1 8641   1.642   1.454  16.552  0.3629  0.7238 -0.1935
  583MPD2    C2 8642   1.580   1.579  16.584 -0.6714 -0.3886 -0.6816
  583MPD2    C3 8643   1.451   1.588  16.632 -0.5592 -0.3981  0.1107
  583MPD2    C4 8644   1.369   1.478  16.630  0.5441 -0.9100  0.2873
  583MPD2    C5 8645   1.424   1.363  16.586 -0.4352  0.5426  0.4144
  583MPD2     H 8646   1.638   1.670  16.593 -0.8952 -0.2385 -0.7626
  583MPD2    H1 8647   1.265   1.487  16.660  0.1462  0.4243 -1.4567
  583MPD2    H2 8648   1.591   1.256  16.510  0.5065  0.3750 -0.0332
  583MPD2    H3 8649   1.364   1.272  16.589 -0.8299  0.7329 -2.4961
  583MPD2     N 8650   1.405   1.713  16.691  0.2419  0.0517  0.8527
  583MPD2    H5 8651   1.457   1.795  16.661  1.8445 -0.1433  3.0985
  583MPD2    N1 8652   1.775   1.461  16.510 -0.0328 -0.5008 -0.3521
  583MPD2    H7 8653   1.820   1.552  16.518 -1.7486  0.3079  0.0048
  584TMC3    C1 8654   1.286   1.861  16.822  0.1514 -0.0113 -0.0884
  584TMC3    C2 8655   1.305   1.959  16.730 -0.1934  0.0002  0.9340
  584TMC3    C3 8656   1.321   2.089  16.776 -0.4182 -0.2078  0.2285
  584TMC3    C4 8657   1.301   1.891  16.961  0.3693 -0.0860  0.1720
  584TMC3    C5 8658   1.305   2.023  17.001 -0.9131  0.1706  0.1822
  584TMC3    C6 8659   1.324   2.117  16.905  0.7233 -0.3114  0.8870
  584TMC3     C 8660   1.309   1.720  16.785 -0.2585 -0.4860 -0.3335
  584TMC3     O 8661   1.235   1.638  16.829 -0.1930  0.8059 -0.4940
  584TMC3     H 8662   1.301   1.933  16.625  0.4196  3.6203  0.0172
  584TMC3    H1 8663   1.283   1.808  17.028 -0.2711 -0.0622  0.0263
  584TMC3    H2 8664   1.364   2.215  16.928 -1.3653  0.5047  1.1111
  584TMC3    C7 8665   1.350   2.045  17.130  0.2467 -0.1856 -0.4197
  584TMC3    C8 8666   1.394   2.172  16.678  0.1172  0.1389 -0.6625
  584TMC3    O1 8667   1.379   1.944  17.195  0.1113  0.4629 -0.0985
  584TMC3    O2 8668   1.428   2.126  16.567 -0.1363 -0.3777  0.3263
  585MPD2     C 8669   0.409   1.401   0.253 -0.3758  0.6850  0.8917
  585MPD2    C1 8670   0.505   1.344   0.176 -0.1171  0.5949  0.0925
  585MPD2    C2 8671   0.527   1.208   0.185 -0.0849  0.1725  0.3620
  585MPD2    C3 8672   0.447   1.134   0.270  0.0524  0.8527  0.3976
  585MPD2    C4 8673   0.363   1.206   0.354 -0.0337  0.1967 -0.5005
  585MPD2    C5 8674   0.338   1.334   0.350  0.3107  0.6189  0.0151
  585MPD2     H 8675   0.606   1.161   0.127  0.2784 -0.9687  1.7445
  585MPD2    H1 8676   0.296   1.157   0.422 -1.4128  0.7159 -1.4868
  585MPD2    H2 8677   0.393   1.509   0.250 -0.5371  0.6782  1.4883
  585MPD2    H3 8678   0.266   1.370   0.423 -0.7921  1.2525 -1.3988
  585MPD2     N 8679   0.455   1.001   0.288 -1.1956  0.3819  0.8478
  585MPD2    H5 8680   0.397   0.958   0.360 -2.0702 -2.1066 -1.3261
  585MPD2    N1 8681   0.576   1.431   0.090  0.0442  0.2215 -0.8163
  585MPD2    H7 8682   0.544   1.527   0.096  0.3236  0.2466  0.4063
  586TMC3    C1 8683   0.493   0.773   0.217 -0.0921  0.6150 -1.2006
  586TMC3    C2 8684   0.579   0.678   0.171 -0.6872  0.1044 -0.4577
  586TMC3    C3 8685   0.546   0.542   0.178  0.5547 -0.3844  0.4845
  586TMC3    C4 8686   0.366   0.745   0.250  0.7036 -0.1147 -0.5706
  586TMC3    C5 8687   0.330   0.612   0.253  0.5466 -0.0838 -0.6727
  586TMC3    C6 8688   0.419   0.518   0.217 -0.2164  0.2563 -0.2338
  586TMC3     C 8689   0.533   0.916   0.209 -0.4497 -0.2305 -0.2665
  586TMC3     O 8690   0.619   0.940   0.125  0.2450 -0.3459 -0.4346
  586TMC3     H 8691   0.681   0.702   0.143 -0.5346  1.1722  1.0265
  586TMC3    H1 8692   0.289   0.820   0.266  1.1762  0.4698 -1.0264
  586TMC3    H2 8693   0.386   0.415   0.216  2.6173 -0.6470 -1.3481
  586TMC3    C7 8694   0.190   0.573   0.224 -0.2600  0.2536 -0.7904
  586TMC3    C8 8695   0.600   0.469   0.067 -0.3622 -0.0959  0.1668
  586TMC3    O1 8696   0.165   0.494   0.136  0.1774  0.2574 -1.0069
  586TMC3    O2 8697   0.598   0.349   0.089 -0.0366 -0.2903 -0.5672
  587TMC3    C1 8698   3.069   3.732  16.418 -0.0688 -0.6239  0.2877
  587TMC3    C2 8699   3.024   3.869  16.424  0.2344 -0.8767 -0.3677
  587TMC3    C3 8700   3.124   3.965  16.437  0.3771  0.0836 -0.4533
  587TMC3    C4 8701   3.203   3.712  16.425 -0.2345  0.2685 -0.3191
  587TMC3    C5 8702   3.296   3.815  16.427  0.9793  0.9287 -0.0837
  587TMC3    C6 8703   3.257   3.941  16.441 -0.0719  0.6851 -0.1751
  587TMC3     C 8704   2.981   3.618  16.392  0.2103  0.0916  0.6545
  587TMC3     O 8705   3.030   3.525  16.327 -0.2842  0.3893  0.4137
  587TMC3     H 8706   2.920   3.899  16.413  1.0915  1.0881 -3.0533
  587TMC3    H1 8707   3.246   3.612  16.424  0.7937  0.6960  1.4509
  587TMC3    H2 8708   3.322   4.028  16.448  1.6018 -0.4378 -1.5940
  587TMC3    C7 8709   3.434   3.774  16.433 -0.4124  0.3790  0.0472
  587TMC3    C8 8710   3.079   4.092  16.393 -0.8612 -0.7327  0.1162
  587TMC3    O1 8711   3.462   3.658  16.468  0.5248  0.2621 -0.5864
  587TMC3    O2 8712   3.124   4.127  16.289 -0.7003 -0.2118  0.9625
  588TMC3    C1 8713   1.023   2.011   9.748 -0.0221  0.2242 -0.1986
  588TMC3    C2 8714   0.986   1.881   9.757 -0.4808 -0.4750 -0.0048
  588TMC3    C3 8715   1.085   1.799   9.798  0.2988 -0.5620 -0.2620
  588TMC3    C4 8716   1.155   2.045   9.748  0.4156 -0.3921  0.6422
  588TMC3    C5 8717   1.251   1.953   9.773  0.2506  0.5051 -0.2794
  588TMC3    C6 8718   1.221   1.828   9.813 -0.2126 -0.4667 -0.3687
  588TMC3     C 8719   0.923   2.117   9.766 -0.2492  0.6496  0.2019
  588TMC3     O 8720   0.824   2.118   9.694 -0.3143  0.0712  0.0721
  588TMC3     H 8721   0.885   1.849   9.738 -0.2256 -0.4463 -1.4160
  588TMC3    H1 8722   1.168   2.148   9.718  1.8549 -0.5186  0.8598
  588TMC3    H2 8723   1.298   1.755   9.836 -0.1174 -0.4209 -0.5390
  588TMC3    C7 8724   1.388   1.998   9.756 -0.5265 -0.0553  0.0850
  588TMC3    C8 8725   1.049   1.657   9.807 -1.2575 -0.5366 -0.2863
  588TMC3    O1 8726   1.467   1.934   9.688 -0.0203  0.4375 -0.4074
  588TMC3    O2 8727   0.940   1.628   9.766  0.1969 -0.1002 -0.5093
  589TMC3    C1 8728   3.982   4.125   1.138  0.7647 -0.0706  1.0595
  589TMC3    C2 8729   4.049   4.142   1.258 -0.4918  0.6475 -0.3936
  589TMC3    C3 8730   4.146   4.046   1.285 -0.1184 -0.0902  0.1994
  589TMC3    C4 8731   4.010   4.022   1.047 -0.1119 -0.3076 -0.0360
  589TMC3    C5 8732   4.114   3.936   1.078  0.1639 -0.4589  0.2086
  589TMC3    C6 8733   4.172   3.945   1.197 -0.5283  1.1622 -0.6018
  589TMC3     C 8734   3.886   4.225   1.099  0.2827  0.0185  0.7250
  589TMC3     O 8735   3.813   4.198   1.000 -0.1521 -0.5652  0.2122
  589TMC3     H 8736   4.024   4.220   1.330 -0.3230 -0.8987  1.3360
  589TMC3    H1 8737   3.954   4.028   0.955 -0.7282  0.7845  0.4099
  589TMC3    H2 8738   4.236   3.862   1.227 -1.3105  1.1285  1.0125
  589TMC3    C7 8739   4.139   3.817   1.000 -0.3698 -0.1319  0.3825
  589TMC3    C8 8740   4.227   4.076   1.405  0.3241 -0.4952  0.3355
  589TMC3    O1 8741   4.226   3.746   1.041  0.1286  0.2864  0.1241
  589TMC3    O2 8742   4.182   4.153   1.486 -0.9907 -0.1965 -0.2202
  590MPD2     C 8743   3.467   2.508  16.293 -0.1841 -0.4148  0.6154
  590MPD2    C1 8744   3.477   2.646  16.289 -0.4216 -0.5729 -0.1128
  590MPD2    C2 8745   3.608   2.704  16.288 -0.2909 -0.0062 -0.2609
  590MPD2    C3 8746   3.721   2.635  16.308 -0.3336 -0.1863 -0.1294
  590MPD2    C4 8747   3.711   2.492  16.314 -0.4899  1.0769  0.1939
  590MPD2    C5 8748   3.585   2.439  16.319 -0.2154 -0.3026 -0.1743
  590MPD2     H 8749   3.621   2.810  16.270 -1.5316  0.2491  0.3403
  590MPD2    H1 8750   3.789   2.420  16.335 -1.7868 -1.0352 -2.3460
  590MPD2    H2 8751   3.371   2.459  16.303 -0.2633 -0.5877 -0.9455
  590MPD2    H3 8752   3.573   2.336  16.348 -2.3313  0.6230  2.2131
  590MPD2     N 8753   3.846   2.703  16.284 -0.0616  0.1842  0.2116
  590MPD2    H5 8754   3.851   2.800  16.257  0.1744  0.1725  0.2096
  590MPD2    N1 8755   3.362   2.725  16.279  0.1312 -0.6700  0.4190
  590MPD2    H7 8756   3.273   2.678  16.269  0.1515 -1.1515  2.4017
  591TMC3    C1 8757   4.076   2.726  16.247 -0.5479 -0.7957  0.8175
  591TMC3    C2 8758   4.163   2.671  16.154  0.2340  0.0307 -0.5347
  591TMC3    C3 8759   4.205   2.756  16.057 -0.4460 -0.0399  0.2729
  591TMC3    C4 8760   4.046   2.860  16.241 -0.0158  0.2310 -0.4026
  591TMC3    C5 8761   4.095   2.950  16.152 -0.2304 -0.3170  0.1247
  591TMC3    C6 8762   4.186   2.895  16.059  0.5859 -0.4598 -0.0173
  591TMC3     C 8763   3.968   2.642  16.298 -0.3449 -0.4200  0.1333
  591TMC3     O 8764   3.993   2.522  16.305  0.5857  0.1531 -0.4618
  591TMC3     H 8765   4.184   2.565  16.147 -0.3566 -0.0672 -0.8007
  591TMC3    H1 8766   3.980   2.899  16.318  0.2524  0.2283 -0.1746
  591TMC3    H2 8767   4.223   2.958  15.978 -1.5354 -0.6609 -1.1340
  591TMC3    C7 8768   4.014   3.068  16.120  0.5753  0.0129 -0.4406
  591TMC3    C8 8769   4.267   2.688  15.945  0.6970 -0.0419 -0.0032
  591TMC3    O1 8770   3.904   3.086  16.177  0.9030  0.3672 -0.3257
  591TMC3    O2 8771   4.310   2.574  15.956 -0.7858 -0.4371 -0.4938
  592MPD2     C 8772   0.085   3.990  11.471  0.4103 -1.0326 -0.1523
  592MPD2    C1 8773   0.036   4.067  11.574 -0.8219  0.2264 -0.4102
  592MPD2    C2 8774   4.697   3.997  11.672  0.4631 -0.2449  0.4134
  592MPD2    C3 8775   4.678   3.862  11.667 -0.3457 -0.4953 -0.1026
  592MPD2    C4 8776   4.723   3.788  11.558  0.3953 -0.6904 -0.2979
  592MPD2    C5 8777   0.059   3.856  11.465  0.3943 -0.7936  0.4503
  592MPD2     H 8778   4.660   4.044  11.762  1.5890  4.2222 -1.4263
  592MPD2    H1 8779   4.722   3.680  11.549 -0.2174 -0.3939 -3.8969
  592MPD2    H2 8780   0.142   4.030  11.387  1.3645  0.2966  1.1235
  592MPD2    H3 8781   0.107   3.805  11.382 -0.6420 -0.3794 -0.4035
  592MPD2     N 8782   4.604   3.804  11.775  0.2268  0.4400 -0.5882
  592MPD2    H5 8783   4.555   3.870  11.836 -1.5532  0.2263 -1.7927
  592MPD2    N1 8784   0.055   4.204  11.577 -0.3583 -0.0274 -0.0130
  592MPD2    H7 8785   0.111   4.249  11.505  2.0070  0.5660  2.2194
  593TMC3    C1 8786   0.121   4.410  11.682  0.1412 -0.0371  0.5034
  593TMC3    C2 8787   0.092   4.495  11.789 -0.6640 -0.5067 -0.9269
  593TMC3    C3 8788   0.175   4.601  11.810 -0.4122 -0.0434  0.3601
  593TMC3    C4 8789   0.220   4.431  11.596 -1.1505  0.0310  0.4990
  593TMC3    C5 8790   0.289   4.546  11.619 -0.0719 -0.5939  0.0503
  593TMC3    C6 8791   0.272   4.632  11.725 -0.0640  0.4297 -0.2248
  593TMC3     C 8792   0.039   4.285  11.684  0.2141 -0.1578  0.2654
  593TMC3     O 8793   4.704   4.263  11.784  0.0240 -0.0702 -0.2756
  593TMC3     H 8794   0.004   4.481  11.851  0.4796  3.4916  1.6034
  593TMC3    H1 8795   0.224   4.374  11.504  1.1046 -0.7294  1.0675
  593TMC3    H2 8796   0.336   4.719  11.724  1.4310 -0.6629  0.9031
  593TMC3    C7 8797   0.355   4.613  11.501 -0.6121  0.5492  0.3132
  593TMC3    C8 8798   0.108   4.703  11.877  0.2333  0.2542 -0.4749
  593TMC3    O1 8799   0.349   0.010  11.495  0.4502 -0.0697  0.1743
  593TMC3    O2 8800   4.711   4.691  11.883 -0.2259  0.3758 -0.3669
  594MPD2     C 8801   3.294   2.962  14.451 -0.3531 -0.5020 -0.2679
  594MPD2    C1 8802   3.214   3.042  14.369  0.3973 -0.5657 -0.3015
  594MPD2    C2 8803   3.279   3.152  14.305  0.2553 -0.5095  0.5330
  594MPD2    C3 8804   3.419   3.174  14.327 -0.2241  0.1159  0.6578
  594MPD2    C4 8805   3.487   3.085  14.404 -0.3955  0.0280  0.7229
  594MPD2    C5 8806   3.427   2.982  14.468  0.0409  0.0823 -0.5354
  594MPD2     H 8807   3.221   3.216  14.238 -1.4372 -1.9057  0.6689
  594MPD2    H1 8808   3.590   3.102  14.434  0.0408 -1.8249  0.2562
  594MPD2    H2 8809   3.251   2.866  14.478 -0.8785 -0.2905 -0.3559
  594MPD2    H3 8810   3.489   2.924  14.535 -1.4717 -1.1090 -0.1588
  594MPD2     N 8811   3.478   3.280  14.255 -0.0169  0.4939 -0.0848
  594MPD2    H5 8812   3.413   3.344  14.210  0.3970  0.4592 -0.7325
  594MPD2    N1 8813   3.078   3.005  14.363  0.2533 -0.3462  0.1368
  594MPD2    H7 8814   3.055   2.922  14.417 -0.7517 -0.4029 -0.3804
  595TMC3    C1 8815   3.801   3.554  14.047 -0.6310  0.2714 -0.7727
  595TMC3    C2 8816   3.766   3.433  14.113 -0.2317  0.4271 -0.0720
  595TMC3    C3 8817   3.638   3.417  14.162  0.3480  0.2514 -0.4915
  595TMC3    C4 8818   3.708   3.652  14.029 -0.3174  0.1817  0.9917
  595TMC3    C5 8819   3.581   3.637  14.067  0.9060 -0.2305 -0.2973
  595TMC3    C6 8820   3.545   3.517  14.127 -0.2350  0.1387  0.1303
  595TMC3     C 8821   3.932   3.609  14.083 -0.2608 -0.0218  0.1740
  595TMC3     O 8822   3.995   3.558  14.175  0.7796  0.0929  0.1248
  595TMC3     H 8823   3.847   3.369  14.146  0.8688  0.9272 -1.8165
  595TMC3    H1 8824   3.732   3.730  13.957 -0.7352 -0.9065 -0.3319
  595TMC3    H2 8825   3.448   3.507  14.174  0.6387 -2.9287  1.2393
  595TMC3    C7 8826   3.515   3.761  14.104 -0.6054 -0.0962  0.2853
  595TMC3    C8 8827   3.611   3.309  14.250  0.0756 -0.1271 -0.2241
  595TMC3    O1 8828   3.421   3.758  14.181 -0.0865  0.4507  0.1721
  595TMC3    O2 8829   3.705   3.247  14.299 -0.0478  0.3005  0.4137
  596MPD2     C 8830   2.674   1.501  16.454  1.0720  0.4879 -0.1713
  596MPD2    C1 8831   2.675   1.621  16.376  0.9330  0.3374 -0.0955
  596MPD2    C2 8832   2.652   1.611  16.244 -0.7129 -0.0682  0.6285
  596MPD2    C3 8833   2.617   1.492  16.180 -0.0576  0.6098 -0.2897
  596MPD2    C4 8834   2.610   1.381  16.259  0.5073 -0.9168 -0.6565
  596MPD2    C5 8835   2.633   1.388  16.390 -0.2723  0.3896 -0.7308
  596MPD2     H 8836   2.658   1.702  16.184  1.4529 -0.0117  0.9613
  596MPD2    H1 8837   2.561   1.290  16.224 -0.4831 -0.4861 -0.3884
  596MPD2    H2 8838   2.706   1.491  16.557  0.0156  1.2759  0.2381
  596MPD2    H3 8839   2.593   1.309  16.452 -0.0871  0.1903 -0.8637
  596MPD2     N 8840   2.578   1.482  16.045  0.1407  0.1490  0.1373
  596MPD2    H5 8841   2.563   1.386  16.015  3.2755 -0.4962  0.6129
  596MPD2    N1 8842   2.706   1.747  16.432  0.5570  0.6780 -0.0537
  596MPD2    H7 8843   2.732   1.823  16.370 -0.0121  1.8195  1.1098
  597TMC3    C1 8844   2.689   1.924  16.590  0.4426 -0.4417  0.0184
  597TMC3    C2 8845   2.735   2.020  16.503  0.4134 -0.0863 -0.0704
  597TMC3    C3 8846   2.695   2.149  16.528  0.3266 -0.0310 -0.1133
  597TMC3    C4 8847   2.601   1.946  16.684 -0.6240  0.0397 -0.1745
  597TMC3    C5 8848   2.565   2.074  16.712  0.6534  0.1979  0.2168
  597TMC3    C6 8849   2.610   2.174  16.636  0.3040  1.0352  0.2728
  597TMC3     C 8850   2.698   1.776  16.568  0.3420  0.0529  0.7378
  597TMC3     O 8851   2.682   1.704  16.660 -0.0369 -0.8025  0.1569
  597TMC3     H 8852   2.806   1.994  16.425 -1.9992 -1.6844 -1.7310
  597TMC3    H1 8853   2.561   1.858  16.733  1.4494  0.4242  2.2164
  597TMC3    H2 8854   2.609   2.280  16.661 -2.5992  1.6291 -2.4427
  597TMC3    C7 8855   2.491   2.094  16.831  0.1430  0.3242  0.4811
  597TMC3    C8 8856   2.779   2.253  16.500 -0.1676  0.2201 -0.0466
  597TMC3    O1 8857   2.459   2.000  16.901 -0.1424 -0.3746 -0.4292
  597TMC3    O2 8858   2.892   2.248  16.555 -0.2565 -0.6024  0.3319
  598TMC3    C1 8859   0.576   3.142  15.298 -0.3317  0.5584 -1.0663
  598TMC3    C2 8860   0.453   3.075  15.314  0.0802  0.2053 -0.2251
  598TMC3    C3 8861   0.393   3.015  15.213  0.4104  0.4330 -0.2860
  598TMC3    C4 8862   0.638   3.166  15.177 -0.7885 -0.2512  0.1865
  598TMC3    C5 8863   0.569   3.109  15.073 -0.6259  0.2371 -0.6109
  598TMC3    C6 8864   0.450   3.036  15.089 -0.2612 -0.4702 -0.2422
  598TMC3     C 8865   0.608   3.240  15.403  0.1515  0.7461 -0.6020
  598TMC3     O 8866   0.722   3.282  15.397  0.9465 -0.1769 -0.4239
  598TMC3     H 8867   0.412   3.063  15.414  1.3173  0.1991  0.2878
  598TMC3    H1 8868   0.734   3.215  15.172 -1.9877  2.0126 -0.4999
  598TMC3    H2 8869   0.406   3.004  14.995 -2.0251  1.4754 -0.0956
  598TMC3    C7 8870   0.597   3.149  14.934  0.2374 -0.0270 -0.6729
  598TMC3    C8 8871   0.261   2.957  15.222 -0.6566  0.1961 -0.1315
  598TMC3    O1 8872   0.558   3.083  14.840  0.6885  0.5867  0.2669
  598TMC3    O2 8873   0.201   2.973  15.327  0.0168  0.2987  0.3675
  599MPD2     C 8874   0.654   0.485  15.824 -0.7359  0.1015  0.1463
  599MPD2    C1 8875   0.610   0.360  15.791  0.0421 -0.0780  0.3597
  599MPD2    C2 8876   0.472   0.339  15.806  0.1179 -0.2050  0.0780
  599MPD2    C3 8877   0.386   0.446  15.837 -0.4881  1.1823 -0.0592
  599MPD2    C4 8878   0.430   0.570  15.852 -0.6152 -0.0782 -0.2340
  599MPD2    C5 8879   0.570   0.586  15.842 -0.2240  0.3443  0.0564
  599MPD2     H 8880   0.421   0.247  15.781  1.1125 -0.5066 -0.8109
  599MPD2    H1 8881   0.363   0.650  15.883 -0.4247 -1.0900  2.8537
  599MPD2    H2 8882   0.760   0.506  15.809 -1.4785  2.3488 -2.0167
  599MPD2    H3 8883   0.621   0.677  15.871 -0.0235  0.2859 -0.1145
  599MPD2     N 8884   0.255   0.428  15.891 -0.0830  0.0139 -0.8657
  599MPD2    H5 8885   0.206   0.509  15.927  1.1536  1.0585 -1.5478
  599MPD2    N1 8886   0.707   0.261  15.769  0.0287 -0.2859 -0.4240
  599MPD2    H7 8887   0.803   0.295  15.762 -0.1169 -0.1490 -1.7783
  600TMC3    C1 8888   0.051   0.322  15.950 -0.3854  0.4807  0.5709
  600TMC3    C2 8889   4.675   0.243  15.909 -0.5813 -0.8021  0.4884
  600TMC3    C3 8890   4.553   0.261  15.972 -0.6884 -0.2925 -0.4231
  600TMC3    C4 8891   0.040   0.414  16.049  0.5504 -0.1257 -0.1628
  600TMC3    C5 8892   4.645   0.421  16.113  0.0460  1.0475  0.4071
  600TMC3    C6 8893   4.538   0.339  16.079 -0.3593  0.5553 -0.6647
  600TMC3     C 8894   0.183   0.310  15.887  0.1097 -0.5922 -0.2827
  600TMC3     O 8895   0.212   0.206  15.825  0.1057 -0.4804  0.3633
  600TMC3     H 8896   4.679   0.186  15.817  1.1949 -1.2240  0.8314
  600TMC3    H1 8897   0.126   0.473  16.080 -0.4646  1.0408  0.4237
  600TMC3    H2 8898   4.441   0.352  16.128 -0.2833 -2.5565  0.2905
  600TMC3    C7 8899   4.628   0.502  16.238 -0.6253 -0.1056  0.1696
  600TMC3    C8 8900   4.440   0.207  15.906 -0.0858  0.4293  0.4249
  600TMC3    O1 8901   4.519   0.490  16.300  0.6498 -0.0007 -0.6296
  600TMC3    O2 8902   4.455   0.177  15.786 -0.0912 -0.9177  0.2702
  601MPD2     C 8903   1.730   3.885  17.504  0.8962 -0.3223 -0.2737
  601MPD2    C1 8904   1.842   3.963  17.474  0.1422 -0.8638 -0.1996
  601MPD2    C2 8905   1.962   3.898  17.464 -0.5058 -0.4252  1.2144
  601MPD2    C3 8906   1.982   3.769  17.498  0.4277 -0.2289  0.3662
  601MPD2    C4 8907   1.874   3.691  17.519 -0.2885 -0.3280  0.1715
  601MPD2    C5 8908   1.747   3.751  17.528 -0.0833  0.0965  1.2211
  601MPD2     H 8909   2.043   3.961  17.428  0.1423 -1.8464  0.1806
  601MPD2    H1 8910   1.884   3.588  17.549 -0.2686 -0.2998  0.2619
  601MPD2    H2 8911   1.631   3.928  17.517  0.6810 -0.4138 -1.6370
  601MPD2    H3 8912   1.663   3.692  17.562 -0.3876 -0.2122 -0.0745
  601MPD2     N 8913   2.106   3.711  17.501 -0.4168 -0.0088 -0.3626
  601MPD2    H5 8914   2.099   3.611  17.513  0.7484  0.0872  1.0915
  601MPD2    N1 8915   1.838   4.102  17.435 -0.3025 -0.4654 -0.5075
  601MPD2    H7 8916   1.923   4.141  17.396  0.8051 -0.8123  1.5845
  602TMC3    C1 8917   1.745   4.314  17.397 -0.4238 -0.4936 -0.1709
  602TMC3    C2 8918   1.667   4.413  17.444  0.0585  0.0886 -0.1595
  602TMC3    C3 8919   1.641   4.529  17.365  0.0787  0.0291  0.4975
  602TMC3    C4 8920   1.806   4.327  17.274  0.3813 -0.1651 -0.1653
  602TMC3    C5 8921   1.777   4.443  17.194  0.1924 -0.0455  0.0448
  602TMC3    C6 8922   1.694   4.539  17.241 -0.3234 -0.1857  0.3859
  602TMC3     C 8923   1.735   4.188  17.465  0.4200 -0.4243 -0.3075
  602TMC3     O 8924   1.627   4.165  17.517  0.8646  0.3538  0.1524
  602TMC3     H 8925   1.623   4.406  17.543  0.8846  2.1608  0.3544
  602TMC3    H1 8926   1.866   4.246  17.236  0.8028  0.8496 -1.6627
  602TMC3    H2 8927   1.677   4.632  17.188  0.7804  0.7411  1.6356
  602TMC3    C7 8928   1.782   4.416  17.058  0.5033  0.3398  0.1932
  602TMC3    C8 8929   1.526   4.608  17.404  0.9272  0.3939 -0.5813
  602TMC3    O1 8930   1.839   4.317  17.024  0.2917 -0.2586  0.3137
  602TMC3    O2 8931   1.502   4.625  17.525 -0.4169  0.2514  0.2836
  603TMC3    C1 8932   1.095   3.829  10.894 -0.3363 -0.5104 -0.8221
  603TMC3    C2 8933   1.156   3.840  11.017 -0.2720  0.2155 -0.0534
  603TMC3    C3 8934   1.201   3.961  11.048 -0.3619  0.0368  0.0106
  603TMC3    C4 8935   1.093   3.929  10.797  0.6873  0.0161 -0.3197
  603TMC3    C5 8936   1.143   4.051  10.837 -0.5575 -0.3199 -0.7867
  603TMC3    C6 8937   1.203   4.070  10.960  0.4368 -0.2507 -0.5241
  603TMC3     C 8938   1.061   3.698  10.849 -0.9359 -1.0433  0.2883
  603TMC3     O 8939   1.010   3.689  10.741  0.1710 -0.2014 -0.5851
  603TMC3     H 8940   1.153   3.757  11.086 -1.6844 -0.8372 -1.3843
  603TMC3    H1 8941   1.052   3.910  10.698  1.5257 -2.9161 -0.0991
  603TMC3    H2 8942   1.232   4.169  10.992 -0.0323 -1.3188  3.1641
  603TMC3    C7 8943   1.187   4.131  10.726 -0.0121  0.1018 -0.3755
  603TMC3    C8 8944   1.245   3.978  11.192 -0.5457  0.7790 -0.4370
  603TMC3    O1 8945   1.305   4.168  10.725 -0.1718  0.6226 -0.0157
  603TMC3    O2 8946   1.254   3.864  11.241  0.5724  0.3900 -0.3636
  604MPD2     C 8947   1.128   2.266  16.385  0.1455 -0.0940  0.4539
  604MPD2    C1 8948   1.111   2.391  16.330  0.1490 -0.3144 -0.4699
  604MPD2    C2 8949   1.170   2.421  16.205 -0.0091  0.4022 -0.1170
  604MPD2    C3 8950   1.231   2.320  16.136  0.1087  1.0013 -0.1030
  604MPD2    C4 8951   1.252   2.198  16.195  0.2056 -0.0216 -0.1674
  604MPD2    C5 8952   1.200   2.168  16.321  0.1303  0.0364  0.1142
  604MPD2     H 8953   1.169   2.521  16.165 -0.9124  0.2545 -0.4504
  604MPD2    H1 8954   1.317   2.121  16.154  0.9631  0.4949  0.0696
  604MPD2    H2 8955   1.076   2.241  16.477  0.6970  1.9150  1.3025
  604MPD2    H3 8956   1.210   2.068  16.363 -1.7522 -0.3151 -0.3121
  604MPD2     N 8957   1.280   2.359  16.007 -0.3026  0.3485 -0.3010
  604MPD2    H5 8958   1.278   2.459  15.996 -1.5013  0.1342 -1.9768
  604MPD2    N1 8959   1.044   2.501  16.394 -0.3836 -0.4451  0.6079
  604MPD2    H7 8960   1.052   2.592  16.349  0.6176 -0.7450  0.1766
  605TMC3    C1 8961   0.989   2.649  16.573 -1.0752  0.1327  0.7872
  605TMC3    C2 8962   1.041   2.686  16.697 -0.2996  0.6356 -0.3542
  605TMC3    C3 8963   1.007   2.815  16.738 -1.1802  0.1676 -0.5060
  605TMC3    C4 8964   0.888   2.719  16.507 -0.0362 -0.0315 -0.0932
  605TMC3    C5 8965   0.847   2.835  16.566  0.5827 -0.5311  0.0033
  605TMC3    C6 8966   0.904   2.888  16.681 -0.3794 -0.2836 -0.0857
  605TMC3     C 8967   1.019   2.513  16.533 -0.0321  0.3449  0.1493
  605TMC3     O 8968   1.027   2.436  16.627  0.0623  0.0686  0.3299
  605TMC3     H 8969   1.115   2.627  16.749 -0.8243 -0.7921 -1.2199
  605TMC3    H1 8970   0.876   2.688  16.404  2.3951 -0.3394 -0.2865
  605TMC3    H2 8971   0.877   2.990  16.708 -1.7384 -0.5569 -0.3992
  605TMC3    C7 8972   0.740   2.912  16.506  0.1665 -0.2229  0.7581
  605TMC3    C8 8973   1.121   2.894  16.786 -0.1061  0.2413  0.8591
  605TMC3    O1 8974   0.699   3.010  16.570 -0.2999 -0.0901  0.5175
  605TMC3    O2 8975   1.220   2.834  16.819 -0.6885 -0.8639  1.2026
  606TMC3    C1 8976   1.801   0.918  16.922 -0.0924  0.9419 -0.3333
  606TMC3    C2 8977   1.887   0.880  17.020  0.0383  0.6599 -1.1123
  606TMC3    C3 8978   1.968   0.773  17.009 -0.4382  0.0814 -0.1032
  606TMC3    C4 8979   1.796   0.837  16.811  0.1492 -0.2143 -0.3328
  606TMC3    C5 8980   1.874   0.726  16.804  0.3080 -0.3822 -0.4499
  606TMC3    C6 8981   1.961   0.690  16.897 -0.1121 -0.4111 -0.1953
  606TMC3     C 8982   1.677   0.951  16.973 -0.6035 -0.9182 -0.1150
  606TMC3     O 8983   1.674   1.016  17.074 -0.2748 -0.6528  0.0081
  606TMC3     H 8984   1.898   0.937  17.112  0.1333 -1.3931  0.1600
  606TMC3    H1 8985   1.730   0.871  16.732 -0.1342 -0.4098 -0.1776
  606TMC3    H2 8986   2.007   0.592  16.901  1.8482  0.5466  0.5188
  606TMC3    C7 8987   1.806   0.616  16.743 -0.2307  0.7451  0.6273
  606TMC3    C8 8988   2.072   0.734  17.101  0.2217 -0.8345  0.2412
  606TMC3    O1 8989   1.846   0.503  16.763  0.1915 -0.3846 -0.5233
  606TMC3    O2 8990   2.159   0.660  17.057 -0.3479 -0.2606 -0.1258
  607MPD2     C 8991   0.401   4.122  11.733 -0.3251  0.9119  0.6413
  607MPD2    C1 8992   0.447   4.180  11.849 -0.2179  1.0200 -0.4982
  607MPD2    C2 8993   0.388   4.148  11.969 -0.3127  0.4644 -0.4949
  607MPD2    C3 8994   0.293   4.051  11.981 -0.0108  0.2758 -1.0397
  607MPD2    C4 8995   0.251   3.995  11.859 -0.0111  0.4696  0.2975
  607MPD2    C5 8996   0.304   4.032  11.738  0.1839  0.4940  0.1032
  607MPD2     H 8997   0.433   4.201  12.052  2.3421 -0.5316 -1.2784
  607MPD2    H1 8998   0.177   3.916  11.855 -0.6890  1.1497 -0.3978
  607MPD2    H2 8999   0.445   4.142  11.636 -0.2865  0.3764  0.5514
  607MPD2    H3 9000   0.259   3.987  11.650 -0.8059  1.4954  0.0915
  607MPD2     N 9001   0.255   4.011  12.110  0.3100 -0.0017  0.2218
  607MPD2    H5 9002   0.312   4.050  12.184 -2.4614 -2.1382  3.4361
  607MPD2    N1 9003   0.550   4.284  11.846  0.2046  0.4136 -0.6790
  607MPD2    H7 9004   0.589   4.297  11.939  0.4490 -0.8790 -0.5963
  608TMC3    C1 9005   0.701   4.451  11.777  0.5060 -0.1682 -0.7650
  608TMC3    C2 9006   0.679   4.499  11.901 -0.0244 -0.0257  0.2004
  608TMC3    C3 9007   0.639   4.631  11.910 -0.0962 -0.0973 -0.2909
  608TMC3    C4 9008   0.729   4.532  11.673 -0.0446  0.8591  0.3522
  608TMC3    C5 9009   0.692   4.663  11.683  0.5713 -0.5564  0.4146
  608TMC3    C6 9010   0.660   4.716  11.804 -0.2892 -0.2810  0.2755
  608TMC3     C 9011   0.616   4.338  11.745 -0.3917 -0.7779 -0.1116
  608TMC3     O 9012   0.588   4.315  11.628 -0.1233 -0.4895 -0.3532
  608TMC3     H 9013   0.676   4.430  11.984  0.5060  0.6303  0.7624
  608TMC3    H1 9014   0.725   4.484  11.575 -0.1953  1.4616  0.0620
  608TMC3    H2 9015   0.640   0.097  11.811  0.9951  0.0085 -0.2914
  608TMC3    C7 9016   0.760   0.012  11.578  0.2128 -0.5162  0.3631
  608TMC3    C8 9017   0.525   4.655  11.997 -1.0502 -0.4536 -0.7919
  608TMC3    O1 9018   0.854   4.674  11.534 -0.5429 -0.6924 -0.1220
  608TMC3    O2 9019   0.446   0.020  11.966  0.1007 -0.1752  0.4279
  609TMC3    C1 9020   3.872   2.797   9.442 -0.5237  0.1506 -0.3365
  609TMC3    C2 9021   3.797   2.800   9.327  0.5242  0.9950  0.2169
  609TMC3    C3 9022   3.780   2.688   9.258  0.2625  0.1707  0.0817
  609TMC3    C4 9023   3.949   2.687   9.482 -0.6397 -0.0507 -0.4934
  609TMC3    C5 9024   3.943   2.583   9.391 -0.6680 -0.0596 -0.2433
  609TMC3    C6 9025   3.852   2.579   9.281  0.0482 -0.0095  0.7487
  609TMC3     C 9026   3.811   2.876   9.549  0.0952 -0.3456 -0.5416
  609TMC3     O 9027   3.686   2.896   9.536  0.2177 -0.4368 -0.4064
  609TMC3     H 9028   3.734   2.887   9.307  0.8909  0.8026 -1.7151
  609TMC3    H1 9029   4.006   2.691   9.574 -1.7605  0.8348  0.1575
  609TMC3    H2 9030   3.827   2.486   9.231  1.9460 -0.3962  0.5312
  609TMC3    C7 9031   4.040   2.477   9.416 -0.0932 -0.1572  0.3454
  609TMC3    C8 9032   3.705   2.681   9.138  0.0901  0.4227 -0.1460
  609TMC3    O1 9033   4.108   2.475   9.514  0.4545  0.4010 -0.1944
  609TMC3    O2 9034   3.755   2.619   9.046  0.0330 -0.0356  0.4614
  610TMC3    C1 9035   0.652   4.332  12.569  0.2248  0.0966  0.0889
  610TMC3    C2 9036   0.659   4.324  12.430  0.9676  0.0991  0.1205
  610TMC3    C3 9037   0.707   4.211  12.371  1.1083 -0.1353 -0.3827
  610TMC3    C4 9038   0.673   4.223  12.650 -0.0464  0.0837  1.0624
  610TMC3    C5 9039   0.721   4.107  12.582  0.1064 -0.3867 -0.4183
  610TMC3    C6 9040   0.743   4.105  12.444  0.7812  0.2712  0.2502
  610TMC3     C 9041   0.555   4.423  12.629  0.7466 -0.7784 -0.2404
  610TMC3     O 9042   0.502   4.383  12.730 -0.1184 -0.2473  0.9028
  610TMC3     H 9043   0.615   4.399  12.366 -0.3735 -0.1398  0.7820
  610TMC3    H1 9044   0.673   4.221  12.758 -0.7230 -0.0104  1.0619
  610TMC3    H2 9045   0.784   4.016  12.398  1.0429  0.8389 -0.6094
  610TMC3    C7 9046   0.780   4.006  12.657  0.4035 -0.2929 -0.1438
  610TMC3    C8 9047   0.731   4.220  12.231 -0.0786  0.1598  0.2644
  610TMC3    O1 9048   0.875   3.949  12.596  0.0383 -0.3464  0.4245
  610TMC3    O2 9049   0.727   4.336  12.185  0.2543  0.0224 -0.1055
  611MPD2     C 9050   0.390   3.642  10.443  0.3387 -0.1139  0.0388
  611MPD2    C1 9051   0.305   3.738  10.393 -1.4465  1.0383 -0.1354
  611MPD2    C2 9052   0.352   3.817  10.283  0.5277  0.2535 -0.2904
  611MPD2    C3 9053   0.478   3.812  10.237 -0.2479  0.0313 -0.0115
  611MPD2    C4 9054   0.559   3.715  10.295  0.7200 -0.7502  0.5287
  611MPD2    C5 9055   0.516   3.631  10.392 -0.1246 -0.1253 -0.5420
  611MPD2     H 9056   0.279   3.883  10.236  0.6063  0.0692 -0.6733
  611MPD2    H1 9057   0.665   3.717  10.269  0.8151 -0.6506  0.9293
  611MPD2    H2 9058   0.353   3.578  10.522 -0.1880  0.8618  0.5844
  611MPD2    H3 9059   0.589   3.572  10.445 -0.1436  1.0044  0.7365
  611MPD2     N 9060   0.534   3.900  10.144  0.6623 -0.1702 -0.3665
  611MPD2    H5 9061   0.634   3.893  10.132  0.9010 -0.0820  1.5093
  611MPD2    N1 9062   0.177   3.757  10.453 -0.0276  0.5795  0.3634
  611MPD2    H7 9063   0.144   3.703  10.531 -2.3910  1.6365  0.0766
  612TMC3    C1 9064   0.563   4.094  10.010  0.6250  0.0853  0.0177
  612TMC3    C2 9065   0.692   4.103  10.054  0.1969  0.3216 -0.0548
  612TMC3    C3 9066   0.763   4.217  10.013 -0.1378 -0.3991 -0.4017
  612TMC3    C4 9067   0.512   4.188   9.926  0.7737 -0.5728  0.6787
  612TMC3    C5 9068   0.591   4.295   9.890  0.5283 -0.8454  0.0221
  612TMC3    C6 9069   0.727   4.307   9.916  0.0170  0.3330  0.3616
  612TMC3     C 9070   0.466   4.003  10.078  0.1698  0.3819 -0.1392
  612TMC3     O 9071   0.344   4.023  10.074  0.0283 -0.0000  0.4129
  612TMC3     H 9072   0.733   4.039  10.132  0.2276 -1.0004 -1.1450
  612TMC3    H1 9073   0.406   4.175   9.910  0.6893 -0.3237  1.0347
  612TMC3    H2 9074   0.787   4.385   9.871 -0.6879  0.9866  0.5495
  612TMC3    C7 9075   0.544   4.391   9.788 -0.7373  0.6598 -0.6385
  612TMC3    C8 9076   0.900   4.238  10.063  1.0449  0.1185  0.1858
  612TMC3    O1 9077   0.623   4.472   9.739 -0.1950  0.3287 -0.4847
  612TMC3    O2 9078   0.986   4.288   9.991 -0.3855  0.4927 -0.0209
  613MPD2     C 9079   3.425   1.283  16.525 -0.3643  0.4556 -0.7725
  613MPD2    C1 9080   3.409   1.345  16.407 -0.1755  0.2395  0.2909
  613MPD2    C2 9081   3.330   1.290  16.307  0.0178 -0.1056  1.0401
  613MPD2    C3 9082   3.277   1.168  16.325  0.2394  0.6875  0.3084
  613MPD2    C4 9083   3.292   1.101  16.441  0.4113  0.6921 -0.0588
  613MPD2    C5 9084   3.364   1.161  16.541 -0.5677 -0.4291 -0.0581
  613MPD2     H 9085   3.317   1.347  16.216  2.6079 -0.1773  0.6167
  613MPD2    H1 9086   3.255   1.000  16.455 -0.0836  0.6434 -1.7986
  613MPD2    H2 9087   3.478   1.327  16.609 -2.3045 -0.1693  0.7913
  613MPD2    H3 9088   3.382   1.104  16.632  1.7983  0.8905  0.2876
  613MPD2     N 9089   3.205   1.102  16.218  0.0984 -0.1302  0.7611
  613MPD2    H5 9090   3.192   1.003  16.232 -0.8905 -0.4927 -2.8028
  613MPD2    N1 9091   3.486   1.465  16.393 -0.0508  0.4199 -0.4140
  613MPD2    H7 9092   3.558   1.475  16.463  0.9309  0.2444 -1.4075
  614TMC3    C1 9093   3.617   1.555  16.226  0.4511  0.7083 -0.8861
  614TMC3    C2 9094   3.662   1.435  16.183  0.5425  0.1883 -0.5226
  614TMC3    C3 9095   3.683   1.418  16.051  0.3540  0.4710 -0.3997
  614TMC3    C4 9096   3.619   1.653  16.135 -0.2067 -0.4399  0.7205
  614TMC3    C5 9097   3.650   1.640  16.003  0.3330  0.2456 -0.8997
  614TMC3    C6 9098   3.677   1.516  15.960  0.0039 -0.4521  0.6737
  614TMC3     C 9099   3.480   1.540  16.275 -0.1451  0.4112 -0.2929
  614TMC3     O 9100   3.404   1.538  16.183 -0.3035  0.0692  0.8745
  614TMC3     H 9101   3.673   1.361  16.262  0.7163 -0.0943 -0.8070
  614TMC3    H1 9102   3.585   1.750  16.170  3.3657  0.8849  0.4748
  614TMC3    H2 9103   3.690   1.483  15.857 -1.9188 -1.5189  0.7609
  614TMC3    C7 9104   3.634   1.744  15.901  0.4534  0.6058  0.5108
  614TMC3    C8 9105   3.689   1.281  16.012 -0.7628  0.2558 -0.1638
  614TMC3    O1 9106   3.614   1.857  15.943  0.6149  0.3063 -0.0672
  614TMC3    O2 9107   3.671   1.201  16.104 -0.4955  0.2942  0.8031
  615MPD2     C 9108   2.645   3.029  15.959 -0.4709  0.4194  0.0212
  615MPD2    C1 9109   2.604   3.121  15.869 -0.5688  0.6786 -0.1617
  615MPD2    C2 9110   2.541   3.075  15.758  0.3828 -0.0901  0.1076
  615MPD2    C3 9111   2.511   2.941  15.738 -0.6123  0.0464 -0.5470
  615MPD2    C4 9112   2.555   2.845  15.828  0.0474  0.1876 -0.5388
  615MPD2    C5 9113   2.616   2.895  15.941 -0.2041  0.6186 -0.0664
  615MPD2     H 9114   2.487   3.148  15.700  1.4309 -0.8187 -1.7934
  615MPD2    H1 9115   2.539   2.739  15.813  0.8311 -0.0209  0.1122
  615MPD2    H2 9116   2.693   3.066  16.048 -0.5404  1.6806 -0.4602
  615MPD2    H3 9117   2.653   2.823  16.013 -0.0893 -0.0948 -0.8461
  615MPD2     N 9118   2.436   2.913  15.620  0.4898  0.3516  0.3100
  615MPD2    H5 9119   2.395   2.989  15.567  2.2158  2.3944  1.9194
  615MPD2    N1 9120   2.618   3.262  15.887  0.1436  0.2330 -0.2613
  615MPD2    H7 9121   2.568   3.321  15.821 -2.3613 -2.0016 -0.3391
  616TMC3    C1 9122   2.685   3.472  15.999 -0.1700 -0.2831 -0.0132
  616TMC3    C2 9123   2.792   3.545  16.018 -0.5903 -0.0694 -0.0783
  616TMC3    C3 9124   2.782   3.679  16.031  0.5560 -0.1643 -0.4932
  616TMC3    C4 9125   2.565   3.527  15.968  0.0182  0.8266 -0.3396
  616TMC3    C5 9126   2.555   3.665  15.977 -0.4461  0.3838 -0.5404
  616TMC3    C6 9127   2.660   3.747  16.010  0.9068 -0.2323 -0.2067
  616TMC3     C 9128   2.705   3.326  15.979 -0.4781  0.3136  0.1193
  616TMC3     O 9129   2.789   3.266  16.045  0.3321  0.0440  0.1743
  616TMC3     H 9130   2.887   3.496  16.038  0.4522  2.0910  0.1916
  616TMC3    H1 9131   2.474   3.470  15.955  0.2014  0.6445 -0.8148
  616TMC3    H2 9132   2.653   3.855  16.008  0.6691 -0.1996  2.2289
  616TMC3    C7 9133   2.421   3.719  15.962 -0.9092  0.4909  0.7740
  616TMC3    C8 9134   2.902   3.763  16.057  0.1883 -0.4530 -0.3414
  616TMC3    O1 9135   2.335   3.645  15.914  0.0139 -0.2950 -0.3106
  616TMC3    O2 9136   2.879   3.881  16.065 -0.3465  0.5388  0.2602
  617MPD2     C 9137   1.109   1.487  14.165 -0.2012 -0.1924 -0.4287
  617MPD2    C1 9138   1.145   1.373  14.100  0.0708 -0.5910 -0.6801
  617MPD2    C2 9139   1.060   1.316  14.004 -0.0676 -0.1660  0.6286
  617MPD2    C3 9140   0.946   1.379  13.965  0.2211 -0.5990 -0.0488
  617MPD2    C4 9141   0.913   1.497  14.031  0.1839  1.0245  0.2897
  617MPD2    C5 9142   0.992   1.543  14.134 -0.3037 -0.7493  0.1254
  617MPD2     H 9143   1.075   1.218  13.960 -1.7067 -0.8632  1.6317
  617MPD2    H1 9144   0.824   1.557  14.019 -0.3050  0.2414  0.0416
  617MPD2    H2 9145   1.168   1.522  14.250  1.4789 -0.5222 -1.4570
  617MPD2    H3 9146   0.950   1.620  14.198 -0.8367 -0.6507 -0.3409
  617MPD2     N 9147   0.849   1.322  13.874 -0.1096  0.1288 -0.4565
  617MPD2    H5 9148   0.757   1.364  13.862 -0.3865 -0.3059  0.1178
  617MPD2    N1 9149   1.264   1.312  14.143 -0.6200  0.1889 -0.4600
  617MPD2    H7 9150   1.312   1.358  14.220  0.0894  0.6254 -1.1623
  618TMC3    C1 9151   1.450   1.172  14.150 -0.3677  0.0925 -0.4337
  618TMC3    C2 9152   1.534   1.096  14.073 -0.2072  0.3701  0.0541
  618TMC3    C3 9153   1.664   1.085  14.105  0.8978  0.1335  0.6316
  618TMC3    C4 9154   1.499   1.247  14.258 -0.0804 -0.8271 -0.3107
  618TMC3    C5 9155   1.635   1.231  14.289  0.0203  1.1883  0.3858
  618TMC3    C6 9156   1.716   1.145  14.222 -0.1605  0.1331 -0.9163
  618TMC3     C 9157   1.330   1.209  14.078 -0.1767  0.0189 -0.2472
  618TMC3     O 9158   1.301   1.152  13.971  0.4690 -0.7639  0.2493
  618TMC3     H 9159   1.499   1.047  13.982 -0.9634  0.6038  0.2232
  618TMC3    H1 9160   1.444   1.322  14.314  2.6430  0.4728  0.6297
  618TMC3    H2 9161   1.822   1.138  14.241 -0.0421  0.4629 -1.4391
  618TMC3    C7 9162   1.686   1.321  14.390 -0.6462  0.4410  0.7218
  618TMC3    C8 9163   1.745   1.025  14.004  0.0378  0.0836  0.3474
  618TMC3    O1 9164   1.615   1.325  14.486  0.3482  0.2869  0.3192
  618TMC3    O2 9165   1.689   0.957  13.919 -0.0076  0.3967 -0.2770
  619MPD2     C 9166   3.051   2.709  13.689 -0.1808  0.1207 -0.0495
  619MPD2    C1 9167   2.987   2.770  13.581  0.4029 -0.2522  0.3330
  619MPD2    C2 9168   2.858   2.738  13.548 -0.1430 -0.4624 -0.0188
  619MPD2    C3 9169   2.784   2.650  13.630  0.0169  0.3366 -0.1167
  619MPD2    C4 9170   2.854   2.577  13.731  0.1509  0.2949  0.5027
  619MPD2    C5 9171   2.985   2.613  13.763  0.1266  0.5504  0.0695
  619MPD2     H 9172   2.814   2.784  13.461  1.0421 -1.1446 -0.9907
  619MPD2    H1 9173   2.800   2.513  13.800  0.3251 -0.6870 -0.2679
  619MPD2    H2 9174   3.149   2.744  13.717  0.1101 -1.4045  0.8602
  619MPD2    H3 9175   3.046   2.556  13.831 -1.1237  0.3650  1.0276
  619MPD2     N 9176   2.653   2.621  13.610 -0.1156 -0.5559  0.8043
  619MPD2    H5 9177   2.617   2.551  13.675  2.5153 -0.8455  1.9480
  619MPD2    N1 9178   3.049   2.878  13.508 -0.3872 -0.3471 -0.5793
  619MPD2    H7 9179   3.002   2.912  13.425  0.0277 -0.4511 -0.8573
  620TMC3    C1 9180   3.165   3.066  13.472  0.3152  0.4216 -0.0191
  620TMC3    C2 9181   3.130   3.072  13.337 -0.0134 -0.5232  0.4153
  620TMC3    C3 9182   3.109   3.196  13.284  0.4857 -0.1325  0.6176
  620TMC3    C4 9183   3.196   3.182  13.552  0.2676 -0.4960  0.0342
  620TMC3    C5 9184   3.186   3.307  13.491 -0.4441 -0.1025  0.3962
  620TMC3    C6 9185   3.143   3.309  13.358  0.0172 -0.3334 -0.2233
  620TMC3     C 9186   3.166   2.940  13.545 -0.0572 -0.0875 -0.1513
  620TMC3     O 9187   3.230   2.932  13.647 -0.1344  0.4717 -0.1113
  620TMC3     H 9188   3.111   2.984  13.276 -2.1864  0.1974  0.0390
  620TMC3    H1 9189   3.220   3.176  13.657  1.0859  1.5443 -0.0430
  620TMC3    H2 9190   3.116   3.409  13.327 -2.7448 -0.3195  2.1977
  620TMC3    C7 9191   3.135   3.414  13.575  0.4071 -0.2030 -1.0003
  620TMC3    C8 9192   3.001   3.210  13.184 -0.0797  0.5894 -1.5247
  620TMC3    O1 9193   3.124   3.522  13.522 -0.3210  0.4735 -0.0028
  620TMC3    O2 9194   2.981   3.109  13.116 -0.2446 -0.2678 -0.4491
  621MPD2     C 9195   3.707   1.429  10.302 -0.2995  0.7014 -0.4165
  621MPD2    C1 9196   3.575   1.464  10.301  0.1805  0.3968  0.1823
  621MPD2    C2 9197   3.528   1.591  10.322  0.4663  0.2110 -1.0170
  621MPD2    C3 9198   3.620   1.690  10.336 -0.3531  0.3733  0.4453
  621MPD2    C4 9199   3.756   1.652  10.347 -0.1372  0.3063  0.5487
  621MPD2    C5 9200   3.797   1.522  10.335  0.1669 -0.2071 -0.2824
  621MPD2     H 9201   3.423   1.616  10.330 -0.2579 -2.4903 -2.2653
  621MPD2    H1 9202   3.835   1.723  10.367  0.5038  0.3268 -2.1218
  621MPD2    H2 9203   3.731   1.324  10.291  0.2035  0.7086  0.6069
  621MPD2    H3 9204   3.903   1.498  10.332  0.1914 -0.4146  2.1424
  621MPD2     N 9205   3.565   1.826  10.347 -0.1480  0.4888 -0.0818
  621MPD2    H5 9206   3.465   1.842  10.340 -0.2616 -0.1979  0.0019
  621MPD2    N1 9207   3.488   1.355  10.258 -0.1052  1.3612 -0.5297
  621MPD2    H7 9208   3.535   1.269  10.231 -0.3560  0.8209  0.7458
  622TMC3    C1 9209   3.297   1.225  10.247 -0.2331  0.2956 -0.8792
  622TMC3    C2 9210   3.196   1.184  10.324 -0.2571  0.1261  0.1872
  622TMC3    C3 9211   3.076   1.146  10.268 -0.5889  0.3134  0.1839
  622TMC3    C4 9212   3.269   1.233  10.110 -0.1563 -0.0997  0.3197
  622TMC3    C5 9213   3.145   1.199  10.058  0.2788  0.2518 -0.4757
  622TMC3    C6 9214   3.052   1.144  10.139  0.6640 -0.2941  0.1469
  622TMC3     C 9215   3.363   1.337  10.305  0.6662  0.2212  0.1488
  622TMC3     O 9216   3.293   1.405  10.376 -0.2135  0.1214 -0.3045
  622TMC3     H 9217   3.201   1.197  10.432  1.0240 -1.7132  0.3464
  622TMC3    H1 9218   3.346   1.263  10.039 -3.9968  0.7005 -3.5460
  622TMC3    H2 9219   2.957   1.114  10.096  0.0955 -0.4634  1.5218
  622TMC3    C7 9220   3.117   1.225   9.917  0.3933  0.1921  0.1377
  622TMC3    C8 9221   2.954   1.166  10.332  0.4680 -0.2712 -0.1762
  622TMC3    O1 9222   3.024   1.164   9.867 -0.0183 -0.0452  0.0585
  622TMC3    O2 9223   2.861   1.098  10.298  0.8073 -0.4061  0.0231
  623MPD2     C 9224   1.603   2.759  15.773  0.2112 -0.4309  0.2005
  623MPD2    C1 9225   1.508   2.753  15.870 -0.0927 -0.3531 -0.5857
  623MPD2    C2 9226   1.539   2.691  15.994  0.3210  0.0354 -0.5762
  623MPD2    C3 9227   1.668   2.664  16.024 -0.7602  0.6163 -0.1612
  623MPD2    C4 9228   1.771   2.688  15.931 -0.0199  0.0711  0.2085
  623MPD2    C5 9229   1.732   2.720  15.803  0.1200 -0.0855  0.0350
  623MPD2     H 9230   1.463   2.670  16.069 -0.2415  0.7899 -0.9393
  623MPD2    H1 9231   1.873   2.661  15.955 -0.3720 -2.0123 -0.6665
  623MPD2    H2 9232   1.588   2.797  15.673 -0.5596 -3.9429 -1.0217
  623MPD2    H3 9233   1.805   2.747  15.728  0.8251 -1.8164  0.1048
  623MPD2     N 9234   1.689   2.629  16.158  0.1867 -0.0113 -0.3282
  623MPD2    H5 9235   1.603   2.627  16.211 -0.5354  2.1266 -1.4297
  623MPD2    N1 9236   1.381   2.817  15.857 -0.2900  0.0739  0.8788
  623MPD2    H7 9237   1.377   2.899  15.797  2.5784 -0.3860  0.0555
  624TMC3    C1 9238   1.906   2.867  16.481  0.9696  0.0946  0.5402
  624TMC3    C2 9239   1.786   2.934  16.501 -0.0910 -0.4234  0.1770
  624TMC3    C3 9240   1.673   2.869  16.461 -0.4889  0.1918 -0.0907
  624TMC3    C4 9241   1.910   2.754  16.408 -0.2127 -0.0498 -0.1197
  624TMC3    C5 9242   1.800   2.710  16.347 -0.1859  0.5538 -0.6509
  624TMC3    C6 9243   1.679   2.756  16.382 -0.6097  0.6703 -0.0999
  624TMC3     C 9244   2.023   2.926  16.537 -0.0262 -0.1180 -0.1715
  624TMC3     O 9245   2.016   3.042  16.567  0.3562 -1.0016 -0.2853
  624TMC3     H 9246   1.779   3.020  16.567  2.6249 -0.0674  0.0225
  624TMC3    H1 9247   2.004   2.709  16.378  1.0948  1.6534  1.4367
  624TMC3    H2 9248   1.581   2.717  16.356 -0.0802 -1.0152  0.4338
  624TMC3    C7 9249   1.809   2.640  16.220 -0.4455  0.7875  0.1414
  624TMC3    C8 9250   1.545   2.927  16.480 -0.5637  0.0939 -0.1819
  624TMC3    O1 9251   1.920   2.605  16.175 -0.0073  0.3519  0.1537
  624TMC3    O2 9252   1.446   2.873  16.434 -0.1239  0.2211  0.0220
  625MPD2     C 9253   1.768   0.084   1.441 -0.1189 -0.7443 -0.1998
  625MPD2    C1 9254   1.810   0.134   1.316  0.2316  0.5479  0.1762
  625MPD2    C2 9255   1.935   0.085   1.267 -0.2950 -0.0894 -0.1569
  625MPD2    C3 9256   2.019   4.725   1.347 -0.3543  0.0272  0.1728
  625MPD2    C4 9257   1.972   4.691   1.475  0.0234 -0.0805 -0.6701
  625MPD2    C5 9258   1.850   0.009   1.522  0.1518 -0.1923  0.0789
  625MPD2     H 9259   1.967   0.105   1.165  0.3514  1.2371  0.3074
  625MPD2    H1 9260   2.020   4.633   1.553 -1.0385 -0.1398 -0.0635
  625MPD2    H2 9261   1.669   0.104   1.483  0.0104 -1.5074  0.4650
  625MPD2    H3 9262   1.813   4.695   1.616  0.5321  1.1599  0.7951
  625MPD2     N 9263   2.141   4.689   1.288 -0.5685 -0.8426 -0.5509
  625MPD2    H5 9264   2.152   4.722   1.192  0.9489 -1.3535 -0.5394
  625MPD2    N1 9265   1.740   0.217   1.228 -0.2001  0.3501 -0.9819
  625MPD2    H7 9266   1.769   0.221   1.131  0.9343 -1.3985 -0.7085
  626TMC3    C1 9267   1.553   0.330   1.156 -0.4374 -0.1021  0.4407
  626TMC3    C2 9268   1.584   0.287   1.026  0.1381  0.1774  0.2737
  626TMC3    C3 9269   1.504   0.340   0.927  0.4739 -0.0560  0.1982
  626TMC3    C4 9270   1.453   0.415   1.184 -0.5800  0.2748 -0.6192
  626TMC3    C5 9271   1.384   0.470   1.079  0.1770 -0.0567 -0.9033
  626TMC3    C6 9272   1.414   0.443   0.949 -0.3613 -0.4912 -0.4750
  626TMC3     C 9273   1.628   0.279   1.261  0.3402 -0.0368  0.3721
  626TMC3     O 9274   1.584   0.303   1.372  0.5633 -0.1250  0.6653
  626TMC3     H 9275   1.659   0.212   1.008  0.2827  0.8029 -1.7007
  626TMC3    H1 9276   1.442   0.452   1.285 -0.9237 -0.4044 -0.4105
  626TMC3    H2 9277   1.365   0.494   0.867  3.4767 -0.6552 -2.8624
  626TMC3    C7 9278   1.269   0.549   1.112 -0.6012  0.0222 -0.6397
  626TMC3    C8 9279   1.506   0.278   0.791 -0.4092  0.2784 -0.1878
  626TMC3    O1 9280   1.259   0.588   1.230 -0.0697  0.5039 -0.4217
  626TMC3    O2 9281   1.484   0.358   0.698 -0.4614  0.3882  0.2630
  627MPD2     C 9282   0.608   0.076  14.149  0.0665  0.0960  0.2666
  627MPD2    C1 9283   0.627   0.040  14.287 -0.2097  0.9654 -0.2939
  627MPD2    C2 9284   0.594   4.641  14.327 -0.1496  0.0433  0.0433
  627MPD2    C3 9285   0.546   4.552  14.238  0.0970 -0.0419 -0.2300
  627MPD2    C4 9286   0.520   4.588  14.104  0.3733  0.3663 -0.0700
  627MPD2    C5 9287   0.558   4.709  14.068  0.2297  0.0106 -0.2866
  627MPD2     H 9288   0.587   4.628  14.435  1.5989 -2.1542 -0.1320
  627MPD2    H1 9289   0.481   4.525  14.025 -0.7450  1.3228 -0.2718
  627MPD2    H2 9290   0.639   0.173  14.112  0.6767 -1.1624 -2.4729
  627MPD2    H3 9291   0.550   0.011  13.963  0.5968  0.3899 -0.2147
  627MPD2     N 9292   0.494   4.431  14.289  0.5347  0.4662  0.4984
  627MPD2    H5 9293   0.500   4.414  14.389 -1.7897 -0.2532  0.5090
  627MPD2    N1 9294   0.661   0.134  14.382 -0.1591  1.1286 -0.1237
  627MPD2    H7 9295   0.674   0.097  14.475 -2.1157  2.3047  0.6187
  628TMC3    C1 9296   0.688   0.355  14.488 -0.0433  0.1348 -0.2498
  628TMC3    C2 9297   0.792   0.318  14.576 -0.0457 -0.4223 -0.3927
  628TMC3    C3 9298   0.842   0.420  14.651 -0.2011 -0.2629  0.0664
  628TMC3    C4 9299   0.638   0.484  14.487  0.2126  0.1272  0.2773
  628TMC3    C5 9300   0.700   0.577  14.563  0.3633  0.2960  0.0743
  628TMC3    C6 9301   0.791   0.546  14.657 -0.3384  0.0951 -1.5308
  628TMC3     C 9302   0.662   0.272  14.364  0.0998  0.2480 -0.4986
  628TMC3     O 9303   0.623   0.346  14.269 -0.5442  0.4025 -0.3271
  628TMC3     H 9304   0.851   0.230  14.552  0.7553  0.1534 -0.5325
  628TMC3    H1 9305   0.548   0.502  14.429 -0.7087 -0.4938  1.5227
  628TMC3    H2 9306   0.842   0.623  14.714 -0.5155 -0.6454 -0.3672
  628TMC3    C7 9307   0.679   0.713  14.527  0.3695 -0.1779 -0.5502
  628TMC3    C8 9308   0.985   0.414  14.656 -0.1181  0.5658  0.2420
  628TMC3    O1 9309   0.736   0.803  14.589  0.2641  0.1230  0.3606
  628TMC3    O2 9310   1.043   0.518  14.616 -0.2034  0.6972 -0.2655
  629MPD2     C 9311   3.398   3.881  16.106  0.4660 -0.2093  0.4949
  629MPD2    C1 9312   3.391   3.742  16.105  0.1945 -0.5012 -0.1071
  629MPD2    C2 9313   3.263   3.688  16.097  0.4326  0.6835  0.2834
  629MPD2    C3 9314   3.147   3.763  16.078  0.0628  0.5763 -0.3572
  629MPD2    C4 9315   3.158   3.905  16.073 -0.0495  0.2842 -0.2198
  629MPD2    C5 9316   3.282   3.956  16.100  0.2879  0.0412  0.3167
  629MPD2     H 9317   3.263   3.581  16.082 -2.6019  0.6652  0.4868
  629MPD2    H1 9318   3.075   3.973  16.060  0.5811  1.1129  0.0686
  629MPD2    H2 9319   3.495   3.927  16.124  0.6378 -1.1149  1.8486
  629MPD2    H3 9320   3.303   4.061  16.113 -0.7150  0.0844  1.6461
  629MPD2     N 9321   3.026   3.695  16.069 -0.6895  0.4840  0.1829
  629MPD2    H5 9322   3.032   3.594  16.081  1.3109  0.5694 -0.0351
  629MPD2    N1 9323   3.514   3.676  16.134 -0.0543 -0.3406 -0.0734
  629MPD2    H7 9324   3.594   3.738  16.131 -0.8307  0.7012  0.7979
  630TMC3    C1 9325   3.673   3.513  16.182  0.2428  0.0904  0.9749
  630TMC3    C2 9326   3.770   3.591  16.125 -0.0189 -0.4318  0.3342
  630TMC3    C3 9327   3.901   3.573  16.166 -0.0002  0.2178  0.9634
  630TMC3    C4 9328   3.707   3.410  16.268  0.0480 -0.2542  0.2291
  630TMC3    C5 9329   3.835   3.389  16.297  0.7496 -0.1961 -0.4800
  630TMC3    C6 9330   3.934   3.467  16.252  0.6096  0.3019  0.2261
  630TMC3     C 9331   3.534   3.539  16.155  0.8452 -0.0928 -0.0173
  630TMC3     O 9332   3.447   3.455  16.167 -0.1968  0.0382  0.3778
  630TMC3     H 9333   3.742   3.658  16.044  1.3318 -0.6046 -0.2845
  630TMC3    H1 9334   3.623   3.367  16.320 -0.2936 -0.8357 -0.8041
  630TMC3    H2 9335   4.037   3.447  16.281  0.6747 -0.8296 -0.7494
  630TMC3    C7 9336   3.868   3.314  16.419 -0.2406  0.2514  0.1075
  630TMC3    C8 9337   4.010   3.649  16.108  0.0128 -0.6446 -0.1013
  630TMC3    O1 9338   3.951   3.366  16.493  0.4272  0.3623  0.6134
  630TMC3    O2 9339   4.120   3.616  16.150  0.0782  0.5126  0.5082
  631MPD2     C 9340   1.770   3.358  15.630  0.8448 -0.4162 -0.2908
  631MPD2    C1 9341   1.830   3.366  15.507  0.7185 -0.3588 -0.1183
  631MPD2    C2 9342   1.891   3.261  15.447  0.2377  0.1338 -0.0825
  631MPD2    C3 9343   1.886   3.136  15.502 -0.9273  0.7450  0.0753
  631MPD2    C4 9344   1.823   3.127  15.627  0.2219 -0.3119  0.2654
  631MPD2    C5 9345   1.761   3.235  15.687 -0.2350  0.1718  0.4929
  631MPD2     H 9346   1.940   3.265  15.351 -0.3139 -3.3327 -0.4805
  631MPD2    H1 9347   1.810   3.038  15.686  2.1020  0.3031  1.6269
  631MPD2    H2 9348   1.716   3.442  15.672  2.2599  0.6160 -0.5510
  631MPD2    H3 9349   1.713   3.212  15.781  0.6573 -0.1207  0.8836
  631MPD2     N 9350   1.952   3.035  15.434 -0.1195  0.0724  0.1986
  631MPD2    H5 9351   2.007   3.052  15.351 -0.0686 -2.5701 -0.2940
  631MPD2    N1 9352   1.842   3.496  15.456 -0.1013 -0.0653 -0.7244
  631MPD2    H7 9353   1.795   3.565  15.513  0.4240  1.2416 -1.8732
  632TMC3    C1 9354   1.868   3.669  15.303  0.2179  0.1949  0.1329
  632TMC3    C2 9355   1.760   3.735  15.344  0.0157 -0.2564  0.5438
  632TMC3    C3 9356   1.742   3.868  15.295 -0.4881 -0.8177 -0.0126
  632TMC3    C4 9357   1.968   3.733  15.228  0.1921  0.1371  0.3603
  632TMC3    C5 9358   1.950   3.863  15.187 -0.5932 -0.0059  0.2251
  632TMC3    C6 9359   1.838   3.930  15.217  0.5603 -0.0536 -0.4758
  632TMC3     C 9360   1.895   3.532  15.332 -0.3267  0.2536 -0.1001
  632TMC3     O 9361   1.951   3.465  15.245  0.3024  0.1135  0.1118
  632TMC3     H 9362   1.668   3.692  15.382  0.8763 -0.2247  2.6468
  632TMC3    H1 9363   2.057   3.676  15.204  0.3656 -0.1316  1.6212
  632TMC3    H2 9364   1.808   4.018  15.161  1.6854 -0.0833 -1.1224
  632TMC3    C7 9365   2.046   3.913  15.100 -0.3593  0.1772  0.8825
  632TMC3    C8 9366   1.613   3.933  15.298  0.1692 -0.1112  0.2404
  632TMC3    O1 9367   2.012   4.005  15.027  0.2980 -0.3373  0.1647
  632TMC3    O2 9368   1.568   4.005  15.209  0.1933 -0.4899 -0.2971
  633MPD2     C 9369   1.100   1.310  17.034 -0.3755 -0.1457  0.2142
  633MPD2    C1 9370   1.195   1.294  16.934 -0.0994 -0.2522  0.0736
  633MPD2    C2 9371   1.165   1.218  16.822 -0.2920 -0.0127 -0.9801
  633MPD2    C3 9372   1.039   1.157  16.812  0.1062 -0.1678  0.2250
  633MPD2    C4 9373   0.946   1.172  16.913  0.1536  0.2580  0.1724
  633MPD2    C5 9374   0.975   1.257  17.024 -0.5891 -0.4586  0.1302
  633MPD2     H 9375   1.230   1.203  16.737 -0.9398  3.5044 -2.1215
  633MPD2    H1 9376   0.853   1.116  16.915  0.3444 -0.0692 -0.3163
  633MPD2    H2 9377   1.129   1.356  17.128 -1.9316  1.1246  0.0772
  633MPD2    H3 9378   0.909   1.268  17.109 -0.7194 -1.0254  0.1047
  633MPD2     N 9379   0.998   1.085  16.696 -0.1497 -0.2269 -0.3342
  633MPD2    H5 9380   0.905   1.046  16.704  0.5780 -2.1327 -0.9597
  633MPD2    N1 9381   1.322   1.361  16.932 -0.6184 -0.3460 -0.6709
  633MPD2    H7 9382   1.385   1.345  16.854 -2.3646  1.0386 -2.3728
  634TMC3    C1 9383   1.513   1.481  17.010  0.1135 -0.3683 -0.1999
  634TMC3    C2 9384   1.592   1.371  16.980  0.2902  0.3804  0.1729
  634TMC3    C3 9385   1.718   1.393  16.936  1.1631 -0.3662 -0.1687
  634TMC3    C4 9386   1.559   1.609  17.014  0.2650 -0.3169  0.0173
  634TMC3    C5 9387   1.687   1.622  16.971  0.3958 -0.1119 -0.7639
  634TMC3    C6 9388   1.767   1.521  16.928  0.3043 -0.3196  0.0664
  634TMC3     C 9389   1.367   1.453  17.023  0.2943 -0.1923 -0.1025
  634TMC3     O 9390   1.312   1.503  17.116 -0.1453 -0.2284 -0.2995
  634TMC3     H 9391   1.553   1.271  16.992  0.4965  0.2978  0.1654
  634TMC3    H1 9392   1.489   1.686  17.043  0.4693  0.0305 -0.4214
  634TMC3    H2 9393   1.853   1.546  16.867  1.1547 -1.0678  0.9716
  634TMC3    C7 9394   1.720   1.755  16.917  0.4451 -0.2165  0.1831
  634TMC3    C8 9395   1.780   1.282  16.866  0.0461  0.4797  0.2883
  634TMC3    O1 9396   1.796   1.758  16.822  0.3762  0.1310 -0.2239
  634TMC3    O2 9397   1.705   1.198  16.824 -0.0333  0.7714 -0.3810
  635TMC3    C1 9398   2.203   2.709  17.303 -0.0182 -0.3150 -0.1952
  635TMC3    C2 9399   2.279   2.605  17.347  0.4752  0.4595 -0.9598
  635TMC3    C3 9400   2.222   2.505  17.418 -0.4169 -0.1922  0.3345
  635TMC3    C4 9401   2.072   2.722  17.328  0.1061 -0.4350 -0.6602
  635TMC3    C5 9402   2.020   2.621  17.414  0.2763  0.2803 -0.0502
  635TMC3    C6 9403   2.095   2.516  17.461 -0.5486  0.4361 -0.9067
  635TMC3     C 9404   2.270   2.839  17.288  0.0839 -0.3174 -0.0200
  635TMC3     O 9405   2.198   2.934  17.318  0.3271  0.6859 -0.2128
  635TMC3     H 9406   2.386   2.598  17.334  0.5860 -0.2680  0.3243
  635TMC3    H1 9407   2.016   2.809  17.297 -0.2100 -0.3572  0.1250
  635TMC3    H2 9408   2.045   2.431  17.506  1.7258  0.3922  1.4883
  635TMC3    C7 9409   1.913   2.670  17.497  0.0514  0.1605  0.4652
  635TMC3    C8 9410   2.283   2.379  17.416  0.1558  0.2314  0.3755
  635TMC3    O1 9411   1.860   2.770  17.454 -0.0249  0.2232  0.7381
  635TMC3    O2 9412   2.387   2.365  17.351 -0.1171 -0.1342  0.0019
  636MPD2     C 9413   3.300   1.711  15.580  0.6564 -0.3746  0.3365
  636MPD2    C1 9414   3.243   1.696  15.701 -0.2812  0.0098  0.0908
  636MPD2    C2 9415   3.229   1.565  15.746  0.1395  0.8307 -0.2503
  636MPD2    C3 9416   3.253   1.452  15.669  0.5195  0.3950 -0.3496
  636MPD2    C4 9417   3.299   1.473  15.539  0.1760  0.1328  0.2174
  636MPD2    C5 9418   3.325   1.603  15.503  0.7253 -0.6746 -0.2769
  636MPD2     H 9419   3.198   1.547  15.848 -1.1380  0.1789 -0.7453
  636MPD2    H1 9420   3.315   1.392  15.468  3.4390  1.3100 -0.3887
  636MPD2    H2 9421   3.327   1.807  15.537 -0.2719  0.2021  1.0358
  636MPD2    H3 9422   3.361   1.627  15.404 -1.6894  1.9573 -0.5318
  636MPD2     N 9423   3.232   1.321  15.725 -0.1289 -0.4011  0.4155
  636MPD2    H5 9424   3.205   1.324  15.823  2.0708  0.6625  0.9943
  636MPD2    N1 9425   3.217   1.804  15.788 -0.1418  0.2843 -0.1219
  636MPD2    H7 9426   3.209   1.783  15.887 -2.0932  1.1628 -0.1005
  637TMC3    C1 9427   3.258   1.087  15.758  0.5002  0.1198 -0.1124
  637TMC3    C2 9428   3.182   1.115  15.870 -0.1998 -0.1987  0.2958
  637TMC3    C3 9429   3.196   1.038  15.984 -0.2924 -0.1866 -0.1176
  637TMC3    C4 9430   3.357   0.988  15.766  0.1875  0.3939  0.1830
  637TMC3    C5 9431   3.364   0.913  15.884  0.5307  0.0194  0.0236
  637TMC3    C6 9432   3.286   0.938  15.998  0.3337 -0.2420  0.4991
  637TMC3     C 9433   3.270   1.201  15.666  0.1874 -0.1921 -0.6349
  637TMC3     O 9434   3.337   1.188  15.565 -0.1288  0.0275 -0.0591
  637TMC3     H 9435   3.095   1.179  15.855  2.0763  2.5422 -1.3697
  637TMC3    H1 9436   3.421   0.980  15.679 -1.6302  2.5174 -1.3687
  637TMC3    H2 9437   3.304   0.872  16.082  0.4805 -0.3969  0.3492
  637TMC3    C7 9438   3.459   0.799  15.889 -0.5129  0.3356  0.1642
  637TMC3    C8 9439   3.189   1.142  16.088  0.2301 -0.5361  0.3459
  637TMC3    O1 9440   3.426   0.697  15.951  0.0050  0.4275  0.6662
  637TMC3    O2 9441   3.168   1.257  16.047 -0.3362 -0.3340  0.3269
  638MPD2     C 9442   2.873   0.647  14.853  0.0038  0.2312 -0.0694
  638MPD2    C1 9443   2.915   0.547  14.764  0.3742  0.2338 -0.2241
  638MPD2    C2 9444   2.934   0.417  14.816 -0.5193 -0.5235 -0.0929
  638MPD2    C3 9445   2.900   0.389  14.949 -0.6021 -0.0538  0.4505
  638MPD2    C4 9446   2.866   0.495  15.033  0.2903  0.1040  0.2223
  638MPD2    C5 9447   2.850   0.623  14.984 -0.1657  0.4581  0.1836
  638MPD2     H 9448   2.961   0.331  14.755 -0.4072 -0.9905  0.6193
  638MPD2    H1 9449   2.833   0.480  15.135  0.9077  0.7686  0.5206
  638MPD2    H2 9450   2.864   0.748  14.814 -0.0285 -0.2273 -1.2492
  638MPD2    H3 9451   2.816   0.702  15.051  0.1582 -0.2073  1.1317
  638MPD2     N 9452   2.918   0.257  14.994  0.8357  0.2320  0.1339
  638MPD2    H5 9453   2.970   0.200  14.927  0.6665  0.5211 -0.2441
  638MPD2    N1 9454   2.932   0.582  14.631  0.0530  0.2428 -0.3585
  638MPD2    H7 9455   2.954   0.680  14.616 -3.1296  0.8758 -0.9006
  639TMC3    C1 9456   2.855   0.057  15.096  0.4938  0.3633  0.1070
  639TMC3    C2 9457   2.731   0.012  15.065  0.2299 -0.8675 -0.2050
  639TMC3    C3 9458   2.722   4.619  14.996  0.7558  0.6437 -1.2003
  639TMC3    C4 9459   2.967   4.716  15.056  0.6958  0.1258  0.5415
  639TMC3    C5 9460   2.952   4.602  14.984 -0.1451 -0.8677 -0.5666
  639TMC3    C6 9461   2.832   4.542  14.967  0.6433 -0.3508 -0.5961
  639TMC3     C 9462   2.859   0.201  15.101  0.1633 -0.4251 -0.4799
  639TMC3     O 9463   2.778   0.247  15.179  0.4762 -0.1051  0.4466
  639TMC3     H 9464   2.639   0.067  15.081  0.6204 -0.8457  1.9506
  639TMC3    H1 9465   3.063   0.034  15.083  0.8639  0.9116 -1.2849
  639TMC3    H2 9466   2.829   4.441  14.927 -1.0737 -0.3720 -0.4285
  639TMC3    C7 9467   3.066   4.519  14.965  0.2696 -0.0780 -0.5962
  639TMC3    C8 9468   2.597   4.591  14.941  0.2510 -0.5226 -0.4745
  639TMC3    O1 9469   3.051   4.403  15.003 -0.1665 -0.6278  0.0105
  639TMC3    O2 9470   2.493   4.626  15.001 -0.0044 -0.8678  0.3444
  640MPD2     C 9471   4.576   3.558   9.740  0.4814 -0.3251 -0.6070
  640MPD2    C1 9472   4.558   3.423   9.716  0.1299 -0.0007 -0.5547
  640MPD2    C2 9473   4.431   3.372   9.704 -0.5522 -0.3621  0.3328
  640MPD2    C3 9474   4.320   3.461   9.690 -0.0270  1.0815  0.2122
  640MPD2    C4 9475   4.331   3.593   9.716  0.8071  0.1229  0.1456
  640MPD2    C5 9476   4.461   3.645   9.738  0.8107  0.3024  0.1965
  640MPD2     H 9477   4.409   3.267   9.692 -0.8233 -0.1643 -0.9521
  640MPD2    H1 9478   4.242   3.653   9.702  1.6789  0.8586 -2.1882
  640MPD2    H2 9479   4.675   3.602   9.744  0.5293 -0.4122 -0.8261
  640MPD2    H3 9480   4.466   3.753   9.735 -0.0502  0.3380 -0.1673
  640MPD2     N 9481   4.180   3.418   9.690 -1.0153 -0.7710 -0.1217
  640MPD2    H5 9482   4.113   3.485   9.725 -1.1819 -0.9800 -0.0377
  640MPD2    N1 9483   4.673   3.338   9.722  0.6258  0.1190 -0.3631
  640MPD2    H7 9484   0.035   3.385   9.744  0.8634  0.5339 -2.1901
  641TMC3    C1 9485   0.078   3.134   9.723 -0.5245  0.8853  0.2110
  641TMC3    C2 9486   0.068   3.003   9.745 -0.3131  0.0240 -0.4913
  641TMC3    C3 9487   0.181   2.944   9.801 -0.1837  0.2235  0.0929
  641TMC3    C4 9488   0.194   3.208   9.730  0.1424  0.3577  0.2992
  641TMC3    C5 9489   0.302   3.135   9.765  0.3515  0.7469 -0.2545
  641TMC3    C6 9490   0.301   3.006   9.810 -0.2601  0.4860  0.2593
  641TMC3     C 9491   4.676   3.203   9.698 -0.1454 -0.4897 -0.4606
  641TMC3     O 9492   4.584   3.126   9.672  0.0869  0.0524  0.2841
  641TMC3     H 9493   4.701   2.948   9.732 -0.9100  0.8636  0.2014
  641TMC3    H1 9494   0.201   3.312   9.698 -1.5426  0.1889 -0.5763
  641TMC3    H2 9495   0.396   2.962   9.838 -2.4287 -1.9248  3.9056
  641TMC3    C7 9496   0.424   3.207   9.787 -0.0175  0.6649  0.4406
  641TMC3    C8 9497   0.172   2.798   9.807  0.4963  0.0455 -0.3272
  641TMC3    O1 9498   0.417   3.328   9.786 -0.1461 -0.2923  0.3345
  641TMC3    O2 9499   0.098   2.747   9.723 -0.0151 -0.1864  0.1898
  642TMC3    C1 9500   4.449   0.154  12.092 -0.4366 -1.1656 -0.0942
  642TMC3    C2 9501   4.531   0.208  12.185 -0.4402 -0.4784  0.0153
  642TMC3    C3 9502   4.617   0.127  12.252 -0.0754 -0.3013 -0.2269
  642TMC3    C4 9503   4.452   0.018  12.060  0.6371  0.0757 -0.0433
  642TMC3    C5 9504   4.533   4.664  12.140 -0.2508  0.7230 -0.1754
  642TMC3    C6 9505   4.626   4.720  12.229  0.1261  0.4111  0.0960
  642TMC3     C 9506   4.350   0.239  12.029  0.3000  0.6199 -0.3840
  642TMC3     O 9507   4.352   0.262  11.911  0.3179  0.2589  0.2656
  642TMC3     H 9508   4.524   0.316  12.191  1.9536 -0.2172 -1.8555
  642TMC3    H1 9509   4.388   4.702  11.983  2.3149  1.2058 -2.0219
  642TMC3    H2 9510   4.692   4.664  12.294 -1.1970 -0.4523  0.6959
  642TMC3    C7 9511   4.521   4.516  12.125  0.0654  0.3936 -0.7448
  642TMC3    C8 9512   4.699   0.187  12.366  0.3095  0.8568 -0.4591
  642TMC3    O1 9513   4.488   4.482  12.012 -0.1903  0.0131 -0.0355
  642TMC3    O2 9514   4.710   0.112  12.462  0.3962 -0.2461 -0.1148
  643TMC3    C1 9515   3.361   4.375   0.028 -0.8249  0.6282  0.4494
  643TMC3    C2 9516   3.310   4.480  17.656 -0.0039  0.7446 -0.0407
  643TMC3    C3 9517   3.253   4.450  17.538 -0.1923  0.1682  0.2099
  643TMC3    C4 9518   3.357   4.245  17.681  0.3662  0.4312  0.1818
  643TMC3    C5 9519   3.315   4.218  17.553 -0.4521  0.5163 -0.2219
  643TMC3    C6 9520   3.256   4.324  17.487  0.2897  0.2059  0.1999
  643TMC3     C 9521   3.415   4.406   0.156  0.0920  0.1725 -0.8510
  643TMC3     O 9522   3.363   4.503   0.212  0.0068  0.0410  0.1038
  643TMC3     H 9523   3.311   4.581  17.695  3.9098  0.7097 -0.0713
  643TMC3    H1 9524   3.381   4.164   0.047 -0.8483  1.6732  2.0909
  643TMC3    H2 9525   3.215   4.306  17.389  1.0121 -1.4057  0.1889
  643TMC3    C7 9526   3.416   4.160  17.463  0.0520 -0.4305 -0.1867
  643TMC3    C8 9527   3.211   4.565  17.455  0.3490  0.7860 -0.2099
  643TMC3    O1 9528   3.394   4.160  17.344 -0.3956 -0.4065  0.0543
  643TMC3    O2 9529   3.248   4.679  17.493 -0.3445  0.2238  0.3764
  644MPD2     C 9530   3.942   4.666   9.734  0.3928 -0.0234 -0.3786
  644MPD2    C1 9531   3.941   4.530   9.716  0.2933  0.3299 -0.3075
  644MPD2    C2 9532   3.858   4.468   9.630 -0.0991  0.5626 -0.5249
  644MPD2    C3 9533   3.763   4.543   9.563 -0.2137 -0.6882  0.0148
  644MPD2    C4 9534   3.761   4.675   9.585 -0.2284  0.1248 -0.4265
  644MPD2    C5 9535   3.845   0.016   9.675  0.3572 -0.9089  0.0209
  644MPD2     H 9536   3.876   4.362   9.614  0.9719  0.7048 -0.2718
  644MPD2    H1 9537   3.687   0.013   9.538  0.4578  0.5405 -0.9452
  644MPD2    H2 9538   4.008   4.718   9.803 -0.1349  0.3720 -0.1682
  644MPD2    H3 9539   3.837   0.122   9.695 -0.2137 -0.8137 -0.7290
  644MPD2     N 9540   3.667   4.477   9.477 -0.1662 -0.1057 -0.5270
  644MPD2    H5 9541   3.653   4.377   9.490  1.2263  0.0001  1.7451
  644MPD2    N1 9542   4.047   4.464   9.773 -0.1602  0.3151  0.7405
  644MPD2    H7 9543   4.117   4.521   9.820  1.3962 -0.5185 -0.5370
  645TMC3    C1 9544   3.493   4.437   9.329  0.2178  0.4131 -0.0638
  645TMC3    C2 9545   3.478   4.433   9.190 -0.3470  0.1442  0.4643
  645TMC3    C3 9546   3.369   4.369   9.141 -0.6942  0.1578 -0.4178
  645TMC3    C4 9547   3.402   4.392   9.411  0.6329  0.6107  0.1257
  645TMC3    C5 9548   3.290   4.330   9.361 -0.1520 -0.0247 -0.4563
  645TMC3    C6 9549   3.276   4.325   9.225 -0.6718 -0.0299  0.1800
  645TMC3     C 9550   3.575   4.537   9.397  0.1496  0.3283  0.2293
  645TMC3     O 9551   3.572   4.651   9.349 -0.1422  0.1336 -0.0014
  645TMC3     H 9552   3.557   4.460   9.120 -1.2912 -0.1295 -0.6998
  645TMC3    H1 9553   3.406   4.414   9.517  1.1929  0.4277  0.1384
  645TMC3    H2 9554   3.180   4.289   9.189 -1.9967  2.4764  1.2340
  645TMC3    C7 9555   3.193   4.250   9.434 -0.8864 -0.3502 -0.4922
  645TMC3    C8 9556   3.361   4.350   8.998  0.4715  0.2193 -0.3903
  645TMC3    O1 9557   3.081   4.231   9.384  0.2202  0.8117 -0.3208
  645TMC3    O2 9558   3.438   4.415   8.931 -0.2105 -0.2020  0.0499
  646MPD2     C 9559   3.188   3.993  14.066  0.4240  0.9309  0.1099
  646MPD2    C1 9560   3.098   3.953  14.164  0.0555  0.1705  0.6980
  646MPD2    C2 9561   2.977   4.020  14.161 -0.0892 -0.1605 -0.7732
  646MPD2    C3 9562   2.947   4.127  14.071  0.0877 -0.0280  0.6723
  646MPD2    C4 9563   3.042   4.174  13.993  0.3702  0.3170 -0.2426
  646MPD2    C5 9564   3.164   4.109  13.996 -0.0872 -1.3064 -0.0071
  646MPD2     H 9565   2.898   3.984  14.226  0.2284 -0.3933 -0.5150
  646MPD2    H1 9566   3.032   4.248  13.915  1.9704 -1.8301 -2.5142
  646MPD2    H2 9567   3.283   3.942  14.055  1.2379  2.9650 -2.1976
  646MPD2    H3 9568   3.249   4.140  13.936  0.9626  1.6293  3.0011
  646MPD2     N 9569   2.812   4.171  14.067  0.2497 -0.7097 -0.0827
  646MPD2    H5 9570   2.755   4.116  14.129 -1.2205  0.6931 -0.1911
  646MPD2    N1 9571   3.135   3.849  14.249 -0.0428 -0.1485 -0.6275
  646MPD2    H7 9572   3.225   3.806  14.229 -1.3408 -3.2778  0.2227
  647TMC3    C1 9573   3.120   3.703  14.433  0.6630 -0.0017 -0.6534
  647TMC3    C2 9574   3.035   3.597  14.457  0.2977 -0.0947  0.2443
  647TMC3    C3 9575   3.092   3.474  14.479  0.1322 -0.6469 -0.0717
  647TMC3    C4 9576   3.251   3.687  14.428  0.4767  0.6818 -0.5132
  647TMC3    C5 9577   3.301   3.557  14.445 -0.2623  0.6783  0.0915
  647TMC3    C6 9578   3.225   3.452  14.477 -0.6030  0.1743 -0.5779
  647TMC3     C 9579   3.062   3.813  14.362  0.3149 -0.4142 -0.1138
  647TMC3     O 9580   2.949   3.847  14.406  0.3999  0.1628 -0.0634
  647TMC3     H 9581   2.931   3.626  14.465  0.4577  0.0489  1.8722
  647TMC3    H1 9582   3.311   3.777  14.421  1.5701  0.1534  1.9505
  647TMC3    H2 9583   3.264   3.354  14.503 -0.0481  1.1066  2.0411
  647TMC3    C7 9584   3.439   3.541  14.482  0.2258 -0.4359  0.2983
  647TMC3    C8 9585   3.008   3.367  14.535 -0.1174  0.1138 -0.1740
  647TMC3    O1 9586   3.466   3.444  14.551  0.3006 -0.0092  0.4331
  647TMC3    O2 9587   3.073   3.283  14.593  0.5756  0.0512  1.2171
  648TMC3    C1 9588   2.483   1.550  15.842  0.6052 -0.0355 -0.7689
  648TMC3    C2 9589   2.494   1.419  15.805  0.3233  0.4455  1.2601
  648TMC3    C3 9590   2.406   1.374  15.713 -0.1295  0.2701  0.0376
  648TMC3    C4 9591   2.387   1.637  15.804  0.5890 -0.6117  0.4796
  648TMC3    C5 9592   2.298   1.586  15.716 -0.1223  0.3803 -0.0785
  648TMC3    C6 9593   2.299   1.451  15.678 -0.4116 -0.1890 -0.0048
  648TMC3     C 9594   2.559   1.592  15.959 -0.1902 -0.3260 -0.0577
  648TMC3     O 9595   2.547   1.712  15.983  0.3425 -0.3443 -0.0078
  648TMC3     H 9596   2.566   1.342  15.831  2.4656  1.4662 -1.5956
  648TMC3    H1 9597   2.380   1.743  15.823 -2.0521 -0.9131  1.1242
  648TMC3    H2 9598   2.224   1.411  15.612  0.6534  1.0762 -1.9724
  648TMC3    C7 9599   2.159   1.644  15.707 -0.1784 -0.4015 -0.1086
  648TMC3    C8 9600   2.411   1.232  15.695  0.2594 -0.3705 -0.2335
  648TMC3    O1 9601   2.098   1.607  15.607  0.2986 -0.5194 -0.4612
  648TMC3    O2 9602   2.301   1.173  15.680  0.4134  0.1202  0.3296
  649TMC3    C1 9603   1.773   2.737  12.567  0.3288 -0.6424 -1.1678
  649TMC3    C2 9604   1.907   2.768  12.533 -0.2010 -0.7019  0.3523
  649TMC3    C3 9605   1.993   2.807  12.630  0.1128 -0.3949 -0.9144
  649TMC3    C4 9606   1.721   2.752  12.692  0.3309  0.4403 -0.1346
  649TMC3    C5 9607   1.814   2.787  12.788 -0.0056 -0.0797  0.1543
  649TMC3    C6 9608   1.950   2.808  12.762 -0.8147 -0.4277  0.1393
  649TMC3     C 9609   1.683   2.677  12.464 -0.3178  0.2443  0.4093
  649TMC3     O 9610   1.569   2.709  12.458  0.2407 -0.5541  0.5416
  649TMC3     H 9611   1.954   2.757  12.436 -0.3193 -0.1274  0.2288
  649TMC3    H1 9612   1.618   2.731  12.719  0.2593  0.0061 -0.7427
  649TMC3    H2 9613   2.012   2.856  12.837 -3.5399  0.0274  2.0695
  649TMC3    C7 9614   1.788   2.742  12.926 -0.1143 -0.1138 -0.0643
  649TMC3    C8 9615   2.078   2.919  12.601 -0.1467  0.2449  0.2754
  649TMC3    O1 9616   1.669   2.748  12.954  0.3731  0.5253  0.2147
  649TMC3    O2 9617   2.128   2.980  12.691 -0.2499 -0.2237 -0.1629
  650TMC3    C1 9618   4.237   4.281  12.684  0.0786  0.0058 -0.3645
  650TMC3    C2 9619   4.159   4.382  12.736  0.4692 -0.8055 -0.1218
  650TMC3    C3 9620   4.099   4.466  12.648 -0.6210  0.1084  0.0554
  650TMC3    C4 9621   4.254   4.268  12.547  0.5780  0.5262  0.3131
  650TMC3    C5 9622   4.197   4.365  12.469 -0.1281  0.2228  0.2154
  650TMC3    C6 9623   4.107   4.453  12.516 -0.0459 -0.1693  0.4181
  650TMC3     C 9624   4.328   4.212  12.772 -0.5361  0.6762  0.4498
  650TMC3     O 9625   4.367   4.265  12.876 -0.1276 -0.2767  0.3415
  650TMC3     H 9626   4.152   4.397  12.843 -1.7709  0.5664 -0.4604
  650TMC3    H1 9627   4.329   4.207  12.499 -1.0999 -1.7052  0.5150
  650TMC3    H2 9628   4.042   4.501  12.445 -1.2771 -0.1747  1.5416
  650TMC3    C7 9629   4.181   4.323  12.331  0.4166  0.6477  0.5851
  650TMC3    C8 9630   3.990   4.555  12.697 -1.0247  0.2848  0.3798
  650TMC3    O1 9631   4.155   4.204  12.317 -0.6828 -0.4497 -0.3322
  650TMC3    O2 9632   3.959   4.633  12.609 -0.0405  0.1949 -1.3925
  651MPD2     C 9633   3.065   0.928  10.556 -0.7990 -0.8749  0.2529
  651MPD2    C1 9634   3.103   1.002  10.665 -0.5315 -0.4074 -0.7020
  651MPD2    C2 9635   3.234   1.043  10.681 -0.7655 -0.2931 -0.6185
  651MPD2    C3 9636   3.325   0.999  10.591  0.1477  0.6144  0.5818
  651MPD2    C4 9637   3.296   0.917  10.485 -0.4194  0.2800  0.0499
  651MPD2    C5 9638   3.167   0.883  10.468 -0.1597  0.1106  0.4127
  651MPD2     H 9639   3.255   1.094  10.774 -2.2781  0.9611 -0.9788
  651MPD2    H1 9640   3.369   0.870  10.420  0.7660 -0.4284  1.9054
  651MPD2    H2 9641   2.962   0.908  10.528 -0.8078 -0.5598  0.0594
  651MPD2    H3 9642   3.142   0.819  10.384 -0.1798 -0.7963  1.1117
  651MPD2     N 9643   3.457   1.048  10.612 -0.2492 -0.7153  0.4505
  651MPD2    H5 9644   3.467   1.111  10.691  0.4392 -1.7783  1.2074
  651MPD2    N1 9645   3.006   1.062  10.752  0.4401 -0.3537  0.4753
  651MPD2    H7 9646   3.047   1.113  10.830  1.2640 -1.6403  0.8714
  652TMC3    C1 9647   3.887   1.213  10.517  0.0092  0.0341  0.0061
  652TMC3    C2 9648   3.787   1.124  10.491 -0.1040  0.0054 -0.9434
  652TMC3    C3 9649   3.674   1.131  10.566 -0.3690  0.9163 -0.2120
  652TMC3    C4 9650   3.867   1.321  10.604 -0.1740  0.0364 -0.3612
  652TMC3    C5 9651   3.750   1.335  10.666 -0.1069  0.1929  0.2770
  652TMC3    C6 9652   3.656   1.231  10.664  1.0391  0.2093  0.8212
  652TMC3     C 9653   3.982   1.223  10.409 -0.1394 -0.7941 -0.1558
  652TMC3     O 9654   3.935   1.206  10.297 -0.0077 -0.1941  0.7368
  652TMC3     H 9655   3.790   1.040  10.422  0.9868 -0.2667 -0.5600
  652TMC3    H1 9656   3.953   1.385  10.619  0.8110 -1.1085 -1.0613
  652TMC3    H2 9657   3.566   1.251  10.721  0.3890  0.3398 -0.2454
  652TMC3    C7 9658   3.722   1.449  10.747  0.3473  0.0691  0.3627
  652TMC3    C8 9659   3.574   1.023  10.544  0.3143  0.3684  0.0796
  652TMC3    O1 9660   3.633   1.436  10.827  0.3317  0.4831 -0.0422
  652TMC3    O2 9661   3.589   0.935  10.461 -0.0021  0.0739 -0.1224
  653MPD2     C 9662   1.890   1.434  17.277 -0.3962 -0.2218 -0.8059
  653MPD2    C1 9663   1.793   1.517  17.329 -0.2496  0.9788  0.4628
  653MPD2    C2 9664   1.664   1.470  17.356 -0.0013 -0.0609  0.2199
  653MPD2    C3 9665   1.630   1.333  17.340 -0.4773  0.4697  0.1342
  653MPD2    C4 9666   1.725   1.254  17.277 -0.2922 -0.1090  0.0715
  653MPD2    C5 9667   1.855   1.302  17.255  0.3634 -0.0315  0.1623
  653MPD2     H 9668   1.584   1.531  17.397  1.2803  0.8537  1.3228
  653MPD2    H1 9669   1.706   1.148  17.262  0.8941 -0.2152 -0.6904
  653MPD2    H2 9670   1.991   1.463  17.250 -0.5487  1.9071  0.9717
  653MPD2    H3 9671   1.932   1.231  17.225  1.2855  0.7377  0.6875
  653MPD2     N 9672   1.494   1.290  17.355  0.4977 -0.2461 -0.3343
  653MPD2    H5 9673   1.431   1.369  17.364 -0.2200 -1.0445  1.6911
  653MPD2    N1 9674   1.805   1.661  17.339  0.3458 -0.4834  0.2550
  653MPD2    H7 9675   1.733   1.706  17.394 -1.0525 -0.4576 -1.5803
  654TMC3    C1 9676   1.312   1.150  17.410  0.3406 -0.4995 -0.4106
  654TMC3    C2 9677   1.217   1.249  17.371 -0.0069 -0.0109 -0.2668
  654TMC3    C3 9678   1.085   1.240  17.411 -1.1102  0.1921  0.4595
  654TMC3    C4 9679   1.270   1.036  17.473  0.5379  0.5515  0.8225
  654TMC3    C5 9680   1.133   1.023  17.497  0.0599 -0.4558 -0.5345
  654TMC3    C6 9681   1.045   1.122  17.462  0.7226 -0.1249  0.3777
  654TMC3     C 9682   1.451   1.158  17.374  0.3289 -0.6456 -0.1091
  654TMC3     O 9683   1.521   1.057  17.365  0.0363 -0.2906 -0.1871
  654TMC3     H 9684   1.260   1.326  17.308 -1.6210  0.4311 -0.8244
  654TMC3    H1 9685   1.340   0.964  17.513 -0.6892 -0.4371  1.2094
  654TMC3    H2 9686   0.941   1.090  17.462  1.3628 -2.2116 -3.2089
  654TMC3    C7 9687   1.075   0.905  17.559  0.2631 -0.7468  0.6034
  654TMC3    C8 9688   1.003   1.344  17.364  0.0591  0.3600 -0.8753
  654TMC3    O1 9689   0.966   0.915  17.615 -0.4478  0.6716 -0.2100
  654TMC3    O2 9690   0.886   1.321  17.334  0.8326 -0.4822  0.1788
  655MPD2     C 9691   2.897   1.677  15.983 -0.2530  1.0698  0.2525
  655MPD2    C1 9692   2.856   1.770  15.888 -0.3152  0.9320 -0.5597
  655MPD2    C2 9693   2.855   1.729  15.754 -1.0383  0.0223 -0.4139
  655MPD2    C3 9694   2.864   1.595  15.712  0.3132 -0.4023 -0.0044
  655MPD2    C4 9695   2.904   1.509  15.806 -0.4723  0.1919 -0.2249
  655MPD2    C5 9696   2.918   1.545  15.939  0.4637 -0.4346  0.4699
  655MPD2     H 9697   2.828   1.808  15.685 -0.6008  0.6827  0.1754
  655MPD2    H1 9698   2.922   1.409  15.770 -1.5915  0.0527 -0.3891
  655MPD2    H2 9699   2.918   1.706  16.085 -0.6725  0.8358  0.4062
  655MPD2    H3 9700   2.950   1.482  16.022  1.7771 -1.2520 -0.6665
  655MPD2     N 9701   2.848   1.570  15.576 -0.0609  0.0662 -0.3620
  655MPD2    H5 9702   2.841   1.646  15.510 -0.7933  0.3413  0.0362
  655MPD2    N1 9703   2.811   1.900  15.913 -0.3686  0.0179  0.0019
  655MPD2    H7 9704   2.791   1.951  15.827  2.5828  2.5122  0.7730
  656TMC3    C1 9705   2.652   2.042  16.005  0.4156  0.1818  0.1014
  656TMC3    C2 9706   2.614   2.124  16.106 -0.3173 -0.0471  0.0013
  656TMC3    C3 9707   2.491   2.187  16.096 -0.7510  0.3593 -0.2279
  656TMC3    C4 9708   2.574   2.023  15.895  0.1267 -0.1977  0.8116
  656TMC3    C5 9709   2.456   2.090  15.883  0.3362 -0.5287  0.0054
  656TMC3    C6 9710   2.408   2.173  15.981  0.0584 -0.3444  0.3200
  656TMC3     C 9711   2.758   1.941  16.036  0.2231 -0.0165  1.1438
  656TMC3     O 9712   2.777   1.890  16.144 -0.0292 -0.2957  0.8034
  656TMC3     H 9713   2.689   2.147  16.182 -1.1379 -0.6012  0.9711
  656TMC3    H1 9714   2.590   1.941  15.826  3.2718  0.7943  0.3602
  656TMC3    H2 9715   2.325   2.240  15.963  1.6868  1.4801 -0.4053
  656TMC3    C7 9716   2.368   2.048  15.772 -0.5389 -0.3653 -0.3414
  656TMC3    C8 9717   2.426   2.202  16.223  0.5578 -0.4069  0.2123
  656TMC3    O1 9718   2.427   1.993  15.675 -0.4529 -0.1078  0.3479
  656TMC3    O2 9719   2.456   2.296  16.293  0.2650  0.0764 -0.0426
  657TMC3    C1 9720   1.559   1.028  15.015  0.4248  0.3317  0.1047
  657TMC3    C2 9721   1.489   0.927  14.960 -0.1302 -0.2544 -0.4376
  657TMC3    C3 9722   1.361   0.956  14.929  0.9793 -0.6747  0.0879
  657TMC3    C4 9723   1.513   1.158  15.030  0.9764 -0.0651 -0.7592
  657TMC3    C5 9724   1.392   1.191  14.981  0.2272  0.3251 -0.1095
  657TMC3    C6 9725   1.316   1.086  14.927 -0.3241  0.1153 -0.0685
  657TMC3     C 9726   1.698   1.010  15.058 -0.5890  0.2262  0.6713
  657TMC3     O 9727   1.760   1.114  15.084  0.7567  0.4922  0.0598
  657TMC3     H 9728   1.534   0.835  14.923  0.4444  0.1890 -0.8373
  657TMC3    H1 9729   1.581   1.234  15.065  2.0388 -2.3510  2.1049
  657TMC3    H2 9730   1.214   1.110  14.900  0.1845  0.9076 -1.2871
  657TMC3    C7 9731   1.343   1.331  14.968  0.1525  0.0510 -0.8918
  657TMC3    C8 9732   1.253   0.858  14.925 -0.6723 -0.0207  0.1068
  657TMC3    O1 9733   1.239   1.347  14.907 -0.2027  0.0135 -0.1786
  657TMC3    O2 9734   1.137   0.904  14.909 -0.0948 -0.0746 -0.5652
  658MPD2     C 9735   3.124   1.536  14.903 -0.4624  0.2389  0.1489
  658MPD2    C1 9736   3.030   1.624  14.948  0.3349  0.3934  0.4244
  658MPD2    C2 9737   3.005   1.732  14.863 -0.1618  0.2934  0.3234
  658MPD2    C3 9738   3.056   1.746  14.737 -0.4846  0.1604  0.1587
  658MPD2    C4 9739   3.150   1.651  14.690 -0.2919  0.3305  0.0819
  658MPD2    C5 9740   3.177   1.549  14.774  0.0493  0.2096 -0.0214
  658MPD2     H 9741   2.919   1.796  14.878  0.7693  1.7766 -0.7011
  658MPD2    H1 9742   3.200   1.655  14.594 -0.2767  1.8495  0.1435
  658MPD2    H2 9743   3.146   1.450  14.965  0.2756 -1.1792 -2.0567
  658MPD2    H3 9744   3.257   1.486  14.736  0.0443 -1.3040  2.4809
  658MPD2     N 9745   3.008   1.854  14.656  0.2334  0.1601 -0.2671
  658MPD2    H5 9746   2.942   1.916  14.700  1.1039 -1.0118  2.7346
  658MPD2    N1 9747   2.957   1.600  15.070 -0.3506 -0.3944  0.2448
  658MPD2    H7 9748   2.988   1.517  15.119  1.7040 -1.3571 -2.7221
  659TMC3    C1 9749   2.778   1.590  15.211  0.3724 -0.8424  0.2417
  659TMC3    C2 9750   2.857   1.541  15.314  0.3959  0.2134 -0.1850
  659TMC3    C3 9751   2.807   1.435  15.388  0.1908  0.3805  0.0906
  659TMC3    C4 9752   2.654   1.544  15.190 -0.5289 -0.7350 -0.5498
  659TMC3    C5 9753   2.606   1.442  15.259 -0.4279 -0.4373 -0.6680
  659TMC3    C6 9754   2.683   1.382  15.358 -0.1031 -0.2256 -0.7188
  659TMC3     C 9755   2.843   1.668  15.105  0.0763  0.7135  0.0631
  659TMC3     O 9756   2.771   1.738  15.037 -0.1775 -0.4561 -0.0065
  659TMC3     H 9757   2.959   1.576  15.325  0.1113  1.2500 -0.7384
  659TMC3    H1 9758   2.593   1.593  15.116 -0.7569  0.3079  0.3190
  659TMC3    H2 9759   2.646   1.298  15.415  1.3911  0.0563  0.6759
  659TMC3    C7 9760   2.477   1.383  15.249 -0.3897  0.0566  0.2874
  659TMC3    C8 9761   2.819   1.440  15.533  0.1401 -0.1257  0.1708
  659TMC3    O1 9762   2.450   1.283  15.319 -0.1942  0.3351  0.3689
  659TMC3    O2 9763   2.779   1.342  15.596 -0.5093  0.1562  0.3115
  660MPD2     C 9764   0.974   0.321  12.438  0.3006 -0.0342 -0.2523
  660MPD2    C1 9765   0.844   0.349  12.468 -0.4153 -0.1426  0.2434
  660MPD2    C2 9766   0.772   0.280  12.568 -0.5938  0.0361 -0.1616
  660MPD2    C3 9767   0.837   0.180  12.632  0.6587 -0.2492 -0.7527
  660MPD2    C4 9768   0.960   0.141  12.589 -0.0259  0.7105  0.0416
  660MPD2    C5 9769   1.028   0.206  12.491  0.6018  0.8082 -0.2955
  660MPD2     H 9770   0.674   0.313  12.600 -0.3742 -1.2441  1.8621
  660MPD2    H1 9771   1.012   0.055  12.631  0.1595 -0.5856 -2.8195
  660MPD2    H2 9772   1.038   0.369  12.365  0.0266 -0.8014 -0.9967
  660MPD2    H3 9773   1.125   0.171  12.460 -0.8136 -1.2813 -2.4071
  660MPD2     N 9774   0.765   0.099  12.729 -0.0693  0.4571  0.4381
  660MPD2    H5 9775   0.810   0.014  12.764  1.1199  0.2920 -1.5335
  660MPD2    N1 9776   0.780   0.436  12.380  0.5636 -0.3969  0.5550
  660MPD2    H7 9777   0.840   0.499  12.328 -0.8783 -0.3527 -1.0573
  661TMC3    C1 9778   0.631   0.555  12.267  0.6926  0.4023  0.0595
  661TMC3    C2 9779   0.722   0.572  12.168  0.8287  0.1836 -0.0246
  661TMC3    C3 9780   0.676   0.610  12.052  0.0702 -0.0784 -0.3717
  661TMC3    C4 9781   0.506   0.613  12.263  0.5617 -0.1706 -0.3504
  661TMC3    C5 9782   0.468   0.657  12.137 -0.2490  0.3295  0.9333
  661TMC3    C6 9783   0.549   0.658  12.033  0.2083 -0.3608  0.3904
  661TMC3     C 9784   0.648   0.451  12.366 -0.3638  0.3640  0.2157
  661TMC3     O 9785   0.552   0.401  12.421 -0.2286  0.6686 -1.0097
  661TMC3     H 9786   0.814   0.515  12.160  0.2956 -0.8028  0.9016
  661TMC3    H1 9787   0.434   0.592  12.342  0.9451 -0.8023 -0.1658
  661TMC3    H2 9788   0.504   0.661  11.934 -1.7944  0.8798  1.3342
  661TMC3    C7 9789   0.332   0.629  12.104  0.2649  0.1540  0.1157
  661TMC3    C8 9790   0.766   0.606  11.936  1.1646  0.6933 -0.1634
  661TMC3    O1 9791   0.250   0.710  12.060  0.7105 -0.1502  0.1324
  661TMC3    O2 9792   0.875   0.555  11.948  0.2208  0.1136  0.0950
  662MPD2     C 9793   0.745   0.394  17.284 -0.4624 -0.5974 -0.6904
  662MPD2    C1 9794   0.749   0.314  17.398  0.5681 -0.0657 -0.1358
  662MPD2    C2 9795   0.719   0.363  17.522  0.8395 -0.4891 -0.6337
  662MPD2    C3 9796   0.673   0.494  17.531  0.5807  0.2435  0.1247
  662MPD2    C4 9797   0.667   0.579  17.424  0.0297 -0.1428  0.5976
  662MPD2    C5 9798   0.705   0.522  17.298 -0.1820 -0.6562  0.0920
  662MPD2     H 9799   0.734   0.302  17.610 -3.5432 -1.4982 -0.5397
  662MPD2    H1 9800   0.635   0.682  17.434 -0.7627 -0.4837  1.5133
  662MPD2    H2 9801   0.777   0.364  17.185  2.2793 -0.8396  0.2840
  662MPD2    H3 9802   0.701   0.596  17.219  2.0476  1.9459  2.4624
  662MPD2     N 9803   0.631   0.546  17.654 -0.8029 -0.0162 -0.0614
  662MPD2    H5 9804   0.623   0.648  17.658  0.9065  0.0195  2.0987
  662MPD2    N1 9805   0.777   0.176  17.403 -0.4439 -0.1473  0.2823
  662MPD2    H7 9806   0.769   0.121  17.487  0.4440  0.7296  0.9429
  663TMC3    C1 9807   0.780   4.684  17.324  0.4215 -0.4381 -0.3337
  663TMC3    C2 9808   0.697   4.634  17.421  0.4072 -0.4955 -0.2758
  663TMC3    C3 9809   0.661   4.498  17.416 -0.4382  0.3471 -0.3893
  663TMC3    C4 9810   0.841   4.606  17.231  0.4521 -0.5581  0.4269
  663TMC3    C5 9811   0.804   4.473  17.228 -0.3217 -0.2559 -0.2298
  663TMC3    C6 9812   0.710   4.422  17.310 -0.6894 -0.9992 -0.4494
  663TMC3     C 9813   0.801   0.098  17.298 -0.4760  0.0989  0.4877
  663TMC3     O 9814   0.811   0.131  17.181  0.2921  0.0139  0.2301
  663TMC3     H 9815   0.625   4.698  17.471 -3.6680 -4.1611 -1.4403
  663TMC3    H1 9816   0.908   4.653  17.160 -0.7865  0.4503 -0.0580
  663TMC3    H2 9817   0.644   4.341  17.280 -0.7080 -1.7065  1.5314
  663TMC3    C7 9818   0.858   4.381  17.126  0.4718  0.1314 -0.9166
  663TMC3    C8 9819   0.521   4.479  17.444  0.3961 -0.7019  0.8449
  663TMC3    O1 9820   0.907   4.430  17.024  0.0654  0.4409 -0.1156
  663TMC3    O2 9821   0.445   4.412  17.375 -0.2762  0.0063  0.1986
  664MPD2     C 9822   3.898   2.951  17.651 -0.6239  0.0670 -0.6012
  664MPD2    C1 9823   3.944   3.083  17.664  0.1086  0.0688  0.1849
  664MPD2    C2 9824   3.972   3.133   0.087 -0.3944 -0.5631 -0.0824
  664MPD2    C3 9825   3.946   3.060   0.205 -0.2610  0.4648  0.1751
  664MPD2    C4 9826   3.909   2.930   0.190 -0.7656 -0.2150 -0.4564
  664MPD2    C5 9827   3.876   2.884   0.065  0.4551  0.6565  0.0405
  664MPD2     H 9828   3.999   3.238   0.096 -1.1623 -0.4492  0.9840
  664MPD2    H1 9829   3.903   2.863   0.275  1.1461  1.2641  0.8549
  664MPD2    H2 9830   3.886   2.896  17.558 -1.3058 -0.3104 -0.2909
  664MPD2    H3 9831   3.849   2.779   0.062 -0.4761  0.7942  3.0907
  664MPD2     N 9832   3.978   3.115   0.334  0.1147  0.8820  0.3437
  664MPD2    H5 9833   3.997   3.214   0.335  2.5604  0.4100  1.4569
  664MPD2    N1 9834   3.974   3.158  17.540 -0.4837  0.9162 -0.4790
  664MPD2    H7 9835   4.020   3.246  17.561 -0.3248  1.0789 -1.4900
  665TMC3    C1 9836   4.021   3.120   0.569  0.1877 -0.0651 -0.1959
  665TMC3    C2 9837   4.084   3.058   0.676 -0.2328 -0.5344  0.5761
  665TMC3    C3 9838   4.096   3.130   0.793  0.1220 -0.1487 -0.4148
  665TMC3    C4 9839   3.945   3.236   0.583  0.0986  0.0178 -0.0456
  665TMC3    C5 9840   3.957   3.298   0.703 -0.2810  0.0309 -0.1598
  665TMC3    C6 9841   4.030   3.253   0.807  0.6196  0.0909  0.6135
  665TMC3     C 9842   4.013   3.045   0.448 -0.1457 -0.3359 -0.4620
  665TMC3     O 9843   4.051   2.926   0.452 -0.0094 -0.4241 -0.0628
  665TMC3     H 9844   4.122   2.957   0.668  2.2174  0.6783 -3.0925
  665TMC3    H1 9845   3.883   3.277   0.504 -0.9433  3.0471  2.3645
  665TMC3    H2 9846   4.047   3.311   0.897  0.8122 -0.6255  1.0279
  665TMC3    C7 9847   3.878   3.418   0.731  0.5314 -0.0578  0.3371
  665TMC3    C8 9848   4.114   3.057   0.914  0.7296  0.1256  0.2405
  665TMC3    O1 9849   3.820   3.471   0.636 -0.0655 -0.3655 -0.0668
  665TMC3    O2 9850   4.082   3.118   1.020  0.6026  0.1553 -0.5949
  666TMC3    C1 9851   3.563   2.055  10.336 -0.5152  0.2020  0.0189
  666TMC3    C2 9852   3.502   2.054  10.213 -0.2559  1.0232  0.5152
  666TMC3    C3 9853   3.438   2.165  10.171 -0.5395  0.2824  0.1402
  666TMC3    C4 9854   3.565   2.165  10.416 -0.8126  0.2754  0.0127
  666TMC3    C5 9855   3.497   2.276  10.372 -0.0900 -0.3930 -0.0644
  666TMC3    C6 9856   3.432   2.273  10.251  0.3298 -0.5586 -0.0525
  666TMC3     C 9857   3.639   1.932  10.369 -0.5179 -0.1297 -0.5807
  666TMC3     O 9858   3.752   1.941  10.417 -0.3429  0.4734  0.4581
  666TMC3     H 9859   3.506   1.969  10.146 -0.1138  0.1213  1.6607
  666TMC3    H1 9860   3.604   2.162  10.517 -1.6778  0.0423  0.3406
  666TMC3    H2 9861   3.393   2.368  10.215  0.9027 -0.7583 -1.1986
  666TMC3    C7 9862   3.521   2.411  10.425  0.6561  0.2333  0.3919
  666TMC3    C8 9863   3.402   2.177  10.032 -0.0311 -0.2603  0.0821
  666TMC3    O1 9864   3.449   2.503  10.382 -0.3534 -0.1435 -0.3407
  666TMC3    O2 9865   3.325   2.095   9.992 -0.7275  0.2883  0.3037
  667MPD2     C 9866   0.016   2.961  14.675  0.5752 -0.4874  0.3080
  667MPD2    C1 9867   4.674   3.073  14.730  0.6797 -0.3540 -0.1406
  667MPD2    C2 9868   4.560   3.121  14.665  0.2787  0.1345 -0.5803
  667MPD2    C3 9869   4.509   3.065  14.548 -0.3264 -0.3364  0.3689
  667MPD2    C4 9870   4.573   2.951  14.499 -0.2712  0.1547  0.1069
  667MPD2    C5 9871   4.678   2.900  14.569  0.8050 -0.2812 -0.1532
  667MPD2     H 9872   4.509   3.209  14.704 -2.7341 -1.0389 -1.8424
  667MPD2    H1 9873   4.546   2.893  14.412  0.8045  2.5656 -1.8588
  667MPD2    H2 9874   0.094   2.905  14.725 -0.8734 -2.5184  0.2921
  667MPD2    H3 9875   4.703   2.794  14.565 -2.4221 -1.0342 -0.4975
  667MPD2     N 9876   4.391   3.104  14.471 -0.2499  0.1120  0.0816
  667MPD2    H5 9877   4.371   3.056  14.384  0.4038 -1.3397  0.7124
  667MPD2    N1 9878   4.725   3.140  14.840 -0.1870  0.3006  0.5170
  667MPD2    H7 9879   4.661   3.204  14.886 -2.2587 -1.3842 -0.0213
  668TMC3    C1 9880   0.158   3.210  14.998 -0.1103 -0.1157  0.6895
  668TMC3    C2 9881   0.269   3.285  14.994 -0.0620 -0.6375 -0.1075
  668TMC3    C3 9882   0.278   3.388  15.091 -0.0144  0.1534 -0.2760
  668TMC3    C4 9883   0.058   3.231  15.089  0.4898 -0.1909  0.1687
  668TMC3    C5 9884   0.080   3.323  15.187  1.3740  0.5142 -0.1768
  668TMC3    C6 9885   0.199   3.393  15.197 -0.2686  0.2520 -0.3747
  668TMC3     C 9886   0.132   3.131  14.881 -0.0903  0.2164  1.1318
  668TMC3     O 9887   0.225   3.070  14.829 -0.3613 -0.1321 -0.6116
  668TMC3     H 9888   0.327   3.289  14.903 -0.9338  0.2311 -0.6168
  668TMC3    H1 9889   4.697   3.166  15.089  0.7222 -0.4682 -2.4866
  668TMC3    H2 9890   0.225   3.459  15.279  2.5495 -1.3045 -0.0420
  668TMC3    C7 9891   4.724   3.322  15.310 -0.0441 -0.8992  0.0490
  668TMC3    C8 9892   0.348   3.509  15.061  0.1324 -0.0972 -0.0543
  668TMC3    O1 9893   0.056   3.368  15.412  0.3576 -0.4204 -0.5546
  668TMC3    O2 9894   0.367   3.582  15.160 -0.2881  0.2537  0.0330
  669TMC3    C1 9895   2.718   2.912  14.508  0.0243 -0.2061  0.2787
  669TMC3    C2 9896   2.599   2.946  14.448  0.9268  0.5222 -0.0625
  669TMC3    C3 9897   2.612   3.025  14.336  0.6292  0.0604  0.7164
  669TMC3    C4 9898   2.839   2.956  14.460  0.1338 -0.7884 -0.7130
  669TMC3    C5 9899   2.843   3.018  14.340  0.1026  0.9074 -0.0839
  669TMC3    C6 9900   2.732   3.055  14.269  0.2549  0.7438 -0.3108
  669TMC3     C 9901   2.706   2.810  14.608 -1.0909 -0.2223 -0.2385
  669TMC3     O 9902   2.596   2.768  14.644  0.1892 -1.1977  0.5109
  669TMC3     H 9903   2.502   2.911  14.482  1.2881  0.2561  0.7066
  669TMC3    H1 9904   2.913   2.981  14.535 -2.2829 -0.6590  1.6365
  669TMC3    H2 9905   2.738   3.119  14.182  0.6469 -0.2791 -1.0415
  669TMC3    C7 9906   2.974   3.073  14.302 -0.5996 -0.0605 -0.0627
  669TMC3    C8 9907   2.492   3.095  14.296  0.0261 -0.0574  0.3956
  669TMC3    O1 9908   2.973   3.175  14.234 -0.1685 -0.0681  0.2039
  669TMC3    O2 9909   2.418   3.127  14.387  0.2732  0.5800 -0.0143
  670MPD2     C 9910   1.314   0.940  13.446 -0.2818  0.1430 -0.2637
  670MPD2    C1 9911   1.358   0.983  13.572 -0.0450  0.2095  0.2289
  670MPD2    C2 9912   1.288   0.942  13.680  0.1622  0.9435 -0.0540
  670MPD2    C3 9913   1.174   0.864  13.668 -0.5040 -0.5574  0.4454
  670MPD2    C4 9914   1.130   0.828  13.542  0.4052 -0.1567 -0.1027
  670MPD2    C5 9915   1.197   0.868  13.433 -0.1142 -0.6898  0.5798
  670MPD2     H 9916   1.318   0.985  13.775  1.0056  1.4678 -0.5542
  670MPD2    H1 9917   1.040   0.770  13.526  1.0975 -1.1992 -0.2204
  670MPD2    H2 9918   1.355   0.972  13.351 -0.1275  0.5491 -0.0623
  670MPD2    H3 9919   1.177   0.838  13.330  0.8531 -2.0851  0.7969
  670MPD2     N 9920   1.108   0.831  13.788  0.1358  0.8120 -0.3666
  670MPD2    H5 9921   1.161   0.835  13.874  0.0540 -0.0875 -0.2810
  670MPD2    N1 9922   1.475   1.057  13.598  0.0849 -0.3568  0.3454
  670MPD2    H7 9923   1.491   1.081  13.695  1.6810  0.7665 -0.2079
  671TMC3    C1 9924   0.935   0.713  13.911 -0.4019 -0.3780  0.7915
  671TMC3    C2 9925   1.021   0.641  13.984  0.0476 -0.8879  0.3342
  671TMC3    C3 9926   0.966   0.536  14.056 -0.1881 -0.0238  0.2187
  671TMC3    C4 9927   0.800   0.687  13.914  0.2872  0.2181  0.3826
  671TMC3    C5 9928   0.756   0.578  13.978 -1.3286  0.2445  0.0843
  671TMC3    C6 9929   0.837   0.493  14.040 -0.6472 -0.4240 -0.3268
  671TMC3     C 9930   0.983   0.773  13.785 -0.1345  0.7533 -0.8057
  671TMC3     O 9931   0.900   0.772  13.697  0.3559 -0.5027 -0.0560
  671TMC3     H 9932   1.127   0.651  13.966 -0.4309  1.7670 -1.1590
  671TMC3    H1 9933   0.725   0.743  13.860 -0.1985 -2.4797 -1.7485
  671TMC3    H2 9934   0.791   0.423  14.109 -1.1780  2.0905  1.8677
  671TMC3    C7 9935   0.655   0.501  13.904  0.7197 -0.1018 -0.4656
  671TMC3    C8 9936   1.061   0.432  14.091  0.5298  0.0458  0.5231
  671TMC3    O1 9937   0.674   0.380  13.882 -0.0328  0.2451 -0.1562
  671TMC3    O2 9938   1.018   0.316  14.083 -0.4304  0.6822 -0.1739
  672MPD2     C 9939   0.498   1.161   1.148  0.2688 -0.1949 -0.4054
  672MPD2    C1 9940   0.551   1.251   1.056 -0.1628 -0.6409 -0.5758
  672MPD2    C2 9941   0.633   1.349   1.097 -0.5044  0.0344 -0.2661
  672MPD2    C3 9942   0.666   1.360   1.233  0.2906 -0.4352  0.4061
  672MPD2    C4 9943   0.612   1.271   1.319  0.5376 -0.8256 -0.2580
  672MPD2    C5 9944   0.534   1.168   1.282  0.4597 -0.0048 -0.1922
  672MPD2     H 9945   0.663   1.416   1.017  1.0945 -0.7422 -0.3029
  672MPD2    H1 9946   0.631   1.273   1.426 -0.4583  2.1507 -0.1444
  672MPD2    H2 9947   0.422   1.088   1.122 -2.2856  3.0439 -2.1003
  672MPD2    H3 9948   0.497   1.095   1.353  1.8619 -1.6493 -1.1749
  672MPD2     N 9949   0.744   1.461   1.292  0.4926  0.3868  0.1543
  672MPD2    H5 9950   0.753   1.454   1.393  1.1334 -1.7874 -0.0540
  672MPD2    N1 9951   0.512   1.252   0.917  0.3229  0.0261 -0.2878
  672MPD2    H7 9952   0.541   1.334   0.865  0.2507  2.1681  3.0664
  673TMC3    C1 9953   0.458   1.172   0.708 -0.7305  0.1721 -0.2201
  673TMC3    C2 9954   0.540   1.063   0.671 -0.5297  0.1657 -0.0873
  673TMC3    C3 9955   0.660   1.110   0.615  0.7050  0.7029  0.0316
  673TMC3    C4 9956   0.492   1.305   0.674 -0.2322  0.3606  0.0546
  673TMC3    C5 9957   0.608   1.335   0.603 -0.2108 -0.0125 -0.0157
  673TMC3    C6 9958   0.693   1.235   0.572  0.4885  0.0127 -0.4462
  673TMC3     C 9959   0.445   1.153   0.850  0.0537 -1.0836 -0.9665
  673TMC3     O 9960   0.396   1.049   0.891 -0.4832 -0.7088  0.2239
  673TMC3     H 9961   0.527   0.962   0.708  0.8718 -0.6743 -1.8510
  673TMC3    H1 9962   0.430   1.386   0.711  0.8160  1.3134 -0.2962
  673TMC3    H2 9963   0.782   1.247   0.512  1.0364 -1.1557  0.1466
  673TMC3    C7 9964   0.678   1.440   0.672 -0.1757 -0.0211 -0.1510
  673TMC3    C8 9965   0.747   1.004   0.569  0.8228 -0.2729 -1.3368
  673TMC3    O1 9966   0.639   1.466   0.787  0.2735  0.6539 -0.2811
  673TMC3    O2 9967   0.713   0.932   0.475 -0.4164 -0.2803 -0.6036
  674MPD2     C 9968   1.536   1.244   0.042  0.5728  0.2177 -0.8922
  674MPD2    C1 9969   1.427   1.162   0.051 -0.0482 -0.3641 -0.2333
  674MPD2    C2 9970   1.295   1.216   0.039  0.5197  1.1133 -0.0501
  674MPD2    C3 9971   1.289   1.354   0.010 -0.3930  0.0272  0.4505
  674MPD2    C4 9972   1.401   1.431  17.701  0.2140  0.8289 -0.2067
  674MPD2    C5 9973   1.524   1.384   0.022  0.1985 -0.0486  0.2938
  674MPD2     H 9974   1.210   1.148   0.046  0.5901  0.9414 -0.8686
  674MPD2    H1 9975   1.400   1.540  17.698 -0.3662  0.7676 -1.7234
  674MPD2    H2 9976   1.634   1.199   0.053  0.6481  0.2477 -1.4331
  674MPD2    H3 9977   1.605   1.455   0.035 -1.1153  1.3679  0.7915
  674MPD2     N 9978   1.159   1.410  17.699  0.4931 -0.0120 -0.6579
  674MPD2    H5 9979   1.086   1.344   0.024  0.8834 -0.7883 -1.5055
  674MPD2    N1 9980   1.459   1.026   0.068 -0.4466 -0.9220  0.5726
  674MPD2    H7 9981   1.555   0.995   0.079 -0.5095 -2.4074 -3.2768
  675TMC3    C1 9982   1.427   0.789   0.103  0.6410 -0.1516 -0.9342
  675TMC3    C2 9983   1.382   0.694   0.197 -0.1284 -0.2077 -0.9918
  675TMC3    C3 9984   1.458   0.584   0.202  0.3737  0.0131  0.1417
  675TMC3    C4 9985   1.525   0.767   0.007 -0.7351  0.2054 -0.3981
  675TMC3    C5 9986   1.597   0.654   0.033  0.5484 -0.4473 -0.6829
  675TMC3    C6 9987   1.575   0.567   0.134 -0.2636  0.3506 -0.1509
  675TMC3     C 9988   1.368   0.924   0.111  0.2609 -0.4893  0.7609
  675TMC3     O 9989   1.252   0.938   0.154  0.2102  0.4546  0.1623
  675TMC3     H 9990   1.301   0.718   0.265  1.2851 -2.5309  1.4978
  675TMC3    H1 9991   1.565   0.850  17.653 -0.9524 -0.7576 -1.9881
  675TMC3    H2 9992   1.638   0.480   0.147 -0.7682 -0.3892 -2.4838
  675TMC3    C7 9993   1.711   0.625  17.653  0.3760  0.0517 -0.6809
  675TMC3    C8 9994   1.417   0.472   0.286 -0.1556 -0.2325  0.1239
  675TMC3    O1 9995   1.812   0.590   0.007  0.1179  0.0621 -0.0817
  675TMC3    O2 9996   1.501   0.390   0.323  0.5449 -0.5800 -0.0355
  676MPD2     C 9997   4.341   3.860  11.015 -0.0269  0.2689  0.5605
  676MPD2    C1 9998   4.223   3.844  11.084 -0.6594  0.4475 -0.0865
  676MPD2    C2 9999   4.149   3.727  11.078 -0.7674 -0.6933 -0.0325
  676MPD2    C310000   4.206   3.613  11.013 -0.1802 -0.1841  0.4704
  676MPD2    C410001   4.330   3.630  10.952  0.1388  0.0709  0.3601
  676MPD2    C510002   4.392   3.755  10.944 -0.3162 -0.3220  0.0686
  676MPD2     H10003   4.056   3.710  11.131  0.1140 -0.1338  1.7123
  676MPD2    H110004   4.379   3.553  10.895  1.5565  2.4893 -1.7116
  676MPD2    H210005   4.400   3.951  11.014  0.0969  0.1613 -2.6375
  676MPD2    H310006   4.486   3.761  10.891 -0.1649  1.7469  0.5554
  676MPD2     N10007   4.138   3.485  10.995  0.7948  0.0042 -0.8044
  676MPD2    H510008   4.198   3.415  10.952  2.6022  1.8726 -1.3533
  676MPD2    N110009   4.168   3.949  11.155 -0.0034  0.3439 -0.3111
  676MPD2    H710010   4.072   3.932  11.185  0.2773  1.2746  1.0946
  677TMC3    C110011   4.125   4.157  11.275  0.0518 -0.5518  0.6952
  677TMC3    C210012   4.035   4.096  11.351  0.0587 -0.6902  0.4910
  677TMC3    C310013   3.990   4.161  11.462 -0.6490 -0.6866 -0.1129
  677TMC3    C410014   4.184   4.282  11.305 -0.1317  0.7506 -0.8022
  677TMC3    C510015   4.129   4.351  11.407  0.1843  0.1388  0.1409
  677TMC3    C610016   4.030   4.293  11.479 -0.3497  0.2040 -0.0586
  677TMC3     C10017   4.219   4.069  11.199  0.1839  0.1224  0.3045
  677TMC3     O10018   4.335   4.114  11.187  0.1690 -0.2290  0.1546
  677TMC3     H10019   4.010   3.992  11.336 -0.9269 -0.2977 -0.6085
  677TMC3    H110020   4.271   4.323  11.254 -0.7275  1.7104 -1.0423
  677TMC3    H210021   3.985   4.347  11.561  0.1254  2.4755 -1.2910
  677TMC3    C710022   4.182   4.467  11.476  0.2694 -0.3187  1.2021
  677TMC3    C810023   3.992   4.078  11.582  0.5813 -0.4163  0.5327
  677TMC3    O110024   4.110   4.541  11.538  0.0818 -0.8398  0.2663
  677TMC3    O210025   4.051   3.974  11.552  0.0626 -0.7934  0.5174
  678MPD2     C10026   4.675   4.098   1.642  0.3197  1.2875 -0.6562
  678MPD2    C110027   4.686   4.014   1.525 -0.0424  0.2823  0.1074
  678MPD2    C210028   4.572   3.996   1.450 -0.0669  1.1846 -0.0541
  678MPD2    C310029   4.458   4.063   1.482 -0.1793  0.6256 -0.5370
  678MPD2    C410030   4.450   4.147   1.588 -0.1294  0.0459  0.6184
  678MPD2    C510031   4.561   4.167   1.660  0.2813  0.3154  0.4085
  678MPD2     H10032   4.580   3.932   1.363 -1.7167 -0.7597  1.2306
  678MPD2    H110033   4.361   4.202   1.617  0.8493  1.6569  0.5436
  678MPD2    H210034   0.030   4.125   1.709  0.4612 -0.7230 -0.0044
  678MPD2    H310035   4.561   4.232   1.747 -1.8919  0.4157  0.3302
  678MPD2     N10036   4.355   4.031   1.393  0.6776 -0.2944 -0.2137
  678MPD2    H510037   4.377   3.974   1.313  3.7004  1.7926 -0.8888
  678MPD2    N110038   0.082   3.949   1.484 -0.4328 -0.1132 -0.6052
  678MPD2    H710039   0.075   3.906   1.392 -0.8196 -2.3771  0.4709
  679TMC3    C110040   0.537   3.848   1.464 -0.2006 -0.3611  0.2786
  679TMC3    C210041   0.425   3.869   1.543 -0.0173 -0.2278  0.6581
  679TMC3    C310042   0.311   3.881   1.477  0.0640 -0.5361  0.3168
  679TMC3    C410043   0.531   3.840   1.328 -0.0382  0.3939 -0.3614
  679TMC3    C510044   0.411   3.853   1.267 -1.1367 -0.5750  0.3279
  679TMC3    C610045   0.296   3.875   1.338 -0.3234 -0.0494 -0.3423
  679TMC3     C10046   0.669   3.829   1.518  0.4359 -0.0241  0.5867
  679TMC3     O10047   0.757   3.793   1.437 -0.3337  0.1910  0.3544
  679TMC3     H10048   0.430   3.888   1.650  0.4068  3.2768  0.0125
  679TMC3    H110049   0.622   3.827   1.271  0.7667  1.3982  0.7094
  679TMC3    H210050   0.203   3.891   1.284  1.3217 -1.1299 -3.5352
  679TMC3    C710051   0.405   3.916   1.143  0.0328 -0.0988  0.7534
  679TMC3    C810052   0.201   3.945   1.551 -0.8797  0.4696 -0.3108
  679TMC3    O110053   0.326   4.006   1.120 -0.4329 -0.2921  0.1003
  679TMC3    O210054   0.221   3.980   1.666  0.7254 -0.1008 -0.1544
  680MPD2     C10055   1.095   2.797  13.378  0.1652 -0.7322  0.3534
  680MPD2    C110056   1.188   2.771  13.475  0.2121 -0.0765 -0.0034
  680MPD2    C210057   1.223   2.868  13.564  0.6888 -0.8671  0.0345
  680MPD2    C310058   1.157   2.988  13.558 -0.9290  0.0630  0.5885
  680MPD2    C410059   1.052   3.006  13.462  0.3435 -0.1640 -0.2852
  680MPD2    C510060   1.014   2.908  13.376 -1.1302  0.3606  0.1413
  680MPD2     H10061   1.310   2.850  13.626  0.9942  1.0038  0.1575
  680MPD2    H110062   0.998   3.099  13.451  0.1755 -0.1799  0.4315
  680MPD2    H210063   1.063   2.722  13.307  0.4054  0.8784 -1.4651
  680MPD2    H310064   0.935   2.923  13.302  1.2369  0.2074 -2.3958
  680MPD2     N10065   1.194   3.102  13.634  0.5169 -0.7380  0.0306
  680MPD2    H510066   1.140   3.182  13.604  1.5567 -0.7878 -1.9840
  680MPD2    N110067   1.251   2.644  13.482  0.3134  0.1254  0.2402
  680MPD2    H710068   1.341   2.647  13.529  0.5288 -0.3820 -0.1321
  681TMC3    C110069   1.281   2.420  13.471  0.3245  0.4245  0.3055
  681TMC3    C210070   1.225   2.305  13.505  0.3999 -0.0233 -0.2077
  681TMC3    C310071   1.298   2.187  13.488 -0.1970  0.1297  0.0724
  681TMC3    C410072   1.413   2.423  13.436  0.0440 -0.2606 -0.4489
  681TMC3    C510073   1.488   2.302  13.442 -0.3451  0.1809 -0.7805
  681TMC3    C610074   1.438   2.182  13.482  0.4112  0.3305  0.1893
  681TMC3     C10075   1.195   2.526  13.443  0.0812  0.7480 -0.8143
  681TMC3     O10076   1.082   2.502  13.407  0.3373  0.0188 -0.6124
  681TMC3     H10077   1.119   2.299  13.530  0.6441 -2.7676  0.1752
  681TMC3    H110078   1.456   2.513  13.393 -3.3879  0.4225 -2.4277
  681TMC3    H210079   1.505   2.097  13.492  0.6327  0.7241  2.1775
  681TMC3    C710080   1.629   2.308  13.411 -0.2494 -0.0490 -1.0972
  681TMC3    C810081   1.239   2.073  13.548  0.2148 -0.6027 -0.4251
  681TMC3    O110082   1.712   2.244  13.477 -0.5493  0.0376 -0.1690
  681TMC3    O210083   1.216   1.976  13.479 -0.0937  0.2259  0.1826
  682MPD2     C10084   3.856   3.682  10.795  0.0737 -0.7518  0.6779
  682MPD2    C110085   3.749   3.599  10.810 -0.1327 -0.0795 -0.2032
  682MPD2    C210086   3.652   3.626  10.903 -0.8917  0.0153  0.1236
  682MPD2    C310087   3.660   3.726  11.002 -0.2197 -0.5220  0.3049
  682MPD2    C410088   3.779   3.806  10.991  0.2839  0.7912  0.6322
  682MPD2    C510089   3.875   3.776  10.896 -0.0700 -0.3370 -0.2865
  682MPD2     H10090   3.566   3.560  10.899 -1.3585  0.6147  0.1959
  682MPD2    H110091   3.797   3.888  11.060  2.1701  0.0450  1.0316
  682MPD2    H210092   3.929   3.671  10.715 -0.5484  0.5733 -0.0680
  682MPD2    H310093   3.958   3.846  10.891 -0.2460 -0.1287 -0.2868
  682MPD2     N10094   3.555   3.749  11.095  0.0601 -0.4272  0.1699
  682MPD2    H510095   3.473   3.689  11.103 -0.6023  0.5599  0.9303
  682MPD2    N110096   3.721   3.492  10.720  1.1893 -0.1034  0.7966
  682MPD2    H710097   3.634   3.440  10.729  1.4783 -0.7695 -0.3214
  683TMC3    C110098   3.317   3.952  11.436 -0.2257  0.3863 -0.0952
  683TMC3    C210099   3.312   3.841  11.520  0.0114  0.2043 -0.1918
  683TMC3    C310100   3.388   3.735  11.480  0.1826  0.5662  0.5749
  683TMC3    C410101   3.391   3.956  11.325  0.0494  0.8344 -0.1951
  683TMC3    C510102   3.459   3.843  11.286  0.3387 -0.0305  0.5058
  683TMC3    C610103   3.453   3.728  11.363  0.7659  0.6946 -0.6809
  683TMC3     C10104   3.253   4.074  11.483  0.3237 -0.6186 -0.2339
  683TMC3     O10105   3.222   4.069  11.602  0.4202  1.0060 -0.0884
  683TMC3     H10106   3.233   3.840  11.594  0.6422 -0.7459  0.4655
  683TMC3    H110107   3.413   4.039  11.259  1.1945  1.0874  0.5175
  683TMC3    H210108   3.524   3.650  11.334 -1.2749 -0.7679 -1.7146
  683TMC3    C710109   3.558   3.853  11.186  0.2042  0.0968  0.1567
  683TMC3    C810110   3.374   3.607  11.553 -0.0646 -0.0881  0.2843
  683TMC3    O110111   3.627   3.953  11.191  0.1304  0.3168  1.1003
  683TMC3    O210112   3.369   3.619  11.676 -0.8424 -0.5023 -0.2019
  684MPD2     C10113   1.219   3.416  16.325  0.4043  0.2405  0.2237
  684MPD2    C110114   1.100   3.376  16.273  0.5474 -0.5938 -0.0822
  684MPD2    C210115   0.989   3.432  16.328  0.6944 -0.0112  0.5526
  684MPD2    C310116   0.988   3.534  16.423  0.4417  0.1606 -0.1284
  684MPD2    C410117   1.108   3.564  16.477  0.1333 -0.1034  0.3410
  684MPD2    C510118   1.221   3.508  16.426 -0.1317 -0.2862  0.0311
  684MPD2     H10119   0.900   3.422  16.267  0.2018  0.1624  1.2459
  684MPD2    H110120   1.111   3.633  16.561 -0.9043 -0.8076  0.9552
  684MPD2    H210121   1.312   3.365  16.304 -0.5687 -0.2784 -2.8110
  684MPD2    H310122   1.318   3.527  16.470  0.5171 -0.6694 -1.2510
  684MPD2     N10123   0.876   3.618  16.446 -0.7687 -0.5757 -0.1248
  684MPD2    H510124   0.887   3.698  16.508  0.5182  0.5178 -1.7726
  684MPD2    N110125   1.076   3.275  16.181 -0.3567  0.9546 -0.8271
  684MPD2    H710126   0.978   3.247  16.185  0.3049 -1.4240 -1.6417
  685TMC3    C110127   1.115   3.101  16.017  0.6717  0.5870  0.1993
  685TMC3    C210128   0.986   3.062  16.040  0.8721  0.4065  0.5506
  685TMC3    C310129   0.941   2.936  16.009  0.7313 -0.9531 -0.3824
  685TMC3    C410130   1.205   3.005  15.973 -0.0995  0.2778  0.4307
  685TMC3    C510131   1.163   2.879  15.940  0.2576  0.2612  0.8457
  685TMC3    C610132   1.031   2.842  15.959  0.2423  0.3884  0.1554
  685TMC3     C10133   1.170   3.209  16.102  0.0955 -0.1928 -0.3100
  685TMC3     O10134   1.293   3.242  16.086 -0.1748 -0.2846 -0.1895
  685TMC3     H10135   0.918   3.135  16.084  0.5661 -1.2799  2.8621
  685TMC3    H110136   1.312   3.025  15.968 -0.2424  0.4491 -2.0960
  685TMC3    H210137   0.984   2.748  15.934 -0.4227  0.8723 -0.4016
  685TMC3    C710138   1.265   2.778  15.923  0.1358  0.2474 -0.0634
  685TMC3    C810139   0.807   2.915  15.963 -0.3925  0.3193  0.5123
  685TMC3    O110140   1.241   2.667  15.962  0.0643 -0.1018 -0.2823
  685TMC3    O210141   0.774   2.816  15.898  0.1160 -0.0118 -0.8991
  686MPD2     C10142   2.381   3.441  15.332  0.5755 -0.8262  0.2222
  686MPD2    C110143   2.323   3.336  15.397  0.3337  0.3653  0.1427
  686MPD2    C210144   2.311   3.217  15.321  0.3934  0.3476  0.1035
  686MPD2    C310145   2.383   3.191  15.206  0.1165 -0.6578  0.2889
  686MPD2    C410146   2.461   3.288  15.163 -0.2667  0.2416  0.4767
  686MPD2    C510147   2.456   3.416  15.221  0.6972  0.4321 -0.2619
  686MPD2     H10148   2.236   3.148  15.358 -0.0613  0.7602 -0.0445
  686MPD2    H110149   2.522   3.273  15.074 -0.2438 -1.1147  0.7121
  686MPD2    H210150   2.387   3.542  15.371  0.5343 -0.5473 -0.4823
  686MPD2    H310151   2.519   3.493  15.178 -0.2313  0.3862 -1.7078
  686MPD2     N10152   2.378   3.071  15.125 -0.3647  0.2558  0.1997
  686MPD2    H510153   2.421   3.070  15.033 -1.8415  0.2387 -0.4958
  686MPD2    N110154   2.272   3.350  15.531 -0.0804 -0.7727  0.1803
  686MPD2    H710155   2.271   3.442  15.574 -0.1566 -0.8805  0.4113
  687TMC3    C110156   2.245   2.923  15.277 -0.1003  0.3174  0.1419
  687TMC3    C210157   2.117   2.900  15.288 -0.2002  0.2686  0.3939
  687TMC3    C310158   2.078   2.842  15.407  0.2097  0.7665 -0.1815
  687TMC3    C410159   2.339   2.898  15.375 -0.5278  0.3615 -0.1135
  687TMC3    C510160   2.305   2.808  15.470  0.1003 -0.6733 -0.8930
  687TMC3    C610161   2.168   2.789  15.501  0.4247  0.4911  0.2370
  687TMC3     C10162   2.299   2.958  15.146 -0.1317 -0.6293  0.1216
  687TMC3     O10163   2.246   2.897  15.058  0.2542 -0.1791  0.1915
  687TMC3     H10164   2.047   2.937  15.214  1.0669  2.2843  0.2165
  687TMC3    H110165   2.444   2.906  15.349 -0.2070 -0.3299  0.9778
  687TMC3    H210166   2.142   2.750  15.599 -1.3720 -0.4784 -0.6449
  687TMC3    C710167   2.387   2.788  15.584  0.9496 -0.3518 -0.5972
  687TMC3    C810168   1.968   2.907  15.476 -0.6647 -0.0126  0.3910
  687TMC3    O110169   2.385   2.685  15.653 -0.0977  0.6445  0.5891
  687TMC3    O210170   1.933   2.852  15.583 -0.1718  0.2589 -0.4682
  688MPD2     C10171   2.155   2.398  17.089 -0.3395 -0.6018 -0.6252
  688MPD2    C110172   2.171   2.265  17.086 -0.1754  0.1596  0.3445
  688MPD2    C210173   2.265   2.201  17.008  0.4174  0.0282  0.3948
  688MPD2    C310174   2.349   2.273  16.930  0.7608 -0.1704 -0.2566
  688MPD2    C410175   2.330   2.411  16.933  0.0793  0.2342  0.8849
  688MPD2    C510176   2.237   2.484  17.010  0.1050  0.6659  0.2133
  688MPD2     H10177   2.288   2.096  17.025 -0.1992 -0.3353 -1.0407
  688MPD2    H110178   2.402   2.469  16.876  0.3553 -1.3504 -0.3804
  688MPD2    H210179   2.095   2.457  17.156  0.5037 -0.4625  0.0149
  688MPD2    H310180   2.242   2.592  17.021 -1.0180  0.6689  0.6718
  688MPD2     N10181   2.448   2.219  16.842 -0.0799  0.6604 -0.0007
  688MPD2    H510182   2.485   2.288  16.777  0.8672 -0.0406 -0.2162
  688MPD2    N110183   2.093   2.180  17.171  0.4703 -0.3531  0.2506
  688MPD2    H710184   2.119   2.082  17.175  1.7695  0.0031  0.5937
  689TMC3    C110185   1.920   2.108  17.309  0.5548  0.4713  1.0145
  689TMC3    C210186   1.838   2.135  17.420 -0.3954  0.0166  0.5317
  689TMC3    C310187   1.797   2.025  17.493 -0.0053 -0.5946  0.1674
  689TMC3    C410188   1.952   1.981  17.270 -0.7136  0.1540  0.0126
  689TMC3    C510189   1.898   1.876  17.339 -0.5535 -0.0549  0.3310
  689TMC3    C610190   1.831   1.898  17.455 -0.3517 -0.3904  0.1673
  689TMC3     C10191   1.987   2.216  17.251  0.4732  0.1400  0.1638
  689TMC3     O10192   1.939   2.328  17.267  0.3779  0.3684 -0.0372
  689TMC3     H10193   1.815   2.239  17.439  0.7080  0.3594  0.0157
  689TMC3    H110194   1.992   1.968  17.170  2.5983 -1.5690  1.5763
  689TMC3    H210195   1.788   1.814  17.507  1.6966 -1.3523  0.3117
  689TMC3    C710196   1.903   1.740  17.285  0.1717  0.1761  0.0503
  689TMC3    C810197   1.738   2.058  17.621  0.3877 -0.8813 -0.4631
  689TMC3    O110198   1.979   1.711  17.196 -0.7343 -0.5132  0.4198
  689TMC3    O210199   1.746   2.177  17.656  0.5366 -0.4407  0.4766
  690MPD2     C10200   3.640   4.077  15.563  0.2384  0.0969 -0.7115
  690MPD2    C110201   3.730   3.976  15.558 -0.3355  0.0408 -0.1927
  690MPD2    C210202   3.848   3.994  15.494 -0.8076  0.2749 -0.2775
  690MPD2    C310203   3.860   4.101  15.407  0.4213 -0.3765 -0.9434
  690MPD2    C410204   3.764   4.198  15.398  0.1062 -0.5028  0.2415
  690MPD2    C510205   3.659   4.187  15.486  0.3260 -0.0980  0.3032
  690MPD2     H10206   3.920   3.913  15.494 -1.1912 -0.0692 -0.0246
  690MPD2    H110207   3.754   4.284  15.333 -1.8850  0.4609  1.8294
  690MPD2    H210208   3.545   4.076  15.615  0.5808 -0.7136 -0.1056
  690MPD2    H310209   3.574   4.253  15.472  1.2779  0.7570 -1.4207
  690MPD2     N10210   3.975   4.108  15.330 -0.1403  0.4927 -0.1787
  690MPD2    H510211   4.046   4.036  15.343 -2.7958 -2.3795 -1.7860
  690MPD2    N110212   3.701   3.849  15.621  0.6189  0.0547 -0.0366
  690MPD2    H710213   3.774   3.779  15.617  0.4753 -0.2030  1.8981
  691TMC3    C110214   3.560   3.681  15.729  0.1886 -0.0620 -0.3950
  691TMC3    C210215   3.451   3.666  15.801  0.1393  0.0815 -0.4547
  691TMC3    C310216   3.385   3.550  15.792  0.2335  0.5930  0.1977
  691TMC3    C410217   3.626   3.575  15.668  0.2384  0.7250 -0.2440
  691TMC3    C510218   3.568   3.454  15.666 -0.6511 -0.2400 -0.2058
  691TMC3    C610219   3.448   3.444  15.727  0.3848  1.1733 -0.3439
  691TMC3     C10220   3.571   3.815  15.666  0.4939  0.3386  0.2856
  691TMC3     O10221   3.477   3.889  15.694 -0.1907  0.1774  0.3733
  691TMC3     H10222   3.421   3.753  15.859  2.5102  0.3921  0.3162
  691TMC3    H110223   3.712   3.598  15.606 -0.9004  1.5401 -1.5266
  691TMC3    H210224   3.394   3.350  15.726 -1.1055  2.0213  1.7354
  691TMC3    C710225   3.590   3.372  15.547  0.4223  0.0720 -0.1530
  691TMC3    C810226   3.244   3.560  15.759 -0.0522  0.9848 -0.1378
  691TMC3    O110227   3.693   3.380  15.489  0.3125 -0.2202 -0.1933
  691TMC3    O210228   3.186   3.456  15.745  0.3099 -0.6215  0.1011
  692TMC3    C110229   0.783   0.035  15.749  0.1488 -0.0214 -0.1519
  692TMC3    C210230   0.888   0.075  15.828 -0.1402  0.5041  0.1044
  692TMC3    C310231   0.958   4.709  15.902  0.1166 -0.4884  0.1207
  692TMC3    C410232   0.734   4.633  15.753  0.4486  0.3176  0.0752
  692TMC3    C510233   0.794   4.544  15.832 -0.2948 -0.2224  0.5803
  692TMC3    C610234   0.901   4.582  15.907  0.5604  0.9554  0.1465
  692TMC3     C10235   0.674   0.130  15.738 -0.0030 -0.1043 -0.0979
  692TMC3     O10236   0.564   0.083  15.714  0.6798  0.9600  0.0945
  692TMC3     H10237   0.941   0.161  15.789 -0.5725  0.0114 -1.5828
  692TMC3    H110238   0.662   4.598  15.679 -0.2169 -0.7317  1.2335
  692TMC3    H210239   0.965   4.504  15.948  1.4018  0.2309 -2.5342
  692TMC3    C710240   0.796   4.408  15.781  0.4483 -0.0726  0.0190
  692TMC3    C810241   1.011   0.025  16.028  0.0884  0.1835 -0.4923
  692TMC3    O110242   0.830   4.406  15.661  0.0685  0.4967 -0.2466
  692TMC3    O210243   1.022   4.666  16.117 -0.7597  0.4494  0.0558
  693MPD2     C10244   0.681   2.855  10.470  0.3536 -0.2727 -0.1434
  693MPD2    C110245   0.589   2.762  10.502 -0.2247  0.0289 -0.5428
  693MPD2    C210246   0.632   2.645  10.571  0.1703 -0.4454  0.2786
  693MPD2    C310247   0.766   2.632  10.603  0.4742  0.5060 -0.0885
  693MPD2    C410248   0.851   2.734  10.574  0.0373 -0.1111  0.4443
  693MPD2    C510249   0.814   2.846  10.504 -0.2059 -0.2754  0.2186
  693MPD2     H10250   0.556   2.577  10.608 -0.0686 -0.9901 -1.2109
  693MPD2    H110251   0.948   2.742  10.622 -1.3991  0.1786  3.3666
  693MPD2    H210252   0.651   2.951  10.431  1.1709  0.2208  0.4275
  693MPD2    H310253   0.886   2.927  10.494  0.0124  0.0050  3.9258
  693MPD2     N10254   0.808   2.521  10.675 -0.5316  0.5763  0.0298
  693MPD2    H510255   0.905   2.510  10.703 -0.8379 -2.6624 -0.1455
  693MPD2    N110256   0.458   2.792  10.494 -0.1443 -0.3735  0.5652
  693MPD2    H710257   0.418   2.884  10.482  1.3923  0.4292  1.6219
  694TMC3    C110258   0.238   2.724  10.525 -0.5439  0.9186 -0.2932
  694TMC3    C210259   0.141   2.643  10.474 -0.2150 -0.3192  0.2095
  694TMC3    C310260   0.025   2.635  10.542  0.1727  0.0850  0.7889
  694TMC3    C410261   0.222   2.786  10.643 -0.8223 -0.2911 -0.3631
  694TMC3    C510262   0.109   2.764  10.717  0.2581 -0.0975  0.4670
  694TMC3    C610263   0.008   2.682  10.670  0.1826 -0.1213  0.1313
  694TMC3     C10264   0.370   2.690  10.484 -0.6287 -0.4432  0.5438
  694TMC3     O10265   0.386   2.573  10.449  0.8022  0.0895  0.2997
  694TMC3     H10266   0.163   2.585  10.385 -0.7470 -1.3496  0.7512
  694TMC3    H110267   0.302   2.850  10.679 -0.1536 -0.8487 -0.8457
  694TMC3    H210268   4.641   2.670  10.726  1.1932 -3.8815  0.9917
  694TMC3    C710269   0.123   2.780  10.864  0.4715  0.3397 -1.0483
  694TMC3    C810270   4.648   2.537  10.495  0.3545  0.1869 -0.3746
  694TMC3    O110271   0.206   2.865  10.902  0.1081 -0.8887  0.6386
  694TMC3    O210272   4.577   2.470  10.569 -0.3570 -0.2104 -0.1053
  695MPD2     C10273   1.209   4.382  13.445 -0.0800  0.7651  0.3343
  695MPD2    C110274   1.185   4.480  13.539 -0.1085  0.7877  0.1681
  695MPD2    C210275   1.101   4.581  13.502 -0.2558  0.4474  0.1252
  695MPD2    C310276   1.044   4.590  13.374 -0.2937 -0.2349  0.1813
  695MPD2    C410277   1.089   4.500  13.273  0.8079 -0.0842  0.1468
  695MPD2    C510278   1.167   4.403  13.314  0.6281  0.0216  0.5686
  695MPD2     H10279   1.065   4.649  13.578  0.1087  1.3311 -0.4878
  695MPD2    H110280   1.059   4.501  13.169 -1.8294  0.6605  0.9056
  695MPD2    H210281   1.265   4.290  13.458 -0.4849  0.8836  2.8504
  695MPD2    H310282   1.200   4.333  13.238 -1.4362  1.0400 -1.2658
  695MPD2     N10283   0.944   4.686  13.350 -0.2577 -0.1438  0.1394
  695MPD2    H510284   0.901   0.006  13.430  0.0585  2.4365 -1.1149
  695MPD2    N110285   1.238   4.482  13.673 -0.0662 -0.6391 -0.2413
  695MPD2    H710286   1.220   4.568  13.723  3.3478 -2.9036  4.9182
  696TMC3    C110287   0.792   0.086  13.222  0.1312  0.9808 -0.3395
  696TMC3    C210288   0.716   0.100  13.335 -0.3541  0.1553  0.3010
  696TMC3    C310289   0.625   0.203  13.329  0.2644 -0.1105 -0.4427
  696TMC3    C410290   0.794   0.175  13.114  0.0182 -0.0518  0.2920
  696TMC3    C510291   0.714   0.284  13.121  0.0726  0.9066  0.1611
  696TMC3    C610292   0.623   0.293  13.222  0.3779  0.3167 -0.0058
  696TMC3     C10293   0.895   4.712  13.221 -0.8238 -0.7780  0.0866
  696TMC3     O10294   0.943   4.690  13.111  0.6292  0.6924 -0.1106
  696TMC3     H10295   0.725   0.033  13.419 -1.2164 -0.4850 -0.1132
  696TMC3    H110296   0.865   0.174  13.031 -0.0482 -2.2385  0.2521
  696TMC3    H210297   0.550   0.373  13.233  1.0685  0.8669  0.6442
  696TMC3    C710298   0.765   0.407  13.063 -0.1550 -0.0345 -0.0831
  696TMC3    C810299   0.593   0.265  13.454 -0.3972 -0.0549 -0.3964
  696TMC3    O110300   0.845   0.402  12.970  0.1276 -0.4736  0.5637
  696TMC3    O210301   0.682   0.245  13.538 -0.6898 -0.4622  0.8116
  697MPD2     C10302   0.500   1.954  15.938  0.4034  0.4298 -0.5245
  697MPD2    C110303   0.532   1.900  15.816  0.4580  0.3823 -0.3573
  697MPD2    C210304   0.570   1.992  15.722  0.5817 -0.2675 -0.4868
  697MPD2    C310305   0.601   2.124  15.745 -0.3774  0.2540  0.2002
  697MPD2    C410306   0.570   2.174  15.870  0.1694  0.1762 -0.5307
  697MPD2    C510307   0.527   2.085  15.969  0.1106  0.9982 -0.4404
  697MPD2     H10308   0.609   1.956  15.628  1.5437  1.1879 -0.6428
  697MPD2    H110309   0.599   2.273  15.904 -1.4446  0.5385 -0.2081
  697MPD2    H210310   0.456   1.899  16.020  0.7686  2.5373  1.0753
  697MPD2    H310311   0.516   2.118  16.072  0.2979 -0.4493  0.0517
  697MPD2     N10312   0.669   2.191  15.641 -0.0300  0.1178 -0.3036
  697MPD2    H510313   0.689   2.142  15.555  2.3422  2.0395 -0.8461
  697MPD2    N110314   0.528   1.765  15.782 -0.0051 -0.3961 -0.1872
  697MPD2    H710315   0.538   1.745  15.683 -0.8246 -1.2838 -0.0844
  698TMC3    C110316   0.810   2.359  15.550 -0.4781 -0.3454 -0.2977
  698TMC3    C210317   0.798   2.486  15.501 -0.1443 -0.3131  0.2268
  698TMC3    C310318   0.862   2.515  15.381  0.1928  1.0342  0.8748
  698TMC3    C410319   0.876   2.263  15.477 -0.5838  0.5682 -0.1473
  698TMC3    C510320   0.905   2.292  15.348  0.0025 -0.0329 -0.1316
  698TMC3    C610321   0.898   2.414  15.296  0.1479 -0.2140  0.0237
  698TMC3     C10322   0.716   2.321  15.649 -0.0509 -0.3598  0.1942
  698TMC3     O10323   0.683   2.407  15.731  0.1307  0.5231 -0.4096
  698TMC3     H10324   0.736   2.558  15.553  0.2264  2.0343 -2.5177
  698TMC3    H110325   0.895   2.162  15.514 -1.6070  0.8505  1.1436
  698TMC3    H210326   0.941   2.433  15.198  0.4930 -0.7934  0.0631
  698TMC3    C710327   0.913   2.177  15.262  1.0110  0.4515 -0.1475
  698TMC3    C810328   0.820   2.635  15.313  0.1603  0.6381  0.6643
  698TMC3    O110329   0.999   2.095  15.281 -0.6040  0.2558  0.3036
  698TMC3    O210330   0.703   2.677  15.311  0.2150 -0.0424  0.2685
  699TMC3    C110331   0.602   0.054  12.901 -0.7817  0.4041 -1.0152
  699TMC3    C210332   0.660   4.653  12.907 -0.2854  0.0949  0.4371
  699TMC3    C310333   0.598   4.567  12.984 -0.3155  0.9258  0.2841
  699TMC3    C410334   0.488   0.086  12.961 -0.2858 -0.1340 -0.4385
  699TMC3    C510335   0.418   4.708  13.022 -0.5991  0.3250 -0.2872
  699TMC3    C610336   0.470   4.585  13.023 -0.4637  0.0220  0.1672
  699TMC3     C10337   0.653   0.149  12.803 -0.1875 -0.4333  0.1434
  699TMC3     O10338   0.592   0.255  12.809  0.3468 -0.2709  0.4410
  699TMC3     H10339   0.761   4.625  12.879  0.8393  2.9264  1.6120
  699TMC3    H110340   0.446   0.186  12.959  0.1183  0.0383 -0.3296
  699TMC3    H210341   0.420   4.504  13.075  0.5704  0.7575  2.3213
  699TMC3    C710342   0.279   0.001  13.060 -0.0944 -0.8713  0.3819
  699TMC3    C810343   0.657   4.438  13.027  0.1262  0.8823 -0.5129
  699TMC3    O110344   0.238   0.109  13.072  0.1930 -0.0236  0.6680
  699TMC3    O210345   0.583   4.360  13.087  0.2715  0.4208  0.0109
  700TMC3    C110346   4.207   2.245  17.062  0.9012 -0.2507 -0.3268
  700TMC3    C210347   4.282   2.132  17.053  0.2602 -0.4363  0.2706
  700TMC3    C310348   4.376   2.118  17.150  0.5731 -0.3379  0.1336
  700TMC3    C410349   4.213   2.326  17.171  0.0918  0.2931 -0.3630
  700TMC3    C510350   4.313   2.302  17.266 -0.4166  0.5054 -1.0016
  700TMC3    C610351   4.391   2.201  17.254 -0.9877  0.1186  0.3106
  700TMC3     C10352   4.168   2.312  16.937  0.0571 -0.0397  0.1195
  700TMC3     O10353   4.131   2.242  16.843  0.4406 -0.1244 -0.1627
  700TMC3     H10354   4.267   2.082  16.959 -1.9671 -0.1993  0.5037
  700TMC3    H110355   4.147   2.412  17.180  1.2418  1.2072 -0.6255
  700TMC3    H210356   4.459   2.175  17.335  1.6448  0.2162 -1.8627
  700TMC3    C710357   4.338   2.396  17.370 -0.1866 -0.4862 -0.4627
  700TMC3    C810358   4.487   2.031  17.125  0.0573  0.4767  0.6855
  700TMC3    O110359   4.450   2.411  17.421 -0.4026  1.0322 -0.5399
  700TMC3    O210360   4.597   2.058  17.173 -0.2124  0.2244 -0.2850
  701TMC3    C110361   4.501   1.276  15.675  0.3485  0.0191 -0.9131
  701TMC3    C210362   4.473   1.267  15.533 -0.1121 -0.3184 -0.4778
  701TMC3    C310363   4.579   1.299  15.452 -0.4026 -0.4047 -0.2585
  701TMC3    C410364   4.614   1.336  15.723  0.1760 -0.3902  0.8893
  701TMC3    C510365   4.710   1.377  15.632  0.4744 -0.1428 -0.2195
  701TMC3    C610366   4.691   1.354  15.499  0.0596  0.0735  0.1211
  701TMC3     C10367   4.409   1.227  15.771  0.1372 -0.2946 -0.5259
  701TMC3     O10368   4.410   1.286  15.875 -0.3597  0.1987 -0.6047
  701TMC3     H10369   4.386   1.212  15.498 -2.3498  2.3134  0.9593
  701TMC3    H110370   4.628   1.357  15.829  2.8364 -2.4306  0.9339
  701TMC3    H210371   0.037   1.390  15.426 -0.6788 -0.5632 -0.9132
  701TMC3    C710372   0.058   1.508  15.659 -0.3959  0.1616  0.8460
  701TMC3    C810373   4.600   1.217  15.335 -0.1527  0.0050 -0.1022
  701TMC3    O110374   0.102   1.572  15.562  0.2878  0.3479  0.2042
  701TMC3    O210375   4.715   1.179  15.312 -0.6624 -0.5933  0.2371
  702MPD2     C10376   4.330   3.135  10.564 -0.7861  0.2680  0.1906
  702MPD2    C110377   4.262   3.240  10.628 -0.1111 -0.6376 -0.2672
  702MPD2    C210378   4.305   3.369  10.611  0.3260 -0.1553  0.1699
  702MPD2    C310379   4.418   3.400  10.538  0.1050 -0.2517 -0.5371
  702MPD2    C410380   4.475   3.303  10.466 -0.5030  0.6783  1.0152
  702MPD2    C510381   4.430   3.176  10.480  0.3700 -0.5899 -0.5762
  702MPD2     H10382   4.260   3.456  10.658  3.4606  0.3923  2.1772
  702MPD2    H110383   4.554   3.317  10.393 -0.5209 -1.6112  0.5544
  702MPD2    H210384   4.304   3.030  10.569  0.5286 -0.0658 -0.0428
  702MPD2    H310385   4.482   3.100  10.422 -0.4925 -1.4257 -0.2444
  702MPD2     N10386   4.483   3.530  10.527 -0.2686 -1.2367 -0.7423
  702MPD2    H510387   4.574   3.523  10.481  0.0293  0.4900 -0.4156
  702MPD2    N110388   4.154   3.223  10.716 -0.5008  0.0138  0.3519
  702MPD2    H710389   4.110   3.309  10.746 -0.2266  0.2720  0.0275
  703TMC3    C110390   4.515   3.767  10.570 -0.0967  0.5872 -0.3984
  703TMC3    C210391   4.468   3.881  10.622  0.0391  0.8519  0.0558
  703TMC3    C310392   4.542   3.999  10.612  0.1355 -0.0897  0.4412
  703TMC3    C410393   4.642   3.761  10.511 -0.1422  0.2137  0.3557
  703TMC3    C510394   4.706   3.882  10.504 -0.4509 -0.3552 -0.7023
  703TMC3    C610395   4.669   3.999  10.562 -0.4014  0.8251 -0.3191
  703TMC3     C10396   4.431   3.649  10.577 -0.4214 -0.3876  0.0608
  703TMC3     O10397   4.320   3.679  10.625  0.0097 -0.4436  0.2270
  703TMC3     H10398   4.370   3.879  10.667  0.0107 -0.0555 -0.0502
  703TMC3    H110399   4.673   3.679  10.448 -0.1486 -1.3871  2.4544
  703TMC3    H210400   0.007   4.085  10.546  0.9011  0.0691  0.7920
  703TMC3    C710401   0.107   3.878  10.435  0.0894 -0.1896  0.1429
  703TMC3    C810402   4.481   4.128  10.634 -0.6587 -0.0896  1.0879
  703TMC3    O110403   0.152   3.990  10.406 -0.1058 -0.7983 -0.6127
  703TMC3    O210404   4.547   4.218  10.585 -0.0848 -1.0453 -0.1985
  704TMC3    C110405   2.511   2.010  12.638  0.2203 -0.0601 -0.0516
  704TMC3    C210406   2.530   2.030  12.504  0.8012 -0.0398  0.3471
  704TMC3    C310407   2.646   1.995  12.448 -0.7123 -0.0290  0.5887
  704TMC3    C410408   2.609   1.950  12.710  0.3813 -0.2477 -0.0403
  704TMC3    C510409   2.712   1.894  12.642  0.0855  0.1810  0.2943
  704TMC3    C610410   2.745   1.931  12.516 -0.3596 -0.1113  0.0363
  704TMC3     C10411   2.385   1.941  12.670 -0.8103 -0.7786 -0.1456
  704TMC3     O10412   2.337   1.953  12.781  0.6477  0.3280  0.2738
  704TMC3     H10413   2.450   2.083  12.453  0.9921 -0.9791 -0.9024
  704TMC3    H110414   2.577   1.922  12.810  1.2317  0.7927  0.5266
  704TMC3    H210415   2.834   1.890  12.469 -0.5960  1.6400 -1.9205
  704TMC3    C710416   2.700   1.749  12.651 -0.1841 -0.3423 -0.6958
  704TMC3    C810417   2.646   2.000  12.312  0.1687  0.2465  0.3705
  704TMC3    O110418   2.708   1.686  12.552  0.2052  0.1402  0.3873
  704TMC3    O210419   2.536   1.987  12.259  0.0618 -0.2379 -0.7479
  705MPD2     C10420   0.953   4.194  16.242 -0.1548  0.3105  0.5413
  705MPD2    C110421   0.970   4.331  16.227 -0.3222  0.1597  0.7776
  705MPD2    C210422   0.857   4.413  16.235  0.2700  0.7845 -0.6943
  705MPD2    C310423   0.723   4.373  16.264  0.3526 -0.5415  0.0247
  705MPD2    C410424   0.717   4.240  16.300 -0.0939 -0.3571  0.3378
  705MPD2    C510425   0.828   4.155  16.287 -0.6749 -0.3519 -0.0299
  705MPD2     H10426   0.868   4.514  16.197  0.7615  0.9402 -0.1294
  705MPD2    H110427   0.622   4.202  16.332 -0.0991 -1.2104 -0.6861
  705MPD2    H210428   1.037   4.126  16.239 -0.3349  0.1750 -1.9380
  705MPD2    H310429   0.807   4.050  16.305  2.3472 -0.7303  1.3722
  705MPD2     N10430   0.611   4.461  16.266 -0.9376 -0.4836 -0.0183
  705MPD2    H510431   0.626   4.558  16.239  1.8597 -1.5694 -2.4848
  705MPD2    N110432   1.096   4.382  16.182 -0.0125 -0.2643 -0.3049
  705MPD2    H710433   1.091   4.482  16.162  0.3165  0.3473  2.7677
  706TMC3    C110434   1.420   4.397  15.867 -1.3054 -0.4362 -0.1584
  706TMC3    C210435   1.401   4.534  15.860 -0.2074 -1.2164 -0.2720
  706TMC3    C310436   1.351   4.593  15.972 -0.5184  0.3932 -0.1422
  706TMC3    C410437   1.375   4.323  15.974 -0.3987 -0.6503  0.5447
  706TMC3    C510438   1.304   4.385  16.071  0.7936  0.8205  0.4910
  706TMC3    C610439   1.302   4.524  16.077 -0.5101 -0.2189 -0.6276
  706TMC3     C10440   1.520   4.339  15.777  0.3540  0.1761  0.9191
  706TMC3     O10441   1.589   4.251  15.829 -0.5987  0.1041  0.4847
  706TMC3     H10442   1.448   4.599  15.787  0.5699 -0.6763  0.7065
  706TMC3    H110443   1.389   4.216  15.970 -0.0857 -0.5548 -0.9828
  706TMC3    H210444   1.253   4.571  16.162  1.8081  1.9891 -0.4897
  706TMC3    C710445   1.212   4.311  16.150 -0.2573  0.4182 -1.0565
  706TMC3    C810446   1.356   0.013  15.985  0.9335  0.5406 -0.6642
  706TMC3    O110447   1.236   4.191  16.167  0.0389  0.1344 -0.1105
  706TMC3    O210448   1.329   0.083  15.886  0.7297  0.3656 -0.2535
  707TMC3    C110449   3.324   3.947   1.571 -0.0514 -0.0613  0.0728
  707TMC3    C210450   3.418   3.921   1.662 -0.3701 -0.0292 -0.2912
  707TMC3    C310451   3.422   3.790   1.705  1.0157  0.0134 -0.1429
  707TMC3    C410452   3.216   3.867   1.538 -0.0197  0.1069  0.1889
  707TMC3    C510453   3.218   3.740   1.594 -0.0742 -0.2434  0.4871
  707TMC3    C610454   3.327   3.700   1.666 -0.2078 -0.2223 -0.4767
  707TMC3     C10455   3.359   4.060   1.480 -0.8436  0.1498  0.0107
  707TMC3     O10456   3.408   4.157   1.533  0.1345  0.5211 -0.4611
  707TMC3     H10457   3.513   3.973   1.666  0.1846 -1.1544  1.3695
  707TMC3    H110458   3.132   3.906   1.482  0.1312  0.9996  0.5927
  707TMC3    H210459   3.327   3.595   1.694  0.8001 -0.3413 -0.9131
  707TMC3    C710460   3.104   3.655   1.574 -0.9594 -0.6619 -0.0920
  707TMC3    C810461   3.539   3.745   1.780 -0.5332  0.1268  0.1957
  707TMC3    O110462   3.031   3.683   1.482 -0.1088 -0.0496  0.5360
  707TMC3    O210463   3.610   3.825   1.834  0.0395  0.0283  0.0426
  708MPD2     C10464   0.270   2.788  13.605 -0.1343  0.7450 -0.2167
  708MPD2    C110465   0.223   2.903  13.556  0.5564 -0.2337  0.5835
  708MPD2    C210466   0.093   2.933  13.573  0.6120 -0.1990  0.3391
  708MPD2    C310467   0.007   2.848  13.643  0.6624 -0.2010  0.0310
  708MPD2    C410468   0.051   2.718  13.675 -0.4224  0.3432 -0.6628
  708MPD2    C510469   0.186   2.690  13.654 -0.0682  0.1080  0.0123
  708MPD2     H10470   0.060   3.024  13.524 -0.1238 -0.5935  0.1041
  708MPD2    H110471   4.714   2.645  13.726  1.4453  1.2435  2.8763
  708MPD2    H210472   0.376   2.768  13.592  0.1218  1.8709  0.2245
  708MPD2    H310473   0.235   2.601  13.694  1.4744  1.2260  0.6283
  708MPD2     N10474   4.605   2.890  13.664 -0.5735 -0.2409 -0.1624
  708MPD2    H510475   4.580   2.985  13.638 -1.2905 -0.3732  0.0453
  708MPD2    N110476   0.317   2.995  13.500 -0.1181  0.3583  0.4072
  708MPD2    H710477   0.409   2.961  13.472 -0.0295  1.0172 -0.1287
  709TMC3    C110478   0.397   3.198  13.402  0.7668 -0.1400  0.3256
  709TMC3    C210479   0.431   3.153  13.283 -0.1426  0.0139  1.0232
  709TMC3    C310480   0.453   3.244  13.179 -0.2220 -0.5989  0.0292
  709TMC3    C410481   0.378   3.332  13.425  0.3844  0.0973 -0.5899
  709TMC3    C510482   0.398   3.424  13.329 -0.5524  0.7551 -0.3879
  709TMC3    C610483   0.435   3.385  13.207 -0.0258  0.4882  0.5403
  709TMC3     C10484   0.290   3.128  13.467 -0.4782 -0.2257  1.0349
  709TMC3     O10485   0.195   3.201  13.483 -0.2466 -0.0760 -0.2276
  709TMC3     H10486   0.442   3.046  13.274 -0.9255  0.0270 -0.1065
  709TMC3    H110487   0.358   3.362  13.527  1.0894  2.1174 -1.0416
  709TMC3    H210488   0.445   3.460  13.130  0.0528 -0.6804 -0.5953
  709TMC3    C710489   0.284   3.510  13.323 -0.1312 -0.3318  0.3327
  709TMC3    C810490   0.401   3.200  13.048 -0.0378 -0.2410 -0.9970
  709TMC3    O110491   0.290   3.602  13.242 -0.7799 -0.7113 -0.2992
  709TMC3    O210492   0.368   3.295  12.977 -0.3018 -0.0839  0.2807
  710TMC3    C110493   0.062   4.517   0.658  0.0160  0.0641  0.2802
  710TMC3    C210494   0.122   4.549   0.541  0.6666  0.4749  0.1428
  710TMC3    C310495   0.249   4.499   0.509 -0.1547 -0.4810  0.1457
  710TMC3    C410496   0.114   4.414   0.728  0.0387  0.1659 -0.1596
  710TMC3    C510497   0.235   4.356   0.690  0.1981  0.0762 -0.2206
  710TMC3    C610498   0.307   4.402   0.585 -0.3563 -0.0610 -0.3953
  710TMC3     C10499   4.654   4.571   0.695  0.1247  0.1551  0.4012
  710TMC3     O10500   4.587   4.483   0.751 -0.0892  0.1481  0.0705
  710TMC3     H10501   0.076   4.617   0.469  1.3282  2.3776  1.5202
  710TMC3    H110502   0.068   4.377   0.818  1.3025  0.3004  0.5395
  710TMC3    H210503   0.402   4.359   0.554  0.4486  0.8038  0.8966
  710TMC3    C710504   0.291   4.260   0.778 -0.5421  0.3204 -0.3019
  710TMC3    C810505   0.306   4.520   0.379  0.4824 -0.3480 -0.3592
  710TMC3    O110506   0.233   4.244   0.883 -0.3016  0.2087  0.5886
  710TMC3    O210507   0.412   4.466   0.354 -0.1412 -0.3500 -0.1419
  711TMC3    C110508   0.470   1.041  14.956  0.3712 -0.0432 -0.6276
  711TMC3    C210509   0.476   1.065  15.090  0.0984 -0.6938 -0.1775
  711TMC3    C310510   0.597   1.033  15.157  0.7374  0.5295  0.2465
  711TMC3    C410511   0.581   0.982  14.896 -0.0776 -0.0837 -0.5065
  711TMC3    C510512   0.697   0.947  14.963  0.3170 -0.0836  0.2651
  711TMC3    C610513   0.704   0.970  15.098 -0.1166 -0.4968 -0.6635
  711TMC3     C10514   0.362   0.966  14.909  0.6545  0.3725  0.1969
  711TMC3     O10515   0.359   0.909  14.801  0.8291 -0.2327 -0.1609
  711TMC3     H10516   0.402   1.130  15.134  0.6563 -0.7452  0.8395
  711TMC3    H110517   0.583   0.979  14.788 -1.9392 -1.1213 -0.5253
  711TMC3    H210518   0.789   0.929  15.151 -0.4996 -0.8344 -0.3104
  711TMC3    C710519   0.724   0.808  14.930  0.3695  0.6796 -0.4388
  711TMC3    C810520   0.577   1.013  15.301  0.1771  0.5686  0.4435
  711TMC3    O110521   0.821   0.761  14.982  0.4816 -0.1905 -0.7892
  711TMC3    O210522   0.464   1.029  15.346  0.4112  0.3103  0.3353
  712MPD2     C10523   2.244   1.962  13.942  0.7074 -0.7386  0.5969
  712MPD2    C110524   2.142   1.998  13.854 -0.5095  0.1628  1.0154
  712MPD2    C210525   2.150   2.119  13.790 -0.3556  0.0048  0.5440
  712MPD2    C310526   2.258   2.206  13.810  0.4740  1.3209 -0.4285
  712MPD2    C410527   2.355   2.158  13.893  0.2584  0.4047  0.1496
  712MPD2    C510528   2.354   2.034  13.958 -0.1725 -0.1509  0.5434
  712MPD2     H10529   2.064   2.163  13.740  1.2803  1.4001 -1.0227
  712MPD2    H110530   2.444   2.216  13.915 -0.6986  1.8795  0.1816
  712MPD2    H210531   2.238   1.871  14.001  0.8583  0.5366  2.5774
  712MPD2    H310532   2.433   1.997  14.022 -0.9453 -0.8574  1.0910
  712MPD2     N10533   2.275   2.332  13.753 -0.1783 -0.0457  0.9804
  712MPD2    H510534   2.360   2.385  13.771  0.5752 -0.4190 -1.4160
  712MPD2    N110535   2.015   1.931  13.846  0.8118  0.4927  0.2399
  712MPD2    H710536   1.949   1.975  13.782 -1.5917 -1.6077  1.2794
  713TMC3    C110537   2.243   2.506  13.588 -0.0776  0.2777 -0.5878
  713TMC3    C210538   2.383   2.518  13.587  0.1870  0.1080 -0.6472
  713TMC3    C310539   2.426   2.646  13.559  0.2709  0.5125 -0.1851
  713TMC3    C410540   2.153   2.606  13.556 -0.3055 -0.7576  0.3973
  713TMC3    C510541   2.200   2.731  13.520  0.0520 -0.8414  0.0005
  713TMC3    C610542   2.334   2.751  13.525  0.1722  0.4145 -0.6046
  713TMC3     C10543   2.195   2.386  13.655 -0.4287 -0.2790  0.3439
  713TMC3     O10544   2.077   2.368  13.633  0.0449 -0.3822  0.1864
  713TMC3     H10545   2.456   2.441  13.610  2.0209  2.0309 -0.0882
  713TMC3    H110546   2.045   2.601  13.569  0.1541 -2.2703  3.6029
  713TMC3    H210547   2.371   2.849  13.498  0.0989  0.7573  0.5213
  713TMC3    C710548   2.112   2.840  13.518  0.0651 -0.0093 -0.6503
  713TMC3    C810549   2.566   2.679  13.524  0.0311 -0.7876  0.2171
  713TMC3    O110550   2.137   2.930  13.598  0.5910  0.6580 -0.3790
  713TMC3    O210551   2.589   2.748  13.424 -0.3268 -0.1426 -0.4571
  714MPD2     C10552   3.522   0.630   0.972  0.0296 -0.0902 -0.7152
  714MPD2    C110553   3.547   0.491   1.001  0.0033 -0.3324  0.8960
  714MPD2    C210554   3.440   0.403   0.989 -0.8274  0.0807 -0.2698
  714MPD2    C310555   3.314   0.440   0.936 -0.1469 -0.4770  0.2846
  714MPD2    C410556   3.304   0.570   0.888  0.3892  0.1773 -0.0083
  714MPD2    C510557   3.404   0.663   0.909  0.2595  0.0363  0.2574
  714MPD2     H10558   3.460   0.302   1.023 -1.3694  0.2344  0.4990
  714MPD2    H110559   3.215   0.617   0.847 -0.3053  0.2492  1.5959
  714MPD2    H210560   3.603   0.701   0.985  0.4161 -0.9367  1.4140
  714MPD2    H310561   3.380   0.761   0.871  0.0632 -0.0346  0.1995
  714MPD2     N10562   3.216   0.338   0.911 -0.1567 -0.5036  0.3551
  714MPD2    H510563   3.231   0.249   0.958 -0.6742 -0.0767  1.3186
  714MPD2    N110564   3.677   0.447   1.035 -0.5992 -0.8884 -0.1643
  714MPD2    H710565   3.736   0.526   1.059 -1.1430 -0.6445  0.3836
  715TMC3    C110566   3.858   0.289   1.049  0.0069  0.1938 -0.0412
  715TMC3    C210567   3.913   0.173   1.005 -0.4389  0.7449 -0.9709
  715TMC3    C310568   4.048   0.158   1.021  0.0802  0.4868 -0.5124
  715TMC3    C410569   3.941   0.378   1.110  0.1382  0.1117  0.2867
  715TMC3    C510570   4.066   0.345   1.149 -0.2296 -0.4551  0.0178
  715TMC3    C610571   4.128   0.235   1.107 -0.3952 -0.0008 -0.0500
  715TMC3     C10572   3.725   0.324   1.004  0.1325 -0.1261  0.0101
  715TMC3     O10573   3.662   0.232   0.956  0.0338 -0.2676 -0.1897
  715TMC3     H10574   3.845   0.094   0.974 -0.1293 -0.5145  1.5782
  715TMC3    H110575   3.907   0.478   1.136  3.7103  1.6727 -1.0255
  715TMC3    H210576   4.232   0.221   1.136 -0.8896 -0.2777  1.5532
  715TMC3    C710577   4.139   0.440   1.237  0.3470 -0.2885  0.2325
  715TMC3    C810578   4.093   0.024   0.977  0.1637  0.6228 -0.5387
  715TMC3    O110579   4.261   0.422   1.232 -0.2965  0.2084  0.7200
  715TMC3    O210580   4.021   4.689   0.895  0.1341  0.2378  0.5085
  716MPD2     C10581   0.256   2.603  10.103  0.1666  0.1131 -0.0468
  716MPD2    C110582   0.194   2.619   9.976  0.1384  0.1772  0.9176
  716MPD2    C210583   0.128   2.521   9.905  0.0714 -0.2685 -0.4236
  716MPD2    C310584   0.127   2.395   9.960  1.3934 -0.8307  0.3602
  716MPD2    C410585   0.192   2.375  10.085  0.2461  0.0746 -0.6323
  716MPD2    C510586   0.260   2.476  10.155  0.3185 -0.5203  0.0851
  716MPD2     H10587   0.086   2.548   9.809  0.3130  1.5047 -0.0422
  716MPD2    H110588   0.203   2.277  10.131  0.8329  1.2407  1.7401
  716MPD2    H210589   0.318   2.680  10.149  0.1996  0.5465 -0.8178
  716MPD2    H310590   0.314   2.457  10.247 -1.2524 -0.9514  0.9078
  716MPD2     N10591   0.064   2.292   9.894  0.1238 -0.2798  0.7933
  716MPD2    H510592   0.031   2.309   9.799  2.7532  0.0859 -0.0690
  716MPD2    N110593   0.214   2.750   9.925 -0.1636 -0.2589 -0.1655
  716MPD2    H710594   0.269   2.812   9.984  0.4921 -0.8557 -0.1448
  717TMC3    C110595   4.691   2.090   9.854  0.3856  0.4062  0.5252
  717TMC3    C210596   4.594   2.150   9.780 -0.3620 -0.2906  0.7817
  717TMC3    C310597   4.524   2.071   9.688 -0.0786 -0.0807  0.0959
  717TMC3    C410598   4.713   1.951   9.845  0.3416 -0.0489  0.8526
  717TMC3    C510599   4.636   1.879   9.761 -0.0622  0.2119  0.5882
  717TMC3    C610600   4.540   1.932   9.681  0.1550 -0.0887 -0.3623
  717TMC3     C10601   0.047   2.165   9.941  0.4138 -0.7202 -0.0420
  717TMC3     O10602   0.070   2.106  10.049 -0.5078  0.3500 -0.5436
  717TMC3     H10603   4.581   2.257   9.785  1.2008 -0.1083  1.0921
  717TMC3    H110604   0.072   1.905   9.895  2.4300  1.7098 -1.0216
  717TMC3    H210605   4.469   1.872   9.625 -0.0413  0.3465 -0.5716
  717TMC3    C710606   4.631   1.733   9.776 -0.0439 -0.0954 -0.1753
  717TMC3    C810607   4.420   2.134   9.604  0.3947 -0.9352  0.8793
  717TMC3    O110608   4.606   1.673   9.670  0.4570 -0.1802  0.2427
  717TMC3    O210609   4.396   2.252   9.639  0.1628  0.8979  0.5250
  718MPD2     C10610   3.617   1.726  12.564  0.4293 -0.4889  1.1183
  718MPD2    C110611   3.672   1.719  12.692  0.3121 -0.2924 -0.3723
  718MPD2    C210612   3.604   1.770  12.800 -0.1566 -0.0897 -0.1813
  718MPD2    C310613   3.469   1.808  12.778  0.0994 -0.6537 -0.5361
  718MPD2    C410614   3.410   1.798  12.656  0.4822 -0.1158  0.5873
  718MPD2    C510615   3.486   1.758  12.547 -0.3232  0.2740 -0.5646
  718MPD2     H10616   3.650   1.764  12.897 -1.0140  1.0817  0.2941
  718MPD2    H110617   3.306   1.825  12.645  0.5475  0.3435  1.0747
  718MPD2    H210618   3.678   1.696  12.479  0.0768 -0.8758  1.0029
  718MPD2    H310619   3.449   1.761  12.445  0.5610 -2.5680 -0.9649
  718MPD2     N10620   3.412   1.872  12.893  0.5155  0.0177 -0.1620
  718MPD2    H510621   3.450   1.848  12.983  1.5018 -0.0985 -0.6064
  718MPD2    N110622   3.803   1.676  12.714  0.3427 -0.3599  0.6191
  718MPD2    H710623   3.837   1.650  12.806  1.4097  0.3851  0.4399
  719TMC3    C110624   4.023   1.618  12.686  0.4700 -0.0068  0.5341
  719TMC3    C210625   4.005   1.608  12.820  0.2636 -0.5993  0.0994
  719TMC3    C310626   4.053   1.705  12.897  0.3891  0.2672  0.0891
  719TMC3    C410627   4.106   1.714  12.635  0.1275  0.5581 -0.5128
  719TMC3    C510628   4.157   1.809  12.718 -0.1565 -0.1412 -0.4902
  719TMC3    C610629   4.133   1.811  12.851 -0.2489  0.1576 -0.3697
  719TMC3     C10630   3.894   1.642  12.622  0.0470  0.1611  0.2853
  719TMC3     O10631   3.895   1.656  12.500 -0.0671  0.1464  0.1796
  719TMC3     H10632   3.953   1.524  12.865  2.2487 -2.1287 -0.5123
  719TMC3    H110633   4.118   1.733  12.529  1.8840 -0.3081 -0.4811
  719TMC3    H210634   4.179   1.889  12.910 -1.5014 -0.5232  1.5167
  719TMC3    C710635   4.174   1.935  12.656  0.2837 -0.3258 -0.4093
  719TMC3    C810636   3.971   1.731  13.010 -0.3428  0.4483 -0.5397
  719TMC3    O110637   4.238   1.932  12.552  0.3456 -0.3512  0.1346
  719TMC3    O210638   3.873   1.663  13.022 -0.2918 -0.8069  0.0260
  720MPD2     C10639   1.727   3.912  13.949  0.0736 -0.2762 -0.0136
  720MPD2    C110640   1.844   3.920  13.872  0.5830 -0.0499  0.0510
  720MPD2    C210641   1.959   3.871  13.934 -1.2005 -0.3382 -0.3023
  720MPD2    C310642   1.971   3.823  14.068  0.4124  0.5395 -0.4528
  720MPD2    C410643   1.853   3.827  14.134  0.0418  0.0624 -0.0424
  720MPD2    C510644   1.733   3.857  14.072 -0.4544  0.2856 -0.2038
  720MPD2     H10645   2.053   3.868  13.880 -1.6799 -0.3971 -1.1411
  720MPD2    H110646   1.842   3.803  14.239 -0.2012 -0.7061 -0.2438
  720MPD2    H210647   1.632   3.953  13.918  0.8081  0.5637 -1.1181
  720MPD2    H310648   1.641   3.853  14.129 -0.7964  0.9513 -0.7049
  720MPD2     N10649   2.096   3.805  14.123 -0.1154  0.3633 -0.5520
  720MPD2    H510650   2.170   3.839  14.063  0.6887  0.9149  0.7717
  720MPD2    N110651   1.853   3.972  13.745  0.3472 -0.1335 -0.4697
  720MPD2    H710652   1.945   3.962  13.703 -0.2610 -0.7118 -1.6923
  721TMC3    C110653   2.260   3.825  14.287  0.5882 -0.2472 -0.8296
  721TMC3    C210654   2.272   3.884  14.408 -0.1069  0.1138  0.0148
  721TMC3    C310655   2.380   3.966  14.432  0.3722  0.2451  0.0536
  721TMC3    C410656   2.352   3.845  14.189  0.0893  0.0735  0.1722
  721TMC3    C510657   2.457   3.920  14.222 -0.8186  0.2713  0.1947
  721TMC3    C610658   2.480   3.974  14.342  0.2282  0.0008  0.1314
  721TMC3     C10659   2.120   3.798  14.260 -0.1174  0.0397 -0.2745
  721TMC3     O10660   2.032   3.784  14.344  0.7350 -0.2589  0.7070
  721TMC3     H10661   2.200   3.857  14.484  0.4318  0.3679  0.6076
  721TMC3    H110662   2.347   3.786  14.098 -0.5632 -0.9470  0.8692
  721TMC3    H210663   2.570   4.032  14.352 -1.7247  2.8173  1.2628
  721TMC3    C710664   2.578   3.878  14.146  0.1297  0.3579 -0.0717
  721TMC3    C810665   2.430   3.973  14.567 -0.1315 -0.7357 -0.9455
  721TMC3    O110666   2.667   3.959  14.130 -0.3888  0.0868  0.4087
  721TMC3    O210667   2.548   4.005  14.584  0.3442 -0.8411 -0.4285
  722MPD2     C10668   1.245   2.261  13.127 -0.4668  0.2499 -0.6084
  722MPD2    C110669   1.173   2.363  13.059 -0.2464 -0.2558  0.4795
  722MPD2    C210670   1.030   2.355  13.042 -0.3714  0.5037 -1.2592
  722MPD2    C310671   0.967   2.240  13.073  0.9022  0.2927 -0.7006
  722MPD2    C410672   1.042   2.141  13.132  0.2111 -0.1397 -0.1801
  722MPD2    C510673   1.176   2.151  13.156 -0.0525 -0.0056  0.3988
  722MPD2     H10674   0.977   2.433  12.987  0.8011  1.7299 -0.6641
  722MPD2    H110675   1.001   2.046  13.162  0.5761  0.0453  0.8876
  722MPD2    H210676   1.349   2.274  13.155 -0.8683  1.1388  0.4536
  722MPD2    H310677   1.234   2.082  13.215 -2.8515 -2.0193  0.7938
  722MPD2     N10678   0.825   2.239  13.044  0.4945  0.4241 -0.5002
  722MPD2    H510679   0.785   2.328  13.015  1.5574  0.1991 -2.6133
  722MPD2    N110680   1.237   2.486  13.022  0.9004 -0.6253 -0.2987
  722MPD2    H710681   1.173   2.550  12.977  1.8290  0.9326  0.6097
  723TMC3    C110682   0.603   2.172  13.035 -0.9963  0.2056 -0.6773
  723TMC3    C210683   0.499   2.108  13.102 -0.2863 -0.0011 -0.1262
  723TMC3    C310684   0.389   2.071  13.028  0.8089 -0.2085 -0.1089
  723TMC3    C410685   0.594   2.195  12.900 -0.0346 -0.2973  0.0517
  723TMC3    C510686   0.479   2.160  12.829  0.2338  0.9467  0.2623
  723TMC3    C610687   0.383   2.082  12.890 -0.0196 -0.2217  0.3532
  723TMC3     C10688   0.736   2.145  13.079 -0.1086  0.2421 -0.0391
  723TMC3     O10689   0.757   2.038  13.137 -0.4021  0.2436 -0.2178
  723TMC3     H10690   0.502   2.081  13.207  2.2127 -1.1335 -0.4962
  723TMC3    H110691   0.682   2.222  12.843  0.3387  0.3495  0.9429
  723TMC3    H210692   0.300   2.039  12.835  0.7504  3.0645 -3.3911
  723TMC3    C710693   0.442   2.235  12.707  0.6233  0.4586  0.3342
  723TMC3    C810694   0.285   1.990  13.086 -0.5904 -0.3631  0.6465
  723TMC3    O110695   0.383   2.171  12.622  0.7075  0.1847  0.1351
  723TMC3    O210696   0.241   2.020  13.194  0.2485 -0.2397  0.1704
  724TMC3    C110697   1.496   0.347  10.113 -0.2601 -0.0799 -0.0272
  724TMC3    C210698   1.468   0.378  10.244  0.3978 -0.5556  0.2001
  724TMC3    C310699   1.541   0.487  10.297  0.1961  0.1015 -0.0317
  724TMC3    C410700   1.604   0.397  10.042 -0.2632 -0.1376 -0.2118
  724TMC3    C510701   1.681   0.488  10.111 -0.5469 -0.0510  0.0104
  724TMC3    C610702   1.651   0.537  10.231  0.0031 -0.3493 -0.0760
  724TMC3     C10703   1.415   0.256  10.037 -0.0182  0.1684 -0.1461
  724TMC3     O10704   1.437   0.249   9.914 -0.6275  0.2284  0.2118
  724TMC3     H10705   1.371   0.374  10.292 -1.1222  0.5963 -2.8149
  724TMC3    H110706   1.624   0.385   9.937 -0.5261  0.0226 -0.2812
  724TMC3    H210707   1.716   0.599  10.291 -0.5305 -2.4385  2.6859
  724TMC3    C710708   1.786   0.560  10.043  0.4094  0.2561 -0.0696
  724TMC3    C810709   1.478   0.586  10.385 -0.3771  0.5205 -0.2458
  724TMC3    O110710   1.835   0.645  10.115 -0.1600 -0.0353 -0.2391
  724TMC3    O210711   1.427   0.553  10.492 -0.1139 -0.0465 -0.2447
  725TMC3    C110712   2.333   4.502  12.964 -0.5830 -0.7237  0.2415
  725TMC3    C210713   2.256   4.492  12.852 -0.8241 -0.1918 -0.2324
  725TMC3    C310714   2.267   4.374  12.785  0.0432  0.7022 -0.1867
  725TMC3    C410715   2.419   4.405  13.001 -0.3851 -0.1071 -0.1596
  725TMC3    C510716   2.431   4.292  12.927 -1.3591  0.3494  0.1382
  725TMC3    C610717   2.349   4.274  12.823 -0.6911 -0.6534 -0.5054
  725TMC3     C10718   2.350   4.629  13.037 -0.2537  0.1938 -0.1253
  725TMC3     O10719   2.445   4.637  13.120 -0.0578  0.3237 -0.5050
  725TMC3     H10720   2.180   4.567  12.831 -0.5685  0.2087  0.2815
  725TMC3    H110721   2.482   4.416  13.089 -1.0746 -1.1406  0.4666
  725TMC3    H210722   2.359   4.181  12.768  1.9098 -0.1336 -0.9438
  725TMC3    C710723   2.556   4.222  12.929 -0.3698  0.4135  0.4409
  725TMC3    C810724   2.222   4.354  12.651  0.6740  0.1652  0.5605
  725TMC3    O110725   2.578   4.159  12.827  0.0037  0.4617 -0.2253
  725TMC3    O210726   2.195   4.240  12.622 -0.0561 -0.2066  0.2939
  726MPD2     C10727   0.770   0.903  10.552 -0.0359  0.7902 -0.7364
  726MPD2    C110728   0.768   0.873  10.416  0.4074  0.5278  0.2292
  726MPD2    C210729   0.751   0.743  10.379  0.2609 -0.0389 -0.1004
  726MPD2    C310730   0.732   0.646  10.481  0.3638  0.4368  0.6138
  726MPD2    C410731   0.736   0.681  10.612  0.6787 -0.3464 -0.7517
  726MPD2    C510732   0.756   0.809  10.650  0.3639 -0.5739 -0.3321
  726MPD2     H10733   0.744   0.719  10.274  2.3928  0.1153 -0.2666
  726MPD2    H110734   0.720   0.603  10.687 -1.1207  1.1436  0.4252
  726MPD2    H210735   0.768   1.005  10.588 -1.0233  0.1715  0.9559
  726MPD2    H310736   0.753   0.836  10.755 -1.3076 -0.1218 -0.5026
  726MPD2     N10737   0.727   0.507  10.458  0.3592  0.0467  0.0381
  726MPD2    H510738   0.712   0.456  10.544 -0.1629  0.1965  0.0342
  726MPD2    N110739   0.766   0.972  10.314 -0.1851 -0.6851 -0.1074
  726MPD2    H710740   0.773   0.939  10.218  1.2276  1.1767 -0.6584
  727TMC3    C110741   0.739   1.194  10.224 -0.3116  0.4341 -0.4000
  727TMC3    C210742   0.779   1.323  10.240 -0.4716  0.0353  0.1352
  727TMC3    C310743   0.782   1.403  10.134 -0.2551  0.2950  0.5269
  727TMC3    C410744   0.707   1.147  10.103  0.3931  0.8961  1.2545
  727TMC3    C510745   0.708   1.230   9.997 -0.2270 -0.0867  0.2735
  727TMC3    C610746   0.750   1.361  10.007  0.2803  0.1452  1.1149
  727TMC3     C10747   0.765   1.107  10.342 -0.3275  0.4107 -0.0354
  727TMC3     O10748   0.750   1.171  10.447  0.2123  0.9089 -0.3917
  727TMC3     H10749   0.809   1.365  10.335 -1.4060  0.8066  0.0967
  727TMC3    H110750   0.685   1.042  10.087 -0.7156  0.9230  2.6078
  727TMC3    H210751   0.789   1.414   9.921 -3.2482  1.8821  0.5561
  727TMC3    C710752   0.672   1.181   9.865  0.5857 -0.6028  0.0226
  727TMC3    C810753   0.866   1.523  10.152  0.0466  0.2944 -0.2702
  727TMC3    O110754   0.651   1.059   9.846  0.3119 -0.4664 -0.3565
  727TMC3    O210755   0.936   1.524  10.251 -0.3065 -0.2708  0.3551
  728TMC3    C110756   4.113   4.187  15.158  0.5111  0.0351  0.0824
  728TMC3    C210757   4.234   4.185  15.233  0.0862  0.5357  0.4822
  728TMC3    C310758   4.351   4.207  15.164  0.3636  0.1254 -0.1034
  728TMC3    C410759   4.112   4.207  15.021 -0.0640 -0.7292 -0.7204
  728TMC3    C510760   4.229   4.232  14.960  0.3685  0.5567  0.3264
  728TMC3    C610761   4.352   4.232  15.025  0.5010 -0.0413 -0.9348
  728TMC3     C10762   3.984   4.186  15.221 -0.1904  0.4338 -0.4200
  728TMC3     O10763   3.888   4.212  15.152 -0.4457 -0.3333 -0.3416
  728TMC3     H10764   4.240   4.162  15.339  1.3858  1.8976  0.7066
  728TMC3    H110765   4.024   4.202  14.958 -0.9658  0.4142  0.4645
  728TMC3    H210766   4.440   4.255  14.967  1.6103 -3.8511 -0.7810
  728TMC3    C710767   4.207   4.263  14.821  0.8545  0.0972 -0.1190
  728TMC3    C810768   4.479   4.168  15.214 -0.3239 -0.5648 -0.3595
  728TMC3    O110769   4.105   4.234  14.764 -0.3809 -0.1123 -0.1313
  728TMC3    O210770   4.550   4.126  15.123 -0.0125  0.0060 -0.0003
  729MPD2     C10771   1.612   1.144  16.058 -0.0682 -0.7298 -1.0791
  729MPD2    C110772   1.613   1.016  16.109 -0.1807 -0.0002 -0.3262
  729MPD2    C210773   1.491   0.955  16.139 -0.0592  0.3210  0.1104
  729MPD2    C310774   1.372   1.024  16.133  0.7045  1.1436 -0.2736
  729MPD2    C410775   1.373   1.156  16.082  0.1169  0.2549  0.1689
  729MPD2    C510776   1.490   1.209  16.043 -0.3895  0.2625  0.2229
  729MPD2     H10777   1.482   0.852  16.171 -1.1933  1.1426  2.4509
  729MPD2    H110778   1.276   1.202  16.068  0.2747  1.0152  1.6326
  729MPD2    H210779   1.708   1.189  16.035 -0.8599  0.6626 -1.6681
  729MPD2    H310780   1.491   1.313  16.012 -0.1240  0.8287  2.1432
  729MPD2     N10781   1.248   0.981  16.189 -0.3255  0.0614 -0.6524
  729MPD2    H510782   1.170   1.045  16.181 -2.4659 -2.5829 -1.0109
  729MPD2    N110783   1.729   0.937  16.131  0.0809 -0.2076 -0.7278
  729MPD2    H710784   1.819   0.983  16.123  0.0373 -0.5189 -2.8603
  730TMC3    C110785   1.087   0.866  16.310  0.5560  0.3398 -1.0213
  730TMC3    C210786   1.060   0.747  16.374  0.1265  0.3166 -0.2522
  730TMC3    C310787   1.014   0.743  16.501 -0.0922 -0.0380 -0.1942
  730TMC3    C410788   1.058   0.987  16.369  0.2865  0.1610  0.5145
  730TMC3    C510789   1.006   0.978  16.490 -0.0874  0.5006  0.3914
  730TMC3    C610790   0.983   0.857  16.557  0.1103 -0.0565 -0.4034
  730TMC3     C10791   1.219   0.866  16.248  0.4963 -0.6575 -0.0357
  730TMC3     O10792   1.296   0.778  16.284 -0.3042  0.7044 -0.2825
  730TMC3     H10793   1.092   0.653  16.330  0.3795  0.3699 -0.1782
  730TMC3    H110794   1.073   1.080  16.315  2.5869 -0.6403 -0.2054
  730TMC3    H210795   0.971   0.840  16.663  1.0528  3.3022  0.2216
  730TMC3    C710796   1.062   1.082  16.576  0.1345 -0.4346  0.3489
  730TMC3    C810797   1.093   0.651  16.592 -1.1995 -0.0814  0.0157
  730TMC3    O110798   1.168   1.128  16.543  0.1869  0.3757 -0.6239
  730TMC3    O210799   1.037   0.586  16.678 -0.0120  0.0393  0.9159
  731MPD2     C10800   2.263   4.182  12.085 -0.2780 -0.1720  0.3415
  731MPD2    C110801   2.385   4.129  12.074  0.0447 -0.3061 -0.0419
  731MPD2    C210802   2.424   4.024  12.152 -0.3490  0.5012  0.5019
  731MPD2    C310803   2.340   3.979  12.250  0.7343 -0.7470 -0.1490
  731MPD2    C410804   2.219   4.042  12.270 -0.2606  0.4468 -0.1861
  731MPD2    C510805   2.181   4.142  12.183  0.2943 -0.1533  0.2102
  731MPD2     H10806   2.516   3.969  12.139  0.4979  1.7793  1.0048
  731MPD2    H110807   2.152   4.011  12.350  1.3907 -2.3754  0.0824
  731MPD2    H210808   2.236   4.271  12.029 -1.4514 -1.2393 -0.7790
  731MPD2    H310809   2.086   4.193  12.192 -0.0741 -0.7889 -0.1032
  731MPD2     N10810   2.388   3.877  12.332  0.3349 -0.6317  0.0593
  731MPD2    H510811   2.480   3.837  12.315 -0.6892 -2.5102 -1.1230
  731MPD2    N110812   2.458   4.168  11.957 -0.1664  0.5406  0.0365
  731MPD2    H710813   2.414   4.232  11.891 -2.5399 -0.3421  0.7350
  732TMC3    C110814   2.623   4.136  11.789  0.7559  1.0916  0.4793
  732TMC3    C210815   2.511   4.110  11.712 -0.0958 -0.5699 -0.1757
  732TMC3    C310816   2.507   3.992  11.646  0.2212  0.0187  0.5522
  732TMC3    C410817   2.738   4.063  11.777 -0.2282  0.6841 -0.4603
  732TMC3    C510818   2.726   3.947  11.710  0.3400  0.4579  0.3623
  732TMC3    C610819   2.609   3.901  11.655  0.1261 -0.2108 -0.3910
  732TMC3     C10820   2.584   4.124  11.925 -0.0457  0.0550  0.2276
  732TMC3     O10821   2.667   4.064  11.995  0.0183 -0.2745 -0.0778
  732TMC3     H10822   2.419   4.167  11.704  1.5143  2.0106 -0.2411
  732TMC3    H110823   2.826   4.102  11.827 -0.1743 -1.8502  1.3947
  732TMC3    H210824   2.593   3.805  11.607  0.4885 -0.6653  0.4006
  732TMC3    C710825   2.813   3.832  11.738 -0.4995 -0.1805  0.1136
  732TMC3    C810826   2.374   3.930  11.642 -0.1046  0.0638 -0.1366
  732TMC3    O110827   2.846   3.755  11.647  0.4416 -0.6525 -0.7201
  732TMC3    O210828   2.292   4.010  11.601 -0.4994  0.3345  0.0000
  733TMC3    C110829   3.150   2.030  13.215  0.3512  0.5915  0.5294
  733TMC3    C210830   3.159   2.003  13.081 -0.6460 -0.3831 -0.0503
  733TMC3    C310831   3.283   1.989  13.026  1.3693  0.2494 -0.4599
  733TMC3    C410832   3.257   2.042  13.296  0.1224  0.3686 -0.2856
  733TMC3    C510833   3.381   2.041  13.242  0.1644 -0.4136  1.0395
  733TMC3    C610834   3.393   2.022  13.102 -0.3704 -0.1027 -0.0648
  733TMC3     C10835   3.023   2.001  13.278 -0.2455 -0.3347 -0.0349
  733TMC3     O10836   3.032   1.959  13.391 -0.2127 -0.1334 -0.1219
  733TMC3     H10837   3.072   1.989  13.017  0.4272  0.7870 -1.7750
  733TMC3    H110838   3.244   2.024  13.402  0.0756  0.7604 -0.2250
  733TMC3    H210839   3.489   2.030  13.052  0.4868  1.4886  1.8163
  733TMC3    C710840   3.500   2.024  13.332 -0.3536  0.3402 -0.7748
  733TMC3    C810841   3.305   1.955  12.890 -0.0535  0.0606  0.2931
  733TMC3    O110842   3.497   2.054  13.450 -0.6179 -0.4820  0.4223
  733TMC3    O210843   3.232   1.978  12.792  0.0153  0.5606 -0.0663
  734MPD2     C10844   0.214   4.517  12.380  0.3899 -0.2547  0.2937
  734MPD2    C110845   0.292   4.408  12.345  0.5204  0.3217  0.2876
  734MPD2    C210846   0.389   4.422  12.242 -0.0715  0.1380  0.1595
  734MPD2    C310847   0.397   4.539  12.168 -0.1282 -0.1063 -0.3478
  734MPD2    C410848   0.312   4.643  12.201 -0.3354  0.2288  0.6322
  734MPD2    C510849   0.230   4.636  12.309 -0.1335  0.3408 -0.3226
  734MPD2     H10850   0.466   4.347  12.229 -0.0315  0.3886 -1.0226
  734MPD2    H110851   0.307   0.012  12.148  0.3223 -0.5046 -0.7478
  734MPD2    H210852   0.140   4.512  12.459 -0.2386 -2.3949 -0.4407
  734MPD2    H310853   0.184   0.004  12.341 -0.3535  0.4120 -0.8374
  734MPD2     N10854   0.508   4.557  12.084 -0.0393 -0.4047  0.4376
  734MPD2    H510855   0.589   4.497  12.097 -0.4525 -0.5173  2.5225
  734MPD2    N110856   0.266   4.283  12.412  0.1152 -0.7602 -0.2147
  734MPD2    H710857   0.194   4.283  12.483 -0.7648  1.1661 -1.0994
  735TMC3    C110858   0.263   4.048  12.445  0.7748  0.1671  0.1069
  735TMC3    C210859   0.165   4.014  12.353 -0.8333 -0.1484  0.1482
  735TMC3    C310860   0.167   3.900  12.289 -0.2692  0.0732 -0.1401
  735TMC3    C410861   0.361   3.956  12.470  0.4255  0.5040 -0.2129
  735TMC3    C510862   0.371   3.840  12.404 -0.8674  0.4109 -0.0904
  735TMC3    C610863   0.271   3.815  12.316  0.3795  0.3456  0.8124
  735TMC3     C10864   0.334   4.162  12.395  0.5835  0.2227  0.1031
  735TMC3     O10865   0.423   4.143  12.318  0.0694  0.0325 -0.2167
  735TMC3     H10866   0.096   4.088  12.316  0.1688  0.6102 -0.1753
  735TMC3    H110867   0.451   3.977  12.527 -1.1412  4.2295  0.8749
  735TMC3    H210868   0.276   3.725  12.256 -2.0069 -0.6007  2.0403
  735TMC3    C710869   0.505   3.787  12.373  0.4125 -0.4907 -0.3702
  735TMC3    C810870   0.163   3.914  12.145  0.0217 -0.6017 -0.5735
  735TMC3    O110871   0.589   3.869  12.327 -0.4947 -0.0532  0.8008
  735TMC3    O210872   0.120   3.832  12.069  0.0734  0.1875 -0.0498
  736MPD2     C10873   0.594   3.428  12.360 -0.7882 -0.5160  0.0894
  736MPD2    C110874   0.613   3.561  12.342 -0.5808 -0.7827 -0.3723
  736MPD2    C210875   0.739   3.607  12.294 -0.3428  0.2451 -0.8048
  736MPD2    C310876   0.845   3.519  12.282  0.3231  0.0690  0.0109
  736MPD2    C410877   0.828   3.394  12.324 -0.0456  0.3141 -0.3750
  736MPD2    C510878   0.708   3.345  12.360 -0.7338  0.2070  0.0481
  736MPD2     H10879   0.735   3.708  12.254  0.1643  0.3543 -0.5849
  736MPD2    H110880   0.901   3.316  12.302 -0.5871 -0.8407  1.9214
  736MPD2    H210881   0.499   3.379  12.375 -0.6702 -0.8210 -0.1836
  736MPD2    H310882   0.695   3.238  12.374 -1.1993  0.3898  0.9993
  736MPD2     N10883   0.972   3.559  12.218  0.0816  0.1395  0.0708
  736MPD2    H510884   1.038   3.486  12.194 -0.5776  0.0737 -1.5550
  736MPD2    N110885   0.503   3.649  12.369  0.1152 -0.3172 -0.1618
  736MPD2    H710886   0.421   3.602  12.406  0.1865  0.2090  0.6816
  737TMC3    C110887   1.104   3.696  12.070 -0.0450  0.3563 -0.1026
  737TMC3    C210888   1.126   3.817  12.012  0.2277 -0.2162 -0.8109
  737TMC3    C310889   1.184   3.821  11.889  0.1226  0.4844 -0.4771
  737TMC3    C410890   1.145   3.581  12.002 -0.0905 -0.1032  0.3355
  737TMC3    C510891   1.219   3.589  11.892 -0.1961  0.0653  0.2108
  737TMC3    C610892   1.242   3.710  11.830 -0.2387  0.3009  0.4706
  737TMC3     C10893   0.998   3.690  12.177  0.2106 -0.2655  0.2902
  737TMC3     O10894   0.942   3.790  12.216 -0.5531  0.0092  0.9199
  737TMC3     H10895   1.076   3.906  12.048  1.1908 -0.0358  0.0554
  737TMC3    H110896   1.114   3.482  12.033 -3.3845  0.7809 -0.1186
  737TMC3    H210897   1.285   3.722  11.731 -0.4720 -0.4800  0.2735
  737TMC3    C710898   1.232   3.474  11.799 -0.3433  0.3912  0.3577
  737TMC3    C810899   1.220   3.951  11.840  0.1889 -0.1772  0.4276
  737TMC3    O110900   1.176   3.370  11.833 -0.0493  0.1795 -0.1435
  737TMC3    O210901   1.258   4.030  11.923 -0.1377  0.6856 -0.4868
  738MPD2     C10902   0.824   2.805  15.070  0.5615  0.2803  0.4201
  738MPD2    C110903   0.940   2.780  15.148 -0.2452 -0.6865 -0.0606
  738MPD2    C210904   1.059   2.844  15.113  0.3431  0.0818  0.1982
  738MPD2    C310905   1.069   2.934  15.005  0.0534  0.1433  0.1255
  738MPD2    C410906   0.950   2.947  14.923 -0.4065 -0.0161  0.3489
  738MPD2    C510907   0.831   2.886  14.960  1.1400 -0.5569 -0.5808
  738MPD2     H10908   1.146   2.828  15.175  1.4333 -2.2468 -1.9615
  738MPD2    H110909   0.937   3.000  14.830  0.6234  0.5807  0.5451
  738MPD2    H210910   0.726   2.760  15.083 -0.2387  1.6145 -0.8687
  738MPD2    H310911   0.746   2.892  14.893  0.5050 -0.4929  0.2445
  738MPD2     N10912   1.185   3.006  14.969  0.0713  0.2208 -0.5096
  738MPD2    H510913   1.169   3.058  14.883  0.8497  0.3326 -0.5819
  738MPD2    N110914   0.939   2.678  15.251  0.0006 -0.3614 -0.6547
  738MPD2    H710915   1.028   2.638  15.277  1.4439  3.3614  0.1253
  739TMC3    C110916   1.379   3.131  15.001 -0.3546 -0.3125 -0.4041
  739TMC3    C210917   1.358   3.152  14.868 -0.0697 -0.7861 -0.3106
  739TMC3    C310918   1.398   3.275  14.826 -0.0132 -0.1009 -0.0554
  739TMC3    C410919   1.401   3.229  15.093  0.3959  0.1895  0.1489
  739TMC3    C510920   1.425   3.353  15.045 -0.2467  0.7212  0.3165
  739TMC3    C610921   1.422   3.382  14.911  0.8711 -0.1482 -0.2222
  739TMC3     C10922   1.288   3.030  15.054  0.2187 -0.3100 -0.1132
  739TMC3     O10923   1.301   2.990  15.171  0.5241 -0.4940 -0.7942
  739TMC3     H10924   1.362   3.068  14.800 -1.1572 -1.0855 -0.0050
  739TMC3    H110925   1.397   3.203  15.198  2.8826 -1.2115 -0.1322
  739TMC3    H210926   1.477   3.469  14.879  1.2829 -0.1681  0.4264
  739TMC3    C710927   1.431   3.461  15.142  0.7686 -0.0473  0.1082
  739TMC3    C810928   1.440   3.287  14.686 -0.1800  0.3710  0.2159
  739TMC3    O110929   1.404   3.570  15.099  0.2765 -0.5200 -0.0719
  739TMC3    O210930   1.408   3.197  14.609  0.6822  0.3202  0.1898
  740TMC3    C110931   1.760   4.235  14.328 -0.2881 -0.7208 -0.3340
  740TMC3    C210932   1.795   4.200  14.457  0.5342  0.7612  0.1287
  740TMC3    C310933   1.922   4.147  14.470 -0.8872 -0.7898 -0.2300
  740TMC3    C410934   1.840   4.225  14.211  0.6943  0.4481  0.3325
  740TMC3    C510935   1.962   4.173  14.233 -0.1876  0.2722  0.2653
  740TMC3    C610936   2.004   4.140  14.358  0.5949  0.2421  0.0752
  740TMC3     C10937   1.644   4.315  14.306 -0.0356  0.3265  0.4864
  740TMC3     O10938   1.646   4.409  14.229 -0.4165  0.2095  0.3788
  740TMC3     H10939   1.727   4.209  14.540  0.4936  0.2432  0.1488
  740TMC3    H110940   1.798   4.244  14.113 -1.1999  1.5018  1.3537
  740TMC3    H210941   2.109   4.120  14.374  0.7444  1.9083  1.2282
  740TMC3    C710942   2.060   4.145  14.116 -0.0938  0.1140 -0.3217
  740TMC3    C810943   1.955   4.047  14.565 -0.4937  0.0577 -0.3172
  740TMC3    O110944   2.158   4.080  14.150 -0.3003 -0.3533 -0.0714
  740TMC3    O210945   2.071   4.019  14.580 -0.2654  0.6021  0.1899
  741TMC3    C110946   1.172   3.590  14.273  0.2891  0.2309  0.2180
  741TMC3    C210947   1.061   3.508  14.243 -0.5189 -0.3517 -0.4654
  741TMC3    C310948   0.995   3.444  14.336  0.2516 -0.8832  0.0660
  741TMC3    C410949   1.201   3.608  14.409 -0.1725 -0.1368 -0.2561
  741TMC3    C510950   1.132   3.536  14.501  0.4073 -0.2541 -0.4362
  741TMC3    C610951   1.035   3.444  14.471  0.5967 -0.5074  0.0369
  741TMC3     C10952   1.259   3.648  14.172  0.8046 -1.1041  0.3206
  741TMC3     O10953   1.353   3.720  14.211  0.0435 -0.0772  0.0241
  741TMC3     H10954   1.021   3.501  14.143  1.6787  0.4416 -1.3847
  741TMC3    H110955   1.286   3.669  14.437 -0.7839 -1.3648  4.3565
  741TMC3    H210956   0.975   3.403  14.552 -0.8881  1.1026 -0.2752
  741TMC3    C710957   1.153   3.569  14.643  0.4480 -0.4844 -0.2172
  741TMC3    C810958   0.912   3.340  14.289 -0.9812  0.3635 -0.2868
  741TMC3    O110959   1.213   3.675  14.673  0.7460 -0.4261  0.2066
  741TMC3    O210960   0.836   3.369  14.197  0.2209 -0.2098 -0.1101
  742TMC3    C110961   0.974   1.729  15.416 -0.2156  0.3329  0.7434
  742TMC3    C210962   0.876   1.736  15.320  0.0455  1.1388 -1.0280
  742TMC3    C310963   0.898   1.653  15.210 -0.8030  0.0365 -0.2582
  742TMC3    C410964   1.068   1.624  15.425  0.8230  0.6953 -0.4731
  742TMC3    C510965   1.066   1.531  15.326  0.9545  0.3701 -0.3856
  742TMC3    C610966   0.991   1.553  15.212 -0.2534 -0.4509  0.1351
  742TMC3     C10967   0.947   1.813  15.530  0.6197  0.3494  0.9781
  742TMC3     O10968   0.850   1.887  15.534 -0.0633  0.1291 -0.0106
  742TMC3     H10969   0.825   1.831  15.320  0.9208  1.6306  1.1532
  742TMC3    H110970   1.141   1.611  15.504  0.1757  0.3568  0.0719
  742TMC3    H210971   0.996   1.478  15.133 -1.7976 -0.6087  0.1988
  742TMC3    C710972   1.159   1.415  15.341  0.8290 -0.2564  0.0451
  742TMC3    C810973   0.834   1.676  15.086 -0.9314  0.2628  0.3245
  742TMC3    O110974   1.252   1.440  15.420 -0.3534  0.0498  0.4426
  742TMC3    O210975   0.902   1.640  14.989 -0.5938  0.1017 -0.0963
  743MPD2     C10976   4.310   3.101   2.104 -0.2354  0.3777 -0.2899
  743MPD2    C110977   4.335   3.065   1.975  0.1959  0.0917  0.3036
  743MPD2    C210978   4.456   3.085   1.924  0.3969  0.2170 -0.1120
  743MPD2    C310979   4.557   3.139   1.997 -0.4542 -0.1855  0.2179
  743MPD2    C410980   4.537   3.161   2.125 -0.3731  0.1731  0.5741
  743MPD2    C510981   4.414   3.139   2.179 -0.1256  0.7887  0.2921
  743MPD2     H10982   4.479   3.073   1.819 -0.4144 -0.4737 -0.2132
  743MPD2    H110983   4.617   3.193   2.190 -0.1596 -0.6186  0.7086
  743MPD2    H210984   4.213   3.097   2.151 -0.1789  2.2809  0.0039
  743MPD2    H310985   4.409   3.166   2.284  0.0563  2.1617 -0.0606
  743MPD2     N10986   4.687   3.154   1.929  0.7394  0.0665 -0.2564
  743MPD2    H510987   4.695   3.130   1.831 -1.4294 -1.1955 -0.1051
  743MPD2    N110988   4.223   3.011   1.903 -0.0752  0.0231  0.9313
  743MPD2    H710989   4.138   3.004   1.958 -0.0311 -0.5235  0.9293
  744TMC3    C110990   4.085   2.950   1.719 -0.0872 -0.1643  0.3192
  744TMC3    C210991   3.985   3.036   1.760 -0.0258  0.6620 -0.2270
  744TMC3    C310992   3.874   3.047   1.674  0.8149 -0.0196  0.4399
  744TMC3    C410993   4.085   2.895   1.592  0.3300  0.4747 -0.4798
  744TMC3    C510994   3.967   2.905   1.521  0.3084  0.8917  0.3063
  744TMC3    C610995   3.861   2.980   1.557  0.3620 -0.0031  0.4224
  744TMC3     C10996   4.219   2.961   1.775 -0.2291 -0.4487 -0.0182
  744TMC3     O10997   4.309   2.939   1.697  0.1147  0.1149  0.1034
  744TMC3     H10998   4.004   3.100   1.846 -0.0962  0.1510  0.1708
  744TMC3    H110999   4.164   2.830   1.556 -1.7710 -3.2906  1.6550
  744TMC3    H211000   3.788   3.001   1.480 -0.4892 -0.4707  1.0960
  744TMC3    C711001   3.955   2.854   1.379 -0.7680  0.1341 -0.5991
  744TMC3    C811002   3.771   3.145   1.711  0.7642  0.4505 -1.1441
  744TMC3    O111003   3.884   2.913   1.300 -0.4399 -1.3834 -1.0566
  744TMC3    O211004   3.693   3.177   1.620 -0.7695  0.1584 -0.4036
  745TMC3    C111005   1.859   1.760  13.856 -0.4494  0.0293 -0.7031
  745TMC3    C211006   1.781   1.702  13.953 -0.0463 -0.4677  0.6648
  745TMC3    C311007   1.657   1.668  13.918  0.0668  0.4504  0.3661
  745TMC3    C411008   1.813   1.775  13.726 -0.3087 -0.1100  0.4769
  745TMC3    C511009   1.679   1.742  13.699  0.3882  0.3490  0.3098
  745TMC3    C611010   1.597   1.698  13.799 -0.5805 -0.0687  0.4873
  745TMC3     C11011   1.992   1.806  13.887 -0.5691 -0.2659 -0.3189
  745TMC3     O11012   2.041   1.744  13.977 -0.6434  0.5338 -0.0180
  745TMC3     H11013   1.830   1.675  14.046 -1.1968 -0.9371  1.1435
  745TMC3    H111014   1.889   1.796  13.651 -1.2863  0.1015 -0.4612
  745TMC3    H211015   1.491   1.687  13.777 -0.6651 -0.2797  0.9969
  745TMC3    C711016   1.622   1.799  13.580  0.2677  1.0419 -0.0173
  745TMC3    C811017   1.563   1.654  14.024 -0.3250  0.4383 -0.1146
  745TMC3    O111018   1.506   1.773  13.564 -0.1383  0.3456 -0.3959
  745TMC3    O211019   1.469   1.573  14.007  0.4868 -0.4725 -0.0071
  746TMC3    C111020   3.970   3.320  11.005 -0.3980 -0.0400  0.1858
  746TMC3    C211021   4.067   3.235  10.961  0.5316 -0.0689 -0.3401
  746TMC3    C311022   4.030   3.124  10.884 -0.0377 -0.0318 -0.1841
  746TMC3    C411023   3.836   3.300  10.983  0.6519 -0.1575 -0.0779
  746TMC3    C511024   3.807   3.182  10.917  0.3024  0.3632 -0.2313
  746TMC3    C611025   3.900   3.105  10.856 -0.4663  0.3803 -0.8293
  746TMC3     C11026   4.020   3.452  11.051  0.3385 -0.2744  0.4149
  746TMC3     O11027   3.940   3.512  11.122 -0.7502  0.5437 -0.1148
  746TMC3     H11028   4.166   3.243  11.005 -0.2122 -2.7231  1.8555
  746TMC3    H111029   3.762   3.366  11.026  0.1706  1.2098 -3.0105
  746TMC3    H211030   3.870   3.016  10.803  0.4279  0.1205 -0.8991
  746TMC3    C711031   3.672   3.144  10.892 -0.5867 -0.0789 -0.5846
  746TMC3    C811032   4.120   3.103  10.777 -0.1063 -0.6032  0.3382
  746TMC3    O111033   3.649   3.038  10.834 -0.2551  0.5064  0.1304
  746TMC3    O211034   4.166   2.988  10.772 -0.1799  0.3453  0.5051
  747TMC3    C111035   1.773   3.497  10.918 -0.3966 -0.4429  1.1180
  747TMC3    C211036   1.691   3.408  10.977  0.4899 -0.3547  0.7969
  747TMC3    C311037   1.665   3.434  11.110  0.1806  0.0683 -0.0873
  747TMC3    C411038   1.839   3.595  10.985  0.0072  0.1398  0.4202
  747TMC3    C511039   1.818   3.614  11.119 -0.7305  0.2356  0.4221
  747TMC3    C611040   1.728   3.532  11.186  0.4757  0.3488  0.1306
  747TMC3     C11041   1.778   3.507  10.767 -0.3744 -0.9370  0.4831
  747TMC3     O11042   1.826   3.608  10.721 -0.0545  0.0815  0.6770
  747TMC3     H11043   1.620   3.349  10.920  0.3695 -2.0524  2.7063
  747TMC3    H111044   1.926   3.641  10.940 -1.5768  0.3430 -2.4507
  747TMC3    H211045   1.708   3.542  11.292  0.9885 -1.4916  0.4002
  747TMC3    C711046   1.869   3.726  11.202 -0.2373  0.2108  0.1160
  747TMC3    C811047   1.549   3.366  11.157 -0.6450  0.3254  0.2514
  747TMC3    O111048   1.818   3.749  11.313 -0.0688 -0.4165  0.0286
  747TMC3    O211049   1.497   3.280  11.093  0.1832 -0.1035  0.2576
  748MPD2     C11050   2.909   3.992   1.646 -0.2208  0.5795 -0.2756
  748MPD2    C111051   2.996   4.058   1.739 -0.3529  0.0691 -0.6842
  748MPD2    C211052   3.059   4.174   1.696 -0.0280  0.6480 -0.1107
  748MPD2    C311053   3.051   4.218   1.565 -0.1361  0.4210  0.6976
  748MPD2    C411054   2.966   4.155   1.476 -0.6558 -0.4250  0.3183
  748MPD2    C511055   2.900   4.044   1.522  0.2674 -0.0445 -0.0446
  748MPD2     H11056   3.142   4.213   1.755  1.6807 -0.4031 -1.8233
  748MPD2    H111057   2.944   4.189   1.376 -1.9110 -1.0779  0.3700
  748MPD2    H211058   2.853   3.905   1.680 -0.5453  0.3262 -1.4756
  748MPD2    H311059   2.820   4.005   1.460 -1.0439  2.7483 -0.1016
  748MPD2     N11060   3.131   4.328   1.526  0.0355  0.1493 -0.3357
  748MPD2    H511061   3.190   4.370   1.598 -0.7450  0.3136  0.1991
  748MPD2    N111062   3.031   3.998   1.856 -0.1355  1.1798  0.6363
  748MPD2    H711063   2.997   3.905   1.877  0.7673  0.5190 -0.8408
  749TMC3    C111064   3.215   4.499   1.398 -0.4773  0.0578 -0.1791
  749TMC3    C211065   3.327   4.523   1.484  0.8604 -0.4009 -1.0900
  749TMC3    C311066   3.412   4.618   1.446  0.5890  0.2827 -0.3820
  749TMC3    C411067   3.200   4.571   1.287 -0.1313 -0.3717  0.0920
  749TMC3    C511068   3.295   4.661   1.254 -0.0874 -0.4751 -0.1573
  749TMC3    C611069   3.403   4.696   1.334  0.5794  0.6610 -0.2335
  749TMC3     C11070   3.140   4.373   1.396 -0.0693  0.4492 -0.5119
  749TMC3     O11071   3.089   4.341   1.289 -0.0284 -0.1450 -0.0482
  749TMC3     H11072   3.346   4.465   1.573  0.3534 -1.4193 -1.6455
  749TMC3    H111073   3.117   4.569   1.218  0.8360  0.0541 -1.0877
  749TMC3    H211074   3.478   0.041   1.298  1.3571 -0.5511 -1.0142
  749TMC3    C711075   3.310   4.716   1.118  0.4450 -0.2742 -0.2007
  749TMC3    C811076   3.539   4.622   1.508 -0.0876  0.4266 -0.4642
  749TMC3    O111077   3.346   0.111   1.102  0.6107  0.0713  0.0061
  749TMC3    O211078   3.594   0.004   1.508  0.3101  0.4117 -0.3601
  750MPD2     C11079   4.141   0.088  10.422 -0.7694  0.0895 -0.1357
  750MPD2    C111080   4.155   0.200  10.500  0.3986  0.4262  0.3564
  750MPD2    C211081   4.273   0.216  10.572 -0.2392  0.1352 -0.3661
  750MPD2    C311082   4.378   0.119  10.566  0.5128 -0.3614  0.7757
  750MPD2    C411083   4.360   0.012  10.484 -0.6930  0.4779  0.5688
  750MPD2    C511084   4.248   4.719  10.416  0.6816  0.5282  0.1639
  750MPD2     H11085   4.295   0.307  10.625 -2.4050 -0.3195  1.3278
  750MPD2    H111086   4.429   4.654  10.480 -1.2643 -0.0734  2.3011
  750MPD2    H211087   4.048   0.066  10.371 -1.1481 -2.8161  1.7985
  750MPD2    H311088   4.227   4.629  10.360 -1.6557  1.0884  0.1476
  750MPD2     N11089   4.498   0.116  10.648 -0.0249  0.0840 -0.0830
  750MPD2    H511090   4.551   0.029  10.644 -0.0085  0.0038  1.6573
  750MPD2    N111091   4.052   0.300  10.499 -0.1082 -0.3363  0.1333
  750MPD2    H711092   3.961   0.277  10.462 -0.0898 -0.8172  0.3933
  751TMC3    C111093   4.616   0.155  10.843  0.4613  0.3143 -0.3546
  751TMC3    C211094   4.562   0.166  10.964  0.6467  0.4504 -0.9277
  751TMC3    C311095   4.531   0.048  11.038 -0.5223 -0.0078  0.6471
  751TMC3    C411096   4.677   0.040  10.811 -0.2628 -0.6063  0.2314
  751TMC3    C511097   4.661   4.653  10.890  0.2766 -0.0518  0.3734
  751TMC3    C611098   4.590   4.657  11.005  0.1412 -0.9546  0.6126
  751TMC3     C11099   4.526   0.204  10.748 -1.3904  0.3085 -0.0023
  751TMC3     O11100   4.472   0.313  10.776 -0.2873 -0.3147  0.1659
  751TMC3     H11101   4.521   0.259  11.001 -2.0311 -0.7999 -0.7483
  751TMC3    H111102   0.015   0.033  10.723 -1.0045  1.1784 -0.4467
  751TMC3    H211103   4.559   4.574  11.067 -0.8027  0.1287  1.5857
  751TMC3    C711104   4.718   4.529  10.843  0.6041 -0.3008  0.2091
  751TMC3    C811105   4.387   0.024  11.048  0.0373 -0.4646 -0.3316
  751TMC3    O111106   0.091   4.526  10.770 -0.0906 -0.6450  0.0770
  751TMC3    O211107   4.340   4.650  11.105 -0.6050  0.7456 -0.6560
  752TMC3    C111108   2.774   0.486  16.539 -0.2782  0.9452  0.2402
  752TMC3    C211109   2.724   0.438  16.656  0.0333 -0.4813  0.4790
  752TMC3    C311110   2.806   0.444  16.763  0.6104  0.5000 -0.7104
  752TMC3    C411111   2.898   0.547  16.533 -0.4338  0.2907  0.3084
  752TMC3    C511112   2.965   0.573  16.652 -0.8337  0.0003  0.1732
  752TMC3    C611113   2.921   0.515  16.770 -0.4219  0.7168 -0.5840
  752TMC3     C11114   2.710   0.439  16.419  0.6952  0.0612 -0.0335
  752TMC3     O11115   2.780   0.418  16.323 -0.0663 -0.7501  0.4617
  752TMC3     H11116   2.639   0.371  16.657  0.0155 -0.4723 -0.5104
  752TMC3    H111117   2.940   0.574  16.437  0.3927 -0.9516  0.3173
  752TMC3    H211118   2.975   0.533  16.862 -2.4553 -0.5390  0.8471
  752TMC3    C711119   3.105   0.615  16.664  0.0067 -0.1227  0.0401
  752TMC3    C811120   2.737   0.381  16.879 -0.1257 -0.1031 -0.6675
  752TMC3    O111121   3.151   0.606  16.778 -0.4111 -0.6337  0.3290
  752TMC3    O211122   2.618   0.392  16.876  0.6065 -0.0916  0.2982
  753TMC3    C111123   0.339   1.739  13.440  0.0727 -0.2973  0.5434
  753TMC3    C211124   0.297   1.703  13.567  0.4263  0.0528  0.4380
  753TMC3    C311125   0.200   1.610  13.579 -0.2504 -0.2407  0.1644
  753TMC3    C411126   0.294   1.666  13.331  0.3376 -0.6128  0.1328
  753TMC3    C511127   0.207   1.556  13.347  0.0742 -0.7314 -0.1711
  753TMC3    C611128   0.165   1.525  13.472 -0.3154  0.7438 -0.7108
  753TMC3     C11129   0.456   1.818  13.416  0.6588 -0.4350 -0.0983
  753TMC3     O11130   0.515   1.794  13.309  0.3588 -0.1562 -0.1375
  753TMC3     H11131   0.347   1.758  13.645  2.0046 -0.4054 -0.2591
  753TMC3    H111132   0.309   1.695  13.227 -0.9346  1.0544  0.4222
  753TMC3    H211133   0.107   1.435  13.484  1.5068 -0.3519 -0.1986
  753TMC3    C711134   0.201   1.460  13.242 -0.5088 -0.8405  0.4291
  753TMC3    C811135   0.162   1.556  13.712 -0.5022 -0.2675  0.1416
  753TMC3    O111136   0.309   1.445  13.186 -0.7751  0.0984  0.4713
  753TMC3    O211137   0.104   1.447  13.723  0.4644  0.4979  0.1958
  754MPD2     C11138   3.183   4.591  13.057  0.2302  0.2575 -0.4587
  754MPD2    C111139   3.247   4.697  13.119  0.1497  0.7592 -0.7456
  754MPD2    C211140   3.179   0.090  13.139  0.0191 -0.1851  0.2778
  754MPD2    C311141   3.046   0.099  13.101 -0.2644  0.3218  0.1494
  754MPD2    C411142   2.990   4.719  13.043 -0.2102  0.5720 -0.5815
  754MPD2    C511143   3.049   4.600  13.024 -0.5438  0.4669  0.0136
  754MPD2     H11144   3.229   0.169  13.194  1.7082 -1.3125  0.3553
  754MPD2    H111145   2.884   4.720  13.017  0.1993  0.8641 -2.2398
  754MPD2    H211146   3.226   4.491  13.058 -2.3093 -0.8238  2.0088
  754MPD2    H311147   2.993   4.513  12.992  2.1669 -1.5014  0.5356
  754MPD2     N11148   2.977   0.220  13.128  0.0201 -0.6056 -0.2249
  754MPD2    H511149   2.876   0.221  13.115  0.0168  2.7893  0.0927
  754MPD2    N111150   3.381   4.678  13.167 -0.4049  0.7373 -0.0511
  754MPD2    H711151   3.404   4.580  13.178 -0.0564  0.8142 -0.1102
  755MPD2     C11152   3.163   0.967  13.775 -0.1470  0.5614 -0.7936
  755MPD2    C111153   3.031   0.982  13.740  0.0245 -0.4239 -0.5723
  755MPD2    C211154   2.981   0.911  13.632  0.2357  0.4821  0.5090
  755MPD2    C311155   3.066   0.829  13.562  0.2478 -0.2925 -0.4433
  755MPD2    C411156   3.196   0.825  13.589 -0.0652 -0.0024  0.3000
  755MPD2    C511157   3.247   0.896  13.698 -0.0698  0.3156 -0.0362
  755MPD2     H11158   2.873   0.916  13.615  0.3548 -0.9469 -0.6639
  755MPD2    H111159   3.262   0.761  13.532 -0.4556  0.0157 -0.1781
  755MPD2    H211160   3.199   1.021  13.862  0.6359  2.3510 -2.2505
  755MPD2    H311161   3.346   0.875  13.736 -1.1407 -1.4460  1.7263
  755MPD2     N11162   3.025   0.746  13.452  0.1944  0.1477 -0.5724
  755MPD2    H511163   3.084   0.665  13.434  1.0245  0.8877 -1.2045
  755MPD2    N111164   2.949   1.060  13.821  0.1285  0.5010 -0.6880
  755MPD2    H711165   2.996   1.114  13.894 -1.2256 -1.3969  1.6030
  756MPD2     C11166   3.640   0.809   9.247 -0.0613  0.3638  0.0710
  756MPD2    C111167   3.698   0.699   9.305  0.1632  0.8964 -0.2236
  756MPD2    C211168   3.640   0.575   9.292  0.3367 -0.4470 -0.3321
  756MPD2    C311169   3.514   0.561   9.238  0.4750  0.6106  0.0086
  756MPD2    C411170   3.455   0.674   9.189  0.2189  0.0180  0.7061
  756MPD2    C511171   3.517   0.792   9.183  0.2530 -0.4162 -0.2219
  756MPD2     H11172   3.684   0.486   9.336  0.4942 -0.3346 -0.2618
  756MPD2    H111173   3.353   0.671   9.153  0.5421 -2.5282 -0.0284
  756MPD2    H211174   3.688   0.906   9.240 -0.0869  0.3779  0.0932
  756MPD2    H311175   3.467   0.871   9.127  1.0382 -1.2446 -2.0840
  756MPD2     N11176   3.447   0.433   9.252  0.2200  0.2405  0.0879
  756MPD2    H511177   3.489   0.355   9.302  1.0933  0.2241 -0.6647
  756MPD2    N111178   3.834   0.702   9.344 -0.0801  0.0227 -0.3484
  756MPD2    H711179   3.875   0.610   9.356  0.9302  0.2445 -2.1939
  757MPD2     C11180   3.319   4.448   9.886  1.2835  0.7498 -0.7345
  757MPD2    C111181   3.190   4.448   9.828  0.0901  0.2703 -0.0804
  757MPD2    C211182   3.162   4.522   9.715 -0.0598  0.2959 -0.6548
  757MPD2    C311183   3.271   4.601   9.669  0.2081 -0.3410 -0.1021
  757MPD2    C411184   3.399   4.603   9.732 -0.7052  0.7555  0.9229
  757MPD2    C511185   3.419   4.523   9.843  0.4432 -0.2251  0.0808
  757MPD2     H11186   3.061   4.540   9.681 -0.2286 -0.2295 -0.4179
  757MPD2    H111187   3.482   4.668   9.708 -0.5305 -0.0573 -0.6672
  757MPD2    H211188   3.339   4.398   9.981  3.7460  0.5570 -1.3567
  757MPD2    H311189   3.511   4.524   9.900  0.9052 -0.3262 -0.6609
  757MPD2     N11190   3.249   4.682   9.551 -0.0509  0.4065 -0.2151
  757MPD2    H511191   3.167   4.675   9.492  0.2774  1.9152 -0.8601
  757MPD2    N111192   3.101   4.375   9.912  0.0634  0.3052  0.9458
  757MPD2    H711193   3.136   4.336  10.000  0.5929  1.5584  1.2963
  758MPD2     C11194   3.481   4.622  15.645  0.2640  0.3422  0.1660
  758MPD2    C111195   3.513   4.533  15.739 -0.2467  0.5073 -0.2405
  758MPD2    C211196   3.422   4.494  15.833 -0.0755 -0.2932  0.6166
  758MPD2    C311197   3.296   4.556  15.831 -1.0890  0.4430 -0.1025
  758MPD2    C411198   3.261   4.647  15.734  0.4703 -0.2613  0.2523
  758MPD2    C511199   3.362   4.684  15.647 -0.2345  0.0601  0.6036
  758MPD2     H11200   3.445   4.419  15.907 -3.0301 -1.4524  0.3272
  758MPD2    H111201   3.162   4.691  15.723  0.6731  1.2888  4.3409
  758MPD2    H211202   3.547   4.644  15.562 -1.2327  1.6813 -0.6680
  758MPD2    H311203   3.335   0.033  15.573  2.9167  1.1347  0.5569
  758MPD2     N11204   3.210   4.522  15.942 -0.2924  0.5828  0.0128
  758MPD2    H511205   3.241   4.456  16.013 -1.3221  0.6297  0.5036
  758MPD2    N111206   3.641   4.478  15.734  0.0203  0.1117 -0.2118
  758MPD2    H711207   3.703   4.525  15.669  1.9519  0.0819  1.6154
  759MPD2     C11208   3.039   2.173  10.233 -0.6395  0.8853  0.2403
  759MPD2    C111209   3.087   2.246  10.338 -0.0154  0.4491  0.2687
  759MPD2    C211210   3.138   2.369  10.308 -0.7283 -0.6809  0.1498
  759MPD2    C311211   3.142   2.415  10.174  0.2147  0.3972  0.4989
  759MPD2    C411212   3.086   2.346  10.078  0.4353  0.0991  0.0874
  759MPD2    C511213   3.039   2.220  10.101 -0.2466  0.1277  0.3649
  759MPD2     H11214   3.162   2.433  10.392  0.8553 -0.7469 -0.2570
  759MPD2    H111215   3.099   2.379   9.976 -1.5202  1.3257  0.2334
  759MPD2    H211216   2.989   2.079  10.253  0.3286  0.6910  1.7909
  759MPD2    H311217   2.993   2.163  10.022  0.4750 -0.9362  0.7216
  759MPD2     N11218   3.177   2.552  10.159 -0.1616 -0.2551  0.1069
  759MPD2    H511219   3.200   2.605  10.243 -1.0890  0.7716 -0.2785
  759MPD2    N111220   3.061   2.200  10.468 -0.1749 -0.3571 -0.2138
  759MPD2    H711221   3.076   2.264  10.546 -0.8135 -0.9175  0.3680
  760MPD2     C11222   2.205   0.451  11.279  0.3069 -0.4346  0.2701
  760MPD2    C111223   2.233   0.525  11.390  0.0902 -0.3905 -0.5012
  760MPD2    C211224   2.185   0.489  11.509 -0.0214 -0.1593 -0.4807
  760MPD2    C311225   2.110   0.370  11.523 -0.1975  0.9855  0.2385
  760MPD2    C411226   2.091   0.294  11.414 -0.2659 -0.5006 -0.2913
  760MPD2    C511227   2.136   0.333  11.295 -0.8131  0.1798  0.2904
  760MPD2     H11228   2.207   0.540  11.602 -0.9819 -0.3935 -0.1202
  760MPD2    H111229   2.039   0.199  11.420 -2.7612  1.0483  2.9801
  760MPD2    H211230   2.252   0.477  11.186  1.4906  1.3940  1.3936
  760MPD2    H311231   2.118   0.273  11.206  3.1487  0.3401 -0.6119
  760MPD2     N11232   2.060   0.309  11.638 -0.3436  0.2859 -0.9501
  760MPD2    H511233   2.037   0.210  11.636  1.6453 -0.1791 -1.1894
  760MPD2    N111234   2.324   0.632  11.395 -0.5873 -0.0061 -0.9969
  760MPD2    H711235   2.345   0.681  11.482  1.1898 -2.5645  0.0232
  761MPD2     C11236   3.928   0.159  10.870 -1.0331 -0.1558  0.1225
  761MPD2    C111237   3.954   0.054  10.959 -0.1592  0.1929 -0.0624
  761MPD2    C211238   4.089   0.050  10.994 -1.0535  0.2417  0.5123
  761MPD2    C311239   4.191   0.130  10.949  0.2212  0.2100 -0.0594
  761MPD2    C411240   4.153   0.237  10.876  0.0099 -0.4150  0.2106
  761MPD2    C511241   4.026   0.246  10.834  0.6116 -0.1122  0.0141
  761MPD2     H11242   4.116   4.688  11.054  1.8557  0.4374 -0.5194
  761MPD2    H111243   4.220   0.310  10.829 -0.1747  0.2008  0.9098
  761MPD2    H211244   3.826   0.163  10.832  0.1876  0.0015 -3.1129
  761MPD2    H311245   3.991   0.321  10.765 -0.3203  0.5631  1.2219
  761MPD2     N11246   4.325   0.122  10.978 -0.0927  0.4745  0.0897
  761MPD2    H511247   4.392   0.184  10.934  1.3315 -1.0502  0.0817
  761MPD2    N111248   3.858   4.676  10.996  0.2199  0.5595 -0.1049
  761MPD2    H711249   3.766   4.691  10.958  0.3833 -1.0638 -1.1190
  762MPD2     C11250   4.116   4.447  10.768  0.3496  0.1535 -0.2123
  762MPD2    C111251   4.088   4.330  10.839  0.4626  0.1207 -0.0332
  762MPD2    C211252   4.163   4.217  10.804 -0.2136 -0.4101  0.2108
  762MPD2    C311253   4.267   4.231  10.712  0.2311  0.2514  0.0159
  762MPD2    C411254   4.281   4.347  10.637  0.3310 -0.2455 -0.1516
  762MPD2    C511255   4.203   4.453  10.666 -0.3669  0.6198  0.3481
  762MPD2     H11256   4.154   4.127  10.863 -1.5989 -0.3056  0.1711
  762MPD2    H111257   4.364   4.366  10.571  0.0610  1.9082  0.1298
  762MPD2    H211258   4.055   4.534  10.791 -1.4988 -1.6115  1.5586
  762MPD2    H311259   4.218   4.538  10.601  1.8953  0.0202  0.0822
  762MPD2     N11260   4.356   4.120  10.690 -0.0824 -0.1724  0.0153
  762MPD2    H511261   4.332   4.038  10.743  0.4989 -1.6136 -1.9242
  762MPD2    N111262   3.987   4.336  10.933  0.0206 -0.4983 -0.3283
  762MPD2    H711263   3.947   4.426  10.955  0.8759 -0.4564  1.1046
  763MPD2     C11264   0.617   4.724  16.076 -0.3109  0.4979  0.1177
  763MPD2    C111265   0.485   0.050  16.041 -0.4995  0.0193 -0.1634
  763MPD2    C211266   0.454   0.172  16.089 -0.5115  0.0109 -0.0161
  763MPD2    C311267   0.531   0.229  16.190 -0.0709  0.4525 -0.2545
  763MPD2    C411268   0.645   0.166  16.235  0.0874 -0.1525  0.0678
  763MPD2    C511269   0.696   0.059  16.173 -0.1008 -0.5871 -0.2718
  763MPD2     H11270   0.359   0.215  16.060  0.1444 -0.4745 -2.8860
  763MPD2    H111271   0.704   0.204  16.318 -1.0618  1.4224  0.1527
  763MPD2    H211272   0.655   4.633  16.032  0.4119  1.3927 -1.1134
  763MPD2    H311273   0.786   0.006  16.201 -0.2927 -1.4351 -1.2366
  763MPD2     N11274   0.509   0.362  16.238 -0.7942  0.0092  0.5662
  763MPD2    H511275   0.590   0.396  16.288 -0.4784  0.2907 -0.1260
  763MPD2    N111276   0.407   4.707  15.946 -0.4231 -0.7579  0.2058
  763MPD2    H711277   0.338   0.045  15.906 -1.8360 -2.1073  0.5080
  764MPD2     C11278   3.285   0.929  17.032  0.5490 -0.2348 -0.1791
  764MPD2    C111279   3.160   0.909  16.974 -1.2716  0.3165 -0.2102
  764MPD2    C211280   3.080   0.813  17.023  0.2882  0.0813  0.3864
  764MPD2    C311281   3.118   0.740  17.138 -0.2216 -0.2462  0.0376
  764MPD2    C411282   3.239   0.758  17.193  1.0002  0.0195  0.7740
  764MPD2    C511283   3.316   0.853  17.139  0.3344  0.4486 -0.3133
  764MPD2     H11284   2.978   0.809  16.986  0.3094 -0.6211  0.4133
  764MPD2    H111285   3.279   0.701  17.276 -0.1853 -1.2780  0.4428
  764MPD2    H211286   3.356   0.996  16.986  0.7886 -1.5863 -1.7836
  764MPD2    H311287   3.419   0.864  17.172 -0.3854  1.3214  1.6159
  764MPD2     N11288   3.017   0.663  17.200  0.3362 -0.7445 -0.2031
  764MPD2    H511289   2.921   0.669  17.167  1.3997 -0.0502 -3.2558
  764MPD2    N111290   3.113   0.991  16.873  0.3531 -0.2792 -0.5822
  764MPD2    H711291   3.019   0.973  16.841  0.2431  1.2864 -1.1507
  765MPD2     C11292   2.812   3.808  15.672 -0.3198 -0.0432  0.0611
  765MPD2    C111293   2.910   3.901  15.686  0.2292  0.1673  0.2459
  765MPD2    C211294   3.043   3.862  15.710 -0.6017 -1.0390  0.7184
  765MPD2    C311295   3.064   3.720  15.715 -0.8396  0.8013 -0.3778
  765MPD2    C411296   2.960   3.629  15.711 -0.4957 -0.0582  0.0575
  765MPD2    C511297   2.833   3.674  15.689 -0.2200 -0.5839  0.7439
  765MPD2     H11298   3.125   3.927  15.738 -0.9987 -1.1558  2.1515
  765MPD2    H111299   2.972   3.522  15.698 -0.5656  0.2554 -2.6317
  765MPD2    H211300   2.714   3.846  15.644 -1.2664 -0.8651  2.2422
  765MPD2    H311301   2.762   3.596  15.664 -1.4501  0.3687  1.2710
  765MPD2     N11302   3.197   3.686  15.754 -0.3325  0.0513  0.6531
  765MPD2    H511303   3.270   3.754  15.736 -0.9465  0.2525 -1.1009
  765MPD2    N111304   2.876   4.030  15.670  0.3296 -0.6317 -0.0514
  765MPD2    H711305   2.777   4.045  15.653  0.5454 -0.0825 -0.8345
  766MPD2     C11306   2.545   4.206  15.105  0.0577  0.3302  0.1328
  766MPD2    C111307   2.679   4.210  15.118 -0.2903 -0.1681 -0.4947
  766MPD2    C211308   2.769   4.179  15.020 -0.7576  0.9710  0.0350
  766MPD2    C311309   2.727   4.150  14.892  0.4313 -0.3603  0.0778
  766MPD2    C411310   2.591   4.165  14.876 -0.1240  0.0670  0.3773
  766MPD2    C511311   2.496   4.193  14.977 -0.4164  0.5863 -0.1728
  766MPD2     H11312   2.875   4.171  15.041 -0.5796  2.4418 -0.2744
  766MPD2    H111313   2.568   4.147  14.771  0.0891  0.9825  0.1717
  766MPD2    H211314   2.473   4.226  15.185  1.4775  1.7280  1.0574
  766MPD2    H311315   2.388   4.182  14.971 -0.6444  2.6778  0.0522
  766MPD2     N11316   2.798   4.135  14.773  0.5125 -0.3999 -0.8473
  766MPD2    H511317   2.736   4.134  14.692  1.4279  1.4979 -1.5734
  766MPD2    N111318   2.728   4.254  15.244 -0.3410 -0.3359 -0.1282
  766MPD2    H711319   2.823   4.240  15.279 -0.9236 -1.2165  1.1343
  767MPD2     C11320   2.385   4.451  14.783  0.0888  0.0537 -0.4103
  767MPD2    C111321   2.508   4.476  14.732 -0.8488  0.0441  0.8779
  767MPD2    C211322   2.539   4.435  14.606 -0.1226  0.4304 -0.1205
  767MPD2    C311323   2.448   4.369  14.531 -0.6833  0.7287  0.6201
  767MPD2    C411324   2.321   4.342  14.583 -0.3096  0.2138  0.6964
  767MPD2    C511325   2.292   4.384  14.707 -0.8065 -0.2585  0.6179
  767MPD2     H11326   2.638   4.448  14.565  0.5308  0.8033  1.5523
  767MPD2    H111327   2.245   4.291  14.525 -0.8815 -0.3597  1.9379
  767MPD2    H211328   2.358   4.476  14.886  0.1970 -0.9767 -0.1327
  767MPD2    H311329   2.192   4.357  14.742 -0.4000 -1.0387  1.1761
  767MPD2     N11330   2.493   4.335  14.398  0.5528 -0.7913 -0.5182
  767MPD2    H511331   2.590   4.347  14.370  1.2566 -2.0398  1.4031
  767MPD2    N111332   2.608   4.541  14.810 -0.4799  0.6480  0.1172
  767MPD2    H711333   2.699   4.544  14.766 -1.3285  2.5297 -1.4788
  768MPD2     C11334   3.377   2.285  10.725  0.0286  0.6505 -0.2554
  768MPD2    C111335   3.383   2.417  10.767  0.4969 -0.4778 -0.1156
  768MPD2    C211336   3.490   2.454  10.845  0.3072 -0.0379  0.8151
  768MPD2    C311337   3.592   2.364  10.881  0.1697 -0.2177  0.1515
  768MPD2    C411338   3.579   2.234  10.834  0.1614 -1.1372  0.5228
  768MPD2    C511339   3.475   2.196  10.760  0.3775  0.5011  0.3581
  768MPD2     H11340   3.507   2.555  10.880  0.1217 -0.4146  1.9631
  768MPD2    H111341   3.656   2.160  10.854  0.6274 -0.7232  0.2447
  768MPD2    H211342   3.300   2.252  10.656 -0.6622  0.0114  0.8224
  768MPD2    H311343   3.477   2.095  10.720  1.4726  0.3243  0.8632
  768MPD2     N11344   3.715   2.402  10.938  0.2623  0.3734  0.0513
  768MPD2    H511345   3.787   2.332  10.952 -0.3830  0.2733  2.8616
  768MPD2    N111346   3.284   2.514  10.739  0.1488  0.4016 -0.1320
  768MPD2    H711347   3.315   2.610  10.752  2.7868 -0.4961  0.3118
  769MPD2     C11348   4.446   1.017  14.891 -0.9164 -0.3690 -0.1511
  769MPD2    C111349   4.341   1.102  14.938 -0.0688 -0.0565 -0.7826
  769MPD2    C211350   4.368   1.176  15.054 -0.3418  0.1444  0.3091
  769MPD2    C311351   4.485   1.159  15.125 -1.2850  0.4451 -0.6390
  769MPD2    C411352   4.580   1.063  15.085 -0.2373 -0.0644 -0.5981
  769MPD2    C511353   4.565   1.006  14.962 -0.0229 -0.3482 -0.4566
  769MPD2     H11354   4.290   1.240  15.095  1.4203  1.9962  0.7910
  769MPD2    H111355   4.676   1.054  15.134 -0.9296 -2.8149  0.2409
  769MPD2    H211356   4.430   0.952  14.806  1.9582 -2.3229  0.8253
  769MPD2    H311357   4.641   0.935  14.932 -0.9491 -0.3252 -2.9244
  769MPD2     N11358   4.484   1.219  15.250  0.5184  0.4608  0.2405
  769MPD2    H511359   4.396   1.263  15.275 -0.0213 -1.0582  1.0093
  769MPD2    N111360   4.221   1.107  14.859  0.5265 -0.1811 -0.4041
  769MPD2    H711361   4.215   1.046  14.778 -1.3193  2.1694 -2.0619
  770MPD2     C11362   3.587   0.433  15.017 -0.1993 -0.5681 -0.3604
  770MPD2    C111363   3.703   0.440  14.931 -0.3390  0.3733  0.2847
  770MPD2    C211364   3.758   0.565  14.904 -0.2904  0.1342 -0.6450
  770MPD2    C311365   3.702   0.684  14.950 -0.6882  0.6101  0.4426
  770MPD2    C411366   3.590   0.669  15.031  0.1831 -0.2336  0.4526
  770MPD2    C511367   3.543   0.549  15.067 -0.3448  0.0232 -0.2077
  770MPD2     H11368   3.839   0.561  14.832  0.3159  0.9204 -0.0078
  770MPD2    H111369   3.544   0.763  15.060 -1.7885 -0.8487 -0.7333
  770MPD2    H211370   3.549   0.334  15.040 -0.6675 -0.8683 -2.4035
  770MPD2    H311371   3.463   0.547  15.140  0.7812  0.6914  1.0646
  770MPD2     N11372   3.748   0.809  14.899 -0.4341 -0.2723  0.3977
  770MPD2    H511373   3.817   0.809  14.825  0.3076  0.5722  1.0858
  770MPD2    N111374   3.770   0.315  14.898  0.3601 -0.2778 -0.2781
  770MPD2    H711375   3.722   0.229  14.922 -0.2002  0.5398  1.5066
  771MPD2     C11376   0.986   3.382  13.263 -0.0246 -0.2919 -0.0946
  771MPD2    C111377   0.862   3.441  13.249 -0.4975  0.2561  0.3456
  771MPD2    C211378   0.778   3.419  13.136 -0.3290 -0.0143  0.0279
  771MPD2    C311379   0.818   3.328  13.033 -0.1890 -0.2973  0.3556
  771MPD2    C411380   0.939   3.263  13.058 -0.7113 -0.9291 -0.4994
  771MPD2    C511381   1.024   3.295  13.165 -0.0603 -0.2890  0.1445
  771MPD2     H11382   0.687   3.478  13.136 -0.4325 -0.1667  1.2575
  771MPD2    H111383   0.976   3.195  12.983  2.0856  1.6300 -1.4191
  771MPD2    H211384   1.049   3.394  13.350  1.2211  0.7262 -1.1496
  771MPD2    H311385   1.119   3.242  13.165 -0.2165 -0.5765 -0.7897
  771MPD2     N11386   0.740   3.310  12.920  0.6256 -0.1199 -0.3562
  771MPD2    H511387   0.666   3.379  12.913 -0.3292 -0.9423  1.6957
  771MPD2    N111388   0.810   3.546  13.335  0.3994  0.2625  0.4193
  771MPD2    H711389   0.722   3.586  13.303  0.0837 -1.5109 -0.8945
  772MPD2     C11390   0.286   4.038  13.297  0.5716 -0.1129  0.5440
  772MPD2    C111391   0.287   3.941  13.398 -0.5894 -0.4431  0.2342
  772MPD2    C211392   0.167   3.900  13.453  0.4796  0.6556 -1.1255
  772MPD2    C311393   0.052   3.964  13.403  0.2598 -0.4730  0.1223
  772MPD2    C411394   0.059   4.062  13.300 -0.6744  0.1636  0.2067
  772MPD2    C511395   0.177   4.096  13.248  0.3566  0.5823 -0.0022
  772MPD2     H11396   0.169   3.817  13.522  0.2041  2.3482  0.9271
  772MPD2    H111397   4.694   4.117  13.272 -1.1620 -1.4244 -1.3627
  772MPD2    H211398   0.372   4.075  13.242  0.8706 -2.0222 -0.2356
  772MPD2    H311399   0.186   4.161  13.162 -0.7827  0.4938 -0.1914
  772MPD2     N11400   4.651   3.931  13.448 -0.1520  0.7488  0.3571
  772MPD2    H511401   4.572   3.989  13.422  0.5645  1.5221 -0.1476
  772MPD2    N111402   0.407   3.880  13.442 -0.6022  0.0321  0.0195
  772MPD2    H711403   0.406   3.801  13.505 -0.9563 -1.2036 -1.5243
  773MPD2     C11404   3.586   0.690  17.410 -0.0220  0.4088  0.4198
  773MPD2    C111405   3.547   0.559  17.376 -0.0939  0.0937 -0.4381
  773MPD2    C211406   3.528   0.463  17.475 -0.2128 -0.5296 -0.4091
  773MPD2    C311407   3.547   0.501  17.606  0.1214 -0.4449  0.1481
  773MPD2    C411408   3.584   0.637  17.637 -0.1465  0.2858  0.4821
  773MPD2    C511409   3.607   0.733  17.541  0.8652 -0.0770  0.2037
  773MPD2     H11410   3.496   0.363  17.447  3.0831 -1.8451  0.4969
  773MPD2    H111411   3.592   0.667   0.039 -0.0939  0.6385  0.3778
  773MPD2    H211412   3.588   0.763  17.330 -0.5091 -0.8061 -0.7098
  773MPD2    H311413   3.639   0.833  17.568  1.3132  0.7202 -3.2722
  773MPD2     N11414   3.531   0.408   0.007 -0.0895  0.2468 -0.3502
  773MPD2    H511415   3.507   0.315  17.676 -0.2931  0.6067 -1.2104
  773MPD2    N111416   3.508   0.517  17.243 -0.5974  0.5246 -0.0537
  773MPD2    H711417   3.477   0.421  17.236 -1.7942  0.8462  0.8862
  774MPD2     C11418   3.009   4.213  13.607 -0.3512  0.1653  0.1669
  774MPD2    C111419   3.136   4.163  13.634  0.1947  0.3093  0.1900
  774MPD2    C211420   3.246   4.250  13.633  0.2265  0.1188 -0.2408
  774MPD2    C311421   3.227   4.382  13.606  0.4336 -0.1475 -0.2517
  774MPD2    C411422   3.102   4.428  13.580  0.3084 -0.7022  0.1431
  774MPD2    C511423   2.997   4.347  13.582 -0.8505 -0.1583 -0.2898
  774MPD2     H11424   3.345   4.209  13.652  0.6525  1.4226  0.2981
  774MPD2    H111425   3.097   4.533  13.551 -0.4563 -0.8352 -0.2005
  774MPD2    H211426   2.916   4.156  13.610 -1.2063  1.6084  0.9659
  774MPD2    H311427   2.902   4.390  13.554  0.1050  1.2708 -1.3929
  774MPD2     N11428   3.345   4.467  13.612 -0.0070 -0.5183 -0.1401
  774MPD2    H511429   3.438   4.427  13.622 -0.2656 -1.3170 -0.9662
  774MPD2    N111430   3.146   4.026  13.653  0.5096  0.9280 -0.6916
  774MPD2    H711431   3.058   3.975  13.658  0.0397  1.7803 -0.3139
  775MPD2     C11432   4.655   0.914  15.641  0.6798  0.1302  0.2175
  775MPD2    C111433   4.687   0.970  15.766  0.3300  0.3466  0.0221
  775MPD2    C211434   0.066   1.058  15.774 -0.5190 -0.2157  0.0198
  775MPD2    C311435   0.149   1.078  15.665  0.2260 -0.0411  0.2769
  775MPD2    C411436   0.121   1.020  15.546  0.3173  0.2538  0.2453
  775MPD2    C511437   0.005   0.945  15.532 -0.4025 -0.3785 -0.1967
  775MPD2     H11438   0.086   1.111  15.867 -3.5319  2.2084 -0.7287
  775MPD2    H111439   0.183   1.026  15.458 -1.4329  1.2883 -0.9253
  775MPD2    H211440   4.567   0.857  15.613  0.1032  0.5987  1.0779
  775MPD2    H311441   4.709   0.902  15.435 -0.9055 -1.2405  0.2930
  775MPD2     N11442   0.254   1.164  15.665  0.2216 -0.5558  0.0809
  775MPD2    H511443   0.287   1.182  15.571 -0.1707  1.8943  0.4331
  775MPD2    N111444   4.610   0.940  15.876 -0.1592  0.0477  0.3305
  775MPD2    H711445   4.549   0.859  15.864 -1.5418  0.7578  2.4835
  776MPD2     C11446   3.736   1.023  10.936 -0.5596 -0.1918 -0.1953
  776MPD2    C111447   3.826   0.996  10.840 -0.7077 -0.1889 -0.4565
  776MPD2    C211448   3.939   1.076  10.827 -0.0418 -0.2560  0.0872
  776MPD2    C311449   3.964   1.177  10.915 -0.1741  0.4603 -0.4252
  776MPD2    C411450   3.867   1.206  11.011 -0.3031 -0.4603  0.2169
  776MPD2    C511451   3.749   1.138  11.014 -0.2816  1.0281 -0.1217
  776MPD2     H11452   4.013   1.061  10.749  2.0777  1.8827  1.6893
  776MPD2    H111453   3.881   1.287  11.081  0.3995  0.8029 -1.3898
  776MPD2    H211454   3.649   0.964  10.961  0.1975 -2.0302 -1.8482
  776MPD2    H311455   3.680   1.160  11.094 -0.0244  2.2905 -0.2475
  776MPD2     N11456   4.076   1.255  10.903  0.0126  0.3229  1.0636
  776MPD2    H511457   4.095   1.331  10.968  0.7713  1.8387 -0.9222
  776MPD2    N111458   3.802   0.881  10.764  0.1903 -0.6970  0.1707
  776MPD2    H711459   3.729   0.819  10.797 -1.5578  0.3430 -1.7249
  777MPD2     C11460   3.689   3.775   1.058  0.9044  0.2716  0.3347
  777MPD2    C111461   3.779   3.697   1.123  0.4181 -0.1042  0.0364
  777MPD2    C211462   3.833   3.589   1.057  0.9269 -0.0214  0.0191
  777MPD2    C311463   3.807   3.561   0.931 -0.0900  0.5740  0.2209
  777MPD2    C411464   3.709   3.630   0.863  0.2980 -0.4447  0.0239
  777MPD2    C511465   3.653   3.737   0.932 -0.1298 -0.2953 -0.8654
  777MPD2     H11466   3.904   3.526   1.110 -0.2647 -1.3179  0.0713
  777MPD2    H111467   3.683   3.605   0.760  2.2828 -1.9818 -0.1022
  777MPD2    H211468   3.640   3.856   1.112 -0.7855  0.1763 -1.0663
  777MPD2    H311469   3.573   3.791   0.882 -0.1092 -0.7419 -1.3711
  777MPD2     N11470   3.876   3.451   0.866  0.3400 -0.0377  0.3996
  777MPD2    H511471   3.938   3.395   0.923 -1.7759 -0.9600  1.7732
  777MPD2    N111472   3.825   3.742   1.242 -0.5299 -0.2762  1.2020
  777MPD2    H711473   3.780   3.824   1.282 -2.7800 -2.2627  2.6916
  778MPD2     C11474   0.422   3.766  14.944 -0.5496  1.2476 -0.7736
  778MPD2    C111475   0.412   3.649  14.873 -1.0200  0.6390 -0.8100
  778MPD2    C211476   0.440   3.647  14.743  0.5273  0.1663 -0.8535
  778MPD2    C311477   0.464   3.755  14.669  0.5072  0.0463  0.0220
  778MPD2    C411478   0.466   3.879  14.733  0.2902  0.0170 -0.3628
  778MPD2    C511479   0.450   3.882  14.868 -0.4051  0.7604  0.0034
  778MPD2     H11480   0.445   3.552  14.692 -1.1524 -0.5888  0.3902
  778MPD2    H111481   0.453   3.963  14.666  0.7931 -0.3851 -0.9668
  778MPD2    H211482   0.407   3.771  15.051 -1.3693  0.6026 -0.8583
  778MPD2    H311483   0.453   3.976  14.921 -0.8383  1.9732 -2.0958
  778MPD2     N11484   0.493   3.732  14.530  0.7059 -0.1236 -0.3413
  778MPD2    H511485   0.472   3.640  14.493  2.9892 -0.1869 -1.4670
  778MPD2    N111486   0.376   3.526  14.928  1.0976  0.0233 -0.2030
  778MPD2    H711487   0.345   3.457  14.861  0.8107 -0.2433  0.2049
  779MPD2     C11488   0.052   2.534  14.374  0.2505 -0.2855  0.1306
  779MPD2    C111489   0.161   2.502  14.291 -0.5415 -0.7031  0.6319
  779MPD2    C211490   0.175   2.577  14.176 -0.4272 -0.4238 -0.6138
  779MPD2    C311491   0.104   2.693  14.152  0.2787 -0.1423 -0.2924
  779MPD2    C411492   4.720   2.720  14.231 -0.1893  0.2815 -0.1533
  779MPD2    C511493   4.691   2.635  14.340 -0.0411  0.0480 -0.7908
  779MPD2     H11494   0.262   2.556  14.114  0.1170 -0.3826  0.1267
  779MPD2    H111495   4.648   2.797  14.207 -1.2246  0.0282  2.0827
  779MPD2    H211496   0.028   2.475  14.462  2.6219  2.6881  2.7551
  779MPD2    H311497   4.610   2.660  14.407 -0.3232 -0.5935 -0.8932
  779MPD2     N11498   0.153   2.782  14.057 -0.3383  0.0708 -0.3957
  779MPD2    H511499   0.249   2.769  14.029 -0.5245 -1.0556 -0.5009
  779MPD2    N111500   0.246   2.399  14.317 -0.0346  0.8056  0.2277
  779MPD2    H711501   0.325   2.390  14.253 -1.4075 -0.4337 -1.3120
  780MPD2     C11502   0.479   2.487   0.738 -0.0009 -0.3457 -0.5092
  780MPD2    C111503   0.391   2.592   0.752 -0.1783 -1.0307  0.8145
  780MPD2    C211504   0.312   2.620   0.638  0.2287 -0.3200 -0.6473
  780MPD2    C311505   0.311   2.550   0.523  0.4599 -0.3244 -0.4612
  780MPD2    C411506   0.407   2.452   0.503  0.2371 -0.0663  0.9153
  780MPD2    C511507   0.491   2.429   0.612 -0.1875  0.0652 -0.1534
  780MPD2     H11508   0.246   2.704   0.653  3.3646  1.6725  1.8216
  780MPD2    H111509   0.420   2.386   0.418  0.3795  0.4820  0.5133
  780MPD2    H211510   0.556   2.458   0.809  0.8449  0.1226 -1.2298
  780MPD2    H311511   0.577   2.364   0.593 -0.5933 -0.1496 -1.2606
  780MPD2     N11512   0.211   2.584   0.426 -0.0166  0.6528  0.1326
  780MPD2    H511513   0.139   2.651   0.447  2.0322  2.4913  1.2139
  780MPD2    N111514   0.395   2.674   0.871 -0.7862 -0.1040  0.7418
  780MPD2    H711515   0.469   2.654   0.938 -0.7164  0.8167  0.9338
  781MPD2     C11516   1.865   3.836  12.184  0.5983  0.5772  0.9650
  781MPD2    C111517   1.816   3.969  12.208  0.2771 -0.0610 -0.4938
  781MPD2    C211518   1.840   4.069  12.117  0.3809  0.1907 -0.2581
  781MPD2    C311519   1.900   4.039  11.997 -0.2434  0.4755 -0.5538
  781MPD2    C411520   1.941   3.912  11.974  0.1764 -0.3064  0.0705
  781MPD2    C511521   1.927   3.814  12.063 -0.1806 -0.4061  0.9064
  781MPD2     H11522   1.797   4.167  12.135 -1.4794 -0.8565  0.9021
  781MPD2    H111523   1.993   3.884  11.883  1.5834 -0.4913  0.9460
  781MPD2    H211524   1.853   3.757  12.258 -0.0896 -0.5447 -0.3309
  781MPD2    H311525   1.967   3.719  12.029  0.9242 -0.0280  1.1538
  781MPD2     N11526   1.925   4.136  11.895  0.3528 -0.5331 -0.6364
  781MPD2    H511527   1.951   4.100  11.804  4.3073 -2.3603  1.2080
  781MPD2    N111528   1.748   4.004  12.326 -0.0115 -0.2891 -0.0578
  781MPD2    H711529   1.701   4.094  12.322 -1.5945 -1.0413  1.6687
  782MPD2     C11530   0.378   4.390  10.223 -0.5864 -0.1310 -1.0108
  782MPD2    C111531   0.490   4.335  10.279 -0.7998 -0.0530 -0.7939
  782MPD2    C211532   0.611   4.410  10.260  0.4406 -0.2073 -0.3474
  782MPD2    C311533   0.612   4.536  10.201  0.0098  0.4423  0.2719
  782MPD2    C411534   0.503   4.579  10.134 -0.3278  0.5386 -0.4148
  782MPD2    C511535   0.384   4.510  10.158 -0.1710  0.6889  0.0053
  782MPD2     H11536   0.703   4.384  10.311  0.1950 -0.7561 -0.1824
  782MPD2    H111537   0.509   4.672  10.080  0.3473  0.3061 -0.7456
  782MPD2    H211538   0.283   4.337  10.229 -1.6718  1.8937 -0.3290
  782MPD2    H311539   0.290   4.545  10.118  0.3016  0.3806 -1.3613
  782MPD2     N11540   0.727   4.619  10.224  0.0237  0.1975 -0.8349
  782MPD2    H511541   0.802   4.561  10.262  0.0954  0.4659 -0.5678
  782MPD2    N111542   0.471   4.216  10.351 -0.2740  0.3663  0.2646
  782MPD2    H711543   0.374   4.200  10.379  0.7201 -2.0422  2.3552
  783MPD2     C11544   4.648   4.201  10.980 -0.2988  0.2860 -0.4291
  783MPD2    C111545   4.713   4.289  10.897  0.0818 -0.0100 -0.1543
  783MPD2    C211546   0.083   4.244  10.812  1.0123 -0.4405  0.2253
  783MPD2    C311547   0.120   4.112  10.815  0.0372  0.1305 -0.2009
  783MPD2    C411548   0.051   4.024  10.893 -0.3143 -0.1558  0.2045
  783MPD2    C511549   4.674   4.063  10.973  0.3847 -0.2250 -0.3237
  783MPD2     H11550   0.133   4.307  10.740 -0.5999  1.4552  0.7744
  783MPD2    H111551   0.078   3.920  10.904 -1.8104 -0.6435 -0.7149
  783MPD2    H211552   4.571   4.239  11.045 -2.8889 -1.9796 -2.1975
  783MPD2    H311553   4.618   3.991  11.033 -0.8120  1.9156  1.1288
  783MPD2     N11554   0.228   4.081  10.729  0.4794 -0.4944  0.1511
  783MPD2    H511555   0.251   4.152  10.660 -2.0134 -0.6156 -0.7981
  783MPD2    N111556   4.658   4.419  10.906 -0.2643  0.2274  0.2814
  783MPD2    H711557   4.577   4.433  10.965  1.0678  1.0091  1.9261
  784MPD2     C11558   1.208   0.773   0.662  0.1564  0.1643 -0.0245
  784MPD2    C111559   1.177   0.860   0.764  0.2631  0.0400  0.8411
  784MPD2    C211560   1.053   0.924   0.762 -0.0941  0.4000 -0.4750
  784MPD2    C311561   0.968   0.922   0.654 -0.2933  0.0223 -0.6018
  784MPD2    C411562   1.003   0.841   0.548  0.6139  0.4956  0.3054
  784MPD2    C511563   1.128   0.773   0.553  0.3957 -1.0768  0.1928
  784MPD2     H11564   1.036   0.989   0.847 -0.5191  2.4484 -2.1337
  784MPD2    H111565   0.948   0.826   0.456  2.3134 -3.9149  0.0032
  784MPD2    H211566   1.302   0.720   0.655  0.3621  0.9477 -3.3268
  784MPD2    H311567   1.160   0.716   0.466  0.9991 -1.3654  0.6046
  784MPD2     N11568   0.854   1.008   0.657 -0.1657 -0.4477 -0.2384
  784MPD2    H511569   0.849   1.076   0.733  1.5516 -0.8362  0.2247
  784MPD2    N111570   1.257   0.895   0.876 -0.4556 -0.3948  0.1364
  784MPD2    H711571   1.221   0.967   0.937 -1.3150 -0.9676  0.3179
  785MPD2     C11572   2.727   3.352  11.220 -0.3030  0.4026  0.1095
  785MPD2    C111573   2.602   3.318  11.270  0.0620  0.5383 -0.0301
  785MPD2    C211574   2.546   3.190  11.236  0.1342 -0.1985  0.3138
  785MPD2    C311575   2.618   3.097  11.170 -0.2560 -0.9217 -0.1116
  785MPD2    C411576   2.750   3.125  11.127 -0.1049  0.2670 -0.1884
  785MPD2    C511577   2.799   3.248  11.153  0.2129 -0.7250  0.5261
  785MPD2     H11578   2.443   3.167  11.260  0.1260  0.7461  1.2006
  785MPD2    H111579   2.813   3.053  11.077  1.1553 -0.7026  2.8123
  785MPD2    H211580   2.775   3.449  11.229 -2.8150  1.6915 -0.3496
  785MPD2    H311581   2.904   3.270  11.141  0.0055  0.1951  0.4203
  785MPD2     N11582   2.557   2.973  11.157 -1.1647  0.1080 -0.5316
  785MPD2    H511583   2.465   2.968  11.201 -1.5466 -1.2215 -1.4915
  785MPD2    N111584   2.539   3.412  11.357 -0.7712  0.1559 -0.3119
  785MPD2    H711585   2.588   3.499  11.377 -0.6345 -0.1671  0.7751
  786MPD2     C11586   0.448   1.767  14.757  0.1352  0.2632  0.7051
  786MPD2    C111587   0.573   1.705  14.731  0.3178 -0.1140  0.1544
  786MPD2    C211588   0.658   1.694  14.838 -0.0635 -0.3177  0.4077
  786MPD2    C311589   0.618   1.727  14.968  0.1499  0.4245  0.3789
  786MPD2    C411590   0.495   1.779  14.995  0.3510  0.8524  0.1420
  786MPD2    C511591   0.412   1.810  14.889  0.8957 -0.0075  0.2546
  786MPD2     H11592   0.753   1.643  14.828  0.6464  1.4286 -1.7858
  786MPD2    H111593   0.455   1.802  15.093  0.4775  2.0676 -0.0866
  786MPD2    H211594   0.368   1.770  14.684 -0.9479 -0.3042  1.8510
  786MPD2    H311595   0.317   1.856  14.909  0.4716 -0.3805 -0.8859
  786MPD2     N11596   0.703   1.713  15.085  0.5298  0.5769  0.5823
  786MPD2    H511597   0.657   1.730  15.173  0.2915  1.6385  0.2475
  786MPD2    N111598   0.615   1.658  14.604 -0.8180 -0.6165 -0.0577
  786MPD2    H711599   0.714   1.636  14.597 -1.0866 -2.4003  1.7892
  787MPD2     C11600   1.143   1.403  14.556 -0.1765  0.5874 -0.9574
  787MPD2    C111601   1.066   1.324  14.467 -0.1198  0.2952  1.0482
  787MPD2    C211602   1.123   1.203  14.421 -0.3294  0.2023  0.3591
  787MPD2    C311603   1.237   1.149  14.480  0.3560  0.5146  0.4373
  787MPD2    C411604   1.302   1.226  14.579 -0.0847  0.0532  0.0950
  787MPD2    C511605   1.259   1.351  14.607  0.8629 -0.1649 -0.2878
  787MPD2     H11606   1.068   1.159  14.338  0.9199  1.6233 -1.2120
  787MPD2    H111607   1.402   1.198  14.610  0.6499  0.5029 -1.8692
  787MPD2    H211608   1.121   1.507  14.575  1.7458  0.9374 -0.6056
  787MPD2    H311609   1.327   1.417  14.661  0.0082 -1.8634  2.8430
  787MPD2     N11610   1.296   1.037  14.413  0.1218 -1.0244  0.1210
  787MPD2    H511611   1.245   0.992  14.337  1.3545 -0.4155 -1.0789
  787MPD2    N111612   0.940   1.365  14.420  0.4568  0.1307 -0.0752
  787MPD2    H711613   0.900   1.448  14.462  0.7032 -1.2295  2.8311
  788MPD2     C11614   2.643   0.254   0.832 -0.0904  0.1940 -0.4688
  788MPD2    C111615   2.582   0.133   0.799  0.1705  0.2654  0.4250
  788MPD2    C211616   2.566   0.110   0.667 -0.2625 -0.0163 -0.5634
  788MPD2    C311617   2.584   0.203   0.569 -0.1854 -0.4480  0.3970
  788MPD2    C411618   2.654   0.315   0.600 -0.0495  0.7825  0.0353
  788MPD2    C511619   2.684   0.339   0.736  0.1082 -0.3132  0.3790
  788MPD2     H11620   2.516   0.018   0.639 -0.7833  0.6714 -1.8995
  788MPD2    H111621   2.658   0.388   0.520 -0.2166  0.7217 -0.0296
  788MPD2    H211622   2.659   0.284   0.935 -1.6265  0.8610 -0.4241
  788MPD2    H311623   2.723   0.439   0.754 -0.3553  0.2117 -1.4449
  788MPD2     N11624   2.531   0.188   0.442  0.2650  0.2695 -0.0619
  788MPD2    H511625   2.563   0.249   0.367 -0.1754  1.5116  0.7588
  788MPD2    N111626   2.552   0.035   0.902 -0.3747 -0.3934 -0.0923
  788MPD2    H711627   2.517   4.667   0.887 -1.7119  0.0043  0.6095
  789MPD2     C11628   2.863   4.263  16.305  0.2511  0.0443  0.2791
  789MPD2    C111629   2.879   4.235  16.439  0.6205  0.3779  0.8807
  789MPD2    C211630   2.780   4.275  16.530 -0.5433 -0.3472  0.2277
  789MPD2    C311631   2.672   4.353  16.479 -0.7738 -0.1749 -0.4026
  789MPD2    C411632   2.655   4.373  16.344 -0.0430 -0.0099 -0.5413
  789MPD2    C511633   2.750   4.326  16.259  0.6172 -0.2788 -0.7516
  789MPD2     H11634   2.789   4.263  16.637 -0.3618 -0.7620  0.1640
  789MPD2    H111635   2.577   4.429  16.293 -1.0054 -0.4961  0.3947
  789MPD2    H211636   2.927   4.223  16.227  1.1539 -0.0423  1.0634
  789MPD2    H311637   2.732   4.346  16.153  1.8466  1.7288 -0.5907
  789MPD2     N11638   2.563   4.397  16.560  0.4898  0.2602 -0.2723
  789MPD2    H511639   2.473   4.427  16.523  0.3150  0.5139  0.3515
  789MPD2    N111640   2.982   4.142  16.477 -0.1700 -0.4559 -0.3056
  789MPD2    H711641   2.989   4.115  16.574 -0.6595 -1.7369 -0.6227
  790MPD2     C11642   4.036   0.848  13.682 -0.1654  0.1673  0.0079
  790MPD2    C111643   4.037   0.969  13.621  0.0633  0.6144 -0.8247
  790MPD2    C211644   3.987   0.977  13.491  0.0432 -1.2469 -0.3240
  790MPD2    C311645   3.940   0.866  13.423  0.1257 -0.3167  0.1038
  790MPD2    C411646   3.930   0.746  13.497  0.4343  0.4693 -1.3370
  790MPD2    C511647   3.986   0.737  13.622 -0.2379 -0.1881 -0.4614
  790MPD2     H11648   3.993   1.075  13.444  1.1089 -2.9404 -3.6929
  790MPD2    H111649   3.879   0.659  13.455  0.6054 -1.1934  1.8858
  790MPD2    H211650   4.072   0.841  13.784 -0.3050 -1.7347 -0.0683
  790MPD2    H311651   3.986   0.651  13.688 -0.8011  0.1010 -0.0861
  790MPD2     N11652   3.889   0.877  13.288  0.7110 -0.4888 -0.0610
  790MPD2    H511653   3.889   0.971  13.249  2.6685 -1.0636 -1.4048
  790MPD2    N111654   4.087   1.077  13.700 -0.0481  0.4266 -0.0115
  790MPD2    H711655   4.103   1.056  13.798 -0.2501 -1.9825 -0.4868
  791MPD2     C11656   3.236   1.183  12.817  0.6297  0.3739 -0.6046
  791MPD2    C111657   3.276   1.056  12.858  0.1597  0.3747 -0.3081
  791MPD2    C211658   3.178   0.951  12.879  0.2959 -0.4732 -0.4543
  791MPD2    C311659   3.045   0.980  12.842 -0.0855 -0.0795  0.1462
  791MPD2    C411660   3.017   1.111  12.802 -0.2649  0.3105  0.7173
  791MPD2    C511661   3.104   1.210  12.802  0.4751 -0.2180  0.3699
  791MPD2     H11662   3.205   0.853  12.918 -1.5423 -0.2876  1.3142
  791MPD2    H111663   2.915   1.144  12.782  0.1719  1.4165  0.3236
  791MPD2    H211664   3.304   1.267  12.813 -0.7710  1.6691  2.2156
  791MPD2    H311665   3.081   1.311  12.770 -0.5739 -1.5707 -3.1678
  791MPD2     N11666   2.955   0.872  12.845  0.6781  0.1699 -0.1690
  791MPD2    H511667   3.006   0.787  12.869 -0.8945 -0.8778 -0.4950
  791MPD2    N111668   3.406   1.037  12.890  0.2017  0.1615 -0.6525
  791MPD2    H711669   3.465   1.118  12.883 -0.2981  0.5943  0.1134
  792MPD2     C11670   0.107   0.427  10.632  0.3379 -0.3655 -0.5759
  792MPD2    C111671   0.017   0.481  10.545  0.1402  0.0238 -0.4062
  792MPD2    C211672   4.686   0.411  10.437  0.3247  0.0401  0.4644
  792MPD2    C311673   0.000   0.278  10.421 -0.5405  0.1821 -0.3869
  792MPD2    C411674   0.078   0.222  10.514  0.3447 -0.0371 -0.5782
  792MPD2    C511675   0.133   0.293  10.622  0.4180  0.2639  0.3975
  792MPD2     H11676   4.622   0.462  10.366  0.5046  2.7015  2.1744
  792MPD2    H111677   0.106   0.117  10.518  0.2188 -0.0292  0.6443
  792MPD2    H211678   0.151   0.478  10.717 -1.0831  0.6740 -0.4729
  792MPD2    H311679   0.202   0.253  10.696  0.3322 -0.7637 -0.0850
  792MPD2     N11680   4.687   0.195  10.307  0.0896 -0.3106  0.4905
  792MPD2    H511681   4.716   0.098  10.316  1.2396 -0.1044 -0.8825
  792MPD2    N111682   4.712   0.621  10.555  0.4140  0.8791 -0.6240
  792MPD2    H711683   4.659   0.656  10.476 -0.3075 -0.5258 -0.7684
  793MPD2     C11684   4.181   0.207   9.422  0.0044 -0.2464  0.3328
  793MPD2    C111685   4.231   0.308   9.493  0.0762 -0.2264  0.2748
  793MPD2    C211686   4.269   0.286   9.621 -0.0796  0.2255 -0.5282
  793MPD2    C311687   4.274   0.165   9.670 -0.3195 -0.3456  0.4013
  793MPD2    C411688   4.230   0.061   9.592 -0.3548  0.5927 -0.3858
  793MPD2    C511689   4.180   0.080   9.469  0.3939 -0.4576 -0.7194
  793MPD2     H11690   4.291   0.365   9.692  0.6039  1.0127 -1.6221
  793MPD2    H111691   4.230   4.681   9.619  2.3199  0.7177  0.0969
  793MPD2    H211692   4.157   0.222   9.317  0.5867  1.0229  0.3805
  793MPD2    H311693   4.141   0.000   9.406 -3.2102 -1.0976  2.3715
  793MPD2     N11694   4.312   0.145   9.810 -0.1398  0.3045 -1.0173
  793MPD2    H511695   4.355   0.218   9.866 -1.2954 -0.5888  1.0449
  793MPD2    N111696   4.248   0.438   9.438  0.5081 -0.0183 -0.0491
  793MPD2    H711697   4.284   0.504   9.506 -1.1477  0.9455 -0.1124
  794MPD2     C11698   3.633   0.421  16.372 -0.0755  0.7186 -0.0320
  794MPD2    C111699   3.502   0.413  16.420 -0.1687 -0.6253 -0.3546
  794MPD2    C211700   3.395   0.413  16.339  0.0258 -0.2376 -0.6206
  794MPD2    C311701   3.411   0.436  16.206 -0.0363 -0.2143 -0.4324
  794MPD2    C411702   3.538   0.438  16.154  0.1961 -0.2499 -0.0518
  794MPD2    C511703   3.652   0.439  16.237  0.5676 -0.6706 -0.4493
  794MPD2     H11704   3.294   0.415  16.379 -0.1012  0.9904 -0.9966
  794MPD2    H111705   3.560   0.471  16.053 -0.7553  1.6876  0.3764
  794MPD2    H211706   3.726   0.427  16.428  0.9513  0.0693 -1.6444
  794MPD2    H311707   3.750   0.456  16.193  0.3652  0.2217 -0.5411
  794MPD2     N11708   3.303   0.455  16.112  0.6013 -0.5053  0.3056
  794MPD2    H511709   3.327   0.464  16.014  0.9060  0.3627  0.4559
  794MPD2    N111710   3.477   0.430  16.556 -0.0289  0.1535  0.1837
  794MPD2    H711711   3.378   0.429  16.579 -0.4506 -0.5623 -1.6757
  795MPD2     C11712   1.642   3.034  13.420 -0.1266  0.1037  0.0606
  795MPD2    C111713   1.675   2.938  13.326  0.2735 -1.0480 -0.0303
  795MPD2    C211714   1.789   2.863  13.334  0.0766  0.3562 -0.1319
  795MPD2    C311715   1.880   2.885  13.433 -0.5967  0.5729  0.4848
  795MPD2    C411716   1.849   2.981  13.537  0.5495 -0.0845 -0.1564
  795MPD2    C511717   1.726   3.048  13.528  0.4262  0.2450 -0.6068
  795MPD2     H11718   1.809   2.793  13.254  0.5608  1.3458 -0.8716
  795MPD2    H111719   1.908   2.984  13.627  0.1514  1.8487  0.0481
  795MPD2    H211720   1.542   3.075  13.428 -0.3452 -0.2630 -0.8327
  795MPD2    H311721   1.686   3.099  13.614  0.6642  1.0087 -0.9518
  795MPD2     N11722   2.002   2.816  13.435  0.0977  0.2640  0.1089
  795MPD2    H511723   2.004   2.736  13.372  3.0598  0.5460 -0.1392
  795MPD2    N111724   1.593   2.909  13.214 -0.5544  0.8696 -0.2547
  795MPD2    H711725   1.631   2.848  13.143 -1.3678 -0.8556  0.8044
  796MPD2     C11726   0.733   3.899  15.827  0.1027  0.4409  0.0345
  796MPD2    C111727   0.685   3.957  15.942 -0.1741  0.2665 -0.0479
  796MPD2    C211728   0.694   4.094  15.947  0.3319  0.2637 -0.2554
  796MPD2    C311729   0.740   4.170  15.842  0.0352 -0.3251  0.2354
  796MPD2    C411730   0.791   4.105  15.733 -1.1817  0.9080  0.0294
  796MPD2    C511731   0.786   3.971  15.724  0.8873  0.3165 -0.8512
  796MPD2     H11732   0.654   4.147  16.033  2.0632  2.5983 -0.8857
  796MPD2    H111733   0.836   4.156  15.649  0.7786 -1.9417 -0.6534
  796MPD2    H211734   0.736   3.791  15.819 -0.6273  0.3308  1.2590
  796MPD2    H311735   0.824   3.918  15.637 -0.6320 -1.7130 -0.2749
  796MPD2     N11736   0.739   4.309  15.861  0.2167 -0.1177  0.1627
  796MPD2    H511737   0.692   4.343  15.944 -0.2317 -0.5295  0.0742
  796MPD2    N111738   0.646   3.873  16.056  0.0037 -0.0621 -0.0803
  796MPD2    H711739   0.674   3.775  16.061  0.9877  0.3780  2.7475
  797MPD2     C11740   1.689   4.361  16.783 -0.3966  0.1649 -0.4775
  797MPD2    C111741   1.638   4.460  16.860 -1.1998 -0.0595 -0.7767
  797MPD2    C211742   1.527   4.524  16.812  0.1383 -0.1818 -0.1089
  797MPD2    C311743   1.466   4.499  16.691 -0.1863  0.1702  0.8740
  797MPD2    C411744   1.512   4.397  16.620  0.2218  0.2193 -0.5593
  797MPD2    C511745   1.630   4.332  16.667 -0.0198 -0.1053  0.0199
  797MPD2     H11746   1.489   4.610  16.866  0.1164 -0.3852  0.1997
  797MPD2    H111747   1.466   4.379  16.524  1.1929  0.0953 -0.9994
  797MPD2    H211748   1.772   4.299  16.813 -1.0985 -1.3374 -1.6269
  797MPD2    H311749   1.669   4.246  16.614  1.0937  2.2036 -2.9184
  797MPD2     N11750   1.352   4.574  16.662 -0.4583 -0.0297 -0.5412
  797MPD2    H511751   1.330   4.644  16.732 -1.0547 -0.3692 -0.3910
  797MPD2    N111752   1.693   4.493  16.985 -0.2017  0.0189 -0.0089
  797MPD2    H711753   1.647   4.562  17.044  1.1762 -1.0477  2.3086
  798MPD2     C11754   1.155   0.206  17.246 -0.6864 -0.3367  0.0980
  798MPD2    C111755   1.205   0.128  17.142  0.1894  0.0469 -0.7407
  798MPD2    C211756   1.302   0.035  17.160 -1.0638 -0.6603  0.4935
  798MPD2    C311757   1.352   0.017  17.289 -0.5134 -0.2786  0.0769
  798MPD2    C411758   1.314   0.099  17.388 -0.4581  0.0056 -0.2690
  798MPD2    C511759   1.217   0.194  17.369 -0.6485  0.0547  0.2380
  798MPD2     H11760   1.333   4.702  17.074 -0.0500  0.1091  0.3512
  798MPD2    H111761   1.348   0.081  17.489  1.6200 -1.1795 -1.1903
  798MPD2    H211762   1.081   0.283  17.232 -0.8289 -0.8885 -2.0860
  798MPD2    H311763   1.186   0.253  17.455  1.8030 -0.3159  1.3673
  798MPD2     N11764   1.454   4.644  17.296 -0.1670  0.5081 -0.3257
  798MPD2    H511765   1.466   4.597  17.207  0.1455 -1.1166  0.5815
  798MPD2    N111766   1.149   0.147  17.012  0.0397 -0.2468 -0.0216
  798MPD2    H711767   1.059   0.193  17.001 -0.0773 -0.1034  1.5208
  799MPD2     C11768   0.529   0.956  14.453 -0.3887  0.8777 -0.9191
  799MPD2    C111769   0.554   0.852  14.366  1.0319 -0.0953  0.3273
  799MPD2    C211770   0.537   0.878  14.231 -0.5640  0.1287 -0.3338
  799MPD2    C311771   0.488   1.002  14.186  0.2280  0.2278 -0.1296
  799MPD2    C411772   0.460   1.102  14.272 -0.0965  0.8702  0.2003
  799MPD2    C511773   0.485   1.079  14.403 -0.1531 -0.4609  0.4301
  799MPD2     H11774   0.571   0.803  14.161 -0.6612 -0.4575  0.2417
  799MPD2    H111775   0.417   1.198  14.245 -1.9549 -0.0789 -0.1471
  799MPD2    H211776   0.534   0.940  14.560  2.2675  0.8189 -1.0536
  799MPD2    H311777   0.480   1.156  14.480  1.5546 -0.2137  0.2759
  799MPD2     N11778   0.483   1.040  14.046  0.1000  0.0658  0.2272
  799MPD2    H511779   0.461   1.137  14.022  0.5339  0.7088  2.3603
  799MPD2    N111780   0.611   0.724  14.404  0.5339 -0.2006  0.5288
  799MPD2    H711781   0.611   0.644  14.342  1.5054  0.3459 -0.1786
  800MPD2     C11782   1.469   1.705  14.517 -1.2351  0.3777 -1.2388
  800MPD2    C111783   1.579   1.785  14.484  0.3879 -0.0629 -0.3912
  800MPD2    C211784   1.616   1.781  14.357  0.5625 -0.8833 -0.3349
  800MPD2    C311785   1.557   1.702  14.265  0.1308 -0.6028 -0.3329
  800MPD2    C411786   1.449   1.623  14.299 -0.5883 -0.4768  0.3157
  800MPD2    C511787   1.402   1.631  14.429  0.3666  0.1992  0.4265
  800MPD2     H11788   1.699   1.842  14.324 -0.1451  0.6561  0.7633
  800MPD2    H111789   1.400   1.559  14.228 -0.4249  0.6070 -0.7797
  800MPD2    H211790   1.432   1.716  14.619 -2.3109 -2.9399 -1.2626
  800MPD2    H311791   1.309   1.585  14.457  0.0808  0.0765 -0.7270
  800MPD2     N11792   1.610   1.714  14.135  0.1559 -0.3443  0.2207
  800MPD2    H511793   1.667   1.795  14.114 -1.2561  0.2393 -1.3962
  800MPD2    N111794   1.636   1.869  14.580 -0.2773  0.0238  0.1034
  800MPD2    H711795   1.599   1.880  14.674 -0.7343 -0.7594  0.0195
  801MPD2     C11796   1.300   2.269  14.970 -0.4850 -0.1424 -0.1280
  801MPD2    C111797   1.355   2.270  14.845 -0.0915  0.3041 -0.1333
  801MPD2    C211798   1.270   2.280  14.739 -0.0347 -0.4878  0.5654
  801MPD2    C311799   1.134   2.301  14.750  0.0170 -0.7789 -0.3672
  801MPD2    C411800   1.088   2.301  14.879 -0.0135 -0.1536 -0.4573
  801MPD2    C511801   1.164   2.286  14.992  0.5686  0.1616  0.2361
  801MPD2     H11802   1.316   2.274  14.641  0.4691 -0.8612  0.8216
  801MPD2    H111803   0.982   2.323  14.890  0.6184  1.0507  2.9346
  801MPD2    H211804   1.351   2.242  15.062  0.3892 -1.0863 -0.9016
  801MPD2    H311805   1.113   2.284  15.087  0.9280 -0.3989  0.4171
  801MPD2     N11806   1.049   2.325  14.639  0.1790 -0.8714  0.0097
  801MPD2    H511807   0.950   2.339  14.659  0.2441 -0.1873 -0.1393
  801MPD2    N111808   1.492   2.236  14.827  0.2609 -0.0225 -0.2979
  801MPD2    H711809   1.518   2.205  14.733  0.5778 -2.8215  0.7096
  802MPD2     C11810   0.722   3.272   0.534  0.4846  0.1652  0.2148
  802MPD2    C111811   0.630   3.279   0.427  0.0887  0.5961  0.7311
  802MPD2    C211812   0.657   3.195   0.319 -0.2768  0.4863 -0.5139
  802MPD2    C311813   0.766   3.114   0.318 -1.0431  0.2740  0.9762
  802MPD2    C411814   0.855   3.113   0.423  0.3147  1.3947 -0.4251
  802MPD2    C511815   0.831   3.191   0.524 -0.5038  0.1168  0.4096
  802MPD2     H11816   0.595   3.189   0.230 -0.6889 -0.9359 -0.1279
  802MPD2    H111817   0.944   3.051   0.419  0.3526  1.4555 -0.5442
  802MPD2    H211818   0.704   3.332   0.622 -2.3173  1.6633 -1.3753
  802MPD2    H311819   0.896   3.205   0.610  0.9586  1.8032 -0.9719
  802MPD2     N11820   0.789   3.044   0.201  0.2211  0.1957 -0.2106
  802MPD2    H511821   0.726   3.067   0.125 -0.8304 -1.7184  0.0637
  802MPD2    N111822   0.518   3.368   0.434 -0.2311 -0.0708  0.3962
  802MPD2    H711823   0.456   3.370   0.353  0.9967  1.0178 -0.5185
  803MPD2     C11824   2.117   1.433  11.690  0.6687 -0.0044  0.1882
  803MPD2    C111825   2.224   1.457  11.772 -0.2843 -0.5544 -0.3059
  803MPD2    C211826   2.218   1.424  11.905 -0.2036 -0.0166 -0.3421
  803MPD2    C311827   2.098   1.366  11.954  0.0022 -0.2465  0.3945
  803MPD2    C411828   1.992   1.341  11.864 -0.1264 -0.5464 -0.6330
  803MPD2    C511829   2.006   1.375  11.735 -0.1962 -0.6423  0.5328
  803MPD2     H11830   2.305   1.434  11.970 -2.2925 -0.5287  2.5513
  803MPD2    H111831   1.897   1.296  11.892  0.6373  0.2538  3.2580
  803MPD2    H211832   2.117   1.441  11.582 -0.6593  1.5640  0.3110
  803MPD2    H311833   1.934   1.342  11.660  1.9350  0.9724 -2.2343
  803MPD2     N11834   2.078   1.344  12.094 -0.4151 -0.1215  0.4337
  803MPD2    H511835   1.995   1.290  12.116 -0.1656 -0.8623 -0.4470
  803MPD2    N111836   2.345   1.521  11.719 -0.2328  0.3589 -0.6487
  803MPD2    H711837   2.422   1.551  11.778 -0.7949 -0.0216  0.2771
  804MPD2     C11838   1.593   2.371  16.600  0.3394 -0.0063  0.1247
  804MPD2    C111839   1.482   2.404  16.674  0.1118 -0.1350 -0.0702
  804MPD2    C211840   1.462   2.538  16.715  0.4656  0.6049  0.6125
  804MPD2    C311841   1.565   2.632  16.714 -0.3274 -0.1764  0.2208
  804MPD2    C411842   1.682   2.594  16.651 -0.7428 -0.3426 -0.3701
  804MPD2    C511843   1.692   2.465  16.591 -0.1086  0.2017 -0.2778
  804MPD2     H11844   1.372   2.565  16.769  0.2623  3.0804 -0.9548
  804MPD2    H111845   1.768   2.660  16.639 -1.4346  0.5536 -0.3544
  804MPD2    H211846   1.617   2.274  16.559 -1.5156 -0.4632  0.1493
  804MPD2    H311847   1.780   2.434  16.535  0.5883 -3.5631  2.9094
  804MPD2     N11848   1.546   2.759  16.769 -0.0467  0.6842 -0.5536
  804MPD2    H511849   1.450   2.788  16.786  0.2465  1.5106 -0.3328
  804MPD2    N111850   1.396   2.301  16.717  0.5563  0.1717 -0.2418
  804MPD2    H711851   1.322   2.323  16.784  0.2829  2.5628 -1.3065
  805MPD2     C11852   0.601   0.970  15.591 -0.3154 -0.5118  0.2037
  805MPD2    C111853   0.710   0.988  15.510  0.0205  0.2624  0.2441
  805MPD2    C211854   0.839   0.975  15.552 -0.3202 -0.0857 -0.5979
  805MPD2    C311855   0.860   0.932  15.680 -0.4096  0.0957 -0.1031
  805MPD2    C411856   0.753   0.914  15.772 -0.7985  0.0032  0.5463
  805MPD2    C511857   0.625   0.932  15.726 -0.4064  0.9267 -0.0336
  805MPD2     H11858   0.916   0.990  15.476 -1.1909 -0.7565 -1.6189
  805MPD2    H111859   0.769   0.897  15.878  0.6633 -0.3302  0.2717
  805MPD2    H211860   0.497   0.975  15.561  0.3888 -0.4570 -2.2077
  805MPD2    H311861   0.540   0.914  15.791 -0.6396 -1.2763 -0.9592
  805MPD2     N11862   0.989   0.904  15.728  0.4724 -0.3113  0.4163
  805MPD2    H511863   0.995   0.864  15.821  3.5240 -0.6688  0.0534
  805MPD2    N111864   0.702   1.005  15.370  0.0934 -0.3422  0.6048
  805MPD2    H711865   0.788   1.010  15.315  0.1989 -2.1858  0.6136
  806MPD2     C11866   1.026   0.213   0.512 -0.6779  0.7497  0.2319
  806MPD2    C111867   0.976   0.328   0.450  0.3757  0.4925  0.3351
  806MPD2    C211868   1.067   0.398   0.373 -0.6502  0.3956  0.3417
  806MPD2    C311869   1.202   0.374   0.365  0.0084 -0.2089 -0.6576
  806MPD2    C411870   1.248   0.261   0.426  0.1214  0.3490  0.1397
  806MPD2    C511871   1.159   0.184   0.500 -0.2797 -0.4159  0.1864
  806MPD2     H11872   1.033   0.476   0.306  1.2246  1.6028  0.8005
  806MPD2    H111873   1.346   0.217   0.409  0.3173  1.9673 -2.8239
  806MPD2    H211874   0.971   0.141   0.572  1.8383  1.2720  3.1633
  806MPD2    H311875   1.206   0.092   0.533  1.7899 -0.4607 -2.9554
  806MPD2     N11876   1.278   0.467   0.298  0.5260 -0.4183  0.3128
  806MPD2    H511877   1.226   0.544   0.258  0.6079 -0.2982  0.4401
  806MPD2    N111878   0.839   0.356   0.456  0.3463 -0.2548  1.1354
  806MPD2    H711879   0.783   0.305   0.524  0.3672 -1.6346  0.0979
  807MPD2     C11880   0.236   0.156   0.796 -0.4521 -0.3167 -0.0963
  807MPD2    C111881   0.374   0.156   0.764  0.8212 -0.3407 -0.3757
  807MPD2    C211882   0.446   0.045   0.805  0.5433  0.1002 -0.0664
  807MPD2    C311883   0.389   4.666   0.874 -0.2266 -0.2749  0.6369
  807MPD2    C411884   0.252   4.668   0.905 -0.0357  0.2490  0.2128
  807MPD2    C511885   0.182   0.057   0.874 -0.8342 -0.0641  0.4179
  807MPD2     H11886   0.552   0.040   0.783  0.8647  2.3658  0.9420
  807MPD2    H111887   0.195   4.584   0.944 -0.9521  1.0575  0.6303
  807MPD2    H211888   0.167   0.230   0.754  0.1862  0.8724  0.9487
  807MPD2    H311889   0.076   0.059   0.899 -1.4534 -1.7612 -2.1466
  807MPD2     N11890   0.470   4.559   0.916 -0.4020 -0.2474  0.5588
  807MPD2    H511891   0.562   4.536   0.880 -0.5981  0.8485 -0.6368
  807MPD2    N111892   0.441   0.259   0.701 -0.3754 -0.5466 -0.4927
  807MPD2    H711893   0.540   0.247   0.681 -0.4815  0.4853 -1.5750
  808MPD2     C11894   2.009   1.535   9.726  0.0851 -0.2520  0.1368
  808MPD2    C111895   1.943   1.611   9.819 -0.9619 -0.1883 -0.4942
  808MPD2    C211896   2.005   1.725   9.864  0.1358  0.1974  0.0618
  808MPD2    C311897   2.129   1.769   9.820 -0.3155 -0.0744  0.3632
  808MPD2    C411898   2.189   1.692   9.718  0.1130  0.0856 -0.0507
  808MPD2    C511899   2.129   1.573   9.682 -0.1401  0.0391 -0.0171
  808MPD2     H11900   1.961   1.773   9.951  1.3974  3.3863 -1.0687
  808MPD2    H111901   2.287   1.705   9.673  0.4051  0.3646  0.6692
  808MPD2    H211902   1.980   1.433   9.707  4.0273 -1.0503 -1.4018
  808MPD2    H311903   2.174   1.503   9.613 -0.8744 -2.0003  1.5845
  808MPD2     N11904   2.197   1.890   9.856 -0.1071 -0.4789  0.0864
  808MPD2    H511905   2.288   1.905   9.815 -0.2582 -1.1122 -0.4665
  808MPD2    N111906   1.808   1.579   9.862  0.6174 -0.8551 -0.2012
  808MPD2    H711907   1.765   1.653   9.917  0.1926  0.0149 -1.7253
  809MPD2     C11908   2.969   2.454   9.673  0.2001 -0.7133  0.2592
  809MPD2    C111909   2.925   2.330   9.655 -0.3423 -0.1896 -0.1657
  809MPD2    C211910   2.811   2.295   9.730 -0.1319  1.1639 -0.5558
  809MPD2    C311911   2.736   2.381   9.808 -0.1637 -0.1212  0.0587
  809MPD2    C411912   2.789   2.511   9.821  0.0008  0.0969  0.5175
  809MPD2    C511913   2.908   2.543   9.758  0.1058 -0.0584  1.0207
  809MPD2     H11914   2.780   2.191   9.725  1.1507  0.7493  0.2150
  809MPD2    H111915   2.740   2.597   9.866  1.1782  0.0627  1.8331
  809MPD2    H211916   3.051   2.496   9.616  1.0490 -1.3762  0.9881
  809MPD2    H311917   2.947   2.643   9.772  0.6728 -0.0919 -0.3629
  809MPD2     N11918   2.606   2.357   9.854  0.4040 -0.3179 -0.5761
  809MPD2    H511919   2.556   2.434   9.897 -2.9664 -2.8681 -0.0365
  809MPD2    N111920   2.997   2.231   9.588 -0.0232  0.2184  0.2011
  809MPD2    H711921   2.956   2.138   9.589 -1.0077  0.6857  4.4627
  810MPD2     C11922   1.448   1.445  10.732 -0.5361 -0.0661  0.3272
  810MPD2    C111923   1.371   1.439  10.619  0.5862 -0.6558 -0.3057
  810MPD2    C211924   1.396   1.526  10.518  1.1406  0.2010  0.4761
  810MPD2    C311925   1.478   1.636  10.536  0.0891  0.1233  0.5610
  810MPD2    C411926   1.548   1.651  10.658  0.5575 -0.6612 -0.2307
  810MPD2    C511927   1.535   1.556  10.751 -1.1401 -0.1103  0.4403
  810MPD2     H11928   1.349   1.497  10.426  0.7254  0.6073  0.5588
  810MPD2    H111929   1.614   1.729  10.696  1.1242 -0.8914 -0.7260
  810MPD2    H211930   1.431   1.373  10.812 -2.1664  0.9753  0.9105
  810MPD2    H311931   1.597   1.570  10.840  0.3540  0.9076 -0.7635
  810MPD2     N11932   1.478   1.742  10.442  0.8066 -0.6934  0.7040
  810MPD2    H511933   1.418   1.729  10.361  0.5561  0.3216  0.7292
  810MPD2    N111934   1.280   1.333  10.605 -0.0775  0.1791  0.3476
  810MPD2    H711935   1.243   1.321  10.511 -0.6995 -2.4175  0.9184
  811MPD2     C11936   1.050   1.167   9.931 -0.3850 -0.5039  0.1924
  811MPD2    C111937   1.095   1.236  10.042 -1.0576  0.1538  0.4399
  811MPD2    C211938   1.134   1.371  10.022 -0.0891 -0.3646  0.1271
  811MPD2    C311939   1.109   1.431   9.902  0.2137 -0.1783 -0.0147
  811MPD2    C411940   1.053   1.364   9.798 -0.1854  0.0273 -0.8500
  811MPD2    C511941   1.040   1.233   9.810  0.5566 -0.5667 -0.1534
  811MPD2     H11942   1.163   1.442  10.099  0.7719  0.9017 -1.3772
  811MPD2    H111943   1.027   1.405   9.701  2.6751 -0.8618 -1.9796
  811MPD2    H211944   1.021   1.062   9.929 -2.8639  0.1887 -1.0000
  811MPD2    H311945   1.008   1.173   9.726 -0.8315 -2.9611  2.0844
  811MPD2     N11946   1.129   1.576   9.886 -0.3262 -0.2348  0.0761
  811MPD2    H511947   1.200   1.623   9.941  0.3740  0.8919 -1.7655
  811MPD2    N111948   1.098   1.162  10.163  0.5768 -0.0522  0.1213
  811MPD2    H711949   1.053   1.072  10.151 -0.5713  0.6371 -0.8187
  812MPD2     C11950   4.511   0.822  11.971  0.0312 -0.7812 -0.8969
  812MPD2    C111951   4.543   0.920  12.066  0.7079  0.0759 -0.4845
  812MPD2    C211952   4.563   0.884  12.199 -0.7059 -0.4686  0.3611
  812MPD2    C311953   4.514   0.761  12.249 -0.6703  0.4253 -0.4315
  812MPD2    C411954   4.461   0.673  12.159  0.2872 -0.0086  0.8072
  812MPD2    C511955   4.468   0.703  12.027 -0.2229 -0.1435 -0.2590
  812MPD2     H11956   4.613   0.958  12.261  1.2710 -0.8695 -0.7327
  812MPD2    H111957   4.430   0.573  12.184 -1.7763  0.6727  0.9677
  812MPD2    H211958   4.505   0.837  11.864  3.2964  0.9345 -0.8223
  812MPD2    H311959   4.442   0.625  11.955 -1.7509  0.6818 -0.5905
  812MPD2     N11960   4.534   0.728  12.390 -0.4303 -0.4400 -0.0417
  812MPD2    H511961   4.565   0.805  12.449 -1.8610 -1.2748  1.7966
  812MPD2    N111962   4.576   1.047  12.007  0.2913  0.0397  1.0141
  812MPD2    H711963   4.566   1.063  11.908  0.3274 -0.9843  0.8482
  813MPD2     C11964   4.468   2.917  13.096 -0.2117  0.3979  0.3798
  813MPD2    C111965   4.372   2.991  13.032  0.3325 -0.5850 -0.6866
  813MPD2    C211966   4.255   3.010  13.103  0.3495 -0.4863  0.3851
  813MPD2    C311967   4.238   2.956  13.231  0.2239  0.6088 -0.4745
  813MPD2    C411968   4.332   2.877  13.296  0.4866  0.2075 -0.5017
  813MPD2    C511969   4.440   2.858  13.222 -0.5752 -0.3089 -0.3501
  813MPD2     H11970   4.177   3.080  13.076  1.9379  1.9291  2.0292
  813MPD2    H111971   4.326   2.821  13.389 -0.6000 -0.5601 -1.0305
  813MPD2    H211972   4.573   2.910  13.070  0.0075 -0.3900  1.4715
  813MPD2    H311973   4.527   2.807  13.263 -0.9132  0.2802  1.1144
  813MPD2     N11974   4.121   2.996  13.298 -0.4247  0.4941  0.4738
  813MPD2    H511975   4.048   3.056  13.261  0.1713  0.8508 -0.1132
  813MPD2    N111976   4.401   3.064  12.914 -0.8730 -0.0589 -0.3867
  813MPD2    H711977   4.496   3.057  12.879 -1.0933  0.0626 -1.0001
  814MPD2     C11978   4.550   4.059  12.380  0.3285 -0.5657  0.5706
  814MPD2    C111979   4.516   4.081  12.251 -0.4986 -0.5196  0.0176
  814MPD2    C211980   4.514   4.210  12.197 -0.6263 -0.2201 -0.0085
  814MPD2    C311981   4.557   4.318  12.285  0.1143 -0.5399  0.2377
  814MPD2    C411982   4.592   4.287  12.414  0.2454 -0.2353  0.0604
  814MPD2    C511983   4.587   4.162  12.457  0.1848  0.1023  0.0280
  814MPD2     H11984   4.485   4.225  12.093  2.3064 -1.3531 -0.9876
  814MPD2    H111985   4.608   4.363  12.491 -0.0228 -0.2849  0.1656
  814MPD2    H211986   4.550   3.960  12.425  1.2000 -1.4134 -1.2639
  814MPD2    H311987   4.622   4.133  12.556 -2.4153 -0.3868  0.8132
  814MPD2     N11988   4.567   4.451  12.242 -0.7682 -0.0870 -0.2349
  814MPD2    H511989   4.599   4.508  12.320 -1.6478 -0.8791  0.7068
  814MPD2    N111990   4.469   3.972  12.170  0.1192 -0.6148 -0.6055
  814MPD2    H711991   4.466   3.992  12.070  3.9990 -2.0699 -1.0138
  815MPD2     C11992   0.393   2.323  11.964  1.0809 -0.0716 -0.6332
  815MPD2    C111993   0.318   2.350  11.849  0.7047  0.7603  0.1689
  815MPD2    C211994   0.185   2.381  11.865  0.6297 -0.5793  0.2150
  815MPD2    C311995   0.128   2.397  11.991  0.2545  0.1097  0.0342
  815MPD2    C411996   0.207   2.375  12.102  0.6619 -0.1628  0.4060
  815MPD2    C511997   0.341   2.340  12.090 -0.6801 -0.8036  0.2992
  815MPD2     H11998   0.117   2.396  11.782  1.2713 -0.4565 -0.2889
  815MPD2    H111999   0.172   2.372  12.205 -2.3621 -1.1151 -0.6446
  815MPD2    H212000   0.501   2.316  11.960  1.1179  0.3842 -0.4898
  815MPD2    H312001   0.407   2.325  12.174  0.3206  2.2473  0.0693
  815MPD2     N12002   4.715   2.424  12.001  0.4295 -0.2979  0.0669
  815MPD2    H512003   4.663   2.426  11.914  0.0113  0.5738  0.3332
  815MPD2    N112004   0.382   2.327  11.723  0.1601  0.1611 -0.9667
  815MPD2    H712005   0.469   2.275  11.722  0.0860  0.0147  0.8847
  816MPD2     C12006   4.507   1.711  16.949 -0.1259  0.2723 -0.0492
  816MPD2    C112007   4.555   1.829  17.004  0.6311 -0.8995 -0.8500
  816MPD2    C212008   4.694   1.848  17.000 -0.9388  0.2759  0.2758
  816MPD2    C312009   0.053   1.754  16.954 -1.0004  0.2581  0.2445
  816MPD2    C412010   0.001   1.631  16.916  1.1093  0.1134 -0.1612
  816MPD2    C512011   4.593   1.620  16.900 -0.0398  0.1174 -0.5962
  816MPD2     H12012   0.015   1.939  17.038 -1.4307  0.2734  0.8778
  816MPD2    H112013   0.064   1.545  16.893 -0.0829 -0.6393 -0.6337
  816MPD2    H212014   4.401   1.689  16.953  0.6069 -3.1574  1.0542
  816MPD2    H312015   4.562   1.528  16.852 -1.5561 -0.0994  0.8037
  816MPD2     N12016   0.188   1.780  16.965  0.4065  0.1161 -0.3367
  816MPD2    H512017   0.219   1.876  16.963  0.5154  0.1026  0.7044
  816MPD2    N112018   4.460   1.926  17.048  0.6517  0.3745  0.2275
  816MPD2    H712019   4.364   1.912  17.017  0.4024 -0.4228  1.3705
  817MPD2     C12020   4.548   3.556  10.167 -0.0398 -0.3992  0.6715
  817MPD2    C112021   4.632   3.621  10.087 -0.0077  0.1908  0.3138
  817MPD2    C212022   4.589   3.741  10.037 -0.8136 -0.2360  0.2264
  817MPD2    C312023   4.460   3.789  10.048  1.0601  0.0230  0.3374
  817MPD2    C412024   4.381   3.720  10.141  0.1039  0.4964  0.1342
  817MPD2    C512025   4.418   3.603  10.191  0.0297  0.4877 -0.0590
  817MPD2     H12026   4.646   3.800   9.965  3.2515 -0.5285  3.2413
  817MPD2    H112027   4.281   3.756  10.165 -0.7338  0.1242 -2.7896
  817MPD2    H212028   4.574   3.463  10.217 -0.2199  0.0435  1.5957
  817MPD2    H312029   4.354   3.554  10.264 -1.1335  0.8214 -0.8568
  817MPD2     N12030   4.427   3.911   9.981  0.4098 -0.1457  0.4165
  817MPD2    H512031   4.500   3.954   9.926  1.8922 -2.2404  0.7506
  817MPD2    N112032   0.039   3.593  10.057  0.0010 -0.1627 -0.1618
  817MPD2    H712033   0.093   3.662  10.005 -0.2825  0.9014  0.9325
  818MPD2     C12034   3.853   2.750  10.612  0.4724 -0.7212 -1.1469
  818MPD2    C112035   3.753   2.772  10.514  0.3012 -0.9551  0.1582
  818MPD2    C212036   3.673   2.665  10.491  0.4244 -0.5168  0.1498
  818MPD2    C312037   3.694   2.542  10.547 -0.1891 -0.0026 -1.0821
  818MPD2    C412038   3.798   2.524  10.639 -0.0131 -0.1190 -0.4196
  818MPD2    C512039   3.877   2.628  10.669 -0.4976  0.2055 -0.6686
  818MPD2     H12040   3.595   2.679  10.417  1.2766 -0.0395 -0.6552
  818MPD2    H112041   3.813   2.436  10.701  1.4118  1.3099  1.3003
  818MPD2    H212042   3.910   2.832  10.654  0.0743 -0.4046 -1.2198
  818MPD2    H312043   3.955   2.623  10.743  1.8682  2.9445 -2.9824
  818MPD2     N12044   3.632   2.418  10.506  0.2278  0.6789 -0.0986
  818MPD2    H512045   3.658   2.329  10.548  0.4016  0.5143 -0.5609
  818MPD2    N112046   3.726   2.901  10.464 -0.0056  0.5416  0.3889
  818MPD2    H712047   3.647   2.905  10.401 -0.4296  0.4573  0.9100
  819MPD2     C12048   1.358   0.515  15.513 -0.8057  0.3958  0.5409
  819MPD2    C112049   1.295   0.404  15.563  0.0916 -0.4310 -0.3062
  819MPD2    C212050   1.346   0.348  15.676  0.6149 -0.2621  0.3176
  819MPD2    C312051   1.464   0.394  15.735  0.2679 -0.3535 -0.2150
  819MPD2    C412052   1.529   0.504  15.680  0.1412  0.0273 -0.0028
  819MPD2    C512053   1.475   0.560  15.569  1.0762  0.1917 -0.4405
  819MPD2     H12054   1.296   0.267  15.727 -0.1628  0.4684  0.7254
  819MPD2    H112055   1.614   0.544  15.735  1.7479 -1.4550 -1.4120
  819MPD2    H212056   1.334   0.555  15.415 -1.6190  2.2111  1.4835
  819MPD2    H312057   1.534   0.638  15.522 -0.5535  0.6428 -1.7799
  819MPD2     N12058   1.515   0.312  15.845 -0.6040  0.5113  0.1007
  819MPD2    H512059   1.457   0.230  15.861 -1.5527  1.0772 -0.3928
  819MPD2    N112060   1.179   0.352  15.497  0.6155  0.2478 -0.2832
  819MPD2    H712061   1.137   0.409  15.425  1.6405 -0.8625 -1.7388
  820MPD2     C12062   0.459   0.573  14.847  0.5368 -1.0058 -0.3906
  820MPD2    C112063   0.576   0.617  14.909  0.3073  0.2253  0.1424
  820MPD2    C212064   0.635   0.542  15.006 -0.5251 -0.1888  0.3284
  820MPD2    C312065   0.596   0.415  15.030 -0.5799 -0.0393 -0.7667
  820MPD2    C412066   0.493   0.363  14.955 -0.4068  0.6953  0.0620
  820MPD2    C512067   0.424   0.442  14.868 -0.1526 -0.6033  0.1362
  820MPD2     H12068   0.707   0.596  15.067  0.6755  0.6035 -1.7959
  820MPD2    H112069   0.462   0.260  14.963 -0.6641  0.6254 -1.7637
  820MPD2    H212070   0.410   0.642  14.780  1.7995  1.2060  0.9373
  820MPD2    H312071   0.344   0.405  14.805 -0.8511  1.0939  0.0218
  820MPD2     N12072   0.659   0.333  15.125  0.0008 -0.1279  0.1319
  820MPD2    H512073   0.642   0.233  15.123 -2.2248  0.2096  1.7870
  820MPD2    N112074   0.612   0.748  14.894 -0.8595 -0.0774  0.3478
  820MPD2    H712075   0.539   0.803  14.850 -0.8579 -1.5418 -1.5320
  821MPD2     C12076   1.568   1.876  13.291 -0.3749 -0.6839  0.1701
  821MPD2    C112077   1.687   1.895  13.357  0.0661 -0.7556 -0.0275
  821MPD2    C212078   1.782   1.969  13.286 -0.3369  0.5943  0.4442
  821MPD2    C312079   1.763   2.018  13.156 -0.3016 -0.6281 -0.2473
  821MPD2    C412080   1.652   1.980  13.096  0.4667  0.4021 -0.3658
  821MPD2    C512081   1.551   1.910  13.159  0.0322 -0.2173  0.5898
  821MPD2     H12082   1.876   1.993  13.334  0.6103  0.0001 -1.1019
  821MPD2    H112083   1.631   2.004  12.992 -0.7751 -1.0860 -0.4596
  821MPD2    H212084   1.480   1.832  13.336 -0.8549 -0.0946 -0.1852
  821MPD2    H312085   1.455   1.896  13.111  1.2855  0.0184 -2.0038
  821MPD2     N12086   1.855   2.091  13.090  0.0221 -0.5665 -0.3984
  821MPD2    H512087   1.821   2.121  12.999 -2.4944  1.1123  1.0967
  821MPD2    N112088   1.713   1.851  13.492 -0.0430  0.0350  0.0567
  821MPD2    H712089   1.809   1.874  13.519  0.3534 -1.3628 -0.1390
  822MPD2     C12090   1.909   1.799  15.753 -0.0960  0.2384 -0.2153
  822MPD2    C112091   2.022   1.808  15.824 -0.0534  0.0445  0.2929
  822MPD2    C212092   2.023   1.897  15.934 -0.1129 -0.7557  0.4777
  822MPD2    C312093   1.908   1.973  15.971  0.0543 -0.1932  0.0532
  822MPD2    C412094   1.798   1.954  15.897  0.8063  0.4960 -0.4598
  822MPD2    C512095   1.800   1.873  15.782 -1.0039 -0.2677  0.1473
  822MPD2     H12096   2.111   1.921  15.992  0.0446 -0.6255  0.1890
  822MPD2    H112097   1.710   2.010  15.926  1.0087  0.2689  0.5802
  822MPD2    H212098   1.901   1.726  15.673  0.0761 -0.6146  0.5390
  822MPD2    H312099   1.705   1.864  15.732  0.0063 -1.9369 -1.4946
  822MPD2     N12100   1.898   2.058  16.083 -0.1868 -0.1990 -0.3267
  822MPD2    H512101   1.808   2.091  16.116 -0.4431 -1.5643  0.3274
  822MPD2    N112102   2.134   1.729  15.805 -0.5040  1.1310  0.1379
  822MPD2    H712103   2.197   1.750  15.882  0.2288 -0.5790 -0.0087
  823MPD2     C12104   1.787   2.269  16.924 -0.2707 -0.5102  0.3038
  823MPD2    C112105   1.830   2.180  16.829 -0.4196 -0.4991 -0.5440
  823MPD2    C212106   1.792   2.044  16.850  0.1074  1.4089 -0.6119
  823MPD2    C312107   1.711   2.003  16.959  0.5437  0.6208 -0.5901
  823MPD2    C412108   1.677   2.096  17.053 -1.0959  0.6594  0.2225
  823MPD2    C512109   1.723   2.222  17.037  0.4035  0.1737  0.3430
  823MPD2     H12110   1.820   1.968  16.778 -0.8923 -0.1652  0.6721
  823MPD2    H112111   1.617   2.061  17.135 -1.5842  0.8321 -0.0634
  823MPD2    H212112   1.798   2.376  16.921 -0.9174 -0.4496  0.0960
  823MPD2    H312113   1.697   2.295  17.113 -1.9406  0.8891 -1.1646
  823MPD2     N12114   1.667   1.870  16.982  0.5981  0.4840 -0.2406
  823MPD2    H512115   1.596   1.853  17.052  0.9216 -2.7008 -0.7060
  823MPD2    N112116   1.907   2.222  16.709  0.2412 -0.0791 -0.2359
  823MPD2    H712117   1.942   2.317  16.725 -2.2470  1.0982 -1.8228
  824MPD2     C12118   2.500   0.949  15.705 -0.2935 -0.3485  0.4345
  824MPD2    C112119   2.568   1.048  15.640 -0.6121  0.8007 -0.3298
  824MPD2    C212120   2.688   1.021  15.571  0.6150 -0.3245 -1.2595
  824MPD2    C312121   2.732   0.887  15.565  0.5138  0.1080 -0.1376
  824MPD2    C412122   2.662   0.789  15.638  0.1534 -0.3895 -0.3550
  824MPD2    C512123   2.545   0.823  15.705 -0.4467  0.4068  0.3201
  824MPD2     H12124   2.748   1.094  15.517  0.2218  0.3730 -0.7590
  824MPD2    H112125   2.684   0.683  15.644  1.5360 -0.0466  0.9097
  824MPD2    H212126   2.401   0.966  15.747 -0.0488 -2.9323  2.0239
  824MPD2    H312127   2.482   0.746  15.746  0.4884  0.5724  2.0482
  824MPD2     N12128   2.836   0.855  15.475  0.2945 -0.3534 -0.3249
  824MPD2    H512129   2.873   0.941  15.436 -1.2662  0.0737 -0.8520
  824MPD2    N112130   2.540   1.183  15.658  0.3163  0.1732  0.0519
  824MPD2    H712131   2.607   1.248  15.619 -1.7979  2.1420 -0.3082
  825MPD2     C12132   3.316   0.909  14.771 -0.3984 -0.7220 -0.5423
  825MPD2    C112133   3.307   0.943  14.898  0.5442 -0.2208  0.2151
  825MPD2    C212134   3.354   1.066  14.940  0.1428 -0.2733  0.1669
  825MPD2    C312135   3.416   1.157  14.846  0.2122 -0.0085  0.1897
  825MPD2    C412136   3.444   1.105  14.723 -0.0214  0.4268  0.3142
  825MPD2    C512137   3.380   0.988  14.681  0.3025 -0.3631 -0.7799
  825MPD2     H12138   3.332   1.107  15.038 -1.1989 -0.6665  0.0360
  825MPD2    H112139   3.511   1.153  14.653 -0.2879 -2.1938 -1.7392
  825MPD2    H212140   3.280   0.816  14.728 -0.1374 -0.7934 -0.6068
  825MPD2    H312141   3.395   0.960  14.577  4.4652 -2.1734  0.3046
  825MPD2     N12142   3.466   1.285  14.876  0.0292 -0.7656 -0.0208
  825MPD2    H512143   3.527   1.331  14.810  0.9249 -2.2633 -0.2490
  825MPD2    N112144   3.240   0.848  14.985  0.0245  0.0457 -0.0160
  825MPD2    H712145   3.232   0.751  14.958 -2.1206  0.5891 -1.3158
  826MPD2     C12146   3.188   1.296  13.938  1.0792  0.0579  0.4879
  826MPD2    C112147   3.142   1.340  13.816  0.8470  0.0548 -0.3450
  826MPD2    C212148   3.022   1.410  13.808  0.0110 -0.5070  0.8396
  826MPD2    C312149   2.949   1.434  13.923 -0.0383  0.3396  0.9172
  826MPD2    C412150   3.004   1.404  14.045 -0.6224 -0.0952  0.3035
  826MPD2    C512151   3.117   1.328  14.048  0.7074  0.1054 -0.7721
  826MPD2     H12152   2.989   1.432  13.707 -1.5873  0.4637  1.5615
  826MPD2    H112153   2.962   1.428  14.142 -0.8963  1.8492 -0.2964
  826MPD2    H212154   3.272   1.229  13.955  1.0744 -0.2655 -0.7309
  826MPD2    H312155   3.151   1.293  14.145 -0.3518 -0.2959 -0.5360
  826MPD2     N12156   2.817   1.485  13.931  0.4287 -0.4178 -0.1976
  826MPD2    H512157   2.778   1.508  14.023 -0.5724 -2.1402 -0.1895
  826MPD2    N112158   3.223   1.323  13.702 -0.4424  0.6794 -0.2139
  826MPD2    H712159   3.179   1.336  13.611  0.2358  1.2920 -0.4572
  827MPD2     C12160   3.763   2.005   9.952  0.4955 -0.2868  0.2735
  827MPD2    C112161   3.821   1.899  10.000  0.1570  0.1905 -0.2610
  827MPD2    C212162   3.788   1.769   9.951  0.5376 -0.1666  0.5709
  827MPD2    C312163   3.699   1.760   9.835 -0.8599  0.0911  0.1572
  827MPD2    C412164   3.650   1.880   9.790  0.0093 -0.2432 -0.4041
  827MPD2    C512165   3.678   1.998   9.851  0.2063  0.7568  0.2993
  827MPD2     H12166   3.834   1.674   9.977 -0.6089 -0.8175  0.2023
  827MPD2    H112167   3.586   1.884   9.703 -0.5644 -0.1249  0.0223
  827MPD2    H212168   3.800   2.101   9.988 -0.0908 -0.2846  0.8889
  827MPD2    H312169   3.643   2.086   9.798  1.5503 -0.7178 -3.0451
  827MPD2     N12170   3.673   1.633   9.774  0.9649  0.8803 -0.1397
  827MPD2    H512171   3.702   1.550   9.825 -0.0476  0.4818 -0.2017
  827MPD2    N112172   3.923   1.914  10.104 -0.3477 -0.1823  0.0781
  827MPD2    H712173   3.937   2.007  10.142  3.7171 -1.4149  1.6186
  828MPD2     C12174   2.546   2.339  12.444 -0.1390 -0.2904 -0.1185
  828MPD2    C112175   2.466   2.306  12.342 -0.4067 -0.5407  0.0943
  828MPD2    C212176   2.520   2.315  12.215 -0.1280 -0.0181 -1.4187
  828MPD2    C312177   2.646   2.348  12.185  0.4228 -0.3414  0.1748
  828MPD2    C412178   2.727   2.379  12.299  1.4758  0.3968 -0.1896
  828MPD2    C512179   2.675   2.366  12.422  0.0887 -0.2402  0.2923
  828MPD2     H12180   2.451   2.288  12.135 -0.1906 -2.3414 -0.5660
  828MPD2    H112181   2.834   2.398  12.295  1.2409  2.0017  1.3775
  828MPD2    H212182   2.524   2.332  12.550 -1.5761 -1.6151 -0.5156
  828MPD2    H312183   2.742   2.383  12.506 -1.9946  0.0872  1.9013
  828MPD2     N12184   2.704   2.331  12.053  0.5118 -0.4647 -0.6920
  828MPD2    H512185   2.802   2.350  12.039  0.4478 -0.9747 -1.8740
  828MPD2    N112186   2.332   2.260  12.364 -0.4600  0.2691 -0.8018
  828MPD2    H712187   2.273   2.240  12.284  0.5013 -0.8640 -1.2233
  829MPD2     C12188   1.755   2.149  11.783 -0.5586  0.3843  0.2552
  829MPD2    C112189   1.684   2.107  11.887 -0.2340 -0.0550  0.8152
  829MPD2    C212190   1.758   2.078  12.002  0.3042 -0.3789  0.0929
  829MPD2    C312191   1.891   2.080  12.013  0.8488  0.4281 -0.4771
  829MPD2    C412192   1.959   2.126  11.903  0.6032  0.3112 -0.0758
  829MPD2    C512193   1.893   2.153  11.788 -0.6151  0.8319  0.1654
  829MPD2     H12194   1.702   2.029  12.082 -1.0892 -0.2041 -0.7826
  829MPD2    H112195   2.067   2.119  11.909  0.6871 -1.2799 -3.1533
  829MPD2    H212196   1.697   2.155  11.692  1.3060  0.1788 -0.9386
  829MPD2    H312197   1.949   2.176  11.698  1.8462 -3.3090  0.6401
  829MPD2     N12198   1.957   2.046  12.134 -0.1715  0.0620  0.5984
  829MPD2    H512199   2.059   2.046  12.130 -0.2725  1.1277 -1.8212
  829MPD2    N112200   1.542   2.125  11.883 -0.1307  0.1652  0.2080
  829MPD2    H712201   1.498   2.165  11.801  2.4800  2.2015 -0.1806
  830MPD2     C12202   2.051   4.412  15.718 -0.1498 -0.3084 -0.0361
  830MPD2    C112203   1.955   4.514  15.702  0.1108  0.3821 -0.4964
  830MPD2    C212204   1.936   4.564  15.571  0.5110 -0.0332 -0.3824
  830MPD2    C312205   2.020   4.525  15.472  0.1050 -0.0002 -0.7544
  830MPD2    C412206   2.108   4.420  15.486  0.2318 -0.1277  0.6072
  830MPD2    C512207   2.117   4.362  15.608 -0.2035 -0.2137 -0.7062
  830MPD2     H12208   1.867   4.646  15.555  0.3202 -0.4527 -1.6807
  830MPD2    H112209   2.165   4.389  15.400 -0.1291 -1.0365  0.7014
  830MPD2    H212210   2.079   4.375  15.815  0.7356  1.1610  0.2597
  830MPD2    H312211   2.186   4.279  15.618 -0.7102 -0.5631 -0.1117
  830MPD2     N12212   2.029   4.588  15.343  0.2539  0.3365 -0.2851
  830MPD2    H512213   2.107   4.557  15.285 -1.1625  1.3474 -2.7412
  830MPD2    N112214   1.901   4.580  15.816 -0.2161 -0.7586  0.1225
  830MPD2    H712215   1.921   4.551  15.911  1.6779 -0.0813 -0.0641
  831MPD2     C12216   2.286   2.149  16.480 -0.1544 -0.9254  0.5160
  831MPD2    C112217   2.326   2.055  16.389  0.2942 -0.2276  0.0284
  831MPD2    C212218   2.305   1.928  16.410 -0.4586  0.5828 -0.0911
  831MPD2    C312219   2.250   1.875  16.521 -0.0886  0.2048  0.0616
  831MPD2    C412220   2.222   1.965  16.622 -0.8807 -0.2777 -0.1123
  831MPD2    C512221   2.233   2.102  16.597  0.0546  0.6002 -0.1591
  831MPD2     H12222   2.333   1.859  16.331 -0.1372  0.5557  0.0468
  831MPD2    H112223   2.179   1.928  16.714 -3.1647  0.2149 -0.9895
  831MPD2    H212224   2.301   2.255  16.464  1.9928 -1.1350  1.1118
  831MPD2    H312225   2.189   2.167  16.672  2.0186  1.6538  0.0760
  831MPD2     N12226   2.212   1.736  16.537 -0.5936 -0.3490  0.4333
  831MPD2    H512227   2.163   1.715  16.623 -1.2421  1.7431  0.5882
  831MPD2    N112228   2.387   2.084  16.265  0.0203 -0.2021 -0.1115
  831MPD2    H712229   2.400   2.007  16.200 -1.7770 -0.7463  0.1762
  832MPD2     C12230   0.386   2.998  17.177 -0.1079 -0.8937 -0.1507
  832MPD2    C112231   0.357   3.133  17.155  1.1722 -0.1076 -1.3018
  832MPD2    C212232   0.242   3.162  17.090  0.0218  0.1151  0.0024
  832MPD2    C312233   0.161   3.067  17.022 -0.1200 -0.2897  0.5922
  832MPD2    C412234   0.208   2.941  17.023 -0.4241  0.9838  0.5105
  832MPD2    C512235   0.318   2.905  17.100 -0.1845 -0.7613  0.5127
  832MPD2     H12236   0.201   3.262  17.104 -0.3279  0.1071 -1.0095
  832MPD2    H112237   0.168   2.856  16.967  1.5228  1.4112 -1.5373
  832MPD2    H212238   0.466   2.968  17.244 -0.5751 -0.4373  0.6175
  832MPD2    H312239   0.345   2.801  17.084 -0.4184 -0.7191 -0.1557
  832MPD2     N12240   0.037   3.097  16.967  0.3100  0.2561  0.1526
  832MPD2    H512241   4.713   3.013  16.938 -0.4997  0.9565 -0.4911
  832MPD2    N112242   0.457   3.214  17.209 -0.3772  0.4017 -0.8033
  832MPD2    H712243   0.528   3.163  17.260  1.3777  2.3496 -1.3324
  833MPD2     C12244   2.634   4.666  12.370  0.2075  0.8592  0.3625
  833MPD2    C112245   2.687   0.071  12.357 -0.1735  0.2526  0.1637
  833MPD2    C212246   2.814   0.084  12.317  0.1516  0.1888 -0.3011
  833MPD2    C312247   2.886   4.701  12.272  0.4127 -0.7376  0.2384
  833MPD2    C412248   2.830   4.577  12.285  0.3028 -0.2659  0.0646
  833MPD2    C512249   2.710   4.559  12.344 -0.5880  0.1979 -0.7930
  833MPD2     H12250   2.858   0.183  12.307 -0.6475  0.4127 -1.6255
  833MPD2    H112251   2.887   4.489  12.261  0.6511  0.5982 -2.3139
  833MPD2    H212252   2.530   4.649  12.398  0.0773 -0.8391 -1.1367
  833MPD2    H312253   2.672   4.458  12.340  0.4633 -0.1498 -2.1161
  833MPD2     N12254   3.014   0.016  12.213 -0.8347 -0.1388 -0.0692
  833MPD2    H512255   3.038   0.114  12.202  1.6638 -0.5365  1.7802
  833MPD2    N112256   2.610   0.184  12.391 -0.3056 -0.1907 -0.0917
  833MPD2    H712257   2.510   0.165  12.395 -0.0908 -1.6870 -1.7683
  834MPD2     C12258   3.314   4.394  11.312 -0.1892 -0.3905  0.0795
  834MPD2    C112259   3.279   4.320  11.422 -0.3446 -0.2629 -0.4057
  834MPD2    C212260   3.252   4.384  11.545 -0.1652  0.0253  0.4597
  834MPD2    C312261   3.264   4.522  11.558  0.1414  0.3489  0.1079
  834MPD2    C412262   3.311   4.593  11.445 -0.5112 -0.1989 -0.1916
  834MPD2    C512263   3.330   4.526  11.329  0.0801 -0.8865  0.0921
  834MPD2     H12264   3.224   4.325  11.632  0.2107 -2.0782 -0.8741
  834MPD2    H112265   3.326   4.701  11.441 -0.1305 -0.2325  0.3279
  834MPD2    H212266   3.326   4.345  11.217  0.7312  0.3966 -0.2148
  834MPD2    H312267   3.349   4.589  11.243  1.8353 -1.9244 -0.2878
  834MPD2     N12268   3.229   4.581  11.683  0.2864  0.6371 -0.7891
  834MPD2    H512269   3.186   4.543  11.767  1.4326  0.7345 -0.1567
  834MPD2    N112270   3.278   4.180  11.397  0.0005  0.1830 -0.7629
  834MPD2    H712271   3.292   4.146  11.302  1.0208 -0.9764 -0.2020
  835MPD2     C12272   3.551   1.886  11.477 -0.1812 -0.3447 -0.0102
  835MPD2    C112273   3.530   2.022  11.464 -1.1881  0.2488  0.4135
  835MPD2    C212274   3.526   2.101  11.579  0.3506  0.0140  0.4002
  835MPD2    C312275   3.542   2.047  11.705  0.5501 -0.1731  0.2764
  835MPD2    C412276   3.577   1.913  11.714 -0.3457  0.6840 -0.7541
  835MPD2    C512277   3.577   1.833  11.601  0.3474  0.3767 -0.4469
  835MPD2     H12278   3.503   2.207  11.571 -0.3857 -0.1468  0.3021
  835MPD2    H112279   3.593   1.867  11.811 -0.0935 -0.6378 -1.4231
  835MPD2    H212280   3.558   1.819  11.393  0.7226 -0.9587  0.5526
  835MPD2    H312281   3.608   1.731  11.617 -0.0595  0.3092 -0.0853
  835MPD2     N12282   3.503   2.109  11.824 -0.5017  0.2297 -0.4329
  835MPD2    H512283   3.511   2.048  11.906 -0.1840  0.0590 -0.5900
  835MPD2    N112284   3.499   2.092  11.345 -0.3861  0.4665  0.1903
  835MPD2    H712285   3.461   2.185  11.356 -1.2653 -0.0938  1.8900
  836MPD2     C12286   2.980   2.545  11.689  0.3461  0.9376 -0.3184
  836MPD2    C112287   2.968   2.546  11.826 -0.0653  0.0329  0.4904
  836MPD2    C212288   2.850   2.589  11.889  0.1215  0.8716  0.1434
  836MPD2    C312289   2.745   2.622  11.806 -0.8544 -0.3935  0.0854
  836MPD2    C412290   2.752   2.612  11.669 -0.1911 -0.0963  0.4050
  836MPD2    C512291   2.873   2.579  11.614  0.0067 -0.2780  0.1295
  836MPD2     H12292   2.834   2.588  11.996  0.9432 -0.8853  0.2515
  836MPD2    H112293   2.668   2.626  11.602  0.5386  2.8356  0.0727
  836MPD2    H212294   3.070   2.504  11.646 -0.2808  0.2519 -0.9799
  836MPD2    H312295   2.886   2.568  11.507 -0.8630  1.6930 -0.1709
  836MPD2     N12296   2.615   2.657  11.861  0.0570 -0.2395 -0.2322
  836MPD2    H512297   2.531   2.663  11.804  1.4649  1.4115 -2.1748
  836MPD2    N112298   3.082   2.498  11.891 -0.1254 -0.4674 -1.1090
  836MPD2    H712299   3.157   2.459  11.835 -0.0178  0.2668 -1.4787
  837MPD2     C12300   1.556   2.227   9.666 -0.3258  0.2957 -0.5629
  837MPD2    C112301   1.472   2.230   9.773  1.3558  0.4466 -0.0364
  837MPD2    C212302   1.465   2.346   9.842 -1.0844 -0.0885 -0.0900
  837MPD2    C312303   1.532   2.460   9.809  0.1728 -0.4894 -0.1075
  837MPD2    C412304   1.619   2.460   9.703  0.2588 -0.7355 -0.9408
  837MPD2    C512305   1.630   2.339   9.631 -0.0952 -0.2941 -0.2951
  837MPD2     H12306   1.404   2.341   9.932  1.3879  2.2669  1.7474
  837MPD2    H112307   1.667   2.551   9.670 -0.9860  0.5658  0.7773
  837MPD2    H212308   1.567   2.134   9.612  2.7545 -0.0049  0.5529
  837MPD2    H312309   1.700   2.338   9.548 -1.9999 -1.3002 -1.8846
  837MPD2     N12310   1.501   2.573   9.892 -0.3121  0.1387 -0.4199
  837MPD2    H512311   1.454   2.564   9.982  3.2736  0.1427  1.4352
  837MPD2    N112312   1.393   2.123   9.818  0.2737  0.1643 -0.1519
  837MPD2    H712313   1.336   2.138   9.901 -0.9905  0.3592 -1.0431
  838MPD2     C12314   4.613   0.498  11.278 -0.8033 -0.9664  0.5125
  838MPD2    C112315   4.620   0.364  11.291 -0.6308  0.4729  0.4520
  838MPD2    C212316   4.511   0.309  11.358 -0.4653 -0.0726  0.2747
  838MPD2    C312317   4.410   0.380  11.415 -0.1072  0.3392 -0.1497
  838MPD2    C412318   4.419   0.518  11.409 -0.4165  0.5565  0.0047
  838MPD2    C512319   4.517   0.577  11.341 -0.2844  0.0818  0.1528
  838MPD2     H12320   4.514   0.201  11.370  0.8614 -0.1544 -0.7443
  838MPD2    H112321   4.332   0.573  11.444 -0.4187  1.3303 -1.2379
  838MPD2    H212322   4.690   0.553  11.225 -0.0556 -0.4168  2.1716
  838MPD2    H312323   4.512   0.685  11.331  0.5490  0.0178 -0.8910
  838MPD2     N12324   4.294   0.313  11.459 -0.2145  0.1800  0.4381
  838MPD2    H512325   4.283   0.221  11.419 -2.1120  0.8541 -0.6418
  838MPD2    N112326   4.722   0.280  11.248  0.6208  0.6085 -0.0547
  838MPD2    H712327   4.717   0.182  11.273  1.7810  0.5463 -0.0897
  839MPD2     C12328   4.381   4.640  11.623 -0.0995 -0.0931 -0.4745
  839MPD2    C112329   4.402   4.571  11.505  0.6049  0.1425  0.0060
  839MPD2    C212330   4.522   4.588  11.437 -0.3477  0.4387 -0.1802
  839MPD2    C312331   4.617   4.679  11.490  0.5314 -0.3444  0.4598
  839MPD2    C412332   4.597   0.021  11.605 -0.3518  0.2074  0.2103
  839MPD2    C512333   4.480   4.721  11.673  0.7750  0.2469  0.1725
  839MPD2     H12334   4.538   4.540  11.341 -0.2744 -0.9563  0.5307
  839MPD2    H112335   4.667   0.088  11.653  0.4823  0.1108 -0.8473
  839MPD2    H212336   4.293   4.631  11.686 -0.7307  0.5686 -1.2552
  839MPD2    H312337   4.476   0.043  11.770 -0.3079  3.3136 -1.3751
  839MPD2     N12338   0.013   4.707  11.410 -0.3930  0.0267 -0.1440
  839MPD2    H512339   0.068   0.062  11.437 -0.0786  0.5323 -2.2657
  839MPD2    N112340   4.316   4.479  11.448  0.6918  0.3005 -0.0588
  839MPD2    H712341   4.359   4.406  11.392  0.1190 -0.8160  0.9524
  840MPD2     C12342   4.404   2.319  10.088 -1.1506  0.1913 -0.3270
  840MPD2    C112343   4.409   2.283  10.225  0.0232  0.0661  0.5703
  840MPD2    C212344   4.489   2.354  10.320 -0.5922  0.7452 -0.6699
  840MPD2    C312345   4.563   2.460  10.274 -0.9601 -0.7862  0.3491
  840MPD2    C412346   4.554   2.502  10.143  0.4502 -0.1355  0.3876
  840MPD2    C512347   4.484   2.421  10.053 -0.0926 -1.3945  0.1708
  840MPD2     H12348   4.504   2.324  10.424 -1.2250  1.3962 -0.3921
  840MPD2    H112349   4.615   2.584  10.108 -0.0868 -0.6524 -1.7374
  840MPD2    H212350   4.352   2.271  10.006 -1.1184 -1.2193  0.4764
  840MPD2    H312351   4.479   2.461   9.953  0.3695 -1.8022 -0.0153
  840MPD2     N12352   4.645   2.538  10.359  0.1616  0.0125 -0.0831
  840MPD2    H512353   4.687   2.621  10.319  0.5640  0.1375  0.6039
  840MPD2    N112354   4.322   2.172  10.254 -0.1582  0.1481 -0.5446
  840MPD2    H712355   4.267   2.134  10.178 -2.5269 -0.6755  1.5865
  841MPD2     C12356   3.913   2.540  14.648  0.2455  0.0373  0.4295
  841MPD2    C112357   3.944   2.548  14.512  0.0831  0.0310  0.0505
  841MPD2    C212358   3.963   2.672  14.458  0.1491  0.4980 -0.1619
  841MPD2    C312359   3.925   2.789  14.521 -0.5264  0.6748  0.2454
  841MPD2    C412360   3.873   2.777  14.650 -0.8092 -1.0213  0.2012
  841MPD2    C512361   3.860   2.652  14.711 -0.8201  0.1583 -0.5807
  841MPD2     H12362   3.998   2.684  14.356  2.1994  2.6521  0.7973
  841MPD2    H112363   3.838   2.858  14.712 -0.5067  0.8153 -2.0403
  841MPD2    H212364   3.909   2.447  14.703  1.1637  0.9471  2.0509
  841MPD2    H312365   3.827   2.642  14.814 -2.0396 -0.5798 -1.0462
  841MPD2     N12366   3.932   2.910  14.454 -0.2910 -0.6425  0.0149
  841MPD2    H512367   3.940   2.911  14.353 -0.2636 -2.8337 -0.0114
  841MPD2    N112368   3.980   2.434  14.434 -0.3934  0.1400  0.5868
  841MPD2    H712369   4.010   2.442  14.338 -0.4719  0.8537  0.6248
  842MPD2     C12370   3.700   3.014  16.576  0.2653  0.7272  0.9658
  842MPD2    C112371   3.783   3.125  16.568  0.3865  0.7957 -0.2690
  842MPD2    C212372   3.859   3.156  16.682  0.1523  0.6249  0.9356
  842MPD2    C312373   3.858   3.078  16.792  0.9179 -0.3088 -0.3436
  842MPD2    C412374   3.775   2.973  16.794 -0.3152  0.5181  0.3719
  842MPD2    C512375   3.695   2.936  16.686  0.7914  0.2273 -0.2493
  842MPD2     H12376   3.932   3.236  16.674  1.1174 -0.4051 -0.6052
  842MPD2    H112377   3.758   2.916  16.885  0.7521  1.0541  0.9089
  842MPD2    H212378   3.638   2.989  16.491  0.2318 -2.3446  1.8770
  842MPD2    H312379   3.622   2.858  16.704 -1.5897  2.0919 -1.7445
  842MPD2     N12380   3.935   3.098  16.913  0.0727 -0.0777 -0.2035
  842MPD2    H512381   3.922   3.024  16.982 -3.2841  2.5031  1.9518
  842MPD2    N112382   3.785   3.204  16.442  0.1344  0.5474  0.0129
  842MPD2    H712383   3.716   3.184  16.370 -1.3922 -0.0863  1.6599
  843MPD2     C12384   1.670   3.137   0.193 -0.3649  0.2036  0.9515
  843MPD2    C112385   1.760   3.172   0.297 -0.4908 -0.1663  0.2516
  843MPD2    C212386   1.867   3.251   0.271  0.5178 -0.0856 -0.0809
  843MPD2    C312387   1.885   3.316   0.152  0.3787 -0.4029  0.1238
  843MPD2    C412388   1.790   3.295   0.050  0.0196  0.3797 -0.2519
  843MPD2    C512389   1.685   3.205   0.073  0.6072 -0.0909 -0.1606
  843MPD2     H12390   1.934   3.267   0.354 -0.3428 -0.3927  0.6763
  843MPD2    H112391   1.805   3.337  17.653 -1.0407 -1.1715 -1.0589
  843MPD2    H212392   1.585   3.071   0.204 -0.9776  0.7960 -0.2225
  843MPD2    H312393   1.611   3.188  17.698 -1.5326  1.9563  1.4351
  843MPD2     N12394   1.990   3.411   0.125 -0.3991 -0.0267  0.5925
  843MPD2    H512395   1.990   3.444   0.029 -1.3723 -2.8191 -0.3842
  843MPD2    N112396   1.731   3.103   0.421  0.6001  0.0246  0.2301
  843MPD2    H712397   1.646   3.050   0.431  0.9916 -0.7990 -0.8734
  844MPD2     C12398   4.694   2.884  16.413 -0.0387  0.1848 -0.0462
  844MPD2    C112399   0.099   2.836  16.420  0.0671 -0.4031 -0.5830
  844MPD2    C212400   0.184   2.893  16.513 -0.7759 -0.3649  1.2971
  844MPD2    C312401   0.144   3.004  16.581  0.3616 -0.0014  0.0671
  844MPD2    C412402   0.014   3.050  16.582 -0.1791 -0.0570  0.5958
  844MPD2    C512403   4.652   2.989  16.489  0.6575 -0.7930 -0.0564
  844MPD2     H12404   0.282   2.848  16.526 -1.3472 -2.7246 -2.4490
  844MPD2    H112405   4.701   3.133  16.641 -0.9201 -0.4542  0.6815
  844MPD2    H212406   4.611   2.855  16.349  0.9545 -0.0722 -1.2101
  844MPD2    H312407   4.549   3.021  16.484  1.0030  0.8412  3.1016
  844MPD2     N12408   0.251   3.067  16.658  0.0363 -0.8925 -0.2373
  844MPD2    H512409   0.332   3.007  16.668 -0.3768 -1.2969  0.7066
  844MPD2    N112410   0.137   2.716  16.358  0.5839  0.0644  0.6702
  844MPD2    H712411   0.214   2.671  16.405  0.8058  1.5819  1.7618
  845MPD2     C12412   0.501   4.020  16.960 -0.6239  0.1793  0.2054
  845MPD2    C112413   0.386   3.954  16.992 -0.4262  0.7183  0.6902
  845MPD2    C212414   0.378   3.819  16.948  0.6187  0.1579 -0.3703
  845MPD2    C312415   0.483   3.756  16.890  0.5268 -0.1745  0.0749
  845MPD2    C412416   0.606   3.824  16.884 -0.0896 -0.5514  0.0164
  845MPD2    C512417   0.609   3.955  16.912  0.1867 -0.1970 -0.5433
  845MPD2     H12418   0.286   3.766  16.970  0.1842  1.4624  0.9886
  845MPD2    H112419   0.695   3.780  16.839 -0.5919 -1.4190 -0.1359
  845MPD2    H212420   0.514   4.124  16.990 -0.3180  0.4158 -0.7444
  845MPD2    H312421   0.703   4.008  16.902  0.6753 -0.7960  0.8962
  845MPD2     N12422   0.458   3.623  16.849  0.3920 -0.5571  0.4542
  845MPD2    H512423   0.365   3.587  16.868  0.5040 -0.3339  1.4054
  845MPD2    N112424   0.285   4.018  17.069  0.5279  0.1016  0.0401
  845MPD2    H712425   0.313   4.113  17.094  1.2272  0.1615 -0.9702
  846MPD2     C12426   2.267   4.181  13.660 -1.0088  0.4590  0.1573
  846MPD2    C112427   2.142   4.251  13.651  0.1959  0.0709  0.2081
  846MPD2    C212428   2.060   4.245  13.757 -0.2650  0.4144  0.2924
  846MPD2    C312429   2.106   4.179  13.874 -0.1378 -0.1941 -0.2157
  846MPD2    C412430   2.227   4.111  13.877 -0.4702  0.0216 -0.5424
  846MPD2    C512431   2.305   4.112  13.768 -0.2721  0.8162 -0.8212
  846MPD2     H12432   1.965   4.295  13.773 -1.5288 -2.3213  1.3814
  846MPD2    H112433   2.262   4.054  13.962  0.1679 -3.2559 -3.0216
  846MPD2    H212434   2.334   4.176  13.575 -2.6175 -2.9362 -0.9374
  846MPD2    H312435   2.394   4.052  13.765 -0.9510 -0.2359  0.1211
  846MPD2     N12436   2.025   4.197  13.991 -0.3542  0.2570 -0.5234
  846MPD2    H512437   1.934   4.240  13.975 -0.4111  1.0890  2.0211
  846MPD2    N112438   2.107   4.345  13.549  0.1774 -0.7247  0.2683
  846MPD2    H712439   2.014   4.384  13.559 -0.0046 -0.7182 -1.5715
  847MPD2     C12440   1.962   0.347  13.902 -0.3185  0.6651  0.0163
  847MPD2    C112441   2.077   0.295  13.947  0.8819 -0.0621  0.5439
  847MPD2    C212442   2.068   0.188  14.040  0.1773 -0.7139 -0.6097
  847MPD2    C312443   1.955   0.129  14.079 -0.5260  0.0054  0.5351
  847MPD2    C412444   1.836   0.186  14.030  0.4068  0.1649 -0.2608
  847MPD2    C512445   1.842   0.297  13.944  0.0983  0.2929 -0.0429
  847MPD2     H12446   2.164   0.158  14.079  1.1123  0.3045 -2.1331
  847MPD2    H112447   1.736   0.148  14.046  1.1316 -2.3745 -1.7206
  847MPD2    H212448   1.943   0.433  13.838 -0.7926  1.5582  1.3733
  847MPD2    H312449   1.749   0.341  13.909 -0.0297 -0.0228 -0.1006
  847MPD2     N12450   1.956   0.017  14.168 -0.5261 -0.0848  0.5511
  847MPD2    H512451   2.048   4.707  14.194 -0.5609 -0.4186  0.2266
  847MPD2    N112452   2.206   0.339  13.907 -0.3735 -0.8561 -0.3650
  847MPD2    H712453   2.282   0.286  13.949 -0.1402 -0.2642 -0.0401
  848MPD2     C12454   4.406   3.330  16.295 -0.3587 -0.1886  0.5910
  848MPD2    C112455   4.462   3.411  16.389  0.0467 -0.2695  0.2253
  848MPD2    C212456   4.521   3.532  16.356  0.3121  0.1800  0.7192
  848MPD2    C312457   4.526   3.574  16.223 -0.2878 -0.6288 -0.3937
  848MPD2    C412458   4.460   3.494  16.132 -0.1405 -0.0167 -0.5205
  848MPD2    C512459   4.406   3.378  16.166 -0.1200  0.0095 -1.0655
  848MPD2     H12460   4.585   3.587  16.424 -2.2535  4.0687 -0.0422
  848MPD2    H112461   4.451   3.514  16.025 -0.9102  1.5921 -0.1544
  848MPD2    H212462   4.358   3.236  16.318 -0.4165 -0.6089 -1.2176
  848MPD2    H312463   4.355   3.331  16.083 -1.8370 -0.4698  0.2539
  848MPD2     N12464   4.589   3.690  16.181 -0.0507 -0.4167 -0.5830
  848MPD2    H512465   4.560   3.716  16.087 -1.0014 -0.9988 -0.4538
  848MPD2    N112466   4.472   3.369  16.530  0.3700 -0.2409  0.1992
  848MPD2    H712467   4.529   3.429  16.588  1.4890 -1.2688  0.1544
  849MPD2     C12468   4.704   3.583  13.309 -0.4872 -0.0794  0.6105
  849MPD2    C112469   0.030   3.472  13.363  0.1218  0.0393  0.0371
  849MPD2    C212470   4.667   3.386  13.426 -0.3174  0.2222  0.6653
  849MPD2    C312471   4.533   3.420  13.447  0.9025 -0.3342 -0.3259
  849MPD2    C412472   4.485   3.542  13.386  0.1093 -0.7885  0.2226
  849MPD2    C512473   4.575   3.621  13.322  0.4836  0.9841  0.7236
  849MPD2     H12474   4.699   3.297  13.479  1.7008  0.2701 -0.4706
  849MPD2    H112475   4.386   3.581  13.408  0.8175  0.9743  0.3002
  849MPD2    H212476   0.048   3.660  13.277 -1.1531 -0.7264 -2.3462
  849MPD2    H312477   4.532   3.715  13.291 -1.0033  0.4381  1.0939
  849MPD2     N12478   4.439   3.340  13.516 -0.1786 -0.6022  0.4152
  849MPD2    H512479   4.354   3.387  13.546  1.6616  2.2136  1.1389
  849MPD2    N112480   0.169   3.442  13.370  0.1114 -0.5298 -0.4477
  849MPD2    H712481   0.198   3.357  13.419 -3.4002 -1.3024  0.2651
  850MPD2     C12482   2.018   1.348  15.032  0.5816  0.3895 -0.3473
  850MPD2    C112483   2.058   1.311  15.162  0.1134  0.0126  0.4102
  850MPD2    C212484   2.185   1.348  15.206  0.0480 -0.3965  0.2838
  850MPD2    C312485   2.273   1.408  15.117  0.2438 -0.1229  0.5989
  850MPD2    C412486   2.229   1.452  14.996 -0.7448  0.4683  0.7618
  850MPD2    C512487   2.106   1.413  14.952 -0.0063  0.4442 -0.1394
  850MPD2     H12488   2.220   1.323  15.305 -0.6001 -0.2922  0.5381
  850MPD2    H112489   2.294   1.509  14.931 -1.2636  0.3912  0.1724
  850MPD2    H212490   1.925   1.313  14.988 -0.7497  2.1409  1.0627
  850MPD2    H312491   2.073   1.441  14.853 -1.5236 -0.6006  0.0681
  850MPD2     N12492   2.401   1.452  15.156  0.0691  0.0708 -0.1187
  850MPD2    H512493   2.448   1.522  15.100 -1.7312 -1.3947 -3.4730
  850MPD2    N112494   1.967   1.227  15.232  0.1501  0.1850  0.1746
  850MPD2    H712495   1.889   1.184  15.183  0.5779  1.0697 -1.2724
  851MPD2     C12496   2.402   0.713  15.399 -0.5335  0.3425 -0.1354
  851MPD2    C112497   2.267   0.677  15.398  0.0415  0.3789 -0.4415
  851MPD2    C212498   2.237   0.556  15.360 -0.1720  0.1846 -0.5159
  851MPD2    C312499   2.326   0.456  15.340  0.2779 -0.3975 -0.2611
  851MPD2    C412500   2.461   0.487  15.337  0.1679  0.0333 -0.0275
  851MPD2    C512501   2.493   0.611  15.375  0.9698  0.2502  0.0087
  851MPD2     H12502   2.130   0.535  15.363  0.1219 -1.1739  0.2150
  851MPD2    H112503   2.545   0.430  15.300 -0.9914 -1.6292 -0.1102
  851MPD2    H212504   2.450   0.806  15.423  0.2233  0.1262 -0.8114
  851MPD2    H312505   2.597   0.641  15.376  0.8900  0.6447 -2.1976
  851MPD2     N12506   2.268   0.331  15.306  0.0099 -0.7832 -0.6223
  851MPD2    H512507   2.167   0.321  15.306 -0.0536 -0.2219  0.4669
  851MPD2    N112508   2.181   0.776  15.446  0.2707  0.5765 -0.1890
  851MPD2    H712509   2.215   0.871  15.458 -0.0483  0.5656  0.7702
  852MPD2     C12510   2.171   2.714  10.565  0.3817  0.0088  0.4703
  852MPD2    C112511   2.196   2.815  10.646 -0.7269 -0.3406 -0.2053
  852MPD2    C212512   2.161   2.941  10.605  0.5603  0.5150  0.0039
  852MPD2    C312513   2.094   2.966  10.485  0.1764 -0.5871  0.2316
  852MPD2    C412514   2.074   2.862  10.395  0.1568  0.0351 -0.4375
  852MPD2    C512515   2.116   2.737  10.440 -1.0646  0.0448 -0.0563
  852MPD2     H12516   2.187   3.024  10.670  0.3227  0.6461 -0.0705
  852MPD2    H112517   2.030   2.872  10.297  0.9936 -0.1326 -0.8334
  852MPD2    H212518   2.200   2.612  10.587  0.7214  0.2450  1.1277
  852MPD2    H312519   2.089   2.652  10.379  0.1648  0.6147 -1.3907
  852MPD2     N12520   2.062   3.102  10.469  0.7250  0.2024  0.4275
  852MPD2    H512521   2.080   3.166  10.546 -1.0696 -2.0565  2.7178
  852MPD2    N112522   2.246   2.795  10.778  0.0916 -0.2872 -0.2413
  852MPD2    H712523   2.276   2.876  10.832  1.5784 -1.6684  0.9868
  853MPD2     C12524   4.319   3.417  12.314  0.2161 -0.4158 -0.6403
  853MPD2    C112525   4.198   3.487  12.314 -0.2170 -1.1587 -0.0322
  853MPD2    C212526   4.107   3.462  12.212  0.3559 -0.5317 -0.0396
  853MPD2    C312527   4.137   3.382  12.104  0.0872  0.4401  0.5026
  853MPD2    C412528   4.257   3.315  12.102 -0.2063  0.8025  0.7190
  853MPD2    C512529   4.346   3.335  12.204 -0.5441 -0.1181 -0.1079
  853MPD2     H12530   4.008   3.507  12.218  1.1289  1.7936 -4.1680
  853MPD2    H112531   4.284   3.251  12.019 -2.2387  1.0382 -0.1211
  853MPD2    H212532   4.392   3.425  12.393  0.9309 -1.1119 -1.2278
  853MPD2    H312533   4.438   3.282  12.220 -0.8085 -0.8256 -0.9055
  853MPD2     N12534   4.057   3.364  11.988 -0.0914 -0.4611 -0.7401
  853MPD2    H512535   4.098   3.319  11.906 -0.4874 -1.4942 -0.3781
  853MPD2    N112536   4.163   3.568  12.424  0.7636 -0.5652 -0.3328
  853MPD2    H712537   4.228   3.570  12.502  1.8826 -0.3517 -1.2839
  854MPD2     C12538   0.736   3.927  13.013  0.0668  0.4256  0.0483
  854MPD2    C112539   0.778   3.906  12.885  0.1342 -0.0585  0.2163
  854MPD2    C212540   0.875   3.814  12.856  0.2743 -0.2606  0.0169
  854MPD2    C312541   0.923   3.735  12.959  0.3843  0.1228 -0.4236
  854MPD2    C412542   0.887   3.768  13.086  0.3320 -0.3315  0.6820
  854MPD2    C512543   0.788   3.862  13.118  0.2665  0.6090 -0.4429
  854MPD2     H12544   0.919   3.801  12.758 -4.1810 -1.0486 -1.8713
  854MPD2    H112545   0.925   3.705  13.166  2.3695  1.1475  0.8894
  854MPD2    H212546   0.659   4.001  13.029 -0.5509  0.2070 -1.9222
  854MPD2    H312547   0.753   3.871  13.220 -0.5117  2.4779 -0.8616
  854MPD2     N12548   1.021   3.634  12.931  0.0852  0.5745 -0.1369
  854MPD2    H512549   1.084   3.603  13.004  1.9126 -0.5196 -2.2274
  854MPD2    N112550   0.717   3.988  12.783 -0.0048 -0.1899  0.3788
  854MPD2    H712551   0.648   4.057  12.811 -0.4249  0.6304 -2.6700
  855MPD2     C12552   1.705   3.396  13.362 -0.8413  0.9481 -0.1429
  855MPD2    C112553   1.575   3.412  13.399 -0.2508  0.2083  0.9428
  855MPD2    C212554   1.477   3.414  13.296 -0.0055 -0.5909  0.1723
  855MPD2    C312555   1.514   3.390  13.164 -0.0918  0.0229 -0.4239
  855MPD2    C412556   1.642   3.361  13.136  1.1822 -0.0247  0.8908
  855MPD2    C512557   1.738   3.368  13.235  0.0289 -0.6710  0.2918
  855MPD2     H12558   1.372   3.437  13.309  0.3487  0.2822  1.5151
  855MPD2    H112559   1.676   3.350  13.034 -1.8518 -1.2813 -0.0041
  855MPD2    H212560   1.789   3.395  13.430  0.3159  0.6842 -1.5664
  855MPD2    H312561   1.844   3.356  13.214 -0.3180 -4.1501  0.6063
  855MPD2     N12562   1.410   3.376  13.066  0.3023  0.3186  0.3428
  855MPD2    H512563   1.319   3.406  13.101  0.7548  0.5866  1.2822
  855MPD2    N112564   1.536   3.417  13.538 -0.2716  0.3720  0.2537
  855MPD2    H712565   1.441   3.441  13.566 -0.6647  0.5255 -1.1748
  856MPD2     C12566   3.272   4.655  13.925  0.0732  0.1858  0.1095
  856MPD2    C112567   3.333   0.053  13.929  0.0209  0.3148  0.2810
  856MPD2    C212568   3.266   0.156  13.867  0.1458 -0.2749 -1.1190
  856MPD2    C312569   3.132   0.150  13.832  0.9426 -0.2933 -0.1940
  856MPD2    C412570   3.074   0.023  13.839 -0.6177 -0.3071 -0.4014
  856MPD2    C512571   3.143   4.641  13.884  0.0261 -0.2153 -0.3584
  856MPD2     H12572   3.326   0.246  13.861 -2.1649  1.2057 -1.8938
  856MPD2    H112573   2.966   0.018  13.827 -0.8958  0.9523  1.5324
  856MPD2    H212574   3.318   4.564  13.962  0.3724 -1.5464 -4.4317
  856MPD2    H312575   3.090   4.546  13.882 -0.9334  0.2874  0.8524
  856MPD2     N12576   3.056   0.267  13.800  0.1809  0.1004 -0.5189
  856MPD2    H512577   2.957   0.255  13.783 -0.0004  2.2657 -0.9293
  856MPD2    N112578   3.469   0.068  13.967  0.3103 -0.0473  0.0113
  856MPD2    H712579   3.515   0.158  13.952  0.4078 -0.5059 -2.5599
  857MPD2     C12580   4.690   1.586  13.034  0.0062  0.1051  0.1531
  857MPD2    C112581   0.067   1.566  12.941  0.1353  0.2262 -0.6245
  857MPD2    C212582   0.163   1.671  12.936 -0.5008 -0.2745 -0.6489
  857MPD2    C312583   0.166   1.784  13.016  0.2508 -0.6422  0.0247
  857MPD2    C412584   0.060   1.793  13.107 -0.4364  0.2907  0.4655
  857MPD2    C512585   4.688   1.697  13.114 -0.6584  0.6053  0.4711
  857MPD2     H12586   0.249   1.665  12.871  0.0191  1.6876 -0.1458
  857MPD2    H112587   0.040   1.886  13.158 -2.1850 -0.2894  0.8283
  857MPD2    H212588   4.617   1.508  13.054 -0.3292  0.8651  1.9522
  857MPD2    H312589   4.609   1.704  13.189 -0.2631  1.1397  0.8413
  857MPD2     N12590   0.265   1.885  13.007 -0.0121 -0.3725  0.5617
  857MPD2    H512591   0.336   1.869  12.936 -0.1295 -0.5398  0.4832
  857MPD2    N112592   0.077   1.443  12.867  0.9643 -0.1284 -0.0572
  857MPD2    H712593   0.008   1.374  12.896  1.4125  0.3827  2.2585
  858MPD2     C12594   0.194   0.835  16.744  0.1748 -0.0522 -0.3601
  858MPD2    C112595   0.324   0.832  16.730 -0.2908 -0.0217  0.4383
  858MPD2    C212596   0.407   0.871  16.835 -0.2829  0.2360 -0.1239
  858MPD2    C312597   0.346   0.902  16.957 -0.0305  0.6066  0.6140
  858MPD2    C412598   0.211   0.892  16.974 -0.2820 -0.8644 -0.3124
  858MPD2    C512599   0.132   0.864  16.863  0.3171  0.6694 -0.0765
  858MPD2     H12600   0.514   0.884  16.826 -0.5992  2.5635 -0.4007
  858MPD2    H112601   0.162   0.919  17.066 -0.0674 -0.7635 -0.2293
  858MPD2    H212602   0.131   0.794  16.665 -0.2948 -2.6228  1.3570
  858MPD2    H312603   0.025   0.864  16.878  0.4175 -0.6192  0.6365
  858MPD2     N12604   0.416   0.936  17.071 -0.4537 -0.0458  0.1678
  858MPD2    H512605   0.367   0.933  17.160 -0.9995 -0.7987 -0.1504
  858MPD2    N112606   0.365   0.788  16.606 -0.4640  0.8325  0.3115
  858MPD2    H712607   0.289   0.755  16.547 -1.4082  1.1905  1.3137
  859MPD2     C12608   3.917   2.885  15.149 -0.1869  0.0895  0.0439
  859MPD2    C112609   4.021   2.930  15.069  0.4102 -0.3052  0.4515
  859MPD2    C212610   4.099   2.828  15.012  0.0005  0.2724 -0.0165
  859MPD2    C312611   4.060   2.693  15.028 -0.5383  0.0901  0.3597
  859MPD2    C412612   3.946   2.661  15.097 -0.2445 -0.0359 -0.1643
  859MPD2    C512613   3.885   2.760  15.163  0.8010 -0.7282  0.2035
  859MPD2     H12614   4.186   2.851  14.951  0.9395 -3.7142 -0.1789
  859MPD2    H112615   3.911   2.560  15.113 -0.8377  0.2455  0.3126
  859MPD2    H212616   3.854   2.960  15.195  0.2445 -0.1217  0.9857
  859MPD2    H312617   3.793   2.741  15.216  0.3221  2.0913  0.3817
  859MPD2     N12618   4.132   2.578  14.975  0.5193  0.3290 -0.4369
  859MPD2    H512619   4.106   2.484  15.004 -2.3410  0.4362 -2.6392
  859MPD2    N112620   4.062   3.068  15.059  0.2186  0.1505  0.1237
  859MPD2    H712621   4.153   3.087  15.017  1.5236 -1.3267  2.2854
  860MPD2     C12622   2.156   3.756  11.617  0.2309 -0.3252 -0.7776
  860MPD2    C112623   2.245   3.738  11.717  0.3766  0.2214 -1.2405
  860MPD2    C212624   2.228   3.645  11.812  0.1908  0.0104  0.0129
  860MPD2    C312625   2.110   3.572  11.814  0.5015  0.4738 -0.1526
  860MPD2    C412626   2.013   3.593  11.717 -0.2461  0.1588 -0.8799
  860MPD2    C512627   2.036   3.688  11.620  0.1805 -0.4854 -0.7109
  860MPD2     H12628   2.297   3.614  11.890 -1.3210 -1.5561  0.7118
  860MPD2    H112629   1.917   3.546  11.734 -0.1765  0.5918  0.6849
  860MPD2    H212630   2.159   3.827  11.535  0.5347  0.4237 -0.1044
  860MPD2    H312631   1.962   3.696  11.541 -0.2610  0.1159 -0.2421
  860MPD2     N12632   2.089   3.468  11.912 -0.0576  0.5520 -0.0973
  860MPD2    H512633   2.156   3.455  11.987 -0.0085  3.9299  0.4412
  860MPD2    N112634   2.365   3.815  11.713  0.0844  0.4876 -0.1512
  860MPD2    H712635   2.439   3.790  11.778 -0.9869  1.6529  1.5250
  861MPD2     C12636   1.010   1.425  10.932 -0.2214  0.4325 -0.0212
  861MPD2    C112637   0.880   1.396  10.956 -0.1518 -0.0489  0.5976
  861MPD2    C212638   0.786   1.426  10.855  0.5239  0.3068 -0.0197
  861MPD2    C312639   0.830   1.493  10.745  0.1140  0.1551  0.4772
  861MPD2    C412640   0.965   1.533  10.728  0.1873 -0.0879 -0.0465
  861MPD2    C512641   1.051   1.490  10.818 -0.2424  0.4971 -0.5977
  861MPD2     H12642   0.683   1.395  10.856  0.0917  1.5715 -3.9126
  861MPD2    H112643   1.002   1.580  10.637 -2.5790  0.3686 -0.9330
  861MPD2    H212644   1.082   1.403  11.010 -0.0521  2.1397  0.3005
  861MPD2    H312645   1.156   1.512  10.804  0.0830 -1.5702 -1.4306
  861MPD2     N12646   0.742   1.539  10.648 -0.1802  0.3258  0.2340
  861MPD2    H512647   0.782   1.601  10.579 -2.5004  0.6170 -0.8430
  861MPD2    N112648   0.842   1.338  11.084 -0.0132 -0.4637 -0.3548
  861MPD2    H712649   0.907   1.329  11.161 -0.4757  0.9068  0.1929
  862MPD2     C12650   0.397   1.469   9.952 -0.2138 -0.5420  0.9141
  862MPD2    C112651   0.427   1.401  10.072 -0.4108  0.1715  0.1153
  862MPD2    C212652   0.400   1.272  10.090 -0.0280 -0.2320 -0.0165
  862MPD2    C312653   0.340   1.197   9.991  0.4998  0.3380 -0.1177
  862MPD2    C412654   0.307   1.262   9.873  0.6945 -0.5112  0.6584
  862MPD2    C512655   0.334   1.395   9.854  0.1485  0.2204 -0.3793
  862MPD2     H12656   0.435   1.230  10.184  1.8501  0.9627 -0.1775
  862MPD2    H112657   0.252   1.203   9.800 -0.2389  0.6415  0.4416
  862MPD2    H212658   0.401   1.576   9.935 -1.9650 -0.3002  2.0375
  862MPD2    H312659   0.307   1.425   9.753 -2.6548 -1.3217 -0.0914
  862MPD2     N12660   0.302   1.059   9.996 -0.1304 -0.0423  0.0531
  862MPD2    H512661   0.270   1.015   9.910  0.1639  2.6960 -1.4642
  862MPD2    N112662   0.472   1.478  10.188 -0.1420 -0.7377 -0.7966
  862MPD2    H712663   0.478   1.418  10.269 -1.3892  0.9058  0.5022
  863MPD2     C12664   3.168   4.427  16.809 -0.1451  0.5998  0.1128
  863MPD2    C112665   3.222   4.426  16.682 -0.1386  0.7567  0.1878
  863MPD2    C212666   3.360   4.413  16.673  0.1465 -0.1553  0.7409
  863MPD2    C312667   3.431   4.365  16.777  0.0385 -0.3360  0.1003
  863MPD2    C412668   3.366   4.346  16.904  0.5991 -0.1634  0.6449
  863MPD2    C512669   3.237   4.382  16.915  0.6417  0.2265 -0.0766
  863MPD2     H12670   3.416   4.434  16.583 -1.5890  1.0623 -0.0566
  863MPD2    H112671   3.417   4.300  16.988  0.7698  2.1477  1.8049
  863MPD2    H212672   3.067   4.461  16.824 -1.4361 -3.8761  1.4440
  863MPD2    H312673   3.190   4.384  17.012  2.0183  1.0351  0.5706
  863MPD2     N12674   3.569   4.337  16.781  0.1763 -0.1659 -0.2443
  863MPD2    H512675   3.609   4.302  16.868 -1.0166  0.4422  0.5477
  863MPD2    N112676   3.141   4.468  16.567  0.3586 -0.0288 -0.7093
  863MPD2    H712677   3.049   4.498  16.595  0.6302 -1.9536  2.1934
  864MPD2     C12678   3.853   0.357  17.017  0.8373 -0.4927  0.0038
  864MPD2    C112679   3.873   0.363  16.888  0.5033 -0.5964  0.2368
  864MPD2    C212680   3.922   0.486  16.836 -0.9569  0.3159  0.0259
  864MPD2    C312681   3.960   0.592  16.919 -0.0062 -0.2398 -0.4291
  864MPD2    C412682   3.938   0.579  17.052  0.1037 -0.0424  0.9052
  864MPD2    C512683   3.886   0.462  17.099 -0.2519 -0.3384 -0.2832
  864MPD2     H12684   3.932   0.502  16.730 -0.0303  0.0914  0.0812
  864MPD2    H112685   3.961   0.657  17.124  0.4207  0.7992 -0.1074
  864MPD2    H212686   3.802   0.273  17.064 -1.9148  1.2913  0.2032
  864MPD2    H312687   3.853   0.461  17.202 -0.2357  0.3048 -0.2717
  864MPD2     N12688   4.022   0.711  16.884  0.8432 -0.2968  0.8766
  864MPD2    H512689   4.044   0.774  16.961  2.0368  2.9297 -2.1288
  864MPD2    N112690   3.843   0.249  16.814  0.7154 -0.2706  0.6786
  864MPD2    H712691   3.812   0.165  16.862 -0.9852  0.1339  0.2969
  865MPD2     C12692   4.413   1.397  16.467 -0.8266 -0.5606 -0.6282
  865MPD2    C112693   4.347   1.275  16.476  0.4286 -0.5566  0.0919
  865MPD2    C212694   4.254   1.255  16.575  0.5618  0.2980 -0.3999
  865MPD2    C312695   4.248   1.340  16.689  0.7617  0.1827  0.1598
  865MPD2    C412696   4.319   1.454  16.682 -0.2476 -0.1785  0.1016
  865MPD2    C512697   4.394   1.489  16.570  0.0077  0.0348 -0.5709
  865MPD2     H12698   4.180   1.176  16.567  1.0130 -0.2040  0.4282
  865MPD2    H112699   4.324   1.526  16.762  0.5600  0.9984 -0.9929
  865MPD2    H212700   4.468   1.419  16.376  0.2676 -0.2623  0.1014
  865MPD2    H312701   4.450   1.582  16.572  2.1832 -1.3218  1.4384
  865MPD2     N12702   4.166   1.324  16.801  0.1011 -0.1286 -0.3155
  865MPD2    H512703   4.143   1.407  16.855 -0.0196 -1.2465  1.3456
  865MPD2    N112704   4.354   1.186  16.368  0.1750 -1.0278 -0.2813
  865MPD2    H712705   4.396   1.224  16.284  0.3167  1.4217  0.8870
  866MPD2     C12706   1.281   1.710  11.631  0.1744  0.5143  0.3247
  866MPD2    C112707   1.303   1.764  11.509 -0.1663  0.1455  0.1163
  866MPD2    C212708   1.208   1.759  11.408  0.2503  0.2460 -0.1248
  866MPD2    C312709   1.078   1.720  11.433 -0.1614 -0.0492 -0.0919
  866MPD2    C412710   1.050   1.677  11.563 -0.7683 -0.2057 -0.1836
  866MPD2    C512711   1.152   1.672  11.662  0.3782  0.0992 -0.3321
  866MPD2     H12712   1.232   1.794  11.308  0.9057 -1.7539 -0.6641
  866MPD2    H112713   0.949   1.670  11.601 -0.6016  1.4181  0.5648
  866MPD2    H212714   1.354   1.703  11.711 -0.7386 -1.2937  1.0098
  866MPD2    H312715   1.131   1.630  11.761  0.5206  2.1064  0.5374
  866MPD2     N12716   0.968   1.712  11.334  0.3652 -0.3097  0.1452
  866MPD2    H512717   0.878   1.677  11.365  0.7487 -0.1589  1.4275
  866MPD2    N112718   1.437   1.806  11.476  0.0084 -0.0813  0.2642
  866MPD2    H712719   1.508   1.788  11.547  0.1452  0.4770  0.2640
  867MPD2     C12720   2.786   1.059  15.915 -0.5836  0.3292 -0.6149
  867MPD2    C112721   2.801   0.963  16.014 -0.5589 -0.1916 -0.4079
  867MPD2    C212722   2.823   0.994  16.148  0.1551 -0.2945 -0.0654
  867MPD2    C312723   2.833   1.125  16.185  0.4366  0.3146 -0.0346
  867MPD2    C412724   2.830   1.225  16.089 -0.0577  0.1381 -0.2279
  867MPD2    C512725   2.815   1.190  15.948  0.4855  0.8141  0.0601
  867MPD2     H12726   2.824   0.916  16.223  0.0544  0.4277  0.6955
  867MPD2    H112727   2.844   1.330  16.113 -0.5307  0.4529 -1.3229
  867MPD2    H212728   2.781   1.029  15.811 -2.3901  1.9664 -0.9963
  867MPD2    H312729   2.803   1.264  15.869  1.0335 -1.0698 -1.7637
  867MPD2     N12730   2.871   1.170  16.311 -0.5455  0.5889  0.0102
  867MPD2    H512731   2.886   1.270  16.315 -0.2103  0.4464  2.2177
  867MPD2    N112732   2.794   0.827  15.978 -0.6068  0.6003  0.0825
  867MPD2    H712733   2.771   0.810  15.881 -0.9520 -0.2946  0.3203
  868MPD2     C12734   0.022   4.476  13.090 -0.3916 -0.3833 -0.3108
  868MPD2    C112735   0.080   4.597  13.122 -0.0333  0.6085  0.6126
  868MPD2    C212736   0.026   4.692  13.209 -0.0744 -0.4142  0.0842
  868MPD2    C312737   4.627   4.667  13.257 -0.3237 -0.7590  0.0918
  868MPD2    C412738   4.566   4.548  13.218  0.7232 -0.3928  0.2676
  868MPD2    C512739   4.625   4.459  13.133  0.1721 -0.1696 -0.0694
  868MPD2     H12740   0.070   0.059  13.245 -0.9976  0.9058 -2.1765
  868MPD2    H112741   4.467   4.526  13.257  0.3041 -1.2809 -1.3209
  868MPD2    H212742   0.065   4.398  13.027 -3.2649 -1.2831 -1.1441
  868MPD2    H312743   4.573   4.365  13.119  0.8084 -0.5552  0.1535
  868MPD2     N12744   4.570   0.034  13.351  0.1241 -0.1133  0.3594
  868MPD2    H512745   4.617   0.120  13.380  0.3817  0.3618 -1.4942
  868MPD2    N112746   0.209   4.607  13.065  0.7121 -0.0788 -0.3595
  868MPD2    H712747   0.246   4.525  13.018 -0.7700 -0.3780 -1.0033
  869MPD2     C12748   1.840   3.903   2.271 -0.1916 -0.7414 -0.2435
  869MPD2    C112749   1.890   3.879   2.140 -0.4517  0.3369 -0.3910
  869MPD2    C212750   1.805   3.846   2.032 -0.7783  0.3130 -1.3307
  869MPD2    C312751   1.670   3.848   2.044  0.2398 -0.4167 -0.5641
  869MPD2    C412752   1.616   3.887   2.165 -0.0460 -0.0029 -0.5823
  869MPD2    C512753   1.699   3.902   2.282  0.6045  0.0634  0.2677
  869MPD2     H12754   1.849   3.781   1.958  0.3336 -1.3672  0.7971
  869MPD2    H112755   1.510   3.886   2.186  0.2853 -0.1363  1.1434
  869MPD2    H212756   1.908   3.916   2.354 -0.7685  1.2200 -0.0799
  869MPD2    H312757   1.644   3.912   2.375  0.1396 -1.3710  0.1516
  869MPD2     N12758   1.579   3.823   1.939 -0.0926  0.2004  0.0050
  869MPD2    H512759   1.481   3.812   1.963  0.1345  0.2269  0.9371
  869MPD2    N112760   2.035   3.868   2.142  0.0749 -0.2347  0.0391
  869MPD2    H712761   2.080   3.871   2.233 -2.2903 -1.1759  1.2278
  870MPD2     C12762   0.864   3.055   1.194 -0.5383 -0.8503  0.1323
  870MPD2    C112763   0.856   2.923   1.159  0.0879 -0.5060 -0.8273
  870MPD2    C212764   0.819   2.898   1.029 -0.7192 -0.5698 -0.2203
  870MPD2    C312765   0.786   2.997   0.936  0.8171 -0.1912  0.5125
  870MPD2    C412766   0.802   3.132   0.976 -0.2469 -0.1650 -0.0778
  870MPD2    C512767   0.840   3.159   1.103 -0.0467  0.0319  0.0335
  870MPD2     H12768   0.800   2.797   0.994 -2.0708 -0.0250 -1.0164
  870MPD2    H112769   0.776   3.209   0.905  0.6520 -1.5945 -1.9416
  870MPD2    H212770   0.895   3.097   1.289 -0.9836  0.1625 -0.1686
  870MPD2    H312771   0.844   3.262   1.137  0.5847 -0.7074  2.2175
  870MPD2     N12772   0.717   2.957   0.818 -0.7969  0.2495 -0.0095
  870MPD2    H512773   0.715   2.857   0.803  0.8804  0.5699 -2.3432
  870MPD2    N112774   0.890   2.823   1.251 -0.3869  0.4104 -0.4449
  870MPD2    H712775   0.906   2.854   1.346 -1.3435  0.0994 -0.1867
  871MPD2     C12776   2.148   1.224  16.827 -0.7099 -0.4568  0.2990
  871MPD2    C112777   2.014   1.209  16.800  0.1705  0.1063 -0.3470
  871MPD2    C212778   1.970   1.110  16.712 -0.5265  0.4126  0.3057
  871MPD2    C312779   2.055   1.023  16.660  0.6480 -0.3134 -0.2088
  871MPD2    C412780   2.188   1.027  16.699  0.1259 -0.1805  0.4028
  871MPD2    C512781   2.234   1.129  16.774 -0.4917  0.7461  0.7399
  871MPD2     H12782   1.862   1.102  16.699  0.0007 -2.7713 -2.0713
  871MPD2    H112783   2.265   0.967  16.652  3.3848  2.2023  2.7196
  871MPD2    H212784   2.191   1.295  16.896  1.1026 -1.7783  0.5136
  871MPD2    H312785   2.340   1.130  16.798 -0.1258  1.0168 -0.9114
  871MPD2     N12786   2.011   0.931  16.561 -0.1003  0.7987 -0.6676
  871MPD2    H512787   1.919   0.959  16.527 -0.0540  0.5901 -0.9541
  871MPD2    N112788   1.923   1.296  16.869 -0.4537 -0.4361 -0.2579
  871MPD2    H712789   1.970   1.362  16.930  1.9856 -2.4556  0.0630
  872MPD2     C12790   2.955   3.512  14.130  0.5212  0.1854 -0.0070
  872MPD2    C112791   2.945   3.632  14.058  0.2353 -0.2480  0.1835
  872MPD2    C212792   2.826   3.703  14.065  0.3389 -0.0955 -0.1247
  872MPD2    C312793   2.722   3.673  14.145  0.0028 -0.0611  0.3372
  872MPD2    C412794   2.733   3.557  14.222  0.0093  0.0288  0.3067
  872MPD2    C512795   2.843   3.472  14.203  0.5465 -0.5577 -0.0854
  872MPD2     H12796   2.816   3.798  14.014 -4.3842 -0.8511 -0.6228
  872MPD2    H112797   2.641   3.519  14.264 -0.2788  0.2973 -0.0857
  872MPD2    H212798   3.033   3.437  14.127 -0.9231 -1.2996 -0.0472
  872MPD2    H312799   2.841   3.379  14.259  2.9322  0.5956  1.9592
  872MPD2     N12800   2.600   3.744  14.166 -0.2826 -0.0012  0.7234
  872MPD2    H512801   2.529   3.696  14.221  0.8933 -2.4604  0.1098
  872MPD2    N112802   3.051   3.677  13.973  0.3353  0.4314 -0.1549
  872MPD2    H712803   3.026   3.757  13.916 -1.0728  0.2179  0.1417
  873MPD2     C12804   4.025   3.726   0.659 -0.3724 -1.1799 -0.1855
  873MPD2    C112805   4.098   3.717   0.772 -0.6559  0.1309 -0.3011
  873MPD2    C212806   4.204   3.625   0.775 -0.4214 -0.0376 -0.0319
  873MPD2    C312807   4.231   3.538   0.670 -0.1253  0.0890 -0.4860
  873MPD2    C412808   4.166   3.557   0.555 -0.3265  0.0500  0.0576
  873MPD2    C512809   4.070   3.656   0.547 -0.4634  0.0358  0.4026
  873MPD2     H12810   4.257   3.601   0.867 -0.9685  1.0363  0.5751
  873MPD2    H112811   4.193   3.512   0.461  1.6432 -0.2190  0.7673
  873MPD2    H212812   3.931   3.779   0.649  0.5395  0.3471 -0.5729
  873MPD2    H312813   4.009   3.673   0.459 -2.2548  0.0499  1.6357
  873MPD2     N12814   4.329   3.431   0.680 -0.0700 -0.1884  0.2546
  873MPD2    H512815   4.319   3.363   0.605  0.2033 -1.9233  1.7977
  873MPD2    N112816   4.064   3.804   0.885 -0.0135  0.0088 -0.1053
  873MPD2    H712817   3.986   3.866   0.866 -1.1407 -1.4619 -0.3323
  874MPD2     C12818   4.004   3.895  15.841 -0.1424  0.0347  0.5499
  874MPD2    C112819   4.054   3.842  15.953 -0.1298  0.4882 -0.1573
  874MPD2    C212820   4.181   3.871  15.995  0.1977  0.3240  0.5001
  874MPD2    C312821   4.258   3.958  15.921 -0.8961 -0.1007  0.6741
  874MPD2    C412822   4.213   4.018  15.805  0.0122  0.2859  0.4815
  874MPD2    C512823   4.083   3.982  15.766 -0.0957 -0.8293 -0.0608
  874MPD2     H12824   4.221   3.827  16.086 -1.0655 -2.9919 -0.5441
  874MPD2    H112825   4.273   4.089  15.749  0.4080 -0.8327 -0.5045
  874MPD2    H212826   3.902   3.875  15.811 -0.4768  0.5016  1.3457
  874MPD2    H312827   4.039   4.032  15.680 -0.2788  2.2024  1.7998
  874MPD2     N12828   4.392   3.979  15.973 -0.8720  0.3795  0.2294
  874MPD2    H512829   4.405   3.946  16.068 -2.4163 -0.6948  0.0561
  874MPD2    N112830   3.966   3.750  16.019  0.1375 -0.3261  0.6306
  874MPD2    H712831   3.867   3.752  15.994  0.2411  0.1394  0.2535
  875MPD2     C12832   0.833   1.969  14.799  0.9939  0.4869  0.7920
  875MPD2    C112833   0.730   2.063  14.825 -0.1860  0.3324  0.1547
  875MPD2    C212834   0.727   2.124  14.951  0.5059 -0.0080 -0.1332
  875MPD2    C312835   0.820   2.101  15.043  0.3919 -1.0618 -0.6302
  875MPD2    C412836   0.923   2.013  15.016  0.0803 -0.2367  0.3754
  875MPD2    C512837   0.936   1.949  14.894 -0.3203  0.0350  0.8740
  875MPD2     H12838   0.648   2.194  14.974 -0.6305 -0.6435 -2.1139
  875MPD2    H112839   0.990   1.976  15.093 -1.2499  0.3247  1.7953
  875MPD2    H212840   0.827   1.904  14.712 -1.5243  2.1222 -0.2486
  875MPD2    H312841   1.012   1.873  14.883 -1.9218 -1.5912  0.9129
  875MPD2     N12842   0.830   2.185  15.156 -0.2982 -0.5003  0.3099
  875MPD2    H512843   0.764   2.262  15.159  0.8356  0.4544  0.3879
  875MPD2    N112844   0.620   2.080  14.736 -0.6903 -0.1073 -0.0076
  875MPD2    H712845   0.544   2.144  14.759  0.4070  2.2835 -2.9180
  876MPD2     C12846   3.919   3.464  15.803 -0.2089 -0.3503  0.7494
  876MPD2    C112847   4.057   3.435  15.795 -0.3845 -0.7216  0.3543
  876MPD2    C212848   4.105   3.337  15.877  0.6362  0.7333 -0.0139
  876MPD2    C312849   4.029   3.266  15.974  0.3304  0.2817 -0.3412
  876MPD2    C412850   3.889   3.289  15.968 -0.2000 -0.7461 -0.1007
  876MPD2    C512851   3.841   3.393  15.888  0.0446  0.5551 -0.3636
  876MPD2     H12852   4.205   3.301  15.852  1.1982  3.5079 -1.8199
  876MPD2    H112853   3.823   3.223  16.023  1.8813 -1.7164  1.2645
  876MPD2    H212854   3.885   3.540  15.734  2.3147  1.7136  1.8033
  876MPD2    H312855   3.736   3.419  15.890 -0.1304 -0.3752  2.2412
  876MPD2     N12856   4.084   3.150  16.033 -0.5746 -0.5551 -0.0953
  876MPD2    H512857   4.179   3.133  16.002  0.4014  1.9705  1.4990
  876MPD2    N112858   4.137   3.522  15.714 -0.3137 -0.2134  0.2794
  876MPD2    H712859   4.083   3.585  15.655 -0.3870 -1.1809 -0.6901
  877MPD2     C12860   4.102   3.853  15.097  0.0019  0.5944  0.1469
  877MPD2    C112861   4.236   3.857  15.114  0.3922  0.3510 -0.0149
  877MPD2    C212862   4.322   3.877  15.010 -0.3669  0.1895  0.1009
  877MPD2    C312863   4.277   3.906  14.881 -0.0176 -0.1818  0.4879
  877MPD2    C412864   4.141   3.897  14.865 -0.1983  0.2230  0.0311
  877MPD2    C512865   4.057   3.876  14.973 -0.3460  0.7316  0.6290
  877MPD2     H12866   4.428   3.868  15.032 -0.9762 -3.9207  1.3591
  877MPD2    H112867   4.096   3.913  14.768  0.2162  0.3832 -0.1351
  877MPD2    H212868   4.034   3.852  15.181 -0.4310  0.4034 -0.2097
  877MPD2    H312869   3.952   3.874  14.947 -0.5022 -1.3328  1.4511
  877MPD2     N12870   4.361   3.925  14.768  0.0219  0.0462  0.2486
  877MPD2    H512871   4.317   3.955  14.682 -1.0056  1.2720  1.2112
  877MPD2    N112872   4.297   3.822  15.243  0.0174  0.3231  0.5066
  877MPD2    H712873   4.392   3.785  15.234 -1.4241 -2.7228 -2.2489
  878MPD2     C12874   0.165   2.873  12.726 -0.2659 -0.5786 -0.1494
  878MPD2    C112875   0.136   3.007  12.755 -0.2582 -0.3720  0.0562
  878MPD2    C212876   0.216   3.068  12.860 -0.4477 -0.5613 -1.0640
  878MPD2    C312877   0.311   2.999  12.937  0.0253  0.2035 -0.3804
  878MPD2    C412878   0.319   2.867  12.911 -0.3538 -0.0289 -0.4362
  878MPD2    C512879   0.254   2.811  12.805 -0.5742  0.1300 -0.1233
  878MPD2     H12880   0.195   3.172  12.879 -1.4916 -1.2654  1.6696
  878MPD2    H112881   0.407   2.820  12.952  0.9732  1.6083 -1.4170
  878MPD2    H212882   0.119   2.830  12.638 -2.9925  0.7086  0.6384
  878MPD2    H312883   0.274   2.705  12.788  1.0876  0.6944 -1.6803
  878MPD2     N12884   0.385   3.062  13.035  0.0120  0.3823  0.5100
  878MPD2    H512885   0.442   3.003  13.094  2.2344  2.3661  0.3088
  878MPD2    N112886   0.029   3.073  12.691 -0.0862  0.6716  0.1032
  878MPD2    H712887   4.696   3.020  12.626  1.0835 -0.9081  0.3448
  879MPD2     C12888   4.559   0.190  17.099 -0.7240  0.3171 -0.6066
  879MPD2    C112889   4.477   0.103  17.166  0.1025 -0.4024  0.3275
  879MPD2    C212890   4.423   4.714  17.104 -1.0690  0.6729 -0.3478
  879MPD2    C312891   4.456   4.691  16.974  1.0574  0.4366  0.1994
  879MPD2    C412892   4.536   0.054  16.905  0.1160  0.3679 -0.0668
  879MPD2    C512893   4.587   0.162  16.964 -0.4965  0.3189 -0.6436
  879MPD2     H12894   4.349   4.653  17.153  1.6249 -1.6010  0.8687
  879MPD2    H112895   4.557   0.040  16.800 -0.9147 -2.1603  0.0652
  879MPD2    H212896   4.605   0.277  17.143 -1.1363 -1.1305  2.6796
  879MPD2    H312897   4.659   0.226  16.915  1.1310  0.5892  2.1194
  879MPD2     N12898   4.417   4.576  16.900  0.3921  0.3944 -0.1119
  879MPD2    H512899   4.443   4.580  16.802 -0.1651  2.2194 -0.1756
  879MPD2    N112900   4.444   0.147  17.298 -0.1076 -0.2544 -0.4452
  879MPD2    H712901   4.481   0.235  17.332 -0.4414 -0.2261 -0.1498
  880MPD2     C12902   1.022   1.818   0.738 -0.7111 -0.1010  0.0437
  880MPD2    C112903   1.026   1.780   0.605  0.5519  0.2249  0.4799
  880MPD2    C212904   0.953   1.668   0.569 -0.1977 -0.2767 -0.1081
  880MPD2    C312905   0.859   1.602   0.648 -0.4566  0.5443 -0.2732
  880MPD2    C412906   0.859   1.649   0.782  0.0163 -0.6400  0.0051
  880MPD2    C512907   0.943   1.749   0.822  0.0031  0.3034  0.0506
  880MPD2     H12908   0.972   1.645   0.464  0.0863  1.8444 -0.5075
  880MPD2    H112909   0.791   1.607   0.855  0.6364 -1.1682  0.2796
  880MPD2    H212910   1.078   1.903   0.775  0.6380 -1.3606  0.8743
  880MPD2    H312911   0.954   1.766   0.929 -2.8353  1.3051  0.1931
  880MPD2     N12912   0.780   1.495   0.599 -0.5867  0.9170 -0.0806
  880MPD2    H512913   0.802   1.468   0.503  2.9529  2.8242  0.1822
  880MPD2    N112914   1.098   1.862   0.514  0.4324  0.1948 -0.0879
  880MPD2    H712915   1.156   1.938   0.548  0.7768  0.6440 -1.7013
  881MPD2     C12916   1.499   2.332  17.277  0.6291 -0.4406  0.1205
  881MPD2    C112917   1.442   2.211  17.278  0.5045  0.5299 -0.1799
  881MPD2    C212918   1.390   2.169  17.400 -0.4925  0.4689  0.2054
  881MPD2    C312919   1.423   2.229  17.522  0.2788 -0.1989  0.7904
  881MPD2    C412920   1.512   2.335  17.516  0.0700 -0.3327 -0.1557
  881MPD2    C512921   1.539   2.384  17.393  0.6180 -0.3258  0.4988
  881MPD2     H12922   1.313   2.093  17.408  1.4323 -1.5549 -0.5450
  881MPD2    H112923   1.544   2.394  17.601 -1.8296  1.9941 -1.0514
  881MPD2    H212924   1.523   2.384  17.185 -0.7622 -3.7988 -2.1180
  881MPD2    H312925   1.599   2.475  17.391  0.1401 -0.0004  0.8295
  881MPD2     N12926   1.369   2.197  17.651  0.3541  0.0244 -0.2338
  881MPD2    H512927   1.382   2.265   0.023 -1.1149  1.6936 -1.4951
  881MPD2    N112928   1.383   2.174  17.159  0.2721 -0.4656 -0.1770
  881MPD2    H712929   1.369   2.245  17.088  0.6356 -1.2638 -1.0515
  882MPD2     C12930   4.267   4.006  14.059 -0.2222 -0.7265  0.3552
  882MPD2    C112931   4.257   3.899  14.147 -0.7026 -0.2163  0.1009
  882MPD2    C212932   4.164   3.798  14.122 -0.2610  0.1213 -0.0935
  882MPD2    C312933   4.068   3.808  14.023 -0.2726  0.7218  0.6613
  882MPD2    C412934   4.079   3.914  13.936 -0.0546 -0.0075  0.0977
  882MPD2    C512935   4.185   4.004  13.947 -0.6108  0.0493 -0.7529
  882MPD2     H12936   4.162   3.709  14.185  0.2684 -0.3006 -0.6668
  882MPD2    H112937   4.004   3.931  13.860 -1.2045 -1.5477  0.8897
  882MPD2    H212938   4.347   4.080  14.064 -0.3693 -0.4871 -0.7767
  882MPD2    H312939   4.186   4.081  13.871  2.5191 -0.5240 -1.3031
  882MPD2     N12940   3.965   3.714  13.996 -0.3702  0.2617  0.0759
  882MPD2    H512941   3.897   3.739  13.925  1.2801  0.7366 -1.3474
  882MPD2    N112942   4.345   3.868  14.251  0.3647 -0.0497 -0.1600
  882MPD2    H712943   4.330   3.774  14.283 -0.4943  0.1859  0.1096
  883MPD2     C12944   1.411   3.944  16.587 -0.3816  0.3486  0.7760
  883MPD2    C112945   1.450   3.895  16.463 -0.2261 -0.6199 -0.7777
  883MPD2    C212946   1.588   3.898  16.444 -0.2298  0.2159 -0.1181
  883MPD2    C312947   1.680   3.944  16.538  0.3354  0.5657 -0.6539
  883MPD2    C412948   1.638   3.979  16.659  0.0702 -0.3645 -0.5138
  883MPD2    C512949   1.503   3.981  16.678  0.1936 -0.2873 -0.1825
  883MPD2     H12950   1.637   3.861  16.354 -0.4597  0.7723 -0.4744
  883MPD2    H112951   1.708   4.022  16.730 -0.5774 -0.4310  0.1761
  883MPD2    H212952   1.306   3.938  16.615 -0.1599 -1.0675  1.2903
  883MPD2    H312953   1.471   4.021  16.774 -2.2307  2.2751 -2.0649
  883MPD2     N12954   1.814   3.941  16.504  0.5721  0.2710  0.3088
  883MPD2    H512955   1.833   3.925  16.405  0.7475 -1.5866  0.6550
  883MPD2    N112956   1.363   3.857  16.352 -0.3933 -0.0155 -0.0413
  883MPD2    H712957   1.411   3.818  16.271  1.5743 -0.0136  1.1158
  884MPD2     C12958   3.503   4.406  14.735 -0.1591 -0.3792 -0.0618
  884MPD2    C112959   3.511   4.533  14.767  0.0154  0.0469 -0.2094
  884MPD2    C212960   3.395   4.600  14.818 -0.5845  0.7331 -0.2586
  884MPD2    C312961   3.283   4.519  14.854  0.2985 -0.1807 -0.4111
  884MPD2    C412962   3.284   4.385  14.819  0.1265  0.0165  0.4652
  884MPD2    C512963   3.392   4.334  14.754  0.2678 -0.1267 -0.8390
  884MPD2     H12964   3.395   4.705  14.844 -0.0218  0.2955  1.5604
  884MPD2    H112965   3.196   4.322  14.824 -0.2466  0.3583 -1.5437
  884MPD2    H212966   3.577   4.353  14.676  1.0104 -0.7041  1.6919
  884MPD2    H312967   3.390   4.231  14.720  0.1450 -0.5470  0.4323
  884MPD2     N12968   3.174   4.587  14.915  0.0643 -0.0399  0.3924
  884MPD2    H512969   3.165   4.688  14.908 -0.8098 -0.1398  0.0885
  884MPD2    N112970   3.624   4.614  14.744  0.1599  0.2047  0.1116
  884MPD2    H712971   3.620   4.712  14.772 -0.0934  0.0372  0.6532
  885MPD2     C12972   1.604   4.675   0.688  0.1521 -0.2846  0.1626
  885MPD2    C112973   1.571   0.083   0.661  0.1520 -0.2226 -0.5178
  885MPD2    C212974   1.565   0.140   0.535 -0.2537 -0.1134 -0.4874
  885MPD2    C312975   1.596   0.060   0.427  0.0026  0.4387 -0.2192
  885MPD2    C412976   1.620   4.654   0.451  0.0688  0.1934 -0.1174
  885MPD2    C512977   1.635   4.601   0.578 -0.3731  0.0712 -0.0975
  885MPD2     H12978   1.537   0.242   0.512 -0.3650 -0.1720 -0.6182
  885MPD2    H112979   1.646   4.594   0.365 -1.2027 -1.0943  0.4062
  885MPD2    H212980   1.596   4.634   0.788  1.7595  1.6440  1.0977
  885MPD2    H312981   1.674   4.500   0.580  1.6788  0.8739  0.2442
  885MPD2     N12982   1.600   0.125   0.300 -0.4176  0.3163 -0.2646
  885MPD2    H512983   1.579   0.224   0.296  0.4339  0.4733 -1.1462
  885MPD2    N112984   1.549   0.147   0.782  0.1995  0.2437  1.0950
  885MPD2    H712985   1.536   0.093   0.866 -1.6915 -2.6455 -1.0501
  886MPD2     C12986   2.567   3.217  14.735 -0.5270 -0.2713 -0.0035
  886MPD2    C112987   2.701   3.182  14.757 -0.0696  0.4530 -0.6597
  886MPD2    C212988   2.797   3.233  14.680 -0.6773 -0.4638 -0.1589
  886MPD2    C312989   2.766   3.320  14.578  0.6139 -0.0688 -0.6085
  886MPD2    C412990   2.637   3.349  14.552  0.2382  0.3655 -0.2527
  886MPD2    C512991   2.539   3.285  14.624 -0.2537  0.3910 -0.0063
  886MPD2     H12992   2.899   3.199  14.688 -0.5071  0.0576 -0.0763
  886MPD2    H112993   2.610   3.418  14.473 -1.6595 -2.0620 -1.7279
  886MPD2    H212994   2.485   3.168  14.787 -1.1147  0.9653  0.2619
  886MPD2    H312995   2.434   3.294  14.601 -0.2018  1.8226  0.2935
  886MPD2     N12996   2.875   3.393  14.518  0.1179 -0.2210 -0.4057
  886MPD2    H512997   2.856   3.470  14.455  1.1897 -0.2646 -0.7966
  886MPD2    N112998   2.750   3.093  14.855  0.4730  0.2879  0.0999
  886MPD2    H712999   2.851   3.081  14.866  0.4464 -0.3659 -0.3847
  887MPD2     C13000   3.399   3.073  15.173 -0.0617 -0.0178 -0.3209
  887MPD2    C113001   3.295   3.105  15.254  0.0832  0.7720  0.0502
  887MPD2    C213002   3.320   3.183  15.363 -0.2167 -0.3694 -0.5110
  887MPD2    C313003   3.451   3.216  15.397 -0.6802  0.3072  0.2553
  887MPD2    C413004   3.556   3.177  15.322  0.3055  0.6261 -0.2456
  887MPD2    C513005   3.529   3.110  15.206  0.3126  0.0050 -0.4375
  887MPD2     H13006   3.240   3.215  15.429  0.0068  0.8945 -0.8531
  887MPD2    H113007   3.653   3.223  15.334  0.4427  0.5757 -1.1614
  887MPD2    H213008   3.385   3.034  15.073 -0.0610 -0.8828  0.0152
  887MPD2    H313009   3.610   3.088  15.137  2.2726  0.5941  1.6484
  887MPD2     N13010   3.470   3.306  15.506  0.0218  0.1321  0.2162
  887MPD2    H513011   3.389   3.336  15.559  0.3253  0.7758  0.3133
  887MPD2    N113012   3.165   3.057  15.232 -0.3001 -0.0895  0.1818
  887MPD2    H713013   3.095   3.095  15.295 -0.5695 -0.1110 -0.1067
  888MPD2     C13014   0.669   3.301  14.686  0.3815  0.0142 -0.3660
  888MPD2    C113015   0.692   3.344  14.812 -0.1250  0.0546 -0.4807
  888MPD2    C213016   0.743   3.468  14.827 -0.1469 -0.0596 -0.7011
  888MPD2    C313017   0.772   3.553  14.726  0.2145  0.5741  0.3577
  888MPD2    C413018   0.737   3.521  14.598 -0.5586  0.1062  0.0685
  888MPD2    C513019   0.681   3.398  14.583  0.0235  0.2352 -0.3489
  888MPD2     H13020   0.748   3.510  14.927  1.5794 -1.6763 -0.1219
  888MPD2    H113021   0.737   3.584  14.510  0.8296  1.2129  0.8560
  888MPD2    H213022   0.612   3.211  14.663  0.5145 -0.0613 -0.3998
  888MPD2    H313023   0.646   3.368  14.485 -0.0676  0.2492 -0.3208
  888MPD2     N13024   0.813   3.691  14.748  0.2341 -0.5198  0.3790
  888MPD2    H513025   0.838   3.723  14.842 -0.3007  1.5621 -0.1828
  888MPD2    N113026   0.653   3.274  14.930  0.2510  0.1024  0.6196
  888MPD2    H713027   0.681   3.323  15.014 -1.0730 -0.4310  1.3850
  889MPD2     C13028   0.372   2.458  12.506 -0.3194  0.6843 -0.2833
  889MPD2    C113029   0.458   2.467  12.613 -0.8599 -0.6975  0.2465
  889MPD2    C213030   0.506   2.597  12.638 -0.2537  0.6399 -0.0515
  889MPD2    C313031   0.470   2.705  12.558  0.0585  0.1006 -0.2204
  889MPD2    C413032   0.385   2.685  12.453 -0.0212  0.2749 -0.0734
  889MPD2    C513033   0.332   2.560  12.433 -0.3656  0.0731 -0.8258
  889MPD2     H13034   0.576   2.599  12.721  0.0534  0.1223 -0.3032
  889MPD2    H113035   0.355   2.775  12.401 -2.5304  0.3395  1.4823
  889MPD2    H213036   0.314   2.366  12.499  1.8127 -0.6687 -0.1496
  889MPD2    H313037   0.249   2.544  12.365  0.1290 -1.7406 -1.0128
  889MPD2     N13038   0.524   2.833  12.582  0.1971  0.1133  0.0313
  889MPD2    H513039   0.583   2.845  12.664 -0.4500 -2.4974  0.8575
  889MPD2    N113040   0.487   2.363  12.708  0.1128  0.2367  0.0040
  889MPD2    H713041   0.559   2.387  12.776 -1.4189  2.9657  0.6844
  890MPD2     C13042   4.258   4.595  14.425 -0.1457 -0.4774 -0.2934
  890MPD2    C113043   4.354   4.626  14.522 -0.1200  0.2777 -0.8366
  890MPD2    C213044   4.353   4.538  14.631  0.6350  0.1028 -0.2366
  890MPD2    C313045   4.272   4.433  14.653  0.3060 -0.4179  0.0792
  890MPD2    C413046   4.176   4.410  14.562 -0.4187  0.4179 -0.8879
  890MPD2    C513047   4.170   4.490  14.448 -0.4081 -0.1320  0.1612
  890MPD2     H13048   4.420   4.550  14.715  1.0324 -2.5624 -0.1750
  890MPD2    H113049   4.101   4.333  14.572 -1.4498  1.6391  0.7692
  890MPD2    H213050   4.239   4.649  14.334  1.3057 -1.8829 -1.4348
  890MPD2    H313051   4.098   4.468  14.370  0.2815  0.3847 -0.6213
  890MPD2     N13052   4.292   4.362  14.775 -0.5979 -0.1769 -0.5315
  890MPD2    H513053   4.354   4.403  14.844 -0.4684  0.9525 -1.3193
  890MPD2    N113054   4.436   0.016  14.503 -0.1764  0.3052 -0.1203
  890MPD2    H713055   4.423   0.072  14.419  1.3750  0.1026 -0.4947
  891MPD2     C13056   2.311   2.731  16.692 -0.4705 -0.2228 -0.1639
  891MPD2    C113057   2.238   2.844  16.649  0.2061 -0.0879  0.7880
  891MPD2    C213058   2.275   2.966  16.697 -0.0002 -0.3366  0.0785
  891MPD2    C313059   2.378   2.984  16.786 -0.5324 -0.0284  0.5800
  891MPD2    C413060   2.450   2.874  16.823  0.7841 -0.2803  0.1894
  891MPD2    C513061   2.416   2.752  16.774 -0.6449 -0.2972  0.1840
  891MPD2     H13062   2.225   3.057  16.667  1.2713  0.0998 -0.7351
  891MPD2    H113063   2.532   2.873  16.893  0.6042 -1.8978  0.3697
  891MPD2    H213064   2.274   2.634  16.662  0.7061 -0.7150 -0.0210
  891MPD2    H313065   2.475   2.663  16.794  0.9717  0.6710 -0.3003
  891MPD2     N13066   2.410   3.109  16.835 -0.1635 -0.0983 -0.4019
  891MPD2    H513067   2.335   3.177  16.830 -0.1442 -0.0632 -0.2038
  891MPD2    N113068   2.117   2.828  16.572  0.0308 -0.3754 -0.5102
  891MPD2    H713069   2.099   2.734  16.539 -1.2096  0.2460 -1.5969
  892MPD2     C13070   3.516   4.272  14.167 -0.1009  0.1760 -0.1751
  892MPD2    C113071   3.454   4.176  14.245  0.2546 -1.5460 -0.3465
  892MPD2    C213072   3.478   4.043  14.208  0.2248 -0.6594  0.3081
  892MPD2    C313073   3.559   4.003  14.101  1.1191  0.4625  0.5660
  892MPD2    C413074   3.625   4.105  14.031  0.8647 -0.3950  0.7296
  892MPD2    C513075   3.602   4.237  14.056 -0.5343 -0.3051 -0.0552
  892MPD2     H13076   3.432   3.972  14.275  0.7240 -1.3035 -0.0373
  892MPD2    H113077   3.688   4.083  13.945 -1.9756 -1.5891 -1.0570
  892MPD2    H213078   3.482   4.375  14.170 -0.5899 -0.0571  2.0412
  892MPD2    H313079   3.642   4.321  14.000 -0.2429 -0.5154 -0.1600
  892MPD2     N13080   3.582   3.871  14.060 -0.2567  0.3299  0.3544
  892MPD2    H513081   3.649   3.852  13.986  0.3380  0.7836  0.7749
  892MPD2    N113082   3.359   4.216  14.338 -0.0904  0.1964 -0.3576
  892MPD2    H713083   3.333   4.313  14.331  0.0007  0.2396 -0.0766
  893MPD2     C13084   1.301   3.209   1.242  0.5340  0.0377 -1.1710
  893MPD2    C113085   1.363   3.223   1.360 -0.3417 -0.0350  0.3492
  893MPD2    C213086   1.299   3.261   1.478 -0.3246 -1.1241 -0.3137
  893MPD2    C313087   1.166   3.302   1.469  0.6329  0.1497 -0.3844
  893MPD2    C413088   1.099   3.294   1.349  0.0796 -0.5939  0.5675
  893MPD2    C513089   1.167   3.247   1.244  0.3973  0.4308 -0.3024
  893MPD2     H13090   1.359   3.281   1.566  2.3476 -0.5031 -2.2545
  893MPD2    H113091   0.998   3.330   1.334  0.9055  1.2142 -0.6411
  893MPD2    H213092   1.359   3.172   1.159  0.1608 -0.2224 -1.3192
  893MPD2    H313093   1.116   3.253   1.149  0.5280 -2.6718 -0.5959
  893MPD2     N13094   1.096   3.340   1.579  0.3441  0.5945  0.2398
  893MPD2    H513095   0.999   3.366   1.564  0.1914 -0.5294 -0.7508
  893MPD2    N113096   1.495   3.178   1.361  0.1855  0.4617 -0.2101
  893MPD2    H713097   1.542   3.165   1.272 -0.7615  1.4252 -0.8495
  894MPD2     C13098   2.724   4.620   1.501  0.5826 -0.4703  0.1362
  894MPD2    C113099   2.698   0.023   1.455  0.9439 -0.0197 -0.2568
  894MPD2    C213100   2.775   0.067   1.350  0.2080  0.8061  0.6153
  894MPD2    C313101   2.839   4.705   1.269  0.3227 -0.1510  0.1644
  894MPD2    C413102   2.861   4.578   1.321 -0.3005 -0.0568 -0.8571
  894MPD2    C513103   2.809   4.531   1.432  0.1833  0.3690  0.0768
  894MPD2     H13104   2.752   0.166   1.313 -0.5581  0.3161 -0.2084
  894MPD2    H113105   2.918   4.512   1.256  0.4628  0.7579 -1.0108
  894MPD2    H213106   2.669   4.580   1.585  1.8158 -0.5759  0.8989
  894MPD2    H313107   2.820   4.433   1.478  1.2274 -1.1544 -3.4146
  894MPD2     N13108   2.896   0.033   1.146 -0.2512 -0.2549 -0.1451
  894MPD2    H513109   2.892   0.132   1.125  0.8189 -0.3392 -0.7461
  894MPD2    N113110   2.596   0.103   1.494 -0.1345  0.1353  0.1285
  894MPD2    H713111   2.590   0.190   1.441  1.3132 -1.5818 -2.8065
  895MPD2     C13112   2.687   3.520  13.816  0.3815 -0.4186  0.7509
  895MPD2    C113113   2.740   3.570  13.698 -0.4626 -0.1873  0.8435
  895MPD2    C213114   2.860   3.516  13.649  0.2801  0.1089 -0.5797
  895MPD2    C313115   2.930   3.416  13.713  0.0157  0.4756 -0.4405
  895MPD2    C413116   2.867   3.361  13.822  0.4601  0.3475 -0.5893
  895MPD2    C513117   2.747   3.407  13.870 -0.7995 -0.5065 -0.1551
  895MPD2     H13118   2.894   3.543  13.549 -0.7811  1.3048 -0.6147
  895MPD2    H113119   2.903   3.284  13.889 -1.9049 -1.2535 -1.1695
  895MPD2    H213120   2.591   3.550  13.854  0.8305  1.6401  0.2403
  895MPD2    H313121   2.699   3.368  13.959 -0.4397 -0.4677  0.0606
  895MPD2     N13122   3.053   3.358  13.668  0.3618  0.0579 -0.1624
  895MPD2    H513123   3.077   3.263  13.697  0.6484 -0.0687 -0.8098
  895MPD2    N113124   2.676   3.655  13.613  0.9761  0.2431 -0.3233
  895MPD2    H713125   2.719   3.671  13.522 -2.2599  1.0260 -1.7085
  896MPD2     C13126   0.142   1.411   1.333  0.6623  0.2131 -0.2451
  896MPD2    C113127   0.117   1.453   1.203  0.3477  0.0398  0.8589
  896MPD2    C213128   0.014   1.392   1.134  0.3261  0.7762 -0.3658
  896MPD2    C313129   4.659   1.298   1.198  0.1797  0.1232 -0.0694
  896MPD2    C413130   4.684   1.264   1.326  0.1580  0.1983 -0.0798
  896MPD2    C513131   0.063   1.318   1.388 -0.2745  0.1892  0.6067
  896MPD2     H13132   4.725   1.404   1.027 -0.2671 -1.3131 -0.5114
  896MPD2    H113133   4.628   1.188   1.379  0.0527 -0.5460 -1.2628
  896MPD2    H213134   0.231   1.439   1.389  0.1050  1.4313  0.0494
  896MPD2    H313135   0.085   1.294   1.491 -3.0861 -3.0342  0.4417
  896MPD2     N13136   4.544   1.256   1.125  0.2090  0.1899 -0.1703
  896MPD2    H513137   4.537   1.285   1.028  1.4684 -0.0612 -0.3398
  896MPD2    N113138   0.204   1.548   1.145  0.6578  0.2524  0.3302
  896MPD2    H713139   0.279   1.583   1.205  0.8076  1.3519 -0.4967
  897MPD2     C13140   1.597   2.280  10.552  0.5797 -0.0925  0.6443
  897MPD2    C113141   1.516   2.392  10.543  0.7601 -0.2622 -0.2078
  897MPD2    C213142   1.403   2.411  10.624  0.0124  0.1123 -0.1508
  897MPD2    C313143   1.352   2.302  10.691  0.0263  0.5032 -0.0454
  897MPD2    C413144   1.429   2.184  10.689  0.9132 -0.1271  0.5344
  897MPD2    C513145   1.552   2.179  10.628  0.3191  0.6150 -0.6995
  897MPD2     H13146   1.350   2.506  10.620  0.9851  0.7428  2.3588
  897MPD2    H113147   1.389   2.094  10.736 -0.7660  0.3263  0.0015
  897MPD2    H213148   1.689   2.265  10.496  1.2171  0.5191  1.5290
  897MPD2    H313149   1.612   2.090  10.645  1.1428  1.1772 -0.7005
  897MPD2     N13150   1.221   2.307  10.746  0.0456  0.0962 -0.6354
  897MPD2    H513151   1.172   2.393  10.726 -0.4741  0.4452  2.1180
  897MPD2    N113152   1.573   2.488  10.450 -0.4277  0.9420 -0.3406
  897MPD2    H713153   1.655   2.462  10.395  0.2312 -0.0169  1.0964
  898MPD2     C13154   2.976   3.149   0.085 -0.4281  0.9775  0.3721
  898MPD2    C113155   3.085   3.232   0.060 -0.6057  0.2430  0.3578
  898MPD2    C213156   3.089   3.319  17.649  0.2463  0.2224 -0.3795
  898MPD2    C313157   2.981   3.334  17.568  0.0447 -0.2145 -0.7746
  898MPD2    C413158   2.879   3.246  17.586 -0.1243 -0.4735 -0.0480
  898MPD2    C513159   2.873   3.160  17.697  0.8248 -0.2624 -0.3225
  898MPD2     H13160   3.172   3.384  17.623  0.5127 -0.8983 -2.3197
  898MPD2    H113161   2.783   3.252  17.535 -0.5917  0.1599  0.8935
  898MPD2    H213162   2.971   3.095   0.178 -0.2374  1.6856  0.7907
  898MPD2    H313163   2.789   3.091  17.690 -2.1640  3.1202  2.2046
  898MPD2     N13164   2.987   3.434  17.468  0.9348 -0.0957  0.1710
  898MPD2    H513165   3.078   3.479  17.457  1.1973 -0.3445  1.3008
  898MPD2    N113166   3.198   3.233   0.141 -0.6037  0.0170 -0.7417
  898MPD2    H713167   3.268   3.298   0.106  0.9110 -0.9969  0.4248
  899MPD2     C13168   3.922   4.056  17.360  0.3933  0.2603 -0.0080
  899MPD2    C113169   3.817   4.101  17.276  0.3259 -0.0285 -0.1690
  899MPD2    C213170   3.691   4.123  17.324 -0.2282 -0.6809 -0.0014
  899MPD2    C313171   3.660   4.098  17.463  0.1497 -0.2817 -0.1989
  899MPD2    C413172   3.766   4.038  17.535  0.2236 -0.4589  0.3325
  899MPD2    C513173   3.893   4.017  17.488  0.0436  0.8611  0.0947
  899MPD2     H13174   3.612   4.163  17.261 -0.0135 -0.6041 -0.2214
  899MPD2    H113175   3.742   4.009  17.637 -0.2653  3.4142  1.3117
  899MPD2    H213176   4.023   4.041  17.324 -0.5061  1.9921 -3.2004
  899MPD2    H313177   3.973   3.969  17.544  0.6968  2.6737  0.7192
  899MPD2     N13178   3.535   4.130  17.522 -0.7303 -0.2626 -0.0346
  899MPD2    H513179   3.532   4.117  17.623 -0.1965 -0.2672 -0.0226
  899MPD2    N113180   3.862   4.151  17.151 -0.7247 -0.2428 -0.0033
  899MPD2    H713181   3.962   4.151  17.134 -0.3527  0.6293  2.1871
  900MPD2     C13182   3.613   1.159  12.577 -0.6001 -0.8199 -0.2078
  900MPD2    C113183   3.561   1.032  12.572 -0.0807  0.1807 -0.6982
  900MPD2    C213184   3.430   1.004  12.541 -0.2467 -0.2302 -0.2726
  900MPD2    C313185   3.349   1.114  12.516  0.1386 -0.0390  0.3503
  900MPD2    C413186   3.393   1.245  12.519  0.1460  0.0508 -0.0241
  900MPD2    C513187   3.518   1.265  12.561  0.0448 -0.1552  0.9946
  900MPD2     H13188   3.387   0.905  12.539 -1.5325  0.3508 -1.2777
  900MPD2    H113189   3.326   1.329  12.499  2.2910  2.1971  1.8621
  900MPD2    H213190   3.717   1.179  12.599 -1.5040  1.7825  1.7580
  900MPD2    H313191   3.541   1.371  12.567 -0.8883  0.0410  1.0668
  900MPD2     N13192   3.220   1.087  12.503  0.4260 -0.0604 -0.5817
  900MPD2    H513193   3.191   0.992  12.484 -0.3914  0.0776 -0.0151
  900MPD2    N113194   3.644   0.925  12.607 -0.0469 -0.0057  0.4134
  900MPD2    H713195   3.743   0.945  12.617  0.5839 -2.5465 -0.7914
  901MPD2     C13196   3.867   4.661  13.031 -1.4077 -0.1615 -0.3055
  901MPD2    C113197   3.903   4.669  12.899 -0.2639  0.2230 -0.0895
  901MPD2    C213198   3.876   0.065  12.835  1.1450  0.2691 -0.1316
  901MPD2    C313199   3.822   0.178  12.903  0.2469 -0.0776  0.2843
  901MPD2    C413200   3.781   0.158  13.035 -0.5173  0.5584 -0.4211
  901MPD2    C513201   3.800   0.039  13.097 -0.9845  0.2956 -0.8528
  901MPD2     H13202   3.895   0.083  12.730 -1.3009  0.0182 -0.6219
  901MPD2    H113203   3.728   0.238  13.085 -0.8172  1.2885 -1.9076
  901MPD2    H213204   3.890   4.570  13.085  0.5404 -0.3945 -1.5432
  901MPD2    H313205   3.778   0.033  13.203  1.0009 -0.8512 -0.4938
  901MPD2     N13206   3.816   0.303  12.835  0.4335  0.6852 -0.7109
  901MPD2    H513207   3.835   0.299  12.735 -1.9009  0.1049 -1.1339
  901MPD2    N113208   3.962   4.557  12.830 -0.4912  0.2253 -0.1483
  901MPD2    H713209   3.967   4.470  12.883  1.5282 -0.4776 -1.5051
  902MPD2     C13210   2.834   4.257  13.167 -0.4851 -0.3283  0.4997
  902MPD2    C113211   2.763   4.200  13.056 -0.8830  0.3378  0.1631
  902MPD2    C213212   2.825   4.101  12.979  0.7962 -0.8938  0.6923
  902MPD2    C313213   2.952   4.053  13.009 -0.1998 -0.4685  0.4990
  902MPD2    C413214   3.014   4.105  13.125 -0.0652 -0.3144 -0.3260
  902MPD2    C513215   2.957   4.208  13.196  0.8357 -0.6947  0.4895
  902MPD2     H13216   2.767   4.049  12.904  0.7092  0.1279  0.0582
  902MPD2    H113217   3.109   4.072  13.165  0.5251  0.3442 -1.1956
  902MPD2    H213218   2.793   4.331  13.235  0.2115 -0.6253  1.2370
  902MPD2    H313219   3.011   4.248  13.281 -2.5395 -0.4887  2.5481
  902MPD2     N13220   3.028   3.965  12.927  0.2091 -0.1780  0.0222
  902MPD2    H513221   3.117   3.926  12.958  0.2027  0.8445  1.3407
  902MPD2    N113222   2.635   4.246  13.039  0.1961  0.6722  0.1762
  902MPD2    H713223   2.601   4.291  13.123 -0.7583  1.1020 -0.4353
  903MPD2     C13224   3.187   3.658  12.044 -0.0486 -0.7907  0.2281
  903MPD2    C113225   3.105   3.745  12.112 -0.4025  0.1786 -0.2725
  903MPD2    C213226   2.996   3.803  12.051 -0.1966 -0.2490  0.8781
  903MPD2    C313227   2.977   3.779  11.915  0.0831 -0.7096  1.0033
  903MPD2    C413228   3.063   3.700  11.839  0.3467  0.1389  1.0938
  903MPD2    C513229   3.164   3.634  11.908  0.8858 -1.3181  0.5296
  903MPD2     H13230   2.921   3.854  12.109  0.9341  0.4888  1.6967
  903MPD2    H113231   3.062   3.673  11.734  1.0365  1.4790  0.7428
  903MPD2    H213232   3.274   3.609  12.087 -0.5089 -2.3877 -0.6562
  903MPD2    H313233   3.227   3.566  11.852  1.1837 -1.7276  1.3596
  903MPD2     N13234   2.861   3.842  11.865 -0.4100  0.3960  0.0776
  903MPD2    H513235   2.817   3.912  11.925  1.8171  0.3827  1.7083
  903MPD2    N113236   3.130   3.757  12.248 -0.3247 -0.3547  0.6687
  903MPD2    H713237   3.205   3.702  12.288 -1.1825 -0.8976  1.5421
  904MPD2     C13238   2.559   3.112  13.366  0.4468  0.0824 -1.0459
  904MPD2    C113239   2.482   3.068  13.466  0.3206 -0.3931 -0.6260
  904MPD2    C213240   2.534   3.037  13.587  0.3033 -0.2153 -0.2822
  904MPD2    C313241   2.673   3.043  13.606 -0.1808 -0.3527 -0.1590
  904MPD2    C413242   2.754   3.071  13.501 -0.7030 -0.0739 -0.3987
  904MPD2    C513243   2.694   3.101  13.388  0.2487 -0.6004  0.0193
  904MPD2     H13244   2.472   3.027  13.675 -1.1086 -1.8832 -1.4864
  904MPD2    H113245   2.862   3.063  13.502 -0.6629  0.2206 -5.0888
  904MPD2    H213246   2.522   3.145  13.270 -2.6627 -0.0458  0.1035
  904MPD2    H313247   2.751   3.131  13.300  0.4201 -1.7902 -0.2702
  904MPD2     N13248   2.723   3.019  13.735 -0.3896 -0.8544  0.0410
  904MPD2    H513249   2.659   2.992  13.809  1.7531  0.2709  2.2893
  904MPD2    N113250   2.345   3.092  13.460  0.2744  0.5942  0.5483
  904MPD2    H713251   2.295   3.088  13.549  1.5450 -0.8809  1.2054
  905MPD2     C13252   2.567   3.342  13.001 -0.0994 -0.1618  1.3886
  905MPD2    C113253   2.575   3.392  13.130  0.8079 -0.4670 -1.3836
  905MPD2    C213254   2.694   3.392  13.193 -0.6356  0.1158 -1.0712
  905MPD2    C313255   2.802   3.327  13.137 -0.3465  0.2224  0.6964
  905MPD2    C413256   2.793   3.288  13.005  0.8371 -0.4914 -0.3997
  905MPD2    C513257   2.673   3.299  12.934 -0.1756  0.4341 -0.0455
  905MPD2     H13258   2.694   3.414  13.300  0.1130  2.4813 -1.5561
  905MPD2    H113259   2.874   3.246  12.948  1.3503 -0.0866  0.0215
  905MPD2    H213260   2.474   3.347  12.946  0.8929  0.8661 -0.2142
  905MPD2    H313261   2.661   3.252  12.837  0.7453 -1.0740  0.5830
  905MPD2     N13262   2.920   3.312  13.212  0.2324  0.3254  0.0358
  905MPD2    H513263   2.928   3.358  13.302 -1.4778 -1.2485  1.0058
  905MPD2    N113264   2.449   3.424  13.187 -0.9846 -0.2302  0.1566
  905MPD2    H713265   2.369   3.401  13.129  0.9794  1.0487 -3.0180
  906MPD2     C13266   0.142   2.732  11.163 -0.2604  0.1906 -0.7315
  906MPD2    C113267   0.054   2.668  11.072  0.1148  0.3027 -0.6490
  906MPD2    C213268   4.689   2.583  11.117  0.0509  0.5851 -1.0571
  906MPD2    C313269   4.673   2.556  11.257 -0.7146  1.2116 -0.3062
  906MPD2    C413270   0.032   2.623  11.344 -0.0899 -0.1294  0.5731
  906MPD2    C513271   0.129   2.705  11.294  0.3511  0.4677  0.6338
  906MPD2     H13272   4.629   2.527  11.046  0.1028 -0.6495 -0.1417
  906MPD2    H113273   0.039   2.621  11.452  0.2412 -1.0691  0.5341
  906MPD2    H213274   0.229   2.789  11.132 -0.2537  0.0791 -0.9152
  906MPD2    H313275   0.176   2.771  11.365  1.7895 -0.9847  1.0355
  906MPD2     N13276   4.587   2.452  11.312 -0.5343 -0.3145  0.2331
  906MPD2    H513277   4.603   2.420  11.407  1.7191  0.5769  0.1570
  906MPD2    N113278   0.056   2.684  10.933  0.0494  0.2114 -0.1097
  906MPD2    H713279   0.000   2.615  10.884  1.1068 -0.6829 -0.0629
  907MPD2     C13280   3.644   1.946  15.432  0.2530 -0.2485  0.6438
  907MPD2    C113281   3.622   1.808  15.425 -0.2606  0.0043  0.3998
  907MPD2    C213282   3.634   1.730  15.539 -0.4585 -0.0302 -0.0266
  907MPD2    C313283   3.666   1.782  15.659  0.1867  0.4278  0.0418
  907MPD2    C413284   3.686   1.922  15.666  0.1616 -0.2152 -0.2599
  907MPD2    C513285   3.677   1.999  15.550 -0.2531 -0.3194 -0.0203
  907MPD2     H13286   3.607   1.625  15.530  1.6967 -0.4179 -1.9799
  907MPD2    H113287   3.712   1.972  15.759 -1.6108 -0.5447  0.4146
  907MPD2    H213288   3.655   2.014  15.349  0.0580  1.1662  1.7752
  907MPD2    H313289   3.695   2.105  15.559  1.7275 -0.7897  1.6150
  907MPD2     N13290   3.649   1.699  15.772  0.6723 -0.1755 -0.1548
  907MPD2    H513291   3.652   1.600  15.749  1.7905  0.4804 -2.8079
  907MPD2    N113292   3.588   1.737  15.301 -0.1325 -0.2827 -0.1928
  907MPD2    H713293   3.589   1.636  15.293 -0.2381 -0.3264  0.3797
  908MPD2     C13294   2.106   2.354   9.744  0.2519 -0.5039  0.9027
  908MPD2    C113295   1.992   2.285   9.783 -0.5757 -0.3452  0.7632
  908MPD2    C213296   1.913   2.336   9.884  0.2644  0.3016 -0.4614
  908MPD2    C313297   1.935   2.469   9.929  0.2977  0.5724  0.1107
  908MPD2    C413298   2.045   2.538   9.880  0.1361 -0.2779 -0.1627
  908MPD2    C513299   2.134   2.477   9.802  0.2570  0.1285  0.0226
  908MPD2     H13300   1.832   2.281   9.931  3.4454 -3.2437  0.8887
  908MPD2    H113301   2.082   2.632   9.920  0.0565  0.8680 -2.7974
  908MPD2    H213302   2.171   2.317   9.666  0.0980  0.1940  0.4485
  908MPD2    H313303   2.215   2.537   9.763  2.1503 -2.3647  0.1732
  908MPD2     N13304   1.844   2.529  10.022  0.7167  0.1612 -0.0880
  908MPD2    H513305   1.782   2.459  10.060 -0.1744  1.9678  1.7467
  908MPD2    N113306   1.979   2.166   9.706  0.0964  0.3432  0.3694
  908MPD2    H713307   2.033   2.166   9.620  0.9296 -0.3353  0.9021
  909MPD2     C13308   1.676   0.328  11.670  0.0088 -1.0246  0.5175
  909MPD2    C113309   1.664   0.468  11.654 -0.0808 -0.0552 -0.0890
  909MPD2    C213310   1.584   0.544  11.739 -0.6157  0.4009 -0.5180
  909MPD2    C313311   1.506   0.486  11.837  0.2238 -0.4694 -0.4878
  909MPD2    C413312   1.511   0.348  11.845 -0.5554  0.6136 -0.2317
  909MPD2    C513313   1.591   0.270  11.759 -0.3810  0.1041  0.4535
  909MPD2     H13314   1.574   0.650  11.718 -1.6208  0.0742 -1.7094
  909MPD2    H113315   1.453   0.305  11.926 -0.9909  0.2998 -0.7086
  909MPD2    H213316   1.744   0.270  11.610 -1.7249 -1.6415 -0.8327
  909MPD2    H313317   1.593   0.162  11.752 -0.5550  0.0883  0.6650
  909MPD2     N13318   1.431   0.576  11.915 -0.1327 -0.0410 -0.2027
  909MPD2    H513319   1.418   0.669  11.877 -0.1475 -0.3522 -0.9649
  909MPD2    N113320   1.734   0.536  11.547  0.5384  0.3395 -0.1043
  909MPD2    H713321   1.737   0.637  11.558  0.1576  0.4054 -0.6187
  910MPD2     C13322   2.723   2.420  15.980  0.6674  0.3268  0.0859
  910MPD2    C113323   2.765   2.329  15.878  0.2368 -0.1429  0.2865
  910MPD2    C213324   2.695   2.336  15.762 -0.2267 -0.5314  0.4573
  910MPD2    C313325   2.572   2.400  15.749  0.4318 -0.6789  1.0287
  910MPD2    C413326   2.530   2.473  15.858 -0.3033 -0.7867 -0.0668
  910MPD2    C513327   2.607   2.486  15.970  0.2432  0.0889  0.4961
  910MPD2     H13328   2.733   2.274  15.681 -0.4378  1.4693 -1.1614
  910MPD2    H113329   2.443   2.537  15.856  0.8824  0.8471 -0.0553
  910MPD2    H213330   2.771   2.427  16.077  1.9570  0.3212 -0.5564
  910MPD2    H313331   2.578   2.554  16.049 -2.0513 -1.0039  0.5985
  910MPD2     N13332   2.493   2.414  15.631 -0.6255  0.1206  0.5509
  910MPD2    H513333   2.413   2.477  15.636 -0.4820  0.4928 -2.1727
  910MPD2    N113334   2.883   2.251  15.893 -0.3072  0.5363 -0.5210
  910MPD2    H713335   2.901   2.192  15.813 -0.7505  0.8932 -0.8828
  911MPD2     C13336   0.527   2.821  16.223 -0.8809 -0.3569  0.3758
  911MPD2    C113337   0.577   2.904  16.316  0.0243 -0.3905  0.3885
  911MPD2    C213338   0.498   3.016  16.354  0.7670  0.4394 -0.7336
  911MPD2    C313339   0.385   3.053  16.282  0.2540 -0.6563  0.4196
  911MPD2    C413340   0.342   2.963  16.185 -0.2896 -0.6934  0.2600
  911MPD2    C513341   0.417   2.857  16.148 -0.1773 -0.5146  0.4616
  911MPD2     H13342   0.526   3.080  16.437 -1.5550  1.3769 -0.6860
  911MPD2    H113343   0.250   2.976  16.130  0.4136  0.5602 -0.6256
  911MPD2    H213344   0.580   2.732  16.191  0.7094  0.3761  0.9657
  911MPD2    H313345   0.378   2.797  16.066 -1.7864  1.1647 -0.0230
  911MPD2     N13346   0.296   3.155  16.301  0.6242 -0.1591  0.4075
  911MPD2    H513347   0.209   3.165  16.248  1.5104  2.8748 -0.4819
  911MPD2    N113348   0.687   2.853  16.390 -0.0311 -0.5548 -0.5678
  911MPD2    H713349   0.715   2.757  16.376 -1.9557 -1.0464 -1.0209
  912MPD2     C13350   0.041   3.113  15.737  0.0097 -0.4220  0.3590
  912MPD2    C113351   0.048   3.100  15.874  0.4192  0.5522 -0.1490
  912MPD2    C213352   0.063   2.973  15.921  1.1113  0.1649  0.1977
  912MPD2    C313353   0.079   2.860  15.835 -0.4788  1.0198  0.1214
  912MPD2    C413354   0.082   2.886  15.702 -0.5288  0.8229 -0.4452
  912MPD2    C513355   0.063   3.013  15.654  0.5196 -0.6064  0.4430
  912MPD2     H13356   0.058   2.946  16.026  2.8177  1.9424  0.7314
  912MPD2    H113357   0.109   2.816  15.624 -0.9632  0.6525 -0.4459
  912MPD2    H213358   0.044   3.210  15.688  0.1333 -1.7153 -2.1828
  912MPD2    H313359   0.048   3.036  15.549 -0.4418 -1.3996  0.4163
  912MPD2     N13360   0.112   2.738  15.900  0.3671  0.4927  0.2860
  912MPD2    H513361   0.086   2.727  15.997  0.9181  1.2289  0.5188
  912MPD2    N113362   0.053   3.214  15.954  0.3850 -0.4898 -0.0832
  912MPD2    H713363   0.032   3.303  15.910  1.7419  0.5750  1.4377
  913MPD2     C13364   1.505   3.829  10.018 -0.7955  0.4008  1.0250
  913MPD2    C113365   1.519   3.900  10.132 -0.7230  0.2370  0.6308
  913MPD2    C213366   1.561   4.033  10.129  0.1119  0.1249 -0.1852
  913MPD2    C313367   1.599   4.083  10.008 -1.0540  0.4461  0.7811
  913MPD2    C413368   1.577   4.018   9.891 -0.6067  0.5591  0.1258
  913MPD2    C513369   1.534   3.887   9.899 -0.0883 -1.0070  0.3003
  913MPD2     H13370   1.581   4.088  10.220  0.6158 -1.0826  0.4289
  913MPD2    H113371   1.600   4.069   9.798  2.0280  1.6066  1.3463
  913MPD2    H213372   1.477   3.724  10.020 -0.3258  0.2429 -0.8508
  913MPD2    H313373   1.507   3.834   9.808  0.2761  2.5015 -1.8556
  913MPD2     N13374   1.653   4.217   9.989  0.3854 -0.4293  0.7539
  913MPD2    H513375   1.661   4.252   9.895 -0.5323 -1.3553  0.3307
  913MPD2    N113376   1.473   3.844  10.252 -0.2053 -0.1513 -0.3089
  913MPD2    H713377   1.436   3.750  10.240 -1.0336  0.1656 -0.2176
  914MPD2     C13378   4.117   4.379  11.844 -0.7745 -0.0252 -0.3010
  914MPD2    C113379   4.115   4.507  11.889  1.0801 -0.2387  0.4264
  914MPD2    C213380   4.137   4.524  12.025 -0.3070 -0.5514  0.1363
  914MPD2    C313381   4.157   4.415  12.106 -1.0595  0.1254  0.6536
  914MPD2    C413382   4.174   4.293  12.051  0.2346  0.1987 -0.2069
  914MPD2    C513383   4.149   4.275  11.921  0.8109 -0.3125 -0.0344
  914MPD2     H13384   4.134   4.624  12.068 -1.4418 -0.0333 -1.1132
  914MPD2    H113385   4.194   4.199  12.100  0.1469  0.5723  0.5428
  914MPD2    H213386   4.085   4.353  11.744  0.8616  1.3902 -1.1934
  914MPD2    H313387   4.157   4.172  11.886 -0.5581 -0.8291  1.1480
  914MPD2     N13388   4.173   4.429  12.247 -0.6262 -0.0153 -0.0233
  914MPD2    H513389   4.171   4.522  12.289 -1.4146  0.3451 -0.8549
  914MPD2    N113390   4.069   4.610  11.806 -0.0260 -0.4992 -0.2490
  914MPD2    H713391   4.056   4.591  11.707  1.0991 -2.1251 -0.0974
  915MPD2     C13392   1.760   4.273  15.356  0.0322  0.2741 -0.9971
  915MPD2    C113393   1.640   4.333  15.319  0.2483 -0.2490  0.1421
  915MPD2    C213394   1.564   4.387  15.427 -0.1757 -0.6114 -0.4992
  915MPD2    C313395   1.598   4.356  15.553  0.0251  0.0944  0.1026
  915MPD2    C413396   1.717   4.289  15.582 -0.1775 -0.1065  0.4164
  915MPD2    C513397   1.795   4.249  15.481  0.7423 -0.5421 -0.1926
  915MPD2     H13398   1.474   4.442  15.401  0.0169 -0.2754 -0.4518
  915MPD2    H113399   1.752   4.292  15.684  2.4037 -0.8284 -0.4369
  915MPD2    H213400   1.831   4.232  15.285  0.8423 -0.9042  0.4966
  915MPD2    H313401   1.888   4.202  15.512  1.8765  2.3520  0.8004
  915MPD2     N13402   1.511   4.393  15.654  0.2050 -0.0993  0.5868
  915MPD2    H513403   1.421   4.431  15.625  0.2717 -0.0781  0.4139
  915MPD2    N113404   1.615   4.326  15.179  0.6153  0.1209  0.0521
  915MPD2    H713405   1.672   4.259  15.129 -0.6821 -1.9169  1.2982
  916MPD2     C13406   4.401   2.856  15.643 -0.2732 -0.1027 -0.0536
  916MPD2    C113407   4.385   2.755  15.733 -0.2827 -0.3867  1.0181
  916MPD2    C213408   4.466   2.642  15.719 -0.8327 -0.6291 -0.4368
  916MPD2    C313409   4.551   2.633  15.616 -1.1027 -0.0842 -0.6822
  916MPD2    C413410   4.562   2.730  15.518  0.1024 -0.3938  0.0037
  916MPD2    C513411   4.493   2.847  15.538  0.4909 -0.3484  0.4569
  916MPD2     H13412   4.471   2.566  15.797  1.5226  1.5822  1.5992
  916MPD2    H113413   4.634   2.731  15.437  0.9272 -0.4091  0.7423
  916MPD2    H213414   4.354   2.954  15.645  0.4967  0.2424  1.4258
  916MPD2    H313415   4.497   2.928  15.466 -0.9436 -0.1765  0.5645
  916MPD2     N13416   4.630   2.518  15.611 -0.1728  0.2603  0.0334
  916MPD2    H513417   4.606   2.444  15.677  0.8900 -0.6335 -0.5681
  916MPD2    N113418   4.292   2.779  15.844 -0.3232  0.1653  0.1441
  916MPD2    H713419   4.250   2.871  15.846 -0.8978 -0.0736 -1.1343
  917MPD2     C13420   0.569   4.445  11.254  0.0823 -0.6283 -0.2596
  917MPD2    C113421   0.512   4.553  11.312 -0.2899  0.0450 -0.2566
  917MPD2    C213422   0.538   4.676  11.262 -0.6401 -0.4981  0.9732
  917MPD2    C313423   0.619   4.693  11.150  0.5094 -0.5139  0.4429
  917MPD2    C413424   0.687   4.584  11.104 -0.1730  0.1178  0.3514
  917MPD2    C513425   0.661   4.458  11.155 -0.0531  0.4680  1.2134
  917MPD2     H13426   0.489   0.034  11.310  0.9184  0.9492  0.0598
  917MPD2    H113427   0.762   4.590  11.027  0.7669  0.0825  1.2613
  917MPD2    H213428   0.566   4.345  11.296 -2.3119 -0.6946 -0.6085
  917MPD2    H313429   0.694   4.367  11.106 -1.4645  0.2062  0.7275
  917MPD2     N13430   0.640   0.091  11.083 -0.6740 -0.2448  0.2883
  917MPD2    H513431   0.710   0.091  11.009 -0.5438 -4.0163  0.3897
  917MPD2    N113432   0.419   4.525  11.415 -0.5606 -0.4226  0.2264
  917MPD2    H713433   0.396   4.428  11.435 -0.7453 -0.5865 -0.7620
  918MPD2     C13434   0.088   0.462  12.018  0.8938  0.4301 -0.8734
  918MPD2    C113435   0.219   0.418  12.029  0.1176  0.1186  0.3070
  918MPD2    C213436   0.246   0.285  11.993 -0.3859  0.0583 -0.1050
  918MPD2    C313437   0.142   0.208  11.941  0.2790 -0.7733  0.5262
  918MPD2    C413438   0.013   0.253  11.938  0.2750 -0.4019  0.3166
  918MPD2    C513439   4.711   0.384  11.976 -0.3345  0.2600  0.1256
  918MPD2     H13440   0.347   0.246  12.002 -0.9343 -0.5277  3.2094
  918MPD2    H113441   4.650   0.205  11.896 -0.3603  0.0808  1.0850
  918MPD2    H213442   0.060   0.562  12.050  0.1977  0.4417 -1.5217
  918MPD2    H313443   4.615   0.432  11.969 -0.0229  0.6687 -1.4130
  918MPD2     N13444   0.187   0.084  11.903  0.9748  0.6680 -0.5688
  918MPD2    H513445   0.288   0.069  11.902  0.7351 -0.9451  1.8077
  918MPD2    N113446   0.330   0.492  12.080 -0.5520  0.5380 -0.0759
  918MPD2    H713447   0.418   0.444  12.094 -1.1229 -0.6878 -0.7437
  919MPD2     C13448   1.253   4.187  11.652 -0.2431 -0.2556  0.2526
  919MPD2    C113449   1.237   4.058  11.606  0.7353  0.5401  0.1085
  919MPD2    C213450   1.235   4.028  11.472  0.2021 -0.0021  0.5161
  919MPD2    C313451   1.246   4.135  11.384 -0.3280 -0.2017 -0.1668
  919MPD2    C413452   1.259   4.264  11.432 -0.5971 -0.3639 -0.5265
  919MPD2    C513453   1.273   4.290  11.564  0.8266 -0.6121 -0.2175
  919MPD2     H13454   1.216   3.924  11.447 -0.8341  0.3201 -0.0056
  919MPD2    H113455   1.267   4.347  11.362  0.2930 -1.5227 -1.7820
  919MPD2    H213456   1.246   4.211  11.758 -3.4471 -1.9681  0.4276
  919MPD2    H313457   1.264   4.395  11.590 -0.4445 -0.8667  0.3809
  919MPD2     N13458   1.242   4.111  11.246 -0.5200  0.2170  0.3027
  919MPD2    H513459   1.247   4.196  11.191  0.6261  1.4405  2.2591
  919MPD2    N113460   1.217   3.944  11.701  0.1276  0.1294 -0.2224
  919MPD2    H713461   1.196   3.857  11.655  0.1498 -0.5454  1.0378
  920MPD2     C13462   1.147   4.241  10.228 -0.2688  0.1332  0.0978
  920MPD2    C113463   1.030   4.188  10.274 -0.5578 -0.3806  0.8077
  920MPD2    C213464   1.010   4.144  10.404 -0.6623  0.1794 -0.1668
  920MPD2    C313465   1.118   4.167  10.491  0.2134  0.3552 -0.0845
  920MPD2    C413466   1.238   4.209  10.442 -0.0252 -0.2098 -0.3471
  920MPD2    C513467   1.252   4.243  10.320 -0.1238 -0.6085 -0.4998
  920MPD2     H13468   0.913   4.114  10.440 -0.2588  0.1451  0.9018
  920MPD2    H113469   1.328   4.229  10.499  0.5463 -0.0618 -1.3021
  920MPD2    H213470   1.163   4.274  10.126 -2.3762  0.7329 -0.0307
  920MPD2    H313471   1.346   4.281  10.281 -1.1591  0.8768 -1.5785
  920MPD2     N13472   1.093   4.140  10.628  0.7170  0.0445  0.3810
  920MPD2    H513473   0.999   4.114  10.657 -0.1006 -0.9973 -3.1798
  920MPD2    N113474   0.912   4.185  10.190 -0.7355  0.2466  0.5434
  920MPD2    H713475   0.830   4.148  10.235  0.0686  0.3914  2.1195
  921MPD2     C13476   1.444   3.246  16.621 -0.1287 -0.2976  0.6196
  921MPD2    C113477   1.437   3.114  16.600  0.0844  0.2907  0.2448
  921MPD2    C213478   1.339   3.035  16.653  0.7187  0.0046  0.0176
  921MPD2    C313479   1.234   3.093  16.711 -0.1932  0.1070 -0.6352
  921MPD2    C413480   1.232   3.232  16.718 -0.6420 -0.5066 -0.1754
  921MPD2    C513481   1.339   3.312  16.681  0.4429 -0.6442  0.4405
  921MPD2     H13482   1.343   2.929  16.633  1.7411  0.1167 -0.3976
  921MPD2    H113483   1.144   3.280  16.760  0.2011 -0.5884  1.6411
  921MPD2    H213484   1.528   3.297  16.575 -0.8091  0.7123  0.4728
  921MPD2    H313485   1.337   3.420  16.667  0.5361 -1.0606 -2.7959
  921MPD2     N13486   1.125   3.025  16.754 -0.4870 -0.1231  0.2627
  921MPD2    H513487   1.032   3.066  16.750 -0.2336  0.1512 -2.5504
  921MPD2    N113488   1.547   3.058  16.531 -0.0623  0.8580 -0.0361
  921MPD2    H713489   1.624   3.116  16.500 -1.0046  1.3116 -1.5161
  922MPD2     C13490   1.549   0.470  16.731 -0.4817 -0.0416  0.8310
  922MPD2    C113491   1.572   0.580  16.654 -0.2331  0.0406 -0.2241
  922MPD2    C213492   1.465   0.641  16.592  0.6637 -0.2898  0.1439
  922MPD2    C313493   1.333   0.594  16.600 -0.4666 -0.5435 -0.4802
  922MPD2    C413494   1.318   0.477  16.675 -0.1329  0.1113 -0.2778
  922MPD2    C513495   1.427   0.419  16.735  0.0115 -0.9217  0.9897
  922MPD2     H13496   1.477   0.737  16.543  0.9888 -0.4850 -0.1584
  922MPD2    H113497   1.221   0.430  16.689  0.7812 -1.6818  0.0540
  922MPD2    H213498   1.627   0.413  16.781 -0.5112 -0.5841  0.2617
  922MPD2    H313499   1.414   0.323  16.784  0.1391 -0.3023  2.2395
  922MPD2     N13500   1.221   0.669  16.556  0.4235 -0.4906 -0.5058
  922MPD2    H513501   1.234   0.745  16.491  0.8398 -1.4285 -1.5138
  922MPD2    N113502   1.695   0.650  16.667  0.4000  0.2982 -0.1684
  922MPD2    H713503   1.695   0.739  16.619 -1.8096  0.7624  0.6650
  923MPD2     C13504   4.083   2.177   9.215  0.4914 -0.5065  0.7035
  923MPD2    C113505   4.112   2.266   9.318 -0.0035 -0.1746 -0.0993
  923MPD2    C213506   4.205   2.230   9.414 -0.5118 -0.5009 -0.1148
  923MPD2    C313507   4.267   2.107   9.404 -0.3166 -0.1532 -0.0860
  923MPD2    C413508   4.217   2.017   9.307 -0.2257 -0.5197  0.1272
  923MPD2    C513509   4.137   2.058   9.211  0.2789  0.2759 -0.1377
  923MPD2     H13510   4.232   2.300   9.493 -1.4594 -0.0839 -0.1618
  923MPD2    H113511   4.250   1.915   9.293  3.3314  0.6827 -0.4272
  923MPD2    H213512   4.028   2.206   9.126  2.1770  0.5030 -0.0155
  923MPD2    H313513   4.111   1.996   9.126 -0.5524 -0.2366  0.4861
  923MPD2     N13514   4.360   2.059   9.505 -0.2271 -0.2183  0.4827
  923MPD2    H513515   4.396   1.967   9.483  0.8049  1.0826 -3.3924
  923MPD2    N113516   4.045   2.384   9.312 -0.2526  0.8058 -0.0964
  923MPD2    H713517   3.992   2.391   9.226  0.7327 -0.1067 -0.7795
  924MPD2     C13518   3.732   0.907  15.674 -0.4608 -0.1497 -0.0382
  924MPD2    C113519   3.652   0.917  15.785  0.1538  0.2146  0.3845
  924MPD2    C213520   3.667   1.026  15.864  0.0306 -0.2855 -0.1850
  924MPD2    C313521   3.756   1.129  15.830  0.3598  0.1692  0.5221
  924MPD2    C413522   3.832   1.117  15.720  0.1151 -0.0452  0.4512
  924MPD2    C513523   3.826   1.007  15.644 -0.3233 -0.7882 -0.6899
  924MPD2     H13524   3.603   1.043  15.950  0.6415 -2.9092  0.7718
  924MPD2    H113525   3.899   1.195  15.686 -0.5689  0.5896  0.5347
  924MPD2    H213526   3.725   0.822  15.607 -3.1574  0.7856 -0.9445
  924MPD2    H313527   3.898   1.000  15.564 -1.3478 -1.1938 -1.5762
  924MPD2     N13528   3.758   1.253  15.899  0.5647 -0.0273  0.0620
  924MPD2    H513529   3.810   1.335  15.871 -1.2315  1.1210  0.1564
  924MPD2    N113530   3.563   0.807  15.799 -0.0939  0.5031  0.1152
  924MPD2    H713531   3.587   0.735  15.732  1.8667 -0.0117  1.3832
  925MPD2     C13532   2.481   3.851  14.834 -0.5636  0.2926 -0.0138
  925MPD2    C113533   2.359   3.904  14.796  0.4374 -0.2526  0.0605
  925MPD2    C213534   2.254   3.914  14.883  0.3405  0.2137 -0.3541
  925MPD2    C313535   2.272   3.863  15.013 -0.3087  0.1850 -0.4725
  925MPD2    C413536   2.391   3.811  15.052 -0.1824  0.1226 -0.0812
  925MPD2    C513537   2.494   3.802  14.964 -0.3660 -0.5339  0.4832
  925MPD2     H13538   2.158   3.952  14.848 -0.6570 -0.5381  1.5845
  925MPD2    H113539   2.397   3.763  15.149  0.3084  4.4422  2.0349
  925MPD2    H213540   2.563   3.852  14.763  0.1997  0.0634  0.8707
  925MPD2    H313541   2.583   3.749  14.995  0.3637 -1.0927 -2.5748
  925MPD2     N13542   2.168   3.852  15.108 -0.1623  0.1791 -0.5014
  925MPD2    H513543   2.184   3.815  15.201 -1.0202 -0.2209 -0.5089
  925MPD2    N113544   2.333   3.941  14.659 -0.0397 -0.0632 -0.0296
  925MPD2    H713545   2.235   3.952  14.635  0.2624  1.7035 -0.4785
  926MPD2     C13546   1.899   2.409  13.306 -1.0541 -0.1213 -0.0560
  926MPD2    C113547   1.778   2.446  13.255 -0.0909 -0.6115  0.3585
  926MPD2    C213548   1.773   2.524  13.143 -0.3506 -0.0141 -0.2214
  926MPD2    C313549   1.889   2.586  13.094  0.3790 -0.6998 -0.7823
  926MPD2    C413550   2.010   2.547  13.155  0.4633  0.5665  0.2432
  926MPD2    C513551   2.014   2.449  13.254 -0.5409  0.2771  0.5490
  926MPD2     H13552   1.676   2.551  13.102  1.8889  2.5525 -3.8128
  926MPD2    H113553   2.100   2.596  13.120  1.2698 -1.2324 -0.1809
  926MPD2    H213554   1.909   2.329  13.378 -0.1501 -0.4326 -0.5355
  926MPD2    H313555   2.102   2.406  13.300  0.2672 -0.1298 -1.3557
  926MPD2     N13556   1.894   2.671  12.984 -0.4493 -0.2292 -0.3744
  926MPD2    H513557   1.983   2.699  12.944  0.6818 -1.7312  1.1102
  926MPD2    N113558   1.654   2.392  13.300 -0.3493  0.1949 -0.1961
  926MPD2    H713559   1.571   2.427  13.254 -0.5490  1.7196  1.2966
  927MPD2     C13560   0.125   4.567   0.057 -0.2822 -0.0030 -1.1019
  927MPD2    C113561   0.236   4.557   0.140 -0.2365  0.6045 -0.9144
  927MPD2    C213562   0.357   4.531   0.075  0.1677 -0.2699  0.1490
  927MPD2    C313563   0.365   4.518  17.638  0.0293  0.3654 -0.7565
  927MPD2    C413564   0.256   4.548  17.564 -0.2455  0.5430 -0.4213
  927MPD2    C513565   0.135   4.562  17.624  0.5598 -0.7682 -0.1351
  927MPD2     H13566   0.448   4.522   0.133 -0.0013  1.3971  0.6707
  927MPD2    H113567   0.267   4.544  17.456 -0.8667  0.4627 -0.4787
  927MPD2    H213568   0.024   4.574   0.096  0.1664  1.2386 -0.1532
  927MPD2    H313569   0.050   4.587  17.561  0.6005 -0.0382  0.1022
  927MPD2     N13570   0.495   4.503  17.577 -0.2947  0.4095 -0.2896
  927MPD2    H513571   0.570   4.506  17.644  0.0542 -1.1363 -0.6049
  927MPD2    N113572   0.215   4.557   0.283  0.2808 -0.2901 -0.1253
  927MPD2    H713573   0.118   4.573   0.309  0.4072 -0.1035  0.2301
  928MPD2     C13574   4.170   2.618   1.188  0.1326  0.3943  0.2914
  928MPD2    C113575   4.104   2.738   1.221 -0.1323 -0.7248 -0.0511
  928MPD2    C213576   4.101   2.841   1.124  0.5957  0.7732 -0.5336
  928MPD2    C313577   4.168   2.834   1.005 -0.4471 -0.4873  0.0261
  928MPD2    C413578   4.250   2.722   0.977  0.5208 -0.6087 -0.0840
  928MPD2    C513579   4.235   2.611   1.063 -0.3769  0.1187 -0.0044
  928MPD2     H13580   4.033   2.925   1.132 -1.8693 -1.2902 -0.1046
  928MPD2    H113581   4.304   2.724   0.883  0.5596  0.1987 -0.0481
  928MPD2    H213582   4.179   2.528   1.248 -0.8373 -0.2594 -0.5494
  928MPD2    H313583   4.301   2.528   1.045 -0.4557  0.1547 -0.4597
  928MPD2     N13584   4.166   2.933   0.901 -0.4742 -0.0944 -0.2626
  928MPD2    H513585   4.204   2.920   0.808  3.4749  0.7562  1.2094
  928MPD2    N113586   4.034   2.748   1.345  0.6621  0.4812  0.1666
  928MPD2    H713587   4.067   2.689   1.421 -0.0151  0.8447  0.7336
  929MPD2     C13588   3.737   2.563  10.084 -0.4126  0.4191 -0.2817
  929MPD2    C113589   3.751   2.435  10.125  0.5519 -0.1375  0.0459
  929MPD2    C213590   3.668   2.342  10.072 -0.2673  0.4289  0.5286
  929MPD2    C313591   3.553   2.379   9.998  0.4628 -0.4074 -0.3675
  929MPD2    C413592   3.550   2.507   9.952  0.3362 -0.1042  0.2056
  929MPD2    C513593   3.639   2.596   9.997  0.4223 -0.2359  0.3589
  929MPD2     H13594   3.664   2.239  10.105 -0.8346  0.7910  1.5935
  929MPD2    H113595   3.475   2.547   9.884  0.7804  2.3788  1.1767
  929MPD2    H213596   3.797   2.647  10.115  3.3092 -1.8047 -1.4125
  929MPD2    H313597   3.622   2.698   9.966 -0.3838 -0.7177 -0.7915
  929MPD2     N13598   3.440   2.298   9.966 -0.9532  0.9377  0.0837
  929MPD2    H513599   3.386   2.333   9.888 -1.3033 -1.9123 -0.9597
  929MPD2    N113600   3.854   2.413  10.227  0.0941  0.5400  0.6156
  929MPD2    H713601   3.894   2.499  10.264 -1.9495  2.4734 -1.7109
  930MPD2     C13602   0.362   0.637  13.719  0.1586 -0.0318 -0.1344
  930MPD2    C113603   0.472   0.557  13.749 -0.2029  0.7900 -0.4767
  930MPD2    C213604   0.514   0.465  13.653  0.7914  0.2617 -0.4447
  930MPD2    C313605   0.438   0.433  13.541 -0.4781  0.2845 -0.2205
  930MPD2    C413606   0.324   0.511  13.518 -0.4439  0.7056 -0.9113
  930MPD2    C513607   0.285   0.605  13.611  1.2456 -0.1281  0.1425
  930MPD2     H13608   0.612   0.420  13.663  0.2386 -0.4207  1.8979
  930MPD2    H113609   0.266   0.484  13.431  0.2610  0.9120 -1.4398
  930MPD2    H213610   0.321   0.712  13.785  0.8183  0.1216  0.0987
  930MPD2    H313611   0.185   0.646  13.600  0.8057 -1.1839  0.1916
  930MPD2     N13612   0.485   0.343  13.453 -0.2422 -0.1442  0.2995
  930MPD2    H513613   0.422   0.333  13.374  1.0774  0.4483 -0.8137
  930MPD2    N113614   0.554   0.587  13.860 -1.0613 -0.8680 -0.0343
  930MPD2    H713615   0.531   0.670  13.914  0.0618 -0.6621  0.1255
  931MPD2     C13616   0.497   3.977   0.654 -0.9866 -0.2514  0.0959
  931MPD2    C113617   0.432   4.062   0.748  0.1572  0.0875  0.4081
  931MPD2    C213618   0.443   4.032   0.877  0.0875  0.4168 -0.1627
  931MPD2    C313619   0.497   3.916   0.916 -0.2459 -0.2467  0.0488
  931MPD2    C413620   0.556   3.828   0.824  0.9419 -0.4887 -0.1601
  931MPD2    C513621   0.551   3.859   0.690 -0.3332 -0.0165 -0.9470
  931MPD2     H13622   0.426   4.118   0.940  1.6959  0.7851 -0.2158
  931MPD2    H113623   0.582   3.728   0.857 -0.8809 -0.5177  1.1882
  931MPD2    H213624   0.503   3.993   0.547  2.0800  0.4442  0.3788
  931MPD2    H313625   0.583   3.795   0.609 -1.4496  2.1293 -3.0992
  931MPD2     N13626   0.499   3.874   1.051 -0.4585  0.2411  0.6492
  931MPD2    H513627   0.551   3.788   1.067 -0.5407  0.0447 -0.1625
  931MPD2    N113628   0.368   4.178   0.700  0.6244  0.2151 -0.3515
  931MPD2    H713629   0.372   4.193   0.599 -0.1941  0.6106 -0.3235
  932MPD2     C13630   3.433   3.288  11.403  0.1364 -0.3649  0.2064
  932MPD2    C113631   3.436   3.378  11.506 -0.4451  0.3746  0.3395
  932MPD2    C213632   3.483   3.343  11.632  0.7922  0.9555  0.1665
  932MPD2    C313633   3.519   3.212  11.647 -0.0287 -0.0269  1.0712
  932MPD2    C413634   3.508   3.119  11.545  0.0449  0.5321  0.2854
  932MPD2    C513635   3.477   3.162  11.421 -0.0901  0.0494 -0.2884
  932MPD2     H13636   3.495   3.413  11.714  0.2627  0.5134  0.6218
  932MPD2    H113637   3.554   3.022  11.551 -2.2083 -0.6762 -1.9402
  932MPD2    H213638   3.417   3.310  11.298 -1.7729 -1.3787  0.2952
  932MPD2    H313639   3.475   3.086  11.344  0.6939  0.2779 -0.5262
  932MPD2     N13640   3.588   3.155  11.757  0.1509  0.0103  0.1855
  932MPD2    H513641   3.599   3.054  11.755  0.4047  0.0282  0.6324
  932MPD2    N113642   3.399   3.506  11.469  0.1464  0.6160 -0.1529
  932MPD2    H713643   3.374   3.523  11.372 -1.0758  0.5916  0.1609
  933MPD2     C13644   3.803   3.370   1.994  0.3705 -0.1467  0.1826
  933MPD2    C113645   3.744   3.322   1.881  0.6470  0.9426  0.5429
  933MPD2    C213646   3.670   3.411   1.804 -0.2799  0.7353 -0.5038
  933MPD2    C313647   3.647   3.538   1.844 -0.8289 -0.0623 -0.5334
  933MPD2    C413648   3.712   3.585   1.960  0.0992  0.3053  0.6409
  933MPD2    C513649   3.791   3.501   2.040  0.2534  0.4802  0.3207
  933MPD2     H13650   3.632   3.379   1.707 -0.2087 -1.0632  0.0770
  933MPD2    H113651   3.708   3.686   2.001 -2.4924  0.5565 -0.2357
  933MPD2    H213652   3.862   3.307   2.060  0.0674  0.5581  1.1185
  933MPD2    H313653   3.839   3.544   2.127 -0.5854  0.4835  0.7783
  933MPD2     N13654   3.564   3.614   1.765 -0.4351 -0.0109 -0.1086
  933MPD2    H513655   3.518   3.571   1.686  0.6526 -0.7909 -0.3201
  933MPD2    N113656   3.791   3.199   1.836  0.6185 -0.6000  0.0218
  933MPD2    H713657   3.861   3.159   1.898 -0.0542 -2.3146 -0.3197
  934MPD2     C13658   4.205   0.743   1.652  0.1656 -0.6051 -0.0154
  934MPD2    C113659   4.293   0.708   1.552  0.2208  0.2772  0.1151
  934MPD2    C213660   4.243   0.632   1.444  0.2189 -0.1142  0.9897
  934MPD2    C313661   4.110   0.607   1.421  0.1270 -0.1461 -0.0450
  934MPD2    C413662   4.023   0.657   1.515 -0.0955 -0.3828 -0.2127
  934MPD2    C513663   4.070   0.722   1.630  0.0257 -0.6378  0.1724
  934MPD2     H13664   4.318   0.597   1.374 -1.6908  0.0590 -1.1041
  934MPD2    H113665   3.916   0.638   1.509  0.2342 -2.1651 -0.4574
  934MPD2    H213666   4.222   0.792   1.747  0.7749 -0.1434 -0.3638
  934MPD2    H313667   3.990   0.747   1.700  0.8963 -1.0202  1.3015
  934MPD2     N13668   4.060   0.513   1.324  0.3678  0.2222 -0.2718
  934MPD2    H513669   3.960   0.496   1.322  0.4211 -0.1672  0.4787
  934MPD2    N113670   4.431   0.732   1.556  0.2525  0.1421  0.3687
  934MPD2    H713671   4.482   0.694   1.476  0.3382 -0.2116  0.5906
  935MPD2     C13672   4.304   4.293   1.068  0.9206 -0.7881  0.0351
  935MPD2    C113673   4.222   4.332   0.964 -0.2256 -0.0009  0.2466
  935MPD2    C213674   4.169   4.461   0.971 -0.4335  0.3475 -0.5472
  935MPD2    C313675   4.209   4.555   1.066  0.4672  0.8332 -0.2820
  935MPD2    C413676   4.283   4.511   1.172 -0.3489 -0.8628 -0.8754
  935MPD2    C513677   4.333   4.385   1.169  0.1896 -1.0531 -0.4827
  935MPD2     H13678   4.105   4.491   0.888 -1.1711  3.5720  1.2247
  935MPD2    H113679   4.308   4.580   1.251 -3.2815  0.7563 -1.3312
  935MPD2    H213680   4.356   4.198   1.073  0.9404 -0.8265 -0.8894
  935MPD2    H313681   4.397   4.360   1.253  0.6243  0.5617 -0.3261
  935MPD2     N13682   4.180   4.689   1.065  0.4253  1.0147  0.4782
  935MPD2    H513683   4.210   0.015   1.148 -0.5685 -0.9627  2.0392
  935MPD2    N113684   4.185   4.243   0.854 -0.0943 -0.0204  0.7938
  935MPD2    H713685   4.127   4.284   0.782 -1.4004  0.6666  2.2374
  936MPD2     C13686   3.807   2.025  13.397 -0.7311  0.4289  0.7039
  936MPD2    C113687   3.741   1.952  13.301  0.3354 -0.4357 -0.0484
  936MPD2    C213688   3.811   1.885  13.207 -0.1889  0.3856  0.1613
  936MPD2    C313689   3.953   1.887  13.201  0.1133 -0.6779  0.6038
  936MPD2    C413690   4.019   1.962  13.296  0.3567  0.1518  0.3854
  936MPD2    C513691   3.944   2.027  13.395 -1.2706  0.0328 -0.2049
  936MPD2     H13692   3.757   1.825  13.133  1.0201  1.2575 -1.4309
  936MPD2    H113693   4.127   1.965  13.305  0.3781 -2.4737  0.9327
  936MPD2    H213694   3.749   2.095  13.456 -0.8282  0.6198  0.3847
  936MPD2    H313695   4.000   2.092  13.461  1.2660 -0.2150 -2.0941
  936MPD2     N13696   4.025   1.821  13.101 -0.0788  0.4450 -0.7040
  936MPD2    H513697   4.122   1.847  13.090  0.7004 -1.4734  1.5469
  936MPD2    N113698   3.607   1.962  13.268 -0.0989  0.1572  0.4917
  936MPD2    H713699   3.581   1.923  13.178 -0.6905 -0.1539  0.8034
  937MPD2     C13700   1.228   3.319  11.548  0.0612 -0.7557 -0.0083
  937MPD2    C113701   1.319   3.411  11.582  0.3143  0.6511  0.2393
  937MPD2    C213702   1.403   3.445  11.486  0.2677  0.2406 -0.0616
  937MPD2    C313703   1.418   3.374  11.371  0.4375 -0.6284 -0.4431
  937MPD2    C413704   1.336   3.266  11.345 -0.3761  0.2241 -0.9562
  937MPD2    C513705   1.239   3.239  11.432  0.0068 -0.7964  0.3050
  937MPD2     H13706   1.458   3.537  11.505 -0.3895  0.2462  1.8673
  937MPD2    H113707   1.330   3.203  11.258  1.4930 -2.8991  1.1890
  937MPD2    H213708   1.138   3.302  11.607 -0.0576 -1.2527 -0.3399
  937MPD2    H313709   1.168   3.160  11.412 -0.2831 -0.6961  0.9167
  937MPD2     N13710   1.514   3.413  11.283  0.9540  0.1525  0.2395
  937MPD2    H513711   1.583   3.480  11.318  0.9139 -0.1492  0.8932
  937MPD2    N113712   1.305   3.496  11.691  0.6517 -0.5477  0.6879
  937MPD2    H713713   1.360   3.581  11.686  2.7086 -1.9144  0.4067
  938MPD2     C13714   3.271   4.716   0.607 -0.0843 -0.2215  1.1696
  938MPD2    C113715   3.336   0.080   0.695 -0.7586 -0.0136  0.8811
  938MPD2    C213716   3.352   0.040   0.828  0.2844  0.7371 -0.8502
  938MPD2    C313717   3.300   4.651   0.882  0.3181  0.5830 -0.0033
  938MPD2    C413718   3.264   4.556   0.788  0.7121  0.2253 -0.8304
  938MPD2    C513719   3.241   4.591   0.660  0.1711  0.4951  0.7739
  938MPD2     H13720   3.403   0.106   0.897  1.5323  0.2811 -1.3403
  938MPD2    H113721   3.216   4.465   0.821  1.4318 -0.1304 -0.7606
  938MPD2    H213722   3.254   0.009   0.502 -3.3386  3.0759  2.2772
  938MPD2    H313723   3.201   4.521   0.588 -0.0135  2.2682 -0.8655
  938MPD2     N13724   3.284   4.627   1.019  0.4439 -1.1181 -0.8162
  938MPD2    H513725   3.260   4.531   1.041  1.0267 -1.2876 -0.9199
  938MPD2    N113726   3.370   0.212   0.666  0.5149 -0.3011 -0.3640
  938MPD2    H713727   3.401   0.271   0.743 -1.1976  2.5662 -1.8775
  939MPD2     C13728   4.540   1.676   1.103  0.4598 -0.0226  0.5112
  939MPD2    C113729   4.636   1.757   1.046 -0.1917  0.4063  0.1938
  939MPD2    C213730   4.652   1.747   0.909 -0.0887 -0.3039 -0.0589
  939MPD2    C313731   4.572   1.659   0.830  0.4143  0.0890  0.6417
  939MPD2    C413732   4.471   1.589   0.893 -0.2455 -0.3201 -0.0306
  939MPD2    C513733   4.459   1.595   1.026  0.4440  0.1926  0.1902
  939MPD2     H13734   4.717   1.821   0.864  1.6069 -1.6263  0.2441
  939MPD2    H113735   4.407   1.518   0.843 -3.0601 -0.1088  3.3028
  939MPD2    H213736   4.522   1.676   1.210  0.9884 -0.9348  0.5986
  939MPD2    H313737   4.378   1.539   1.071  0.7104  0.9796  1.6229
  939MPD2     N13738   4.605   1.646   0.691 -0.6366  0.0834 -0.4834
  939MPD2    H513739   4.682   1.700   0.653  1.1185 -0.1355  2.7624
  939MPD2    N113740   4.711   1.834   1.142  0.2472  0.0031  0.1755
  939MPD2    H713741   4.680   1.821   1.238 -0.3235  1.6061  0.2047
  940MPD2     C13742   4.705   2.133  12.960  0.0480 -0.5866  0.1956
  940MPD2    C113743   4.614   2.039  13.008  1.2331  0.1191  0.1663
  940MPD2    C213744   4.577   1.940  12.921  0.2771 -0.1728 -0.2034
  940MPD2    C313745   4.641   1.919  12.803  0.5496 -0.0175  0.3391
  940MPD2    C413746   0.016   2.005  12.757 -0.2793 -0.4447  0.6335
  940MPD2    C513747   0.039   2.118  12.835  0.0827 -0.3750 -0.2059
  940MPD2     H13748   4.500   1.871  12.952 -0.1346  0.6974  0.7113
  940MPD2    H113749   0.064   1.982  12.662 -1.5871  0.6733 -0.2961
  940MPD2    H213750   0.001   2.227  13.009  1.3931  0.5431 -2.5351
  940MPD2    H313751   0.105   2.192  12.791  1.0639 -2.0414 -1.4946
  940MPD2     N13752   4.611   1.805  12.724  0.3290  0.5218 -0.0367
  940MPD2    H513753   4.670   1.785  12.645  0.6946  0.6551  0.2026
  940MPD2    N113754   4.535   2.054  13.122  0.3464  0.1880 -0.0041
  940MPD2    H713755   4.462   1.984  13.126  0.5783 -0.0028  0.9018
  941MPD2     C13756   3.258   0.708   9.436  0.5387  0.1393  0.4005
  941MPD2    C113757   3.308   0.643   9.550  0.0757  0.2041  0.0156
  941MPD2    C213758   3.247   0.532   9.607 -0.0107  0.4732  0.1983
  941MPD2    C313759   3.134   0.482   9.554  0.3437  0.2520 -0.3703
  941MPD2    C413760   3.086   0.544   9.438 -1.1166 -0.0206 -0.3619
  941MPD2    C513761   3.153   0.646   9.380 -0.2207 -0.0565 -0.3574
  941MPD2     H13762   3.285   0.493   9.701  1.4992  2.6821  0.4830
  941MPD2    H113763   3.004   0.501   9.382 -2.1409  0.2730  0.9051
  941MPD2    H213764   3.318   0.778   9.378 -0.5309 -0.4372 -1.3800
  941MPD2    H313765   3.115   0.675   9.283 -0.4648 -3.7186 -1.3784
  941MPD2     N13766   3.073   0.359   9.587 -0.3818  0.0042  0.8475
  941MPD2    H513767   3.004   0.319   9.524  0.0385  1.2395 -0.3905
  941MPD2    N113768   3.431   0.680   9.607  0.3208  0.3220 -0.7888
  941MPD2    H713769   3.466   0.625   9.684  1.9015  2.8238  0.2932
  942MPD2     C13770   2.559   2.562   9.435  0.1140 -0.2015 -0.5858
  942MPD2    C113771   2.567   2.491   9.317 -0.0512 -0.2177 -0.0716
  942MPD2    C213772   2.694   2.478   9.254 -0.9568  0.6015 -0.0680
  942MPD2    C313773   2.808   2.523   9.317  0.2604  0.3909  0.5795
  942MPD2    C413774   2.800   2.589   9.432  0.2245  0.6392 -0.4561
  942MPD2    C513775   2.678   2.610   9.491  0.5810 -0.0390 -0.1598
  942MPD2     H13776   2.701   2.424   9.160 -0.4265  2.8981 -1.3300
  942MPD2    H113777   2.889   2.627   9.481 -0.6604  1.5314  0.4363
  942MPD2    H213778   2.469   2.568   9.494  0.3042 -1.0814 -0.1927
  942MPD2    H313779   2.671   2.664   9.584  1.0506  0.4515 -0.4083
  942MPD2     N13780   2.936   2.524   9.254  0.0567 -0.2618  0.1298
  942MPD2    H513781   3.004   2.588   9.294 -0.4413 -0.5480  1.4279
  942MPD2    N113782   2.447   2.441   9.253 -0.4286 -0.0488 -0.2986
  942MPD2    H713783   2.461   2.407   9.159 -0.1623 -3.0123  0.8200
  943MPD2     C13784   1.804   1.336  10.625 -0.3056 -0.1290  0.0140
  943MPD2    C113785   1.825   1.228  10.541  0.2914 -0.2782 -0.9281
  943MPD2    C213786   1.878   1.249  10.417 -0.0338  0.4382  0.6284
  943MPD2    C313787   1.905   1.376  10.371  0.2664  0.2908  0.0045
  943MPD2    C413788   1.896   1.484  10.457  0.3250 -0.7000 -0.5619
  943MPD2    C513789   1.842   1.459  10.585 -0.1382 -0.5586 -0.4113
  943MPD2     H13790   1.904   1.169  10.349 -1.1275  3.4360 -3.2836
  943MPD2    H113791   1.918   1.586  10.427  0.1016 -0.1867  1.0166
  943MPD2    H213792   1.759   1.318  10.722  0.0457 -2.6784 -0.2941
  943MPD2    H313793   1.824   1.546  10.647 -0.1701 -0.2342 -0.8669
  943MPD2     N13794   1.946   1.393  10.238 -0.3877 -0.2794 -0.0770
  943MPD2    H513795   1.991   1.479  10.208  2.1501 -0.6844  2.6871
  943MPD2    N113796   1.800   1.103  10.600  0.3616  1.1153 -0.5579
  943MPD2    H713797   1.776   1.092  10.698  1.4259 -0.3840 -0.4629
  944MPD2     C13798   1.727   4.453  11.314 -0.7573  0.4425 -0.4442
  944MPD2    C113799   1.777   4.566  11.253  0.1558  0.1695  0.5787
  944MPD2    C213800   1.718   4.682  11.288 -0.7960 -0.0273  0.0422
  944MPD2    C313801   1.621   4.701  11.387  0.0474 -0.2840  0.3247
  944MPD2    C413802   1.580   4.588  11.452 -1.0429 -0.5875  0.5737
  944MPD2    C513803   1.623   4.468  11.407  0.2307 -0.0847  0.6215
  944MPD2     H13804   1.736   0.041  11.222  0.3083  0.5921  1.1222
  944MPD2    H113805   1.497   4.591  11.521  2.5858 -0.2144  4.9659
  944MPD2    H213806   1.776   4.358  11.297  0.4240  1.0727 -0.6211
  944MPD2    H313807   1.577   4.379  11.449 -0.6698  0.3488  0.5531
  944MPD2     N13808   1.569   0.107  11.409 -0.2857  0.0137  0.0959
  944MPD2    H513809   1.627   0.182  11.373 -0.0556 -0.3333 -0.2542
  944MPD2    N113810   1.882   4.551  11.162  0.1738 -0.3193 -0.5717
  944MPD2    H713811   1.927   4.461  11.167  2.3583  0.8068  0.0239
    1TCq1    O113812   4.296   0.779  14.040 -0.4320  0.5196 -0.0407
    1TCq1    C113813   4.193   0.864  14.038 -0.9037 -0.2813 -0.2728
    1TCq1    O213814   4.205   0.962  13.971  0.4682  0.2961 -0.1077
    1TCq1    C213815   4.153   0.854  14.174  0.6264 -0.4687 -0.6103
    1TCq1    C313816   4.088   0.735  14.217 -0.4506 -0.0847 -0.3303
    1TCq1    C413817   4.084   0.711  14.352  0.0568 -0.0452  0.4378
    1TCq1    C513818   4.145   0.798  14.442  0.5128  0.8376 -0.1811
    1TCq1    C613819   4.214   0.908  14.398 -0.2063  0.3998 -0.6780
    1TCq1    C713820   4.214   0.940  14.263  0.7621  0.4830 -0.4114
    1TCq1    C813821   4.278   0.992  14.499  0.9009  0.2044 -1.3609
    1TCq1    O413822   4.271   0.967  14.617  0.7553  0.0330 -0.1349
    1TCq1    C913823   4.013   0.588  14.399  0.2039 -0.5509  0.5010
    1TCq1    O513824   3.949   0.526  14.310  0.2463 -0.2120  0.5182
    1TCq1    O613825   4.030   0.555  14.519  0.2652  0.3133  0.2507
    1TCq1    H113826   4.293   0.713  14.112 -0.6634  2.1672  1.4371
    1TCq1    H213827   4.033   0.671  14.149  0.9707 -1.2465 -0.3766
    1TCq1    H313828   4.150   0.761  14.544  1.1838  0.5502 -0.3200
    1TCq1    H413829   4.266   1.019  14.211  1.3849  0.6196  0.4227
    2MPD2     C13830   4.507   1.425  14.644  0.4486 -0.6656 -0.2526
    2MPD2    C113831   4.446   1.452  14.521 -0.1039  0.1088  1.2649
    2MPD2    C213832   4.378   1.346  14.455 -0.8257 -0.3229 -0.9806
    2MPD2    C313833   4.377   1.217  14.503  0.3938 -0.4097 -0.5545
    2MPD2    C413834   4.456   1.197  14.617  0.0114 -0.1630 -0.7492
    2MPD2    C513835   4.511   1.296  14.686 -0.8757 -0.3393  0.7270
    2MPD2     H13836   4.331   1.364  14.359 -0.8062  2.6003 -0.4459
    2MPD2    H113837   4.469   1.096  14.653  1.8578  0.9464  1.6396
    2MPD2    H213838   4.582   1.483  14.696  1.5668 -1.4316 -1.0165
    2MPD2    H313839   4.582   1.271  14.763  0.7336  0.8728 -0.3644
    2MPD2     N13840   4.315   1.108  14.440  0.7672  0.0098  0.2224
    2MPD2    H513841   4.282   1.134  14.348  1.6887  1.9528  0.4261
    2MPD2    N113842   4.470   1.577  14.457 -0.0918 -0.1522  0.3166
    2MPD2    H713843   4.539   1.641  14.495 -2.3645  0.6218  3.1193
    3TMC2    C113844   4.473   1.725  14.277 -0.1302 -0.0058  0.0775
    3TMC2    C213845   4.546   1.821  14.347 -0.6676 -0.4925  0.3781
    3TMC2    C313846   4.624   1.904  14.266  0.4309  0.2581  0.3100
    3TMC2    C413847   4.463   1.725  14.144  0.6408  0.0585  0.4897
    3TMC2    C513848   4.540   1.806  14.071  0.3198 -0.1257  0.5080
    3TMC2    C613849   4.618   1.900  14.132 -0.4799  0.2470  0.3574
    3TMC2     C13850   4.401   1.619  14.343 -0.2650  0.2581  0.1376
    3TMC2     O13851   4.302   1.573  14.284 -0.3076  0.4324 -1.0007
    3TMC2     H13852   4.544   1.828  14.455 -0.8703  0.2727  0.3221
    3TMC2    H113853   4.390   1.663  14.093  1.6894  0.5971 -1.6488
    3TMC2    H213854   4.696   1.958  14.083  0.2625 -0.8498  0.2439
    3TMC2    C713855   4.545   1.786  13.930 -0.0813  0.4179 -0.1022
    3TMC2    C813856   4.718   1.998  14.333 -0.9236 -0.2814  0.0363
    3TMC2    O113857   4.488   1.689  13.883  0.0475  0.0723 -0.1298
    3TMC2    O213858   0.038   2.095  14.279 -0.5638 -0.6711 -0.3343
    3TMC2    O513859   0.039   1.932  14.441 -0.1271  0.3322 -0.0505
    3TMC2    H513860   4.720   1.846  14.456  1.8026 -0.7064 -0.2399
    4MPD2     C13861   4.692   2.555  12.784 -0.5698 -0.2810  0.1224
    4MPD2    C113862   4.625   2.541  12.903  0.5961 -0.5797 -0.4309
    4MPD2    C213863   4.699   2.502  13.016  0.4076 -0.1048  0.3620
    4MPD2    C313864   0.109   2.475  13.010 -0.6748 -0.0328 -0.5742
    4MPD2    C413865   0.167   2.481  12.887  0.2759 -0.0180 -0.3136
    4MPD2    C513866   0.095   2.518  12.775 -0.3933  0.4227 -0.4231
    4MPD2     H13867   4.649   2.507  13.113  2.3343  2.8504  1.2076
    4MPD2    H113868   0.271   2.458  12.869  0.3549  0.3249 -0.2955
    4MPD2    H213869   4.648   2.596  12.693 -2.4088 -0.9001  0.7183
    4MPD2    H313870   0.146   2.509  12.680  2.5935  3.1328  0.8996
    4MPD2     N13871   0.173   2.433  13.128  0.5735 -0.5280  0.0262
    4MPD2    H513872   0.120   2.435  13.215 -0.3132  0.4761 -0.5329
    4MPD2    N113873   4.489   2.565  12.897 -0.4657  1.5084  0.1496
    4MPD2    H713874   4.448   2.590  12.807 -0.4975 -0.0996 -0.2688
    5TCq2    C113875   0.309   2.409  13.154  0.0553 -1.3371 -0.4948
    5TCq2    O213876   0.408   2.421  13.083 -0.0744 -0.0501  0.2007
    5TCq2    C213877   0.327   2.396  13.302 -0.1559  1.1653  0.6718
    5TCq2    C313878   0.435   2.464  13.361  0.4856 -0.0060 -0.3494
    5TCq2    C413879   0.446   2.457  13.494 -0.5873 -0.3625  0.0746
    5TCq2    C513880   0.366   2.374  13.571  0.3799 -0.0072  0.6599
    5TCq2    C613881   0.267   2.301  13.509 -0.1983 -0.4405  0.1752
    5TCq2    C713882   0.237   2.319  13.373  0.1415  0.2887 -0.8793
    5TCq2    C813883   0.206   2.203  13.592 -0.1607  0.0282  0.0850
    5TCq2    O413884   0.229   2.206  13.712  0.5572  0.0128  0.1246
    5TCq2    C913885   0.561   2.509  13.566 -0.2102 -0.7116  0.6213
    5TCq2    O513886   0.641   2.577  13.497 -0.3839 -0.1338  0.3038
    5TCq2    O613887   0.538   2.536  13.682  0.1946  0.6614 -0.8648
    5TCq2    H213888   0.508   2.529  13.313 -1.5294  1.6650 -1.1241
    5TCq2    H313889   0.388   2.354  13.675  3.4679 -1.4388 -0.2478
    5TCq2    H413890   0.173   2.255  13.314  1.1341  0.7709 -2.4886
    6MPD1     C13891   3.378   4.184  12.563  0.4756  0.7924  0.1499
    6MPD1    C113892   3.363   4.138  12.688 -0.8824  0.0779 -0.1305
    6MPD1    C213893   3.418   4.018  12.726  0.2563 -0.4762 -0.2663
    6MPD1    C313894   3.506   3.950  12.643 -0.6696  0.3999 -0.0829
    6MPD1    C413895   3.519   4.000  12.515 -0.6807  1.3135  0.1986
    6MPD1    C513896   3.456   4.120  12.475  0.2119 -0.3716  0.4431
    6MPD1     H13897   3.375   3.971  12.813  4.2969 -1.6257  1.1213
    6MPD1    H113898   3.572   3.946  12.437  1.9751  1.3879  1.9585
    6MPD1    H213899   3.323   4.273  12.537  0.1342  0.8946  1.2294
    6MPD1    H313900   3.456   4.153  12.372  0.9821 -1.4697  0.0938
    6MPD1     N13901   3.552   3.817  12.661 -0.0160 -0.5671 -0.2371
    6MPD1    H513902   3.606   3.784  12.582 -1.0926  0.8084 -1.5593
    6MPD1    N113903   3.265   4.199  12.770  0.3270  0.4691 -0.2625
    6MPD1    H613904   3.274   4.174  12.868  3.6684 -0.5182 -0.8392
    6MPD1    H713905   3.265   4.301  12.761 -0.1201  0.4485 -0.5048
    7MPD2     C13906   3.621   3.093  13.185 -0.4215 -0.2443 -0.2700
    7MPD2    C113907   3.726   3.137  13.100  0.2628  1.3944  0.3098
    7MPD2    C213908   3.834   3.054  13.073  0.4149  0.5757  0.3849
    7MPD2    C313909   3.829   2.920  13.117  0.7956  0.1110 -0.1828
    7MPD2    C413910   3.729   2.881  13.206  0.4351  0.1304  0.4107
    7MPD2    C513911   3.620   2.964  13.229  0.0853  0.6343 -0.0024
    7MPD2     H13912   3.913   3.084  13.005 -0.7521  1.1495 -0.7191
    7MPD2    H113913   3.709   2.779  13.237 -1.9324  0.5034  0.1571
    7MPD2    H213914   3.535   3.156  13.201  2.0510  2.3560  2.6985
    7MPD2    H313915   3.531   2.922  13.275  0.3397 -0.3182 -0.3766
    7MPD2     N13916   3.933   2.840  13.067  0.0087 -0.5646 -0.1825
    7MPD2    H513917   3.992   2.877  12.994  1.0996  0.7380  1.3484
    7MPD2    N113918   3.722   3.259  13.031 -0.0310  0.4937  0.2817
    7MPD2    H713919   3.798   3.261  12.964 -0.6371 -1.7064 -0.4752
    8TMC3    C113920   4.048   2.644  13.009 -0.9152 -0.5933  0.3618
    8TMC3    C213921   4.172   2.613  13.054  0.5676 -0.2179 -0.5668
    8TMC3    C313922   4.278   2.629  12.970  0.0648 -0.1790  0.1968
    8TMC3    C413923   4.032   2.701  12.882 -0.3314  1.0325  0.0448
    8TMC3    C513924   4.138   2.731  12.801  0.8523 -0.1637  0.0434
    8TMC3    C613925   4.263   2.700  12.848  0.5833 -0.3952 -0.4818
    8TMC3     C13926   3.960   2.708  13.103 -0.6010 -0.1266 -0.1986
    8TMC3     O13927   3.910   2.640  13.191  0.0224 -0.7010 -0.2902
    8TMC3     H13928   4.191   2.574  13.153  1.7866  1.7961 -0.0200
    8TMC3    H113929   3.930   2.726  12.856 -0.7498  0.4725  1.1438
    8TMC3    H213930   4.344   2.730  12.783 -0.2042 -0.5498 -1.5331
    8TMC3    C713931   4.122   2.867  12.769 -0.2186  0.5247  0.4414
    8TMC3    C813932   4.410   2.580  13.012  0.0671 -0.4620  0.2986
    8TMC3    O113933   4.050   2.931  12.844  0.1899  0.1463 -0.1848
    8TMC3    O213934   4.438   2.583  13.131  0.1314  0.0690  0.5546
    9TMC3    C113935   3.590   3.609  12.772 -0.2818  0.8081  0.4562
    9TMC3    C213936   3.672   3.570  12.671 -0.4393 -0.7773 -0.6365
    9TMC3    C313937   3.734   3.444  12.686  0.2409  0.3299  0.0517
    9TMC3    C413938   3.567   3.541  12.888  0.1931  0.5703  0.0900
    9TMC3    C513939   3.627   3.413  12.892 -0.7091  0.8699 -0.0851
    9TMC3    C613940   3.701   3.366  12.789  0.8494  0.3107 -0.2295
    9TMC3     C13941   3.524   3.736  12.767  0.3782 -0.5742 -0.0769
    9TMC3     O13942   3.462   3.760  12.866 -0.0370  0.6078  0.0027
    9TMC3     H13943   3.684   3.621  12.576  0.0896  1.7323  0.7764
    9TMC3    H113944   3.521   3.579  12.978 -0.3652  0.1385 -0.0142
    9TMC3    H213945   3.729   3.262  12.786 -0.1089  0.0331  0.7290
    9TMC3    C713946   3.619   3.340  13.016  0.3877  0.1582 -0.4346
    9TMC3    C813947   3.819   3.396  12.585  0.3435 -0.5252  0.3261
    9TMC3    O113948   3.527   3.366  13.090  0.0501  0.1344  0.5479
    9TMC3    O213949   3.801   3.445  12.476  0.1366  0.1174  0.8385
   10MPD2     C13950   4.142   3.007  12.429  0.3325 -0.0279 -0.0624
   10MPD2    C113951   4.123   3.007  12.570 -0.1549 -0.8503 -0.3133
   10MPD2    C213952   4.051   3.108  12.628  0.2585 -0.4398  0.2253
   10MPD2    C313953   3.991   3.206  12.554  0.3575 -0.0554 -0.0257
   10MPD2    C413954   3.994   3.203  12.414 -0.0934  0.6710  0.2318
   10MPD2    C513955   4.067   3.096  12.357 -0.0708  0.5687  0.7062
   10MPD2     H13956   4.040   3.116  12.736 -1.7122 -1.3086  0.0863
   10MPD2    H113957   3.949   3.283  12.356  0.1850  0.8682  0.2857
   10MPD2    H213958   4.196   2.925  12.384 -1.0813  1.0221 -3.6539
   10MPD2    H313959   4.075   3.087  12.249  0.1116 -1.0198  0.8468
   10MPD2     N13960   3.905   3.298  12.624 -0.4641  0.2997  0.1545
   10MPD2    H513961   3.903   3.279  12.723 -2.5459  0.3613  0.1239
   10MPD2    N113962   4.178   2.904  12.651 -0.5298 -0.7052 -0.3368
   10MPD2    H713963   4.235   2.829  12.613 -0.9914 -1.7915  1.1051
   11MPD2     C13964   4.597   1.818  13.643 -0.3959  0.0182 -0.9866
   11MPD2    C113965   4.643   1.900  13.737 -0.0391 -0.8274  0.0039
   11MPD2    C213966   4.719   2.012  13.702 -0.6588 -1.0228  0.4814
   11MPD2    C313967   0.030   2.032  13.578 -0.4071  0.0800 -0.2907
   11MPD2    C413968   4.697   1.958  13.481 -0.9382  0.3816 -0.1340
   11MPD2    C513969   4.615   1.854  13.511  0.2118  0.0766 -0.2952
   11MPD2     H13970   0.031   2.080  13.779  0.7156 -0.7020 -0.4678
   11MPD2    H113971   0.005   1.972  13.379  1.9696  1.6618  0.9752
   11MPD2    H213972   4.527   1.737  13.658 -0.6446  0.8309  2.0759
   11MPD2    H313973   4.573   1.793  13.432 -0.6695 -1.6789  1.5322
   11MPD2     N13974   0.128   2.120  13.522 -0.2449  0.4346  0.3685
   11MPD2    H513975   0.142   2.120  13.422 -1.7883 -0.4861  0.1395
   11MPD2    N113976   4.612   1.889  13.870 -0.9297  0.4211  0.0507
   11MPD2    H713977   4.633   1.970  13.928  0.3738 -0.6581  1.0802
    1MPD1     C13978   1.374   3.884  17.274 -0.1168 -0.0085 -0.4517
    1MPD1    C113979   1.306   3.805  17.180  0.7040  0.3098  0.5544
    1MPD1    C213980   1.379   3.744  17.078  0.0731 -0.5393  0.1791
    1MPD1    C313981   1.510   3.780  17.059  0.1167  0.5918  0.0811
    1MPD1    C413982   1.576   3.868  17.142  0.5109 -0.3849  0.8575
    1MPD1    C513983   1.504   3.909  17.258 -0.5566  0.6574  0.4786
    1MPD1     H13984   1.315   3.684  17.014 -0.2781  0.0582 -0.0229
    1MPD1    H113985   1.674   3.906  17.116 -0.1016  1.0970  0.7275
    1MPD1    H213986   1.324   3.929  17.359 -1.9967 -1.5726 -0.7294
    1MPD1    H313987   1.553   3.986  17.315  0.7605  1.0441 -1.1703
    1MPD1     N13988   1.583   3.744  16.948  0.2331 -0.9053  0.5417
    1MPD1    H513989   1.676   3.782  16.934  0.2645 -0.2895  2.4934
    1MPD1    N113990   1.169   3.774  17.205 -0.1726 -0.1022 -0.4087
    1MPD1    H613991   1.108   3.775  17.123 -1.5243 -0.4390  0.5922
    1MPD1    H713992   1.131   3.845  17.267  0.0050  0.7558 -1.2825
    2MPD1     C13993   2.496   3.631  16.697  0.1640 -0.5609 -0.1710
    2MPD1    C113994   2.444   3.513  16.654  0.1475 -0.6414  0.0783
    2MPD1    C213995   2.306   3.502  16.641 -0.1359  0.4773 -0.0151
    2MPD1    C313996   2.221   3.605  16.676  0.3253  0.4547 -0.2894
    2MPD1    C413997   2.270   3.722  16.725 -0.0048  0.4904 -0.5681
    2MPD1    C513998   2.407   3.732  16.734 -0.0263 -0.4317 -0.2586
    2MPD1     H13999   2.256   3.407  16.628 -0.4988  0.2134  3.2139
    2MPD1    H114000   2.215   3.809  16.758 -0.2863 -0.3324  1.1270
    2MPD1    H214001   2.603   3.643  16.700 -0.1462  1.5670  2.6037
    2MPD1    H314002   2.449   3.821  16.779  0.2509 -0.5837 -0.2139
    2MPD1     N14003   2.081   3.577  16.673  0.6728  0.2959 -0.0818
    2MPD1    H514004   2.058   3.489  16.628 -2.1909  1.0223  0.0026
    2MPD1    N114005   2.521   3.398  16.633 -0.2796 -0.1427  0.1620
    2MPD1    H614006   2.616   3.418  16.603 -0.0693 -1.3119  0.0371
    2MPD1    H714007   2.479   3.335  16.565  4.4391 -0.4343 -2.4393
    3TMC3    C114008   1.857   3.616  16.693  0.0502 -0.0479 -0.3173
    3TMC3    C214009   1.824   3.571  16.569 -0.0900  0.2376 -0.5766
    3TMC3    C314010   1.696   3.564  16.531 -0.3314 -0.1420 -0.5568
    3TMC3    C414011   1.761   3.638  16.788  1.1677  0.2425 -0.5478
    3TMC3    C514012   1.634   3.637  16.750  0.6765  0.8260 -0.2479
    3TMC3    C614013   1.595   3.598  16.623  0.1586  0.1356 -0.2446
    3TMC3     C14014   1.990   3.656  16.730 -0.5168  0.0018  0.2653
    3TMC3     O14015   2.007   3.752  16.802 -0.6584  0.9760  0.2722
    3TMC3     H14016   1.905   3.548  16.501 -1.8691 -2.0183 -1.9014
    3TMC3    H114017   1.798   3.645  16.890  2.4360 -0.6103 -0.9515
    3TMC3    H214018   1.491   3.612  16.599  0.4647  0.2420 -1.5217
    3TMC3    C714019   1.531   3.666  16.841  0.3998 -0.8381  0.3571
    3TMC3    C814020   1.662   3.462  16.439 -0.3236  0.4402  0.9885
    3TMC3    O114021   1.419   3.616  16.825  0.2915 -0.0807  0.0716
    3TMC3    O214022   1.547   3.459  16.402  0.2931 -0.1654 -0.0524
    4MPD1     C14023   1.730   3.044  16.141 -0.4784 -0.0129  0.5823
    4MPD1    C114024   1.851   3.077  16.200 -0.2549  0.0893 -0.0897
    4MPD1    C214025   1.854   3.171  16.302  1.1255  0.3075 -0.2058
    4MPD1    C314026   1.748   3.254  16.329  0.3401 -0.0611 -0.1671
    4MPD1    C414027   1.627   3.211  16.272 -0.2129  0.1110 -0.0502
    4MPD1    C514028   1.619   3.113  16.174 -0.9647  0.0386 -0.8212
    4MPD1     H14029   1.952   3.184  16.347  1.2009 -0.4295 -0.1526
    4MPD1    H114030   1.530   3.254  16.292  0.7760  1.9183  0.7429
    4MPD1    H214031   1.712   2.965  16.069 -0.0365  1.7575 -1.5119
    4MPD1    H314032   1.524   3.078  16.137 -0.9592 -0.9080  0.0633
    4MPD1     N14033   1.762   3.368  16.416 -0.2952 -0.4557 -0.6166
    4MPD1    H514034   1.859   3.387  16.442 -0.0089 -1.8429 -0.6727
    4MPD1    N114035   1.963   2.994  16.173  0.1224 -0.2943 -0.3817
    4MPD1    H614036   1.961   2.939  16.087  2.7267 -0.1014 -0.5784
    4MPD1    H714037   2.056   3.030  16.195  0.3331  0.2294 -2.1102
    1TCq1    O114038   4.453   2.057  12.445  0.5122 -0.4265 -0.1617
    1TCq1    C114039   4.482   2.071  12.312  0.5844 -0.3900 -0.1836
    1TCq1    O214040   4.528   2.166  12.253 -0.3034 -0.1439  0.0283
    1TCq1    C214041   4.375   1.990  12.259  0.0721  0.3660  0.5883
    1TCq1    C314042   4.276   2.059  12.198  0.2220 -0.2401  0.5811
    1TCq1    C414043   4.157   1.998  12.176 -0.1540 -0.0138 -0.6351
    1TCq1    C514044   4.149   1.861  12.185 -0.6133  0.6509 -0.0741
    1TCq1    C614045   4.261   1.795  12.239  0.0942 -0.4575 -0.2093
    1TCq1    C714046   4.378   1.856  12.273 -0.0491 -0.6620  0.3255
    1TCq1    C814047   4.273   1.654  12.200  0.7856 -0.2407  0.0106
    1TCq1    O414048   4.351   1.589  12.265  0.2520  0.1496 -0.3338
    1TCq1    C914049   4.059   2.068  12.098 -0.5936  0.6624 -0.8292
    1TCq1    O514050   4.077   2.188  12.068  0.2242 -0.0499 -0.5678
    1TCq1    O614051   3.963   2.000  12.054 -0.0997 -0.2709  0.6976
    1TCq1    H114052   4.387   1.990  12.471 -0.9726  1.1153  0.0262
    1TCq1    H214053   4.277   2.166  12.179 -2.4830 -0.5854 -1.4454
    1TCq1    H314054   4.062   1.811  12.145  0.4310 -0.5140 -0.8805
    1TCq1    H414055   4.458   1.796  12.316  0.2229 -0.1252  0.5608
    2MPD1     C14056   4.157   1.293  11.859  0.0407  0.0283  0.0515
    2MPD1    C114057   4.088   1.399  11.822 -0.6496  0.1117 -0.3053
    2MPD1    C214058   4.112   1.516  11.892  0.8388  1.0943  0.4204
    2MPD1    C314059   4.195   1.520  12.003 -0.3761 -0.1353 -0.3357
    2MPD1    C414060   4.255   1.406  12.037 -0.7832 -0.1618  0.0582
    2MPD1    C514061   4.238   1.292  11.963  0.0299 -0.0402 -0.9191
    2MPD1     H14062   4.072   1.610  11.857 -2.0662 -0.1378  0.4078
    2MPD1    H114063   4.322   1.401  12.121  0.9070  0.4715 -1.2531
    2MPD1    H214064   4.168   1.208  11.793 -3.0480  0.3113 -0.8609
    2MPD1    H314065   4.302   1.206  11.979 -2.2381 -1.6635 -0.5276
    2MPD1     N14066   4.203   1.642  12.080  0.1380  0.0448 -0.0043
    2MPD1    H514067   4.153   1.718  12.035  1.2512  0.3444 -0.7308
    2MPD1    N114068   4.016   1.405  11.698 -0.4899 -0.0540 -0.1020
    2MPD1    H614069   3.979   1.317  11.665  2.8943 -2.0948  1.5271
    2MPD1    H714070   3.938   1.470  11.704 -1.1185 -0.7509 -0.7851
    1TCq1    O114071   4.162   2.265   8.837 -0.3479 -0.9793  0.6569
    1TCq1    C114072   4.290   2.233   8.823 -0.4108  0.2056 -0.4366
    1TCq1    O214073   4.326   2.149   8.743 -0.2901 -0.3112  0.0648
    1TCq1    C214074   4.357   2.275   8.945 -0.0240 -0.3283  0.0937
    1TCq1    C314075   4.322   2.391   9.009 -0.7681  0.3060  0.2285
    1TCq1    C414076   4.364   2.406   9.135 -0.2989 -0.4398 -0.1040
    1TCq1    C514077   4.449   2.312   9.199  0.6523  0.3797  0.1590
    1TCq1    C614078   4.485   2.197   9.127 -0.2320  0.1412  0.6043
    1TCq1    C714079   4.431   2.172   9.008  0.0941 -0.3289  0.5159
    1TCq1    C814080   4.560   2.083   9.180 -0.6677 -0.3716 -0.2128
    1TCq1    O414081   4.555   1.972   9.121  0.1926  0.0384  0.2526
    1TCq1    C914082   4.362   2.540   9.184  0.5270  0.6159 -0.5513
    1TCq1    O514083   4.424   2.563   9.295 -0.0940 -0.2388 -0.9932
    1TCq1    O614084   4.318   2.625   9.103  0.1834 -0.2323 -0.4676
    1TCq1    H114085   4.150   2.327   8.912  0.0783  2.5042 -2.1563
    1TCq1    H214086   4.272   2.472   8.956  0.2632 -0.3450 -1.7692
    1TCq1    H314087   4.476   2.324   9.303  0.6945 -0.9070  0.2966
    1TCq1    H414088   4.449   2.077   8.960 -2.0364 -0.3843 -0.2038
    2MPD1     C14089   0.166   1.870   9.512  0.4468  0.1332 -0.2413
    2MPD1    C114090   0.155   2.004   9.535  0.7159  0.4420  0.9079
    2MPD1    C214091   0.062   2.076   9.467  0.4763 -0.0387 -0.2040
    2MPD1    C314092   4.714   2.022   9.364 -0.0461 -0.1558  0.3632
    2MPD1    C414093   0.009   1.886   9.331  0.5384 -0.5487  0.3871
    2MPD1    C514094   0.098   1.812   9.410  0.4731 -0.7110  0.3982
    2MPD1     H14095   0.044   2.180   9.490  1.6824 -0.1510  1.2288
    2MPD1    H114096   4.683   1.842   9.247 -0.2094 -0.5435  0.8414
    2MPD1    H214097   0.231   1.809   9.573  3.7318  2.2946 -1.5821
    2MPD1    H314098   0.112   1.705   9.399 -0.3553 -0.9609  1.7692
    2MPD1     N14099   4.628   2.115   9.296  0.3209  0.6474 -0.7555
    2MPD1    H514100   4.642   2.214   9.312 -0.9083  0.4852  1.4123
    2MPD1    N114101   0.222   2.065   9.646 -0.3543 -0.4773 -0.9446
    2MPD1    H614102   0.235   2.165   9.655 -0.2308 -0.6503  0.7544
    2MPD1    H714103   0.309   2.017   9.667  0.2764  1.4381  0.7611
    1MPD1     C14104   0.637   2.516  11.275  0.2391 -0.3409  0.4612
    1MPD1    C114105   0.548   2.623  11.273  0.0957 -0.1448  0.7076
    1MPD1    C214106   0.514   2.666  11.403  0.0363 -0.2688 -0.4887
    1MPD1    C314107   0.550   2.600  11.517 -0.0446  0.2451 -0.0032
    1MPD1    C414108   0.657   2.517  11.515 -0.3210  0.2788 -0.8315
    1MPD1    C514109   0.696   2.471  11.390 -0.2570  0.1440  0.4271
    1MPD1     H14110   0.434   2.739  11.404 -1.1344 -1.5758  1.8648
    1MPD1    H114111   0.693   2.472  11.606  1.4593  0.0501 -1.6517
    1MPD1    H214112   0.678   2.476  11.184 -1.9571  1.8719 -1.5087
    1MPD1    H314113   0.765   2.389  11.377  0.2134  0.9841 -2.5074
    1MPD1     N14114   0.483   2.636  11.637 -0.5813 -0.1148  0.0664
    1MPD1    H514115   0.398   2.690  11.631 -0.5854 -0.2609 -1.2218
    1MPD1    N114116   0.516   2.687  11.161  0.1570 -0.3854 -0.0296
    1MPD1    H614117   0.429   2.740  11.162 -0.1508 -0.8562 -1.3592
    1MPD1    H714118   0.526   2.639  11.071 -1.9822 -2.1757  0.7104
    2MPD1     C14119   4.578   2.917  11.509 -0.1564 -0.0191  0.0965
    2MPD1    C114120   4.528   2.907  11.381  0.2603 -0.0083  0.3333
    2MPD1    C214121   4.588   2.980  11.280 -0.2792 -1.1975 -0.7002
    2MPD1    C314122   4.705   3.050  11.302 -0.2163  0.6537  0.0957
    2MPD1    C414123   0.029   3.063  11.426  0.4641  0.1844  0.0168
    2MPD1    C514124   4.688   2.997  11.520 -0.0644  0.2062  0.1266
    2MPD1     H14125   4.550   2.971  11.179  2.2521  2.3068 -1.9592
    2MPD1    H114126   0.113   3.113  11.472 -2.6068  2.3481  3.2217
    2MPD1    H214127   4.541   2.859  11.593  1.4043 -1.7449 -0.4092
    2MPD1    H314128   0.000   2.997  11.622  0.0511  0.1922  0.0837
    2MPD1     N14129   0.049   3.116  11.196  0.1421  0.6863  0.0624
    2MPD1    H514130   0.137   3.163  11.215  0.9135  0.5704 -3.2777
    2MPD1    N114131   4.406   2.840  11.356  0.7197  0.3785  0.6560
    2MPD1    H614132   4.391   2.841  11.255 -1.3715  1.6231  0.9850
    2MPD1    H714133   4.396   2.745  11.393  0.2223 -0.6061 -1.9482
    3MPD1     C14134   0.001   2.991  10.190  0.1831 -0.2869  0.1233
    3MPD1    C114135   4.669   2.923  10.298  0.4190 -0.0194 -0.1723
    3MPD1    C214136   4.700   2.959  10.428 -0.6250  0.5079 -0.4274
    3MPD1    C314137   0.060   3.062  10.448  0.3942  0.6301  0.4825
    3MPD1    C414138   0.122   3.121  10.339  0.0680 -0.6761 -0.2150
    3MPD1    C514139   0.088   3.086  10.213  0.3891  0.0315 -0.2306
    3MPD1     H14140   4.645   2.904  10.504 -0.5791  0.9373 -0.0879
    3MPD1    H114141   0.193   3.203  10.350  0.1115 -0.6174 -0.9246
    3MPD1    H214142   4.714   2.959  10.087  0.8846 -2.4508  0.7150
    3MPD1    H314143   0.148   3.118  10.129  1.3203 -1.2326 -0.0524
    3MPD1     N14144   0.076   3.111  10.580 -0.1080  0.1337 -0.4935
    3MPD1    H514145   0.017   3.081  10.657  0.0266 -0.9756 -0.8232
    3MPD1    N114146   4.592   2.813  10.276  0.1488 -0.0813  0.1860
    3MPD1    H614147   4.572   2.795  10.178  0.1045  0.1527  0.1527
    3MPD1    H714148   4.509   2.804  10.335  0.5478  0.0284  0.7578
    4MPD2     C14149   4.687   3.081  11.896  0.3791  0.4085 -0.7530
    4MPD2    C114150   0.089   3.084  11.939 -0.5213  0.0659  0.2509
    4MPD2    C214151   0.151   3.207  11.959  0.1054  0.0164 -0.2880
    4MPD2    C314152   0.082   3.327  11.934  0.1443 -0.0204  0.0084
    4MPD2    C414153   4.677   3.320  11.891 -0.3203 -0.4536 -0.2695
    4MPD2    C514154   4.624   3.195  11.876  0.0680  0.4954 -0.1727
    4MPD2     H14155   0.257   3.213  11.980  0.5892  1.2929 -3.0495
    4MPD2    H114156   4.616   3.407  11.873  0.0288 -0.0544  0.4944
    4MPD2    H214157   4.621   2.996  11.881 -0.5902  0.6829  1.8572
    4MPD2    H314158   4.522   3.198  11.841  0.2539 -1.0782 -0.8707
    4MPD2     N14159   0.140   3.454  11.935  0.3064  0.0168  0.0493
    4MPD2    H514160   0.081   3.532  11.909  0.6899  0.0024 -0.8600
    4MPD2    N114161   0.174   2.972  11.948 -0.1131  0.5315  0.2435
    4MPD2    H714162   0.260   2.977  12.002  0.2752 -1.1685 -0.2332
    5TMC3    C114163   0.248   2.758  11.948  0.7862  0.2550  1.0011
    5TMC3    C214164   0.312   2.697  11.835 -0.0597  0.6133 -0.3132
    5TMC3    C314165   0.446   2.679  11.868 -0.2879  0.1096 -0.6936
    5TMC3    C414166   0.307   2.807  12.052  1.1136 -1.1202 -0.1781
    5TMC3    C514167   0.438   2.811  12.060 -0.5635 -0.1145  0.4566
    5TMC3    C614168   0.513   2.741  11.970 -0.3654 -0.5027  0.1843
    5TMC3     C14169   0.145   2.845  11.904  0.1158 -0.2093  0.3639
    5TMC3     O14170   0.042   2.805  11.850  1.2020 -0.4749  0.5916
    5TMC3     H14171   0.253   2.628  11.776 -1.1637  0.1232  1.3580
    5TMC3    H114172   0.248   2.845  12.135 -1.2599 -1.1519 -1.8494
    5TMC3    H214173   0.621   2.747  11.967 -0.3353 -0.4727  1.3083
    5TMC3    C714174   0.497   2.941  12.087  0.7968  0.5548 -0.2846
    5TMC3    C814175   0.532   2.628  11.769 -0.3119 -0.2489  0.4574
    5TMC3    O114176   0.412   3.024  12.080 -0.0102  0.4325 -0.7108
    5TMC3    O214177   0.645   2.596  11.801  0.5397  0.2050 -0.1120
    6TMC3    C114178   0.097   3.196  10.976  0.0305 -0.5266  0.4017
    6TMC3    C214179   0.092   3.166  10.847  0.8544 -0.6166  0.4290
    6TMC3    C314180   0.174   3.233  10.766 -0.0338 -0.8459  0.5098
    6TMC3    C414181   0.182   3.289  11.029 -0.1664  0.5450 -0.4576
    6TMC3    C514182   0.268   3.355  10.944 -0.4904 -0.1539 -0.1103
    6TMC3    C614183   0.261   3.325  10.810 -0.6284 -0.8013  0.5138
    6TMC3     C14184   0.006   3.124  11.064 -0.0149  0.2024 -0.1917
    6TMC3     O14185   4.628   3.091  11.006 -0.4453  0.0700 -0.2322
    6TMC3     H14186   0.029   3.081  10.824  0.0508 -0.4538  1.9892
    6TMC3    H114187   0.168   3.322  11.131  0.5199  1.6586 -0.7277
    6TMC3    H214188   0.326   3.379  10.743 -1.2375  0.1624  0.7022
    6TMC3    C714189   0.321   3.483  10.973 -0.3320 -0.4921  0.1530
    6TMC3    C814190   0.170   3.206  10.622  0.0781 -0.3848  0.0797
    6TMC3    O114191   0.350   3.555  10.878 -0.0736 -0.0283 -0.0044
    6TMC3    O214192   0.258   3.255  10.555  0.2229  0.4956 -0.2303
    7MPD2     C14193   0.841   3.312  11.991 -0.4583  0.1933  0.1605
    7MPD2    C114194   0.699   3.311  11.999  0.6560 -0.4756 -0.2637
    7MPD2    C214195   0.633   3.198  12.042  0.0316 -0.8296  0.0467
    7MPD2    C314196   0.703   3.081  12.057  0.3373 -0.3772  0.3943
    7MPD2    C414197   0.841   3.086  12.054 -0.1375 -0.0112 -0.0557
    7MPD2    C514198   0.907   3.201  12.035  0.5594  0.2215 -0.6946
    7MPD2     H14199   0.525   3.205  12.042  0.1233  0.6463 -1.8489
    7MPD2    H114200   0.895   2.999  12.091  0.8864  0.7274  0.1824
    7MPD2    H214201   0.895   3.401  11.961  1.8331 -0.3996  2.4597
    7MPD2    H314202   1.015   3.211  12.042  0.4678 -0.3405  1.3816
    7MPD2     N14203   0.636   2.957  12.073 -0.4175 -0.0307 -0.0567
    7MPD2    H514204   0.696   2.876  12.085 -0.6291  0.0624  1.5683
    7MPD2    N114205   0.618   3.432  11.977 -0.4362  0.3869 -1.1478
    7MPD2    H714206   0.520   3.429  12.001 -0.3708 -1.0530 -1.0451
    8TMC3    C114207   0.541   3.640  11.912 -0.5865 -0.0716 -0.2991
    8TMC3    C214208   0.505   3.674  11.787  0.2472 -0.3881  0.9972
    8TMC3    C314209   0.370   3.686  11.753  0.2265 -0.2650 -0.0337
    8TMC3    C414210   0.443   3.618  11.999 -0.3171  0.5883  0.3429
    8TMC3    C514211   0.315   3.615  11.960  0.3778 -0.1420 -0.4371
    8TMC3    C614212   0.267   3.662  11.838 -0.5997 -0.0080 -0.0100
    8TMC3     C14213   0.658   3.556  11.929  0.1320  0.4247 -0.1428
    8TMC3     O14214   0.761   3.600  11.882  0.6401  0.7097 -0.1462
    8TMC3     H14215   0.589   3.682  11.719 -0.0384 -2.9868  0.3501
    8TMC3    H114216   0.461   3.591  12.102  0.3185 -1.1167 -0.2180
    8TMC3    H214217   0.166   3.673  11.802 -0.6914  3.0973  1.1129
    8TMC3    C714218   0.267   3.480  11.978  0.0405 -0.0727  0.8589
    8TMC3    C814219   0.348   3.659  11.614  0.7293 -0.1007  0.1777
    8TMC3    O114220   0.337   3.408  12.038  0.3507  0.6404 -0.7406
    8TMC3    O214221   0.265   3.574  11.584  0.0412  0.0854  0.5414
    9MPD2     C14222   0.506   3.830  11.329 -0.3718  0.3491  0.6369
    9MPD2    C114223   0.432   3.728  11.391  0.0238 -0.2988  0.4162
    9MPD2    C214224   0.377   3.624  11.316  0.0204  0.4144  0.0301
    9MPD2    C314225   0.394   3.618  11.175 -0.5751 -0.4657  0.5634
    9MPD2    C414226   0.453   3.723  11.112  0.1996  0.2391  0.3393
    9MPD2    C514227   0.501   3.831  11.191  0.2039 -0.0962 -0.6127
    9MPD2     H14228   0.325   3.541  11.365 -1.5490  1.5080  0.2307
    9MPD2    H114229   0.465   3.736  11.005 -0.6177  4.1203  0.7190
    9MPD2    H214230   0.551   3.911  11.384  3.1950 -1.8071  0.8783
    9MPD2    H314231   0.546   3.913  11.136 -2.6913  0.7419 -1.7287
    9MPD2     N14232   0.325   3.507  11.108  0.2350  0.1205  0.0331
    9MPD2    H514233   0.290   3.431  11.165  0.3047  1.2221  1.5426
    9MPD2    N114234   0.432   3.738  11.532  0.5218 -0.0721 -1.5966
    9MPD2    H714235   0.479   3.819  11.572 -0.5876  0.0116 -0.4586
    1MPD1     C14236   1.069   2.678  17.147 -0.0344 -0.5890 -0.3916
    1MPD1    C114237   1.038   2.551  17.181  0.1016  0.5472 -0.5098
    1MPD1    C214238   0.939   2.485  17.111  0.0683  0.0297 -0.3975
    1MPD1    C314239   0.856   2.560  17.025 -0.3335  0.2176  0.0387
    1MPD1    C414240   0.878   2.698  17.013  0.4522 -0.4582 -0.4566
    1MPD1    C514241   0.985   2.760  17.071  0.1428  0.8147 -0.2138
    1MPD1     H14242   0.919   2.379  17.123  0.2235  0.2415  1.7454
    1MPD1    H114243   0.811   2.755  16.950 -1.0931 -1.5151  0.1991
    1MPD1    H214244   1.161   2.721  17.186 -1.1707  1.5980 -0.1452
    1MPD1    H314245   1.009   2.863  17.046  0.1950  0.7394 -0.4753
    1MPD1     N14246   0.740   2.511  16.962  0.0341 -0.2414  0.1606
    1MPD1    H514247   0.687   2.572  16.900 -1.4802  0.8062  2.4850
    1MPD1    N114248   1.127   2.479  17.265 -0.1812  0.3919  0.2329
    1MPD1    H614249   1.084   2.397  17.309 -0.0217 -0.1101 -0.5469
    1MPD1    H714250   1.159   2.540  17.340 -2.3699 -1.6484  2.8283
    2MPD1     C14251   4.502   2.175  16.730 -0.6847  0.0475 -1.1102
    2MPD1    C114252   4.535   2.301  16.766 -0.4246 -0.3821 -0.0798
    2MPD1    C214253   4.664   2.334  16.792  0.6032 -0.4141 -0.3127
    2MPD1    C314254   0.033   2.231  16.797 -0.1078 -0.5189 -0.7622
    2MPD1    C414255   4.719   2.100  16.774 -0.5411 -0.8217 -0.3353
    2MPD1    C514256   4.596   2.075  16.729  0.0471  0.3527  1.0157
    2MPD1     H14257   4.695   2.433  16.823 -2.9166 -0.2621  2.7467
    2MPD1    H114258   0.068   2.021  16.780  1.6641  1.3170  0.5069
    2MPD1    H214259   4.401   2.141  16.711 -0.9267 -1.2598  2.5841
    2MPD1    H314260   4.568   1.970  16.726 -0.8752  0.6803 -1.5990
    2MPD1     N14261   0.170   2.268  16.816  0.2408 -0.3047 -0.3047
    2MPD1    H514262   0.194   2.363  16.791 -2.5054  0.5829  0.3580
    2MPD1    N114263   4.441   2.401  16.748  1.0955  0.1945 -0.4839
    2MPD1    H614264   4.452   2.465  16.827  0.9644  0.3737 -0.6109
    2MPD1    H714265   4.343   2.374  16.754  0.2954  3.3051  0.6435
    3TCq2    C114266   0.276   2.183  16.837  0.0755  0.1831 -0.6818
    3TCq2    O214267   0.280   2.076  16.904  0.5695 -0.1311 -0.7444
    3TCq2    C214268   0.392   2.245  16.783  0.0629  0.0557 -0.4930
    3TCq2    C314269   0.372   2.338  16.690 -0.0279 -0.4907 -0.0325
    3TCq2    C414270   0.460   2.438  16.674  0.0282  0.2487 -0.8639
    3TCq2    C514271   0.576   2.448  16.746  0.0034  0.1791  0.0820
    3TCq2    C614272   0.587   2.361  16.856  0.0875 -0.4898 -0.3142
    3TCq2    C714273   0.500   2.251  16.868  0.0191  0.0376 -0.2283
    3TCq2    C814274   0.685   2.389  16.966 -0.2254  0.8584  0.9309
    3TCq2    O414275   0.717   2.298  17.044 -0.0412  0.0298  0.3142
    3TCq2    C914276   0.429   2.547  16.582  0.4295 -0.2557  0.0543
    3TCq2    O514277   0.307   2.551  16.540 -0.3029 -0.7445  0.2759
    3TCq2    O614278   0.513   2.641  16.563 -0.1162  0.3685 -0.3251
    3TCq2    H214279   0.289   2.329  16.621  0.4631 -4.0060 -0.1203
    3TCq2    H314280   0.640   2.534  16.728  1.1041 -0.9588 -1.4036
    3TCq2    H414281   0.512   2.181  16.949  1.1214  1.6955  1.0605
    1TCq1    O114282   2.546   0.996  12.628 -0.1596 -0.2611  0.2586
    1TCq1    C114283   2.442   1.076  12.659  0.5540  0.7743 -0.3613
    1TCq1    O214284   2.327   1.052  12.633 -0.6402  0.0425 -0.4645
    1TCq1    C214285   2.477   1.162  12.767 -0.1629 -0.4691  1.1977
    1TCq1    C314286   2.402   1.157  12.883 -0.4632  0.5110 -0.1215
    1TCq1    C414287   2.448   1.230  12.996  0.3566  0.3317 -0.3069
    1TCq1    C514288   2.573   1.293  12.993  0.4215  0.4452  0.0677
    1TCq1    C614289   2.643   1.284  12.875  1.0551  1.1425  0.4376
    1TCq1    C714290   2.595   1.217  12.767  0.2364  0.3447  0.9021
    1TCq1    C814291   2.760   1.369  12.858 -0.5539  0.4100  0.2071
    1TCq1    O414292   2.814   1.370  12.747 -0.4342  0.1650  0.6366
    1TCq1    C914293   2.379   1.215  13.120 -0.3351  0.1908  0.2145
    1TCq1    O514294   2.265   1.171  13.124  0.0172  0.4175  1.0135
    1TCq1    O614295   2.413   1.288  13.216  0.7901  0.1367 -0.5967
    1TCq1    H114296   2.622   1.018  12.686 -0.7972 -0.1875  1.0638
    1TCq1    H214297   2.312   1.097  12.873  0.6115 -1.1412  0.1208
    1TCq1    H314298   2.596   1.351  13.082  1.1793  0.8637 -0.4075
    1TCq1    H414299   2.650   1.219  12.674 -0.0855  2.7213  0.7744
    2MPD2     C14300   2.994   1.547  12.905  0.0445 -0.1626  0.4588
    2MPD2    C114301   2.911   1.510  12.999  0.0774 -0.2200  1.2682
    2MPD2    C214302   2.933   1.547  13.134 -0.2237 -0.1010 -0.5399
    2MPD2    C314303   3.046   1.613  13.180  0.0490  0.1523 -0.0758
    2MPD2    C414304   3.132   1.651  13.079  0.2202 -0.2460  0.5346
    2MPD2    C514305   3.100   1.627  12.944  0.1332  0.2053  0.1562
    2MPD2     H14306   2.868   1.511  13.213  0.5889 -0.1811  0.0996
    2MPD2    H114307   3.226   1.703  13.090  1.3755 -2.2721  0.3500
    2MPD2    H214308   2.974   1.529  12.800  1.6388 -1.5214  0.3896
    2MPD2    H314309   3.159   1.672  12.865 -0.3980 -1.5803 -1.2489
    2MPD2     N14310   3.064   1.621  13.319 -0.3322 -0.3826  0.0456
    2MPD2    H514311   2.988   1.576  13.370  0.7774 -0.5813  1.5274
    2MPD2    N114312   2.800   1.426  12.978  0.0713 -0.2913  0.0235
    2MPD2    H714313   2.749   1.403  13.063  0.5754 -1.6622 -0.0425
    3TCq1    O114314   2.895   1.901  13.638  0.5309  0.2383 -0.1075
    3TCq1    C114315   2.934   1.820  13.742  0.0096  0.5913 -0.0898
    3TCq1    O214316   2.878   1.817  13.856 -0.2612  0.3406 -0.3741
    3TCq1    C214317   3.037   1.730  13.700 -0.5941 -0.4620  0.5278
    3TCq1    C314318   3.140   1.713  13.786 -0.4992 -0.8117 -0.4860
    3TCq1    C414319   3.264   1.689  13.741  0.0637  0.0779 -0.1048
    3TCq1    C514320   3.289   1.679  13.606 -0.2030 -0.4672 -0.3935
    3TCq1    C614321   3.180   1.678  13.527 -0.0818  0.9940 -0.2932
    3TCq1    C714322   3.052   1.699  13.573 -0.2113 -0.1311  0.3036
    3TCq1    C814323   3.183   1.670  13.380  0.8260  0.0873  0.1864
    3TCq1    O414324   3.286   1.702  13.325 -0.1018  0.8185 -0.5514
    3TCq1    C914325   3.377   1.678  13.840  0.3009  0.4332 -0.2095
    3TCq1    O514326   3.497   1.694  13.796  0.1923 -0.2594 -0.1085
    3TCq1    O614327   3.341   1.684  13.962  0.6248  0.2685  0.2240
    3TCq1    H114328   2.958   1.898  13.563  0.1924 -3.0108 -0.2665
    3TCq1    H214329   3.132   1.742  13.890 -0.5477 -1.5201 -0.2923
    3TCq1    H314330   3.390   1.670  13.570  1.1491  0.1537  3.2434
    3TCq1    H414331   2.961   1.696  13.515 -0.8725 -0.0298  1.3350
    1MPD2     C14332   2.348   1.781  15.369  0.1304 -0.7135  0.0399
    1MPD2    C114333   2.227   1.792  15.303 -0.2641  0.1999 -0.2654
    1MPD2    C214334   2.235   1.828  15.173 -0.4405 -0.2171  0.3939
    1MPD2    C314335   2.347   1.858  15.105 -0.0392 -0.2003 -0.6190
    1MPD2    C414336   2.471   1.833  15.171 -0.1121  0.1099  0.3778
    1MPD2    C514337   2.463   1.801  15.304 -0.2993 -0.3812 -0.7419
    1MPD2     H14338   2.144   1.831  15.113  0.5696 -3.0998 -1.3074
    1MPD2    H114339   2.569   1.861  15.134 -0.2860  1.9586  1.3086
    1MPD2    H214340   2.350   1.766  15.476 -0.0593 -1.7528 -0.1029
    1MPD2    H314341   2.556   1.799  15.360  0.9162  0.8747 -2.7201
    1MPD2     N14342   2.330   1.899  14.976  0.3495  0.1043 -0.5058
    1MPD2    H514343   2.236   1.916  14.941  0.6022  0.4422 -1.0204
    1MPD2    N114344   2.106   1.773  15.379  0.0805  1.4236  0.3586
    1MPD2    H714345   2.105   1.723  15.468  0.9321 -1.3328 -1.1583
    2TMC3    C114346   1.889   1.730  15.420 -0.3080  0.8244  0.0916
    2TMC3    C214347   1.885   1.596  15.379 -0.1651 -0.1340  0.2565
    2TMC3    C314348   1.763   1.536  15.376  0.1539 -0.3293 -0.1332
    2TMC3    C414349   1.772   1.804  15.442 -0.5524  0.4605 -0.2181
    2TMC3    C514350   1.655   1.730  15.442  0.6806 -0.5386  0.4236
    2TMC3    C614351   1.649   1.592  15.424 -0.2405 -0.3813  0.2938
    2TMC3     C14352   1.985   1.805  15.343  0.1674  0.0102  0.0766
    2TMC3     O14353   1.948   1.855  15.240 -0.2712 -0.4807 -0.4260
    2TMC3     H14354   1.973   1.539  15.351 -0.2749 -1.1396  1.9029
    2TMC3    H114355   1.777   1.910  15.464  0.0543  0.2509  0.6335
    2TMC3    H214356   1.549   1.551  15.416 -0.6922  0.4643  1.4826
    2TMC3    C714357   1.539   1.801  15.473 -0.2053  0.3303  0.5926
    2TMC3    C814358   1.736   1.485  15.244  0.3748  0.6543  0.3991
    2TMC3    O114359   1.461   1.741  15.549 -0.2391 -0.0178  0.3741
    2TMC3    O214360   1.642   1.409  15.227  0.0300  0.1983 -0.0626
    3TCq1    O114361   1.340   2.606  14.728  0.2936 -0.2648  0.6480
    3TCq1    C114362   1.259   2.623  14.835  0.0019  0.4982 -0.2480
    3TCq1    O214363   1.138   2.609  14.837 -0.3894  0.1705  0.4885
    3TCq1    C214364   1.344   2.630  14.956  0.2525  1.0103  0.3577
    3TCq1    C314365   1.485   2.636  14.943  0.2960  0.3606  0.2138
    3TCq1    C414366   1.558   2.607  15.054  0.1601 -0.1963  0.0508
    3TCq1    C514367   1.495   2.560  15.169 -0.3655  0.3282  0.3307
    3TCq1    C614368   1.353   2.560  15.179 -0.5358  0.0065 -0.0432
    3TCq1    C714369   1.281   2.599  15.075  0.1204  0.4376 -0.0723
    3TCq1    C814370   1.297   2.461  15.267  0.3368  0.6305 -0.1859
    3TCq1    O414371   1.175   2.463  15.267 -0.3959  0.4737 -0.4504
    3TCq1    C914372   1.697   2.596  15.043  0.3617  0.2259 -0.7548
    3TCq1    O514373   1.754   2.644  14.942  0.0112  0.9761 -0.2159
    3TCq1    O614374   1.762   2.592  15.149  0.5374 -0.8169  0.5579
    3TCq1    H114375   1.412   2.671  14.739 -0.8029  0.7016  2.0837
    3TCq1    H214376   1.539   2.660  14.852 -2.0874  1.1208 -1.0194
    3TCq1    H314377   1.561   2.556  15.254 -1.7283 -1.8617  1.2956
    3TCq1    H414378   1.175   2.575  15.075 -0.3386  2.4271  0.1428
    4MPD2     C14379   1.243   2.217  15.437 -0.5141 -0.4676 -0.1456
    4MPD2    C114380   1.355   2.238  15.366  0.6711  0.4905 -0.6258
    4MPD2    C214381   1.456   2.141  15.354 -0.1107  0.2511 -0.5457
    4MPD2    C314382   1.429   2.022  15.420  0.0425  0.2634 -0.3318
    4MPD2    C414383   1.321   2.008  15.502  0.2050  0.8253 -0.5064
    4MPD2    C514384   1.224   2.102  15.496 -0.2822 -0.4265  0.0339
    4MPD2     H14385   1.544   2.147  15.291  0.2326 -2.5049 -0.3356
    4MPD2    H114386   1.297   1.914  15.550  2.9699 -1.2148 -3.1059
    4MPD2    H214387   1.166   2.292  15.449  0.3932  0.3909  0.3098
    4MPD2    H314388   1.129   2.088  15.545 -0.3392 -0.8948 -0.2102
    4MPD2     N14389   1.531   1.924  15.408  0.5885  0.3400 -0.5929
    4MPD2    H514390   1.606   1.964  15.351  0.2530  0.1688 -1.1522
    4MPD2    N114391   1.383   2.364  15.305  0.0977 -0.5686  0.4527
    4MPD2    H714392   1.476   2.375  15.266  0.7580  0.4886  2.3126
    5TMC2    C114393   2.161   1.853  14.676 -0.0324  0.4875  0.1447
    5TMC2    C214394   2.215   1.740  14.627 -0.4935  0.5045  1.3215
    5TMC2    C314395   2.355   1.722  14.627 -0.2115  0.3700 -0.9394
    5TMC2    C414396   2.251   1.943  14.728  0.0005  0.1463 -0.1763
    5TMC2    C514397   2.380   1.922  14.742  0.0650 -0.9189 -0.3766
    5TMC2    C614398   2.442   1.820  14.673 -0.2837  0.2383 -0.2986
    5TMC2     C14399   2.051   1.830  14.769 -0.2728  0.7362 -0.1331
    5TMC2     O14400   2.050   1.893  14.874  0.0514  0.3561  0.3450
    5TMC2     H14401   2.157   1.653  14.597  0.1869  0.2595  0.7126
    5TMC2    H114402   2.205   2.023  14.785  1.3397  3.2961 -3.5587
    5TMC2    H214403   2.546   1.798  14.696 -0.7867  0.7425  2.4953
    5TMC2    C714404   2.430   1.918  14.880 -0.6372  0.7569  0.1788
    5TMC2    C814405   2.401   1.613  14.534 -0.2337  0.6815  0.1969
    5TMC2    O114406   2.552   1.915  14.903  0.4704 -0.7662 -0.5718
    5TMC2    O214407   2.332   1.510  14.530  0.0465  0.0504 -0.2392
    5TMC2    O514408   2.534   1.622  14.510 -0.0777  0.1834 -0.0129
    5TMC2    H514409   2.570   1.713  14.515  0.3819 -0.0005  0.0293
    6MPD2     C14410   1.707   1.502  14.937 -0.0268 -0.2019 -0.3884
    6MPD2    C114411   1.790   1.581  15.013 -0.1412  0.5815  0.3462
    6MPD2    C214412   1.871   1.667  14.939  0.1954 -0.5459 -0.5807
    6MPD2    C314413   1.873   1.670  14.801  0.3282 -0.3353 -0.0232
    6MPD2    C414414   1.796   1.583  14.735  0.3085  0.7283 -0.6338
    6MPD2    C514415   1.707   1.505  14.802 -0.1198 -0.2958 -0.0775
    6MPD2     H14416   1.946   1.727  14.990  0.0336 -2.2218  1.6385
    6MPD2    H114417   1.790   1.570  14.627  1.2525 -1.3273 -0.4451
    6MPD2    H214418   1.642   1.430  14.985  1.4416 -1.9772 -1.0927
    6MPD2    H314419   1.639   1.452  14.737 -0.0378  1.3644 -1.5196
    6MPD2     N14420   1.959   1.740  14.719  0.1382  0.1914  0.4525
    6MPD2    H514421   1.963   1.716  14.620 -2.2588 -2.4752  1.0055
    6MPD2    N114422   1.800   1.569  15.154  0.4599 -0.7866 -0.5035
    6MPD2    H714423   1.872   1.627  15.196 -0.1111 -0.0011 -0.5988
  945NH4     N114424   0.973   4.682   8.551  0.4806 -0.5905 -0.6849
  945NH4     H214425   0.986   4.596   8.494 -2.2804 -0.7487 -1.1213
  945NH4     H314426   0.963   0.039   8.488 -0.3747  0.0030  0.2207
  945NH4     H414427   1.060   4.696   8.606  0.0980 -2.4762  0.4288
  945NH4     H514428   0.891   4.674   8.615  1.8095 -0.7610  0.9614
  946SOD     NA14429   2.435   1.760  10.353  0.3946  0.1660  0.0950
  947SOD     NA14430   3.735   1.656  14.496 -0.0969 -0.2157 -0.4072
  948SOD     NA14431   0.084   0.600  11.001 -0.0046 -0.3753 -0.4266
  949SOD     NA14432   0.830   0.993  14.504  0.1018  0.6388 -0.1953
  950SOD     NA14433   4.027   0.911   0.228  0.4964  0.5606 -0.0132
  951SOD     NA14434   0.128   4.093   1.007  0.2401 -0.1075  0.0485
  952SOD     NA14435   2.653   1.811   0.360 -0.1093  0.1866  0.6101
  953SOD     NA14436   2.921   0.464  12.507  0.5750  0.2937 -0.1152
  954SOD     NA14437   4.348   2.822   9.658 -0.0614  0.1133  0.8239
  955SOD     NA14438   0.383   3.440   8.186 -0.0176 -0.4712  0.1769
  956SOD     NA14439   1.542   0.531  13.362 -0.1445  0.2214 -0.1725
  957SOD     NA14440   3.882   2.511  13.397  0.4844 -0.5411 -0.3749
  958SOD     NA14441   3.796   2.172  14.794  0.3836  0.0574 -0.4637
  959SOD     NA14442   3.064   1.976   1.353  0.2678  0.6670  0.4169
  960SOD     NA14443   3.333   0.463  12.818 -0.0919  0.0011 -0.1103
  961SOD     NA14444   4.638   0.220   1.269 -0.2026  0.1992 -0.1468
  962SOD     NA14445   2.128   3.872   1.533 -0.0783  0.1554  0.1888
  963SOD     NA14446   3.878   1.196   0.616  0.0876 -0.1693 -0.3235
  964SOD     NA14447   4.080   1.617  14.303  0.2493  0.7009  0.5967
  965SOD     NA14448   0.913   2.927  11.206 -0.1243 -0.2501  0.3776
  966SOD     NA14449   1.170   2.810   0.703  0.4066  0.5479  0.1772
  967SOD     NA14450   2.199   0.960  13.181  0.3321  0.3786 -0.1737
  968SOD     NA14451   3.138   3.401   9.887 -0.0988  0.3317 -0.0143
  969SOD     NA14452   0.832   4.301  13.829 -0.1848 -0.2587 -0.3132
  970SOD     NA14453   1.262   4.215   0.395 -0.2071  0.2809 -0.3965
  971SOD     NA14454   2.090   1.216  12.984  0.0195 -0.2016  0.3230
  972SOD     NA14455   3.835   1.737  14.105  0.6955  0.2785 -0.3939
  973SOD     NA14456   3.906   2.340  12.131  0.2233  0.5445  0.2871
  974SOD     NA14457   4.670   0.368   1.816  0.1752  0.0990  0.1725
  975SOD     NA14458   2.925   0.452  10.878  0.0512  0.0993 -0.2258
  976SOD     NA14459   3.076   4.293  12.122  0.5134 -0.0350  0.5670
  977SOD     NA14460   2.609   1.484   9.959 -0.1626  0.2446 -0.0124
  978SOD     NA14461   1.961   2.658  15.043 -0.3515  0.0146 -0.1211
  979SOD     NA14462   3.425   0.476   4.787 -0.0019 -0.2493 -0.2457
  980SOD     NA14463   1.850   2.454  15.305  0.0913  0.1895 -0.0660
  981SOD     NA14464   2.699   0.945  10.260 -0.0433 -0.2404  0.6430
  982SOD     NA14465   2.489   0.159  10.717  0.5220  0.2022  0.3077
  983SOD     NA14466   3.706   1.592  13.805 -0.5441 -0.2527  0.0792
  984SOD     NA14467   0.269   1.986   0.289  0.1943  0.1750 -0.0453
  985SOD     NA14468   2.388   0.119   9.097 -0.0644 -0.1727 -0.2593
  986SOD     NA14469   0.415   0.373  12.752  0.3539 -0.4877 -0.4274
  987SOD     NA14470   2.415   0.248  11.018 -0.2971 -0.2597 -0.1090
  988SOD     NA14471   3.520   3.346  14.752  0.1737 -0.2115  0.0552
  989SOD     NA14472   2.148   4.419  10.199 -0.1237 -0.0310 -0.1627
  990SOD     NA14473   2.779   1.269   0.618 -0.0633 -0.4165 -0.3045
  991SOD     NA14474   4.142   0.425  14.645  0.5762 -0.3608 -0.2632
  992SOD     NA14475   0.011   4.005  14.960 -0.3433  0.1738  0.1908
  993SOD     NA14476   3.895   2.839  11.663  0.2590 -0.3651  0.0925
  994SOD     NA14477   2.223   1.308  13.312 -0.1997  0.2826  0.5605
  995SOD     NA14478   3.729   2.519   0.525  0.3863 -0.3681  0.2972
  996SOD     NA14479   2.671   4.054  12.661 -0.2216  0.2591 -0.0670
  997SOD     NA14480   2.015   1.565   4.207  0.2368 -0.1071  0.3857
  998SOD     NA14481   3.953   0.792  10.207 -0.1988  0.2832 -0.0001
  999SOD     NA14482   1.144   0.675  10.895 -0.3705  0.3255 -0.3961
 1000SOD     NA14483   1.848   1.990  10.082  0.1346 -0.4378 -0.0680
 1001SOD     NA14484   1.918   2.354  14.130  0.1396  0.9478  0.0592
 1002SOD     NA14485   1.390   1.776   0.963 -0.4117 -0.3846  0.0520
 1003SOD     NA14486   1.418   1.904   2.389  0.3455 -0.4893  0.0013
 1004SOD     NA14487   0.404   2.688  15.582 -0.1562 -0.0100  0.0891
 1005SOD     NA14488   2.414   0.017  15.873 -0.3068  0.1140 -0.3261
 1006SOD     NA14489   0.843   2.551  13.429 -0.1866 -0.0318 -0.0977
 1007SOD     NA14490   1.846   1.779   5.688 -0.1536 -0.2725 -0.1374
 1008SOD     NA14491   3.667   2.651   2.013 -0.0954  0.1491  0.3456
 1009SOD     NA14492   4.640   1.453  10.359 -0.0010  0.1294 -0.0163
 1010SOD     NA14493   2.709   2.364   7.763 -0.1228  0.7593 -0.8469
 1011SOL     OW14494   1.595   1.170   3.433  0.0761 -0.1044 -0.2319
 1011SOL    HW114495   1.516   1.225   3.429  0.6958  1.0061  2.2485
 1011SOL    HW214496   1.603   1.135   3.345  0.1061  0.2255 -0.3599
 1012SOL     OW14497   3.936   1.932  13.992 -0.7707 -0.1710  0.1142
 1012SOL    HW114498   4.020   1.972  13.973 -1.9379  2.4974  0.5768
 1012SOL    HW214499   3.890   1.942  13.909 -0.0863 -0.7746 -0.3415
 1013SOL     OW14500   0.911   4.387   4.340  0.1117 -0.1191  0.3404
 1013SOL    HW114501   0.946   4.393   4.429 -0.5192  1.9898  0.4666
 1013SOL    HW214502   0.850   4.461   4.339 -1.8031 -1.7178 -0.0757
 1014SOL     OW14503   2.813   1.739   2.365  0.0820  0.3711  0.3027
 1014SOL    HW114504   2.809   1.648   2.395 -0.3130 -0.3932 -2.0551
 1014SOL    HW214505   2.906   1.762   2.369  0.1640  0.3810 -1.4050
 1015SOL     OW14506   0.916   3.540   1.480  0.1348 -0.3308  0.1069
 1015SOL    HW114507   1.005   3.571   1.499  0.5575 -1.2236 -0.4471
 1015SOL    HW214508   0.880   3.625   1.455 -0.0782 -0.5207 -0.2211
 1016SOL     OW14509   4.536   2.709   9.710 -0.1615 -0.0110 -0.3111
 1016SOL    HW114510   4.530   2.636   9.649 -0.9834 -1.2162  1.2156
 1016SOL    HW214511   4.632   2.712   9.705 -0.2133  0.3025 -1.0818
 1017SOL     OW14512   3.318   3.903  10.445 -0.2758  0.2296  0.3772
 1017SOL    HW114513   3.277   3.816  10.449  1.8702 -0.8488 -1.1626
 1017SOL    HW214514   3.251   3.964  10.477 -0.4229  1.2661 -1.9193
 1018SOL     OW14515   0.817   0.458   2.438  0.0625  0.5982 -0.2242
 1018SOL    HW114516   0.774   0.386   2.391 -0.2861  0.8063 -0.2196
 1018SOL    HW214517   0.910   0.433   2.429  0.4355  2.5022 -1.5673
 1019SOL     OW14518   3.198   3.188   3.794  0.0686 -0.1661 -0.0905
 1019SOL    HW114519   3.194   3.190   3.699  1.9776 -1.3481 -0.2145
 1019SOL    HW214520   3.108   3.169   3.818 -0.0357  0.3310 -0.0869
 1020SOL     OW14521   2.107   4.266   3.607  0.9870  0.4260  0.3808
 1020SOL    HW114522   2.111   4.181   3.564  0.1728  0.6465 -0.1299
 1020SOL    HW214523   2.177   4.307   3.556 -0.5025  0.1911 -1.8309
 1021SOL     OW14524   2.326   1.976   1.740  0.6266 -0.0061 -0.2100
 1021SOL    HW114525   2.362   1.891   1.713  0.4644  0.3769 -1.6517
 1021SOL    HW214526   2.387   2.006   1.808  1.6904 -0.6197 -0.8895
 1022SOL     OW14527   1.986   4.562   0.778  0.1143 -0.0511  0.1756
 1022SOL    HW114528   2.035   4.582   0.698 -0.6344  0.1856 -0.2332
 1022SOL    HW214529   1.955   4.472   0.763 -2.2777  0.6586  0.8707
 1023SOL     OW14530   0.264   2.661   7.925 -0.4366  0.5034  0.3936
 1023SOL    HW114531   0.302   2.626   7.844 -0.2520 -0.6578  0.9846
 1023SOL    HW214532   0.271   2.579   7.974 -1.4809  1.2609  1.8227
 1024SOL     OW14533   0.283   2.577  17.008  0.2486 -0.5589 -0.0330
 1024SOL    HW114534   0.233   2.613  16.935  0.2487 -1.0524 -0.2746
 1024SOL    HW214535   0.371   2.578  16.970 -0.8928 -1.8411 -2.7193
 1025SOL     OW14536   2.052   3.412  17.532  0.4290  0.2167  0.3263
 1025SOL    HW114537   1.996   3.373  17.464  1.8665 -1.0187 -0.1429
 1025SOL    HW214538   2.092   3.329  17.559  0.9806 -0.0175 -1.2018
 1026SOL     OW14539   3.995   2.787   3.057 -0.5642  0.3182 -0.2737
 1026SOL    HW114540   3.903   2.799   3.082  0.0744  2.3060  1.1055
 1026SOL    HW214541   4.038   2.864   3.093  2.3020 -1.4597  0.0800
 1027SOL     OW14542   0.903   3.372   4.447 -0.1129  0.1775 -0.2283
 1027SOL    HW114543   0.867   3.442   4.500 -2.4707 -1.6606  0.5970
 1027SOL    HW214544   0.908   3.409   4.359  0.0609  1.5858  0.3878
 1028SOL     OW14545   4.299   3.619  14.413  0.1847  0.4627 -0.3603
 1028SOL    HW114546   4.243   3.596  14.487 -0.3250 -0.0629 -0.9211
 1028SOL    HW214547   4.289   3.552  14.346 -1.7737  1.9955 -1.5875
 1029SOL     OW14548   3.162   2.121   0.315 -0.3585  0.3736 -0.7633
 1029SOL    HW114549   3.164   2.049   0.251 -0.8627 -1.3174  1.1021
 1029SOL    HW214550   3.076   2.154   0.293 -0.9158 -0.2261  0.5149
 1030SOL     OW14551   4.172   1.541   7.661 -0.0905  0.3117  0.6176
 1030SOL    HW114552   4.245   1.601   7.673 -1.9154  2.9902 -1.5051
 1030SOL    HW214553   4.175   1.538   7.565 -1.4202 -0.4238  0.5896
 1031SOL     OW14554   4.259   3.745   2.433 -0.2003 -0.1692  0.2306
 1031SOL    HW114555   4.191   3.771   2.371  2.0337  3.7865 -0.5612
 1031SOL    HW214556   4.333   3.798   2.403 -0.3325 -0.5503 -0.7344
 1032SOL     OW14557   0.952   0.436   9.742  0.3737 -0.4641  0.3998
 1032SOL    HW114558   0.917   0.355   9.706 -0.6091  0.8683 -1.7012
 1032SOL    HW214559   0.869   0.483   9.734  0.9871  0.7932  1.4051
 1033SOL     OW14560   3.566   1.411  11.598  0.0744 -0.4562 -0.2094
 1033SOL    HW114561   3.540   1.345  11.534  0.3969  1.0175 -1.8686
 1033SOL    HW214562   3.486   1.463  11.592  1.6692  1.8506 -1.6001
 1034SOL     OW14563   4.384   0.402   2.878  0.1646  0.5458  0.1149
 1034SOL    HW114564   4.347   0.314   2.881 -1.2334  1.1865  1.7198
 1034SOL    HW214565   4.460   0.399   2.936  1.4169  1.7845 -1.4602
 1035SOL     OW14566   0.710   2.714   2.466 -0.5063  0.4624 -0.9156
 1035SOL    HW114567   0.697   2.709   2.371 -1.0615  0.5740 -0.8469
 1035SOL    HW214568   0.792   2.761   2.456 -0.8707  1.1585 -0.6075
 1036SOL     OW14569   2.452   1.186  15.996 -0.2382  0.1034  1.0198
 1036SOL    HW114570   2.456   1.092  16.013  0.5085 -0.1656 -0.7051
 1036SOL    HW214571   2.360   1.204  15.975 -0.2402 -0.8585  0.2098
 1037SOL     OW14572   3.090   4.559   6.898 -0.4763  0.0109  0.1972
 1037SOL    HW114573   3.176   4.553   6.939  0.2745  0.4305 -1.3286
 1037SOL    HW214574   3.041   4.498   6.953 -1.2978 -0.3982 -0.9943
 1038SOL     OW14575   3.398   4.369  13.180  0.6112 -0.2254  0.1203
 1038SOL    HW114576   3.445   4.359  13.098  1.4025 -0.9089  0.6594
 1038SOL    HW214577   3.432   4.293  13.227 -1.1206 -1.3436 -0.4532
 1039SOL     OW14578   4.681   2.359   7.415  0.0900  0.0545 -0.2029
 1039SOL    HW114579   0.041   2.393   7.388  1.6668 -3.2089  0.7920
 1039SOL    HW214580   4.693   2.364   7.510 -0.2790  0.6137 -0.1793
 1040SOL     OW14581   1.503   1.153  13.102 -0.5354  0.1005  0.6897
 1040SOL    HW114582   1.592   1.187  13.096 -0.2522 -0.5079  1.4384
 1040SOL    HW214583   1.492   1.176  13.194 -1.6398 -1.9036  1.0658
 1041SOL     OW14584   4.632   1.484   7.762 -0.3542 -0.0538 -0.0363
 1041SOL    HW114585   4.560   1.474   7.824 -2.1345 -0.6139 -2.1950
 1041SOL    HW214586   4.694   1.531   7.818 -2.3356  0.5617  1.6745
 1042SOL     OW14587   3.609   2.570   6.851  0.0466  0.3626 -0.0053
 1042SOL    HW114588   3.600   2.578   6.946 -2.9280  2.0876 -0.4215
 1042SOL    HW214589   3.682   2.626   6.825 -0.3884  1.1869  0.5130
 1043SOL     OW14590   4.088   0.221   9.075 -0.0576  0.3921 -0.2197
 1043SOL    HW114591   3.995   0.200   9.083  0.0062  0.5893  1.0081
 1043SOL    HW214592   4.098   0.307   9.116  3.6151 -0.1359  0.0568
 1044SOL     OW14593   1.620   2.446   5.268 -0.5039  0.4748  0.3350
 1044SOL    HW114594   1.683   2.478   5.203 -0.5068  1.5055  0.8329
 1044SOL    HW214595   1.660   2.491   5.342  2.3387  0.6636 -1.3329
 1045SOL     OW14596   0.159   2.678   3.565  0.1742 -0.1084  0.0672
 1045SOL    HW114597   0.211   2.751   3.599 -0.8083  1.2696 -1.4143
 1045SOL    HW214598   0.198   2.668   3.478 -0.1384  1.0588 -0.2013
 1046SOL     OW14599   0.496   1.847   8.216  0.3043 -0.4159 -0.3472
 1046SOL    HW114600   0.454   1.932   8.202  1.9752  0.7070  1.5387
 1046SOL    HW214601   0.585   1.882   8.219  0.0562  0.3060 -1.7473
 1047SOL     OW14602   2.961   4.214  11.124 -0.0040 -0.0549 -0.9459
 1047SOL    HW114603   2.913   4.295  11.145  1.0607  0.8262 -1.9399
 1047SOL    HW214604   2.896   4.149  11.150  0.5012 -0.4851 -0.7598
 1048SOL     OW14605   2.123   3.751   1.349  0.3516  0.1247  0.3915
 1048SOL    HW114606   2.104   3.759   1.255  1.5679 -1.6262 -0.0024
 1048SOL    HW214607   2.203   3.699   1.349 -0.7117 -1.5258 -1.2735
 1049SOL     OW14608   3.605   2.583  12.009  0.6389 -0.0955  0.5141
 1049SOL    HW114609   3.695   2.563  12.035 -0.1138 -2.0354  1.5968
 1049SOL    HW214610   3.552   2.561  12.086 -0.6313 -1.8655 -0.8833
 1050SOL     OW14611   3.508   0.695   7.882  0.3780  0.3893  0.0740
 1050SOL    HW114612   3.526   0.781   7.921 -0.6848  1.1592 -1.1314
 1050SOL    HW214613   3.486   0.719   7.792  3.3330  1.6972 -0.3232
 1051SOL     OW14614   1.707   4.329   5.624  0.1124 -0.6123 -0.3919
 1051SOL    HW114615   1.738   4.399   5.681 -0.6070  0.3557 -1.1843
 1051SOL    HW214616   1.785   4.285   5.590  1.0057 -1.5211  2.8351
 1052SOL     OW14617   1.711   4.470   8.263 -0.5075  0.1207 -0.7018
 1052SOL    HW114618   1.650   4.399   8.244 -0.1983  0.0618 -1.4658
 1052SOL    HW214619   1.690   4.500   8.351 -0.7429 -0.0220 -0.7096
 1053SOL     OW14620   1.431   3.438   2.586 -0.5181  0.2770  0.1814
 1053SOL    HW114621   1.455   3.362   2.639  2.4390  2.6052  2.1798
 1053SOL    HW214622   1.380   3.393   2.518  0.0936 -0.6090  0.3101
 1054SOL     OW14623   1.816   2.530  17.135  0.5100 -0.6134  0.1260
 1054SOL    HW114624   1.867   2.574  17.067 -0.0395  0.4229  0.3750
 1054SOL    HW214625   1.868   2.456  17.164  0.4785 -0.5719  0.2902
 1055SOL     OW14626   3.889   0.475   7.118 -0.2487 -0.5070  0.1167
 1055SOL    HW114627   3.891   0.387   7.080  0.4727 -1.2246  1.8510
 1055SOL    HW214628   3.953   0.478   7.189  1.3177 -0.9280 -1.2744
 1056SOL     OW14629   2.722   4.377   4.640  0.5958  0.0146  0.0999
 1056SOL    HW114630   2.770   4.407   4.717  3.5025 -1.8007 -0.9836
 1056SOL    HW214631   2.728   4.460   4.594  0.3977  0.3626  0.6943
 1057SOL     OW14632   2.355   1.843  16.094  0.2875  0.3352  0.3931
 1057SOL    HW114633   2.297   1.769  16.110  1.5973 -0.6496  0.6404
 1057SOL    HW214634   2.433   1.810  16.050 -0.8586 -0.1521 -1.2226
 1058SOL     OW14635   0.917   2.107   2.929  0.5869  0.4249  0.2022
 1058SOL    HW114636   0.932   2.019   2.961 -0.2178  0.3793  0.4708
 1058SOL    HW214637   0.858   2.142   2.997  0.6345  2.0942 -0.6138
 1059SOL     OW14638   2.572   1.855   8.051 -0.1408  0.1273 -0.2999
 1059SOL    HW114639   2.537   1.779   8.097 -2.4980  0.6179 -1.2759
 1059SOL    HW214640   2.640   1.887   8.110  0.0210 -0.8719  0.0486
 1060SOL     OW14641   3.531   3.158   3.245  0.2543  0.2717  0.0273
 1060SOL    HW114642   3.486   3.243   3.241  1.0935  0.7875  1.4984
 1060SOL    HW214643   3.605   3.162   3.305  0.5473  0.9435 -0.3736
 1061SOL     OW14644   3.954   1.456   7.358  0.8860  0.0932 -0.2725
 1061SOL    HW114645   3.899   1.423   7.287  0.3898  0.2673  0.0346
 1061SOL    HW214646   4.026   1.485   7.301  2.1635 -2.6426 -0.0563
 1062SOL     OW14647   3.643   4.181   5.781 -0.1423 -0.5910 -0.4383
 1062SOL    HW114648   3.674   4.268   5.755 -1.8403  0.3164  0.5792
 1062SOL    HW214649   3.648   4.127   5.702  1.6075 -1.4894  0.2800
 1063SOL     OW14650   2.889   2.849   7.789 -0.0672 -0.0069 -0.4979
 1063SOL    HW114651   2.983   2.857   7.804 -0.2635  1.1513  0.1223
 1063SOL    HW214652   2.850   2.907   7.855 -0.1452 -1.2335  0.5312
 1064SOL     OW14653   4.658   4.616   5.461 -0.6670  0.9427 -0.2700
 1064SOL    HW114654   4.580   4.659   5.495 -2.4316 -2.8612  0.5527
 1064SOL    HW214655   4.622   4.527   5.457 -0.0547  0.6830 -0.0284
 1065SOL     OW14656   2.149   3.989   6.623  0.1394  0.2248 -0.7706
 1065SOL    HW114657   2.163   4.008   6.716  1.8483  0.7130 -1.1418
 1065SOL    HW214658   2.082   4.054   6.598 -0.7744 -0.3004  0.2832
 1066SOL     OW14659   4.486   1.287   9.003 -0.0605 -0.1218  0.3192
 1066SOL    HW114660   4.439   1.262   8.923  1.2836  0.5428 -0.6854
 1066SOL    HW214661   4.559   1.225   9.002 -0.8748 -1.0865  0.0258
 1067SOL     OW14662   2.467   4.438   7.825  0.3755  0.5742  0.5546
 1067SOL    HW114663   2.374   4.452   7.811  0.9986  0.9991 -3.2771
 1067SOL    HW214664   2.501   4.502   7.762  1.2106 -2.4328 -2.0714
 1068SOL     OW14665   0.299   0.736   9.401  0.3658 -0.3686  0.0029
 1068SOL    HW114666   0.230   0.670   9.397 -0.3677  0.3845  0.1525
 1068SOL    HW214667   0.253   0.816   9.428 -0.3989 -0.4928 -0.9206
 1069SOL     OW14668   3.248   2.453   6.017 -0.4990 -0.8717  0.7820
 1069SOL    HW114669   3.251   2.465   6.112 -1.1653  4.0611  0.1991
 1069SOL    HW214670   3.273   2.541   5.989  0.8264 -0.6697  2.6163
 1070SOL     OW14671   3.054   2.592   7.570 -0.8859 -0.0029  0.5798
 1070SOL    HW114672   3.044   2.631   7.657  1.8429  0.5762  0.6331
 1070SOL    HW214673   3.107   2.515   7.589 -1.0210 -0.0001  0.9701
 1071SOL     OW14674   2.400   0.868  13.203 -0.2691 -0.0210  0.3125
 1071SOL    HW114675   2.485   0.905  13.230  0.5975 -1.6151 -0.2052
 1071SOL    HW214676   2.418   0.779  13.173  0.6797 -0.3164  1.7352
 1072SOL     OW14677   1.378   3.263   6.345 -0.3668  0.3108  0.3106
 1072SOL    HW114678   1.341   3.299   6.425 -1.1775  0.2550 -0.0363
 1072SOL    HW214679   1.370   3.345   6.297 -0.9638 -0.1235 -0.3475
 1073SOL     OW14680   2.549   0.841   9.870 -0.0162  0.4774  0.2489
 1073SOL    HW114681   2.478   0.788   9.907  2.9333 -4.7194 -1.4900
 1073SOL    HW214682   2.496   0.868   9.795  2.2213 -0.3724 -1.6395
 1074SOL     OW14683   0.488   2.719  15.099 -0.4392  0.1027  0.1790
 1074SOL    HW114684   0.533   2.670  15.168  0.8142  0.3521 -0.4718
 1074SOL    HW214685   0.396   2.694  15.108  0.2291 -2.4012  0.1861
 1075SOL     OW14686   0.215   0.784   8.439  0.1063  0.3187 -0.1552
 1075SOL    HW114687   0.169   0.712   8.396  0.7397 -0.8415  1.0729
 1075SOL    HW214688   0.206   0.753   8.529 -0.1720  0.7662 -0.0300
 1076SOL     OW14689   3.752   4.642   7.691  0.1914  0.4966  0.5867
 1076SOL    HW114690   3.715   4.578   7.630 -1.2744  0.2099  1.7435
 1076SOL    HW214691   3.839   4.609   7.712 -0.4595  0.0573  2.6485
 1077SOL     OW14692   1.151   4.478  17.001  0.2683  0.4428 -0.2413
 1077SOL    HW114693   1.143   4.474  17.097 -2.8917 -1.1540 -0.5722
 1077SOL    HW214694   1.056   4.474  16.987 -0.0442 -1.6405  2.4024
 1078SOL     OW14695   3.133   4.580   5.172 -0.5955  0.0267 -0.1181
 1078SOL    HW114696   3.064   4.527   5.212  0.4308 -2.2257 -1.3867
 1078SOL    HW214697   3.207   4.520   5.164  0.2997  1.1240 -0.0161
 1079SOL     OW14698   2.738   1.240   2.496  0.2424  0.8095  0.2684
 1079SOL    HW114699   2.686   1.299   2.552 -1.3928  1.4403 -1.8921
 1079SOL    HW214700   2.799   1.302   2.456  0.8092 -0.2342 -0.4922
 1080SOL     OW14701   1.252   2.515  12.338  0.6139 -0.2228 -0.1117
 1080SOL    HW114702   1.325   2.470  12.379  3.0144  2.3850 -1.5019
 1080SOL    HW214703   1.178   2.469  12.378 -1.0305  0.7036 -2.0650
 1081SOL     OW14704   1.938   2.637   7.491  1.0630 -0.2551 -0.2469
 1081SOL    HW114705   1.894   2.657   7.408  1.2725  2.5384  0.3171
 1081SOL    HW214706   1.881   2.671   7.560  0.3261  1.1859 -1.5526
 1082SOL     OW14707   4.596   3.896   2.454 -0.4708  0.4655 -0.4428
 1082SOL    HW114708   4.656   3.970   2.457 -1.1433  1.1000 -3.1749
 1082SOL    HW214709   4.528   3.922   2.515 -0.4291  1.1793 -0.7035
 1083SOL     OW14710   1.108   4.531   7.244  0.0221  0.7532 -0.1658
 1083SOL    HW114711   1.056   4.494   7.173  1.3227  0.0383 -0.7521
 1083SOL    HW214712   1.052   4.608   7.256 -0.7381  0.1798  0.0172
 1084SOL     OW14713   1.362   3.028   7.970 -0.4182 -0.0170 -0.2675
 1084SOL    HW114714   1.330   2.987   7.890 -1.5792 -1.6765  1.0483
 1084SOL    HW214715   1.450   3.060   7.952 -0.3821  0.5527  0.9094
 1085SOL     OW14716   1.232   0.991   3.255 -0.1477  0.0744  0.1085
 1085SOL    HW114717   1.254   0.947   3.173 -0.4777  2.2483 -1.1505
 1085SOL    HW214718   1.295   0.940   3.306  1.4661  1.1101 -0.8300
 1086SOL     OW14719   2.184   3.715   4.830  0.2654 -0.1568  0.3504
 1086SOL    HW114720   2.176   3.707   4.735 -3.0491 -0.1876  0.6378
 1086SOL    HW214721   2.107   3.767   4.855 -1.2309 -1.0015 -2.4462
 1087SOL     OW14722   1.675   4.234  16.073 -0.6281  0.0347 -0.2903
 1087SOL    HW114723   1.627   4.152  16.081  1.5292 -1.3988 -2.2656
 1087SOL    HW214724   1.658   4.257  15.982  1.4292  0.0165 -0.6841
 1088SOL     OW14725   2.199   4.205   7.836 -0.6190 -0.0761  0.3757
 1088SOL    HW114726   2.262   4.143   7.874 -1.1579 -1.5577 -1.1293
 1088SOL    HW214727   2.136   4.214   7.907 -0.9576  1.9828 -0.1778
 1089SOL     OW14728   0.507   2.920   3.923  0.3607  0.0921  0.6090
 1089SOL    HW114729   0.417   2.952   3.911  0.4921  0.9269  1.8071
 1089SOL    HW214730   0.551   3.004   3.935 -0.5031  0.5308  0.6944
 1090SOL     OW14731   0.429   4.047   9.213 -0.6058 -0.2895  0.1821
 1090SOL    HW114732   0.506   4.005   9.253  0.6082  1.7933  0.0095
 1090SOL    HW214733   0.354   4.036   9.271  0.6359 -0.2452  1.7966
 1091SOL     OW14734   2.237   4.167   7.567 -0.0540 -0.3652  0.3149
 1091SOL    HW114735   2.207   4.193   7.654 -2.2906 -0.9822 -0.2808
 1091SOL    HW214736   2.261   4.254   7.535 -0.6095  0.0434  1.0257
 1092SOL     OW14737   2.043   2.330   3.190  0.3344  0.6609 -0.1012
 1092SOL    HW114738   2.125   2.375   3.170  0.8944 -1.0159 -1.5477
 1092SOL    HW214739   2.036   2.268   3.118  0.0038  2.1535 -1.3472
 1093SOL     OW14740   0.293   2.776   5.371 -0.4480 -0.3873  0.1878
 1093SOL    HW114741   0.329   2.755   5.457 -0.2825 -1.5574 -0.1727
 1093SOL    HW214742   0.364   2.817   5.322 -0.6004 -0.2155  0.1087
 1094SOL     OW14743   2.191   1.990   7.200  0.2990 -0.0383 -0.0404
 1094SOL    HW114744   2.220   2.058   7.140 -0.0240 -0.0629 -0.2197
 1094SOL    HW214745   2.182   2.037   7.283 -1.2448  1.6889 -1.1950
 1095SOL     OW14746   3.219   2.130   3.569 -0.0638 -0.0195  0.0403
 1095SOL    HW114747   3.295   2.085   3.605 -0.2858 -0.2353  0.2381
 1095SOL    HW214748   3.245   2.220   3.550 -0.4088 -0.0468 -0.5666
 1096SOL     OW14749   3.865   1.538   1.478 -0.4188  0.1755 -0.2187
 1096SOL    HW114750   3.828   1.514   1.563 -1.5535 -0.8260 -0.9981
 1096SOL    HW214751   3.782   1.553   1.433 -0.5572  0.4338  0.1267
 1097SOL     OW14752   3.593   1.350   1.069  0.1342 -0.0272 -0.3430
 1097SOL    HW114753   3.672   1.395   1.101 -0.5813  0.0039  1.4020
 1097SOL    HW214754   3.540   1.423   1.039  0.4576  0.1430 -0.5058
 1098SOL     OW14755   3.309   0.129   8.457  0.2741 -0.1741  0.1213
 1098SOL    HW114756   3.353   0.162   8.535  0.2794  1.9059 -0.7645
 1098SOL    HW214757   3.223   0.170   8.465  1.0002  1.4026 -0.0920
 1099SOL     OW14758   2.903   1.341   9.232  0.0023  0.5894 -0.0080
 1099SOL    HW114759   2.966   1.347   9.160 -1.0561  0.4712 -0.9407
 1099SOL    HW214760   2.859   1.426   9.222  0.1096  0.4078 -1.9313
 1100SOL     OW14761   2.930   2.128   0.154  0.2781 -0.7182 -0.0586
 1100SOL    HW114762   2.859   2.065   0.143 -0.2978 -0.0430 -0.1953
 1100SOL    HW214763   2.918   2.181   0.075 -4.2021  0.3205  1.3576
 1101SOL     OW14764   1.960   3.665   8.241 -0.6714  0.1381  0.0926
 1101SOL    HW114765   1.966   3.702   8.153  1.5270  1.0219  0.6106
 1101SOL    HW214766   2.042   3.688   8.286 -0.8505  0.8696  0.0475
 1102SOL     OW14767   3.434   1.196   6.216  0.1236  0.3314 -0.2180
 1102SOL    HW114768   3.342   1.193   6.242  0.5184  1.6874  1.3804
 1102SOL    HW214769   3.435   1.262   6.146  0.0066  0.1201 -0.4182
 1103SOL     OW14770   2.286   1.494   6.564  0.0893  0.1305  0.2034
 1103SOL    HW114771   2.339   1.439   6.507  0.3681  1.5261 -0.8867
 1103SOL    HW214772   2.203   1.450   6.550  0.7759 -0.5583 -1.6390
 1104SOL     OW14773   3.479   0.983  13.904 -0.6080  0.3024  0.0297
 1104SOL    HW114774   3.461   1.070  13.868  1.1923  2.2137  3.7680
 1104SOL    HW214775   3.564   0.963  13.865 -0.0820 -0.9799  1.8042
 1105SOL     OW14776   4.487   3.376  17.297  0.4460 -0.0519  0.1234
 1105SOL    HW114777   4.525   3.404  17.213  0.5172 -0.6523 -0.0489
 1105SOL    HW214778   4.417   3.441  17.287  0.5351  0.0667  0.2785
 1106SOL     OW14779   0.733   4.512   3.399  0.1128 -0.1081  0.5014
 1106SOL    HW114780   0.785   4.476   3.327  0.2683  1.9858 -0.4327
 1106SOL    HW214781   0.714   4.432   3.448  0.2916 -1.1930 -1.1909
 1107SOL     OW14782   3.947   2.922   3.939 -0.4981 -0.6551  0.0072
 1107SOL    HW114783   3.879   2.985   3.962  0.6133  2.0993 -4.2366
 1107SOL    HW214784   4.003   2.936   4.015 -1.3319 -0.2261  0.5357
 1108SOL     OW14785   0.139   3.959  14.772 -0.3947  0.2828 -0.0251
 1108SOL    HW114786   0.232   3.957  14.795 -0.7122  0.9023  1.3314
 1108SOL    HW214787   0.136   4.013  14.693 -0.0272 -1.9142 -1.5260
 1109SOL     OW14788   3.485   1.586   5.715 -0.5310  0.9591  0.1524
 1109SOL    HW114789   3.409   1.529   5.726  0.2491 -0.0754  0.1232
 1109SOL    HW214790   3.469   1.596   5.622  1.0434 -2.0558 -0.4399
 1110SOL     OW14791   1.500   4.231   6.542 -0.6274  0.0332 -0.1567
 1110SOL    HW114792   1.469   4.311   6.500  0.0561 -0.0159 -0.7437
 1110SOL    HW214793   1.471   4.164   6.481 -0.2991 -1.2931  1.1528
 1111SOL     OW14794   3.104   3.804   5.855 -0.3502 -0.5547  0.0243
 1111SOL    HW114795   3.023   3.760   5.831  0.4414 -1.6221 -0.6981
 1111SOL    HW214796   3.138   3.719   5.883  0.7477  0.0929  0.6908
 1112SOL     OW14797   3.119   2.836   6.531  0.2096  0.7397  0.3411
 1112SOL    HW114798   3.138   2.800   6.618 -0.9476 -1.1020 -0.1647
 1112SOL    HW214799   3.115   2.758   6.476 -4.5061  0.9280  0.3821
 1113SOL     OW14800   3.835   2.220   1.555  0.1482 -0.4709 -0.2068
 1113SOL    HW114801   3.870   2.225   1.466 -1.1327  3.1170 -0.5164
 1113SOL    HW214802   3.858   2.131   1.580 -0.7533 -0.4338  0.7481
 1114SOL     OW14803   3.013   0.161   3.396  0.0619 -0.2578  0.3203
 1114SOL    HW114804   3.079   0.200   3.339  0.6108 -1.1798  0.3328
 1114SOL    HW214805   2.954   0.236   3.402  0.1531 -0.1994  0.4741
 1115SOL     OW14806   0.321   3.731   1.966  0.1093  0.6775 -0.2311
 1115SOL    HW114807   0.377   3.694   2.035 -2.4816 -0.2982  1.3220
 1115SOL    HW214808   0.341   3.673   1.892  0.6769  1.1831 -0.4758
 1116SOL     OW14809   3.409   0.006   4.952  0.5685  0.1566 -0.2395
 1116SOL    HW114810   3.392   4.638   4.941 -0.8873  0.6152 -1.9338
 1116SOL    HW214811   3.430   0.018   5.044  1.0762  0.9101 -0.4568
 1117SOL     OW14812   0.551   0.107  17.692  0.3824  0.0937  0.2476
 1117SOL    HW114813   0.553   0.199   0.015 -0.1085  0.1030  0.2580
 1117SOL    HW214814   0.457   0.089  17.684  0.9943 -2.6152 -0.9568
 1118SOL     OW14815   0.372   0.422   3.288  0.6976  0.1048  0.6288
 1118SOL    HW114816   0.460   0.413   3.251 -0.0397  0.9560 -1.3142
 1118SOL    HW214817   0.381   0.377   3.373 -0.6814  0.1057  0.7722
 1119SOL     OW14818   1.858   3.909   0.925 -0.7205  0.3761 -0.2858
 1119SOL    HW114819   1.936   3.882   0.876  0.6805  0.9335  1.6016
 1119SOL    HW214820   1.896   3.910   1.013 -2.8616  0.3670  0.6334
 1120SOL     OW14821   3.174   1.936   8.641 -0.9279 -0.5900 -0.1784
 1120SOL    HW114822   3.233   2.004   8.609 -0.8437  0.9080  3.1540
 1120SOL    HW214823   3.221   1.920   8.723 -0.9192 -1.7410 -0.4023
 1121SOL     OW14824   1.776   2.645  11.859  0.4775  0.2663 -0.2716
 1121SOL    HW114825   1.862   2.676  11.885  1.1156 -1.9682  0.2578
 1121SOL    HW214826   1.785   2.550  11.872 -1.6125  0.1659  0.4723
 1122SOL     OW14827   3.809   1.747   7.337  0.7512  0.1667 -0.1904
 1122SOL    HW114828   3.859   1.758   7.418  1.7935 -0.4461 -0.7647
 1122SOL    HW214829   3.804   1.836   7.302 -0.7239 -0.1681 -0.8422
 1123SOL     OW14830   0.471   4.557   8.829  0.2394 -0.8268  0.0070
 1123SOL    HW114831   0.550   4.575   8.779 -0.5367  0.1343 -0.8752
 1123SOL    HW214832   0.399   4.568   8.767 -0.5028  0.9768  1.1727
 1124SOL     OW14833   2.112   4.654   8.718  0.0599 -0.5211 -0.0442
 1124SOL    HW114834   2.194   4.618   8.685 -0.7538 -1.7366 -0.7504
 1124SOL    HW214835   2.098   4.709   8.640 -1.0518  1.2149  1.3905
 1125SOL     OW14836   3.442   4.642  16.945 -0.1032  0.1475  0.0739
 1125SOL    HW114837   3.362   4.589  16.953  0.3079 -0.1681  2.0690
 1125SOL    HW214838   3.429   4.693  16.865  0.9761  0.4674  0.1038
 1126SOL     OW14839   2.579   0.678   0.029  0.7623 -0.1366  0.9014
 1126SOL    HW114840   2.660   0.642   0.064  0.8032 -1.1691 -0.2807
 1126SOL    HW214841   2.619   0.749  17.681  1.5579 -0.5973  0.8894
 1127SOL     OW14842   0.977   0.804  16.004  0.0326 -0.3005 -0.2233
 1127SOL    HW114843   0.944   0.717  16.027  0.7962  0.2012  2.7093
 1127SOL    HW214844   0.906   0.865  16.025  2.1405  2.2752 -0.5782
 1128SOL     OW14845   1.705   2.638   3.250 -0.2564 -0.4560 -0.3535
 1128SOL    HW114846   1.711   2.723   3.206 -1.6093  1.5650  3.4400
 1128SOL    HW214847   1.771   2.595   3.195 -1.0688 -0.6717 -1.1508
 1129SOL     OW14848   3.124   3.180   8.451  0.5131 -0.0819 -0.2079
 1129SOL    HW114849   3.062   3.242   8.489  1.8602  1.5623 -0.7282
 1129SOL    HW214850   3.147   3.130   8.529 -1.5655 -0.2962  0.2538
 1130SOL     OW14851   0.052   2.157   6.394  0.0062 -0.0885  0.4463
 1130SOL    HW114852   4.716   2.167   6.468 -0.0474 -0.1183  0.4060
 1130SOL    HW214853   0.088   2.069   6.402 -0.4563 -0.3470 -0.2706
 1131SOL     OW14854   2.983   1.937   5.596  0.0753  0.4710  0.3247
 1131SOL    HW114855   2.942   1.866   5.646 -1.0830 -0.2170 -1.6398
 1131SOL    HW214856   3.015   1.994   5.666 -1.9456 -0.8798  2.3760
 1132SOL     OW14857   0.461   4.662  13.415  0.1268  1.0097  0.3060
 1132SOL    HW114858   0.530   4.613  13.459  1.8539  2.0512 -1.2374
 1132SOL    HW214859   0.395   4.593  13.422  0.6700  0.3172 -1.5035
 1133SOL     OW14860   1.297   0.530   5.610  0.3942 -0.3230  0.1330
 1133SOL    HW114861   1.385   0.493   5.620  0.2189 -0.7129  0.2130
 1133SOL    HW214862   1.311   0.586   5.534  1.5550 -1.4511 -0.4729
 1134SOL     OW14863   0.706   2.261   7.347 -0.3721 -0.5420 -0.0289
 1134SOL    HW114864   0.676   2.349   7.323  0.3792 -0.2492  0.0874
 1134SOL    HW214865   0.802   2.270   7.347 -0.7032  2.8217 -3.1438
 1135SOL     OW14866   3.809   3.418   2.418 -0.5967 -0.0195 -0.4827
 1135SOL    HW114867   3.792   3.449   2.507 -1.6519 -0.2090 -0.6105
 1135SOL    HW214868   3.832   3.499   2.373  2.4924 -0.6132  0.0525
 1136SOL     OW14869   1.320   4.494   3.964  0.5238  0.3180  0.1208
 1136SOL    HW114870   1.358   4.578   3.942  2.3345 -1.2439 -2.6980
 1136SOL    HW214871   1.400   4.441   3.963  0.5388  0.3450 -0.0830
 1137SOL     OW14872   4.603   2.361   2.526 -0.3636  0.0911  0.2089
 1137SOL    HW114873   4.666   2.431   2.508 -0.6871 -0.2118 -2.0210
 1137SOL    HW214874   4.636   2.295   2.466  0.1372 -0.9166  1.5848
 1138SOL     OW14875   4.028   4.309   6.715 -0.0734 -0.2429  0.5234
 1138SOL    HW114876   3.964   4.322   6.784 -1.4614 -0.9835 -0.6362
 1138SOL    HW214877   4.042   4.215   6.704 -0.5960  0.0430 -2.5873
 1139SOL     OW14878   3.976   3.852   4.600 -0.7351  0.3965  0.7756
 1139SOL    HW114879   4.062   3.830   4.564 -1.7313 -1.4841 -0.4904
 1139SOL    HW214880   3.946   3.876   4.512 -1.5612  0.2570  1.0203
 1140SOL     OW14881   0.024   0.195  15.522  0.2298  0.1911  0.4280
 1140SOL    HW114882   0.110   0.227  15.550 -1.4204  3.4718  1.8356
 1140SOL    HW214883   4.708   0.282  15.516  0.9157  0.3930 -1.2432
 1141SOL     OW14884   3.620   4.235   6.319 -0.5246  0.1859 -0.0115
 1141SOL    HW114885   3.711   4.216   6.341  0.4405  3.0154 -1.4992
 1141SOL    HW214886   3.584   4.148   6.306 -0.7675  0.1858  0.6835
 1142SOL     OW14887   4.071   0.125   4.872 -0.6008  0.0343 -0.8805
 1142SOL    HW114888   4.157   0.120   4.830 -0.6061  3.8713 -1.3636
 1142SOL    HW214889   4.066   0.032   4.891  1.6016  0.4780  1.8893
 1143SOL     OW14890   4.067   0.247   3.819  0.1483  0.0048 -0.3113
 1143SOL    HW114891   4.089   0.204   3.902 -1.1069 -1.7395 -0.8864
 1143SOL    HW214892   4.119   0.327   3.833  0.9554 -0.7897  1.2152
 1144SOL     OW14893   2.874   1.366   7.136 -0.2975 -0.3463  0.9439
 1144SOL    HW114894   2.952   1.374   7.081 -0.3730  0.9455  1.0154
 1144SOL    HW214895   2.911   1.370   7.224  1.1744  0.4167  0.2863
 1145SOL     OW14896   1.823   0.749   0.549 -0.2429 -0.0664 -0.1606
 1145SOL    HW114897   1.784   0.815   0.492 -0.9486 -0.5162 -0.1970
 1145SOL    HW214898   1.780   0.668   0.521  1.4049 -1.2340  0.6875
 1146SOL     OW14899   1.462   0.724   5.107  0.7709  0.2565 -0.0066
 1146SOL    HW114900   1.512   0.752   5.184  1.5759 -0.3729 -0.3015
 1146SOL    HW214901   1.514   0.662   5.056  1.1022  0.5246  0.0009
 1147SOL     OW14902   3.494   1.877   2.459 -0.2866 -0.4472  0.3605
 1147SOL    HW114903   3.562   1.854   2.523 -1.6792  1.8470  2.6513
 1147SOL    HW214904   3.535   1.952   2.416 -1.8076  0.3226  0.2460
 1148SOL     OW14905   2.283   3.801  13.877 -0.1340  0.2307  0.2612
 1148SOL    HW114906   2.227   3.743  13.825 -1.3543  1.2397  0.4585
 1148SOL    HW214907   2.371   3.785  13.841  0.6222  0.0978  2.1844
 1149SOL     OW14908   0.920   0.450   7.951  0.0163 -0.4010  0.1715
 1149SOL    HW114909   0.912   0.439   8.046  1.4650  1.4816  0.5249
 1149SOL    HW214910   0.978   0.526   7.945 -0.5770  0.0795  0.4892
 1150SOL     OW14911   0.184   3.027   8.683  0.4839  0.4674  0.2581
 1150SOL    HW114912   0.144   3.028   8.770 -2.2992  1.8569 -1.0246
 1150SOL    HW214913   0.273   2.999   8.702 -0.0372 -0.6009  1.0907
 1151SOL     OW14914   2.598   2.501  12.728 -0.2807  0.8186  0.5756
 1151SOL    HW114915   2.619   2.590  12.756  2.3093  1.0979 -2.2311
 1151SOL    HW214916   2.561   2.520  12.642 -1.4626 -1.4958  0.5746
 1152SOL     OW14917   0.294   2.026   3.713 -0.4490 -0.0024  0.6330
 1152SOL    HW114918   0.388   2.020   3.695 -0.8754 -0.2591 -1.4244
 1152SOL    HW214919   0.269   2.109   3.673  0.8073  1.2407  2.4275
 1153SOL     OW14920   4.544   0.129   4.819 -0.4701 -0.2732  0.2487
 1153SOL    HW114921   4.623   0.080   4.842 -0.5417 -0.4017  0.2190
 1153SOL    HW214922   4.509   0.137   4.908  1.3974 -0.7271  1.0257
 1154SOL     OW14923   2.756   0.744   4.024 -0.2444 -0.3585  0.1940
 1154SOL    HW114924   2.665   0.772   4.015 -0.2034 -0.7446 -1.3753
 1154SOL    HW214925   2.777   0.773   4.113  0.0349  0.0198  0.0059
 1155SOL     OW14926   3.331   1.917   4.185 -0.3047 -0.6088 -0.0387
 1155SOL    HW114927   3.296   1.942   4.100  0.1890  0.5352  0.0896
 1155SOL    HW214928   3.277   1.843   4.213 -3.1859  1.4014 -0.2402
 1156SOL     OW14929   4.626   2.723   9.279 -0.0305  0.8022  0.0437
 1156SOL    HW114930   4.561   2.783   9.242 -3.3656 -1.7074  1.7688
 1156SOL    HW214931   4.568   2.647   9.287  1.2230 -0.2859 -1.2921
 1157SOL     OW14932   3.375   4.488  12.331 -0.3516  0.2323 -0.5903
 1157SOL    HW114933   3.305   4.456  12.388  0.0236  0.5060  0.0348
 1157SOL    HW214934   3.363   4.430  12.256  1.3458  0.2133 -0.8493
 1158SOL     OW14935   1.587   3.061   5.284 -0.2354 -0.4245  0.2550
 1158SOL    HW114936   1.667   3.019   5.316 -0.3684  1.1603  2.6245
 1158SOL    HW214937   1.597   3.081   5.191 -0.8797  0.6542  0.4173
 1159SOL     OW14938   3.028   4.325  12.650  0.3442 -0.2475 -0.0954
 1159SOL    HW114939   3.093   4.271  12.695 -0.7030  0.3936  2.2021
 1159SOL    HW214940   3.079   4.406  12.648 -2.2827  1.3722 -1.2504
 1160SOL     OW14941   3.781   2.650   8.681  0.6474 -0.4867 -0.5796
 1160SOL    HW114942   3.707   2.634   8.623 -0.0369  0.4085  0.0593
 1160SOL    HW214943   3.814   2.733   8.647  3.0408 -0.8032  0.9783
 1161SOL     OW14944   0.268   2.366   7.427 -0.0271 -0.0778 -0.0709
 1161SOL    HW114945   0.348   2.315   7.438 -0.5130 -0.6869  0.5861
 1161SOL    HW214946   0.282   2.381   7.333  0.2246 -1.5616 -0.2751
 1162SOL     OW14947   3.554   0.947   7.517  0.1977  0.1215  0.4932
 1162SOL    HW114948   3.488   1.015   7.507  0.8377  0.9760  2.2635
 1162SOL    HW214949   3.510   0.891   7.580 -0.6182 -1.3311 -1.3555
 1163SOL     OW14950   0.452   2.360   8.313 -0.0918  0.5530  0.2287
 1163SOL    HW114951   0.486   2.449   8.324 -2.6275  1.6406 -0.4870
 1163SOL    HW214952   0.464   2.327   8.402  2.4779 -0.5839 -0.5484
 1164SOL     OW14953   2.539   1.602   6.853 -0.4591 -0.2701 -0.1515
 1164SOL    HW114954   2.489   1.683   6.844  0.3053  0.3222  0.8785
 1164SOL    HW214955   2.594   1.635   6.924  1.6883 -1.6694 -1.1586
 1165SOL     OW14956   0.389   4.652   3.348 -0.2460 -0.2792  0.1619
 1165SOL    HW114957   0.442   4.672   3.425  1.1976 -1.1084 -0.6312
 1165SOL    HW214958   0.395   4.558   3.331 -3.3466 -0.4556 -0.0357
 1166SOL     OW14959   0.436   0.531   2.493 -0.0938 -0.1837  0.5315
 1166SOL    HW114960   0.512   0.502   2.543  0.7246 -0.8400 -1.0853
 1166SOL    HW214961   0.467   0.614   2.457  0.2337 -0.6796 -0.3289
 1167SOL     OW14962   1.652   0.088   3.624  0.2626 -0.3135 -0.3353
 1167SOL    HW114963   1.709   0.011   3.620 -1.2888 -1.3852 -1.9272
 1167SOL    HW214964   1.699   0.146   3.684 -0.7601 -1.3682  1.4953
 1168SOL     OW14965   4.143   1.563  16.966  0.4483 -0.2846 -0.0773
 1168SOL    HW114966   4.191   1.645  16.972 -0.1617 -0.1170  2.6778
 1168SOL    HW214967   4.087   1.566  17.044  0.7938  2.1512  0.0712
 1169SOL     OW14968   4.625   3.216   7.298  0.1466 -0.0605 -0.1450
 1169SOL    HW114969   4.597   3.127   7.320  0.7027 -0.4392 -0.9816
 1169SOL    HW214970   4.587   3.223   7.210 -0.8466  2.1348  0.4702
 1170SOL     OW14971   2.158   2.331   3.651  0.8256  0.2248  0.2476
 1170SOL    HW114972   2.098   2.272   3.696  0.1178 -0.2026 -1.2480
 1170SOL    HW214973   2.098   2.381   3.595 -0.7350 -0.5012  1.2978
 1171SOL     OW14974   3.053   3.810   7.341  0.7962 -0.7020  0.2265
 1171SOL    HW114975   3.115   3.862   7.292  0.6371  1.3272  2.1607
 1171SOL    HW214976   3.092   3.725   7.322  1.7762  0.0210 -0.9173
 1172SOL     OW14977   2.785   2.608   2.048  0.5506  0.1575 -0.0188
 1172SOL    HW114978   2.836   2.675   2.002 -0.3951  0.3477 -0.8132
 1172SOL    HW214979   2.691   2.628   2.044  0.3974 -0.5425 -0.0184
 1173SOL     OW14980   2.698   3.095   0.398 -0.0584  0.0543  0.1148
 1173SOL    HW114981   2.686   3.044   0.318 -0.9283  1.9635 -0.9700
 1173SOL    HW214982   2.718   3.183   0.367 -0.5733  0.5278  1.0981
 1174SOL     OW14983   1.160   4.146   5.553  0.2589 -0.2518  0.0708
 1174SOL    HW114984   1.148   4.120   5.462  0.1095 -0.1285  0.0560
 1174SOL    HW214985   1.253   4.171   5.552  0.2521 -0.1863  0.9970
 1175SOL     OW14986   2.466   4.086  12.552 -0.2654  0.2647 -0.1655
 1175SOL    HW114987   2.376   4.107  12.577 -0.0994 -1.0103  1.5317
 1175SOL    HW214988   2.476   4.128  12.466 -0.4817 -1.2670 -0.9451
 1176SOL     OW14989   2.884   4.326  15.931  0.0615  0.5239  0.1195
 1176SOL    HW114990   2.972   4.298  15.953 -0.3507 -1.5449 -0.8193
 1176SOL    HW214991   2.835   4.245  15.947  2.0262 -0.9398 -1.3152
 1177SOL     OW14992   1.946   2.907   9.233 -0.0584 -0.1218  0.4240
 1177SOL    HW114993   1.857   2.907   9.199 -0.6248  1.2412  1.9630
 1177SOL    HW214994   1.963   2.813   9.241  1.3118  0.1190  0.3622
 1178SOL     OW14995   3.776   0.736   6.366  0.4494 -0.2905  0.4817
 1178SOL    HW114996   3.774   0.754   6.272 -0.9174 -3.3535 -0.0578
 1178SOL    HW214997   3.870   0.725   6.384  0.5292 -1.4996 -0.6110
 1179SOL     OW14998   3.288   1.189   1.871  0.3522  0.4431 -0.4489
 1179SOL    HW114999   3.370   1.232   1.894 -0.2927  1.6976 -0.4703
 1179SOL    HW215000   3.232   1.267   1.869  3.6646  2.8494  0.2109
 1180SOL     OW15001   0.982   3.868   8.140  0.3654  0.3201  0.0415
 1180SOL    HW115002   1.025   3.928   8.080 -4.7688  1.7432 -2.2534
 1180SOL    HW215003   0.896   3.908   8.150 -0.6545 -2.4770  2.5401
 1181SOL     OW15004   0.836   1.314   4.116  0.0773 -0.2691 -0.0710
 1181SOL    HW115005   0.815   1.242   4.176 -2.0120  0.5627  0.2230
 1181SOL    HW215006   0.894   1.378   4.157 -0.6507  0.8531 -0.7656
 1182SOL     OW15007   1.995   2.889  14.955  0.1123 -0.3315 -0.1146
 1182SOL    HW115008   1.974   2.968  14.905 -0.6516 -0.6159 -0.2457
 1182SOL    HW215009   2.076   2.908  15.003  0.9143 -2.2289 -0.7099
 1183SOL     OW15010   1.620   1.338   6.154  0.5089 -0.8995  0.1896
 1183SOL    HW115011   1.711   1.345   6.127  0.9132 -1.8511  1.2976
 1183SOL    HW215012   1.595   1.251   6.122  0.3809 -1.0743  0.7524
 1184SOL     OW15013   2.780   4.043   4.660 -0.5629  0.0447 -0.2913
 1184SOL    HW115014   2.848   4.078   4.717 -1.4648 -0.2734  0.9571
 1184SOL    HW215015   2.755   3.963   4.705 -1.4071 -0.9321 -2.4718
 1185SOL     OW15016   4.724   3.821   6.261 -0.8096  0.1997 -0.1550
 1185SOL    HW115017   0.082   3.868   6.270 -1.3093  1.4418 -2.0590
 1185SOL    HW215018   4.696   3.826   6.353  1.7508 -0.9915  0.6834
 1186SOL     OW15019   4.142   1.191  11.414 -0.2020  0.0829  0.1830
 1186SOL    HW115020   4.110   1.119  11.469 -0.9652  0.0425 -0.3292
 1186SOL    HW215021   4.229   1.191  11.456  0.1434  2.3139 -0.5380
 1187SOL     OW15022   1.559   4.522   9.562  0.3491 -0.2700 -0.1735
 1187SOL    HW115023   1.522   4.607   9.537  0.1435 -0.1572  0.5095
 1187SOL    HW215024   1.609   4.510   9.482  0.6472 -0.1767  0.0011
 1188SOL     OW15025   2.247   2.664  14.848  0.2528  0.2850 -0.2329
 1188SOL    HW115026   2.305   2.741  14.843  3.5091 -2.1381  0.3714
 1188SOL    HW215027   2.293   2.620  14.920  0.0515 -1.3304 -1.1119
 1189SOL     OW15028   0.740   0.332   6.716 -0.1930  0.1680 -0.3751
 1189SOL    HW115029   0.704   0.327   6.805  1.2792  0.9923  0.2668
 1189SOL    HW215030   0.813   0.270   6.728 -0.8402 -0.9326 -2.2086
 1190SOL     OW15031   0.761   3.044   4.872  0.2425  0.2334 -0.1917
 1190SOL    HW115032   0.770   3.098   4.793  0.0195  1.0154  0.3251
 1190SOL    HW215033   0.814   3.095   4.932 -0.3033  0.7229 -0.1324
 1191SOL     OW15034   2.099   1.487   7.156  0.0252 -0.0673 -0.6205
 1191SOL    HW115035   2.010   1.455   7.145 -0.3382  0.9468 -0.5752
 1191SOL    HW215036   2.091   1.582   7.147  0.8666  0.0344 -0.3374
 1192SOL     OW15037   2.658   3.919   9.193 -0.4058 -0.5146  0.0838
 1192SOL    HW115038   2.670   3.835   9.238  1.0680  0.3556  1.3234
 1192SOL    HW215039   2.700   3.984   9.249  2.7048 -0.5291 -2.2522
 1193SOL     OW15040   0.519   3.292   5.226  0.2783 -0.5909 -0.1820
 1193SOL    HW115041   0.529   3.365   5.287 -1.9183  1.0262 -1.7282
 1193SOL    HW215042   0.423   3.285   5.229  0.1371  0.7320 -2.2125
 1194SOL     OW15043   3.490   3.224  16.707  0.1926 -0.5410 -0.2157
 1194SOL    HW115044   3.571   3.175  16.693 -0.2438 -1.9425  2.2358
 1194SOL    HW215045   3.513   3.316  16.690 -1.0970  0.1197  1.7202
 1195SOL     OW15046   2.891   2.090   4.994  0.1596  0.8155  0.2530
 1195SOL    HW115047   2.875   2.123   4.906 -2.3262  0.4949  0.5962
 1195SOL    HW215048   2.902   2.165   5.053  1.5224  3.0129 -2.8162
 1196SOL     OW15049   1.660   2.824   4.057 -0.3774 -0.2302 -0.2198
 1196SOL    HW115050   1.588   2.871   4.098  0.8931 -0.3882  2.1940
 1196SOL    HW215051   1.694   2.766   4.125 -0.1015 -2.5001 -2.3044
 1197SOL     OW15052   4.209   4.335   7.238 -0.2355 -0.1498 -0.1019
 1197SOL    HW115053   4.237   4.319   7.148  0.1148  0.0491 -0.0286
 1197SOL    HW215054   4.284   4.380   7.277 -1.0522  0.3160  0.9295
 1198SOL     OW15055   3.503   0.585  11.528  0.3051 -0.2724 -0.0582
 1198SOL    HW115056   3.541   0.664  11.565 -1.4420 -0.1082  1.3884
 1198SOL    HW215057   3.508   0.599  11.433 -1.6638  0.0762 -0.1081
 1199SOL     OW15058   3.972   3.551   9.883  0.6463  0.3631  0.0183
 1199SOL    HW115059   4.039   3.567   9.949  1.1827 -1.6390 -0.0199
 1199SOL    HW215060   3.975   3.642   9.856 -2.7728 -0.0538 -1.7718
 1200SOL     OW15061   3.744   3.624   0.430  0.3645  0.6254 -0.8185
 1200SOL    HW115062   3.766   3.554   0.369  2.4045 -1.1135  1.8883
 1200SOL    HW215063   3.761   3.584   0.515 -0.0938  3.2205  0.5097
 1201SOL     OW15064   1.678   1.448  15.724  0.3318  0.5013 -0.1146
 1201SOL    HW115065   1.769   1.421  15.732  0.2219  0.3883  0.8168
 1201SOL    HW215066   1.676   1.506  15.801 -0.4809 -0.3946  0.5430
 1202SOL     OW15067   1.783   3.045  13.012  0.0499 -0.5663  0.4034
 1202SOL    HW115068   1.871   3.077  13.035  0.3107 -0.7917 -0.2640
 1202SOL    HW215069   1.739   3.052  13.096  0.1104  0.2067  0.3678
 1203SOL     OW15070   4.716   1.735   8.477  0.0115 -0.2077  0.0298
 1203SOL    HW115071   0.026   1.684   8.405  0.2990 -0.3530  0.2724
 1203SOL    HW215072   0.069   1.741   8.532 -0.2814  0.7599  0.3436
 1204SOL     OW15073   0.407   4.063   6.532 -0.0644  0.4737  0.2477
 1204SOL    HW115074   0.445   4.135   6.482  0.8370 -0.3788 -0.2798
 1204SOL    HW215075   0.435   4.093   6.619 -1.8285  1.0650  0.6099
 1205SOL     OW15076   3.436   0.191   3.207 -0.1942 -0.5646  0.7273
 1205SOL    HW115077   3.465   0.136   3.280  1.2479 -1.0181 -0.1921
 1205SOL    HW215078   3.465   0.278   3.236  0.2283 -0.4181 -0.1254
 1206SOL     OW15079   0.784   0.163   7.456 -0.3088  0.3020  0.2736
 1206SOL    HW115080   0.714   0.227   7.469 -0.0276  0.1937  2.3454
 1206SOL    HW215081   0.770   0.120   7.540 -1.1444  1.3779  0.6949
 1207SOL     OW15082   4.327   0.475  10.245 -0.1679  0.4111 -0.1582
 1207SOL    HW115083   4.351   0.507  10.332  1.3499  0.3682 -0.5713
 1207SOL    HW215084   4.405   0.429  10.216 -0.1370  0.3958 -0.0534
 1208SOL     OW15085   1.345   1.762   4.408 -0.0322 -0.0820  0.1932
 1208SOL    HW115086   1.335   1.667   4.410 -3.9876  0.3860  1.2561
 1208SOL    HW215087   1.283   1.792   4.342 -0.4876 -1.3430  0.0478
 1209SOL     OW15088   1.475   3.638  16.214 -0.0075  0.5036 -0.2870
 1209SOL    HW115089   1.560   3.616  16.175 -0.3585  1.1856 -1.4427
 1209SOL    HW215090   1.477   3.567  16.278  0.7986  0.6825 -0.1132
 1210SOL     OW15091   2.861   1.701  16.902 -0.5254  0.0436 -0.2540
 1210SOL    HW115092   2.799   1.681  16.831 -0.3800  4.0498 -1.5165
 1210SOL    HW215093   2.932   1.644  16.869  0.1403 -0.0180  1.3009
 1211SOL     OW15094   1.036   2.454  15.789 -0.5263 -0.2239  0.0811
 1211SOL    HW115095   0.950   2.463  15.830 -0.8240 -0.9103 -0.3796
 1211SOL    HW215096   1.084   2.407  15.857  1.2924 -1.0426 -1.7710
 1212SOL     OW15097   0.983   1.654  16.467 -0.0660 -0.2108  0.2071
 1212SOL    HW115098   1.029   1.581  16.509 -0.7256 -0.7429  0.0089
 1212SOL    HW215099   0.900   1.607  16.455 -0.2436 -1.1347  5.3255
 1213SOL     OW15100   3.458   4.123   5.986  0.3717 -0.2962  0.0148
 1213SOL    HW115101   3.504   4.193   6.033 -0.0060  0.9973 -1.5607
 1213SOL    HW215102   3.491   4.150   5.900 -1.0482  3.3514  0.6042
 1214SOL     OW15103   0.329   1.740   5.764 -0.0351  0.0471  0.2399
 1214SOL    HW115104   0.363   1.698   5.843 -0.7836 -1.6421 -0.3122
 1214SOL    HW215105   0.242   1.768   5.795 -0.5132 -2.6868  1.3993
 1215SOL     OW15106   2.189   1.416   9.118 -0.7819  0.0994 -0.3504
 1215SOL    HW115107   2.234   1.333   9.129 -1.2600  0.0739  1.4374
 1215SOL    HW215108   2.260   1.463   9.074  0.2574 -0.5201  0.6604
 1216SOL     OW15109   3.913   2.552   5.721  0.0991 -0.4907 -0.0497
 1216SOL    HW115110   3.842   2.555   5.656  1.1129 -1.8186 -1.2188
 1216SOL    HW215111   3.910   2.464   5.757  1.0102 -0.7499 -0.6135
 1217SOL     OW15112   2.281   3.700   8.302 -0.3109  0.3406  0.5632
 1217SOL    HW115113   2.302   3.793   8.293 -0.1996  0.2655  0.0742
 1217SOL    HW215114   2.299   3.690   8.396 -0.8467  2.1610  0.8576
 1218SOL     OW15115   3.015   1.316  14.375  0.0706  0.0343  0.6944
 1218SOL    HW115116   2.946   1.252  14.360 -0.2839  0.4620  0.4990
 1218SOL    HW215117   2.968   1.395  14.348 -1.6430 -0.8203  1.1471
 1219SOL     OW15118   1.501   1.063  11.617 -0.0443 -0.0839 -0.3626
 1219SOL    HW115119   1.474   1.146  11.655 -1.7995 -0.9419  0.2464
 1219SOL    HW215120   1.529   1.092  11.530 -1.4699 -0.4575 -0.9523
 1220SOL     OW15121   3.641   2.495   6.389  0.0324  0.6009  0.2511
 1220SOL    HW115122   3.681   2.580   6.373 -1.9758  1.5627  0.2782
 1220SOL    HW215123   3.606   2.514   6.476 -0.6980 -0.8329  0.2879
 1221SOL     OW15124   1.206   3.894   8.927  0.6602  0.3418 -0.4520
 1221SOL    HW115125   1.160   3.815   8.956  0.2468 -0.3789 -3.0590
 1221SOL    HW215126   1.213   3.932   9.015 -2.4863 -1.8139  0.7051
 1222SOL     OW15127   2.874   0.415  15.643  0.2900  0.4577  0.6814
 1222SOL    HW115128   2.810   0.351  15.611 -1.0313  1.0927  2.0496
 1222SOL    HW215129   2.858   0.493  15.591  0.4164 -0.1299 -0.2446
 1223SOL     OW15130   2.393   0.666   6.937 -0.2058 -0.1190  0.2504
 1223SOL    HW115131   2.348   0.703   7.014  0.0040 -0.4246  0.5175
 1223SOL    HW215132   2.484   0.685   6.959 -0.1326 -0.6268  0.3868
 1224SOL     OW15133   3.939   3.971   4.377  0.4745 -0.0942  0.5415
 1224SOL    HW115134   4.014   3.998   4.323 -1.7803  1.4922 -1.7688
 1224SOL    HW215135   3.868   4.029   4.351  2.4625  1.8135 -0.6331
 1225SOL     OW15136   1.017   2.700   0.849 -0.0064  0.1970 -0.0411
 1225SOL    HW115137   1.011   2.744   0.933  4.2256  1.0232 -0.1883
 1225SOL    HW215138   0.945   2.638   0.857  0.4364 -0.5843 -1.9459
 1226SOL     OW15139   0.722   1.010  12.799  0.1123  0.0927  0.4469
 1226SOL    HW115140   0.733   1.021  12.894 -1.4744  2.3472  0.3714
 1226SOL    HW215141   0.710   1.101  12.772 -0.2997 -0.1073 -0.0407
 1227SOL     OW15142   3.696   2.006   3.581 -0.5717  0.4420 -0.4788
 1227SOL    HW115143   3.693   2.043   3.493  1.6605  0.0194 -0.7298
 1227SOL    HW215144   3.783   1.967   3.583 -0.2823  0.9921 -2.0634
 1228SOL     OW15145   3.631   1.149  10.156  0.7381  0.2405  0.0486
 1228SOL    HW115146   3.610   1.178  10.067 -3.2818  0.2057  0.9558
 1228SOL    HW215147   3.678   1.066  10.150  0.0783 -0.2152  1.1424
 1229SOL     OW15148   0.886   2.495   8.968  0.8297 -0.4702 -0.8197
 1229SOL    HW115149   0.805   2.542   8.952  0.4381 -0.8412  0.1142
 1229SOL    HW215150   0.939   2.556   8.916  0.6608  0.5609  0.2392
 1230SOL     OW15151   2.284   4.119  17.368  0.0789  0.0395 -0.3948
 1230SOL    HW115152   2.379   4.133  17.360 -0.0292  0.4144 -1.0567
 1230SOL    HW215153   2.278   4.032  17.407 -0.4124  0.4494  0.4531
 1231SOL     OW15154   2.098   2.937  10.033  0.4802 -0.1796 -1.0228
 1231SOL    HW115155   2.043   2.859  10.038 -0.9667  0.9157  0.2318
 1231SOL    HW215156   2.051   2.993  10.096 -1.1458 -0.0822 -2.3248
 1232SOL     OW15157   2.663   3.035   3.038  0.1060 -0.4753 -0.0626
 1232SOL    HW115158   2.671   3.121   3.078 -1.0608 -0.5997  0.4545
 1232SOL    HW215159   2.570   3.035   3.014  0.4497  2.5167 -1.3151
 1233SOL     OW15160   3.508   3.976  14.857 -0.1532 -0.2164  0.1688
 1233SOL    HW115161   3.591   3.928  14.857 -1.1181 -1.8765  0.5614
 1233SOL    HW215162   3.524   4.036  14.930 -0.0871 -1.4659  1.1783
 1234SOL     OW15163   0.784   3.768   4.921  0.1909  0.4301 -0.4382
 1234SOL    HW115164   0.737   3.838   4.966 -0.9728 -0.7581  0.1856
 1234SOL    HW215165   0.812   3.807   4.839  1.9152  1.3188  0.5754
 1235SOL     OW15166   2.678   0.539   2.748 -0.1125 -0.2529  0.2473
 1235SOL    HW115167   2.741   0.475   2.783  0.2712 -0.2253 -0.3791
 1235SOL    HW215168   2.595   0.492   2.755 -0.6146  0.4299 -1.1285
 1236SOL     OW15169   1.439   2.395   0.155  0.4075  0.7961 -0.7908
 1236SOL    HW115170   1.529   2.427   0.163  1.1674 -0.8788 -2.6000
 1236SOL    HW215171   1.398   2.469   0.200 -1.9122  0.3211 -2.1528
 1237SOL     OW15172   4.351   1.476  13.527 -0.4212 -0.7968 -0.0331
 1237SOL    HW115173   4.334   1.553  13.580 -0.6565 -0.4798 -0.5631
 1237SOL    HW215174   4.338   1.405  13.591 -3.2315  0.9861  1.3637
 1238SOL     OW15175   2.674   2.759   1.212  0.3454  0.0678 -0.6365
 1238SOL    HW115176   2.625   2.678   1.227  2.8900 -0.9991  1.7979
 1238SOL    HW215177   2.727   2.737   1.135  0.1509 -1.2386 -0.3872
 1239SOL     OW15178   4.398   3.396   3.224  0.1242 -0.3464  0.2970
 1239SOL    HW115179   4.321   3.340   3.233 -0.3504  0.3510  0.5908
 1239SOL    HW215180   4.471   3.350   3.263 -0.5420 -0.7601  1.0477
 1240SOL     OW15181   2.860   2.301  15.175  0.2678 -0.1249 -0.6913
 1240SOL    HW115182   2.854   2.321  15.081 -0.9407  0.6672 -0.4384
 1240SOL    HW215183   2.816   2.216  15.170 -2.0934  1.0670 -0.2981
 1241SOL     OW15184   2.995   2.687   1.368 -0.0047 -0.6768 -0.4543
 1241SOL    HW115185   2.943   2.724   1.297  2.4521  1.9999 -0.8169
 1241SOL    HW215186   3.080   2.674   1.325  1.5408  0.1892  2.3261
 1242SOL     OW15187   4.402   0.521  15.355  0.2150 -0.4948  0.2154
 1242SOL    HW115188   4.443   0.495  15.437 -0.2199 -0.9899  0.2788
 1242SOL    HW215189   4.448   0.471  15.287 -0.2038 -0.1736 -0.3099
 1243SOL     OW15190   2.264   0.157   9.549 -0.2220  0.0951 -0.3918
 1243SOL    HW115191   2.316   0.181   9.625 -1.9134 -1.5128  1.2835
 1243SOL    HW215192   2.319   0.084   9.522 -0.5387 -0.5692  0.7600
 1244SOL     OW15193   0.894   3.129   7.372  0.3512  0.2060 -0.3060
 1244SOL    HW115194   0.874   3.126   7.465  1.1026  1.1082 -0.1088
 1244SOL    HW215195   0.980   3.172   7.374  0.9133 -0.8816 -0.5739
 1245SOL     OW15196   1.754   2.867  17.223  0.2546  0.4031 -0.2349
 1245SOL    HW115197   1.788   2.837  17.307  0.3366 -0.6846 -0.6527
 1245SOL    HW215198   1.743   2.782  17.181 -0.1395  1.0936 -1.5451
 1246SOL     OW15199   1.009   3.598   9.619 -0.3724  0.1714 -0.0102
 1246SOL    HW115200   1.068   3.524   9.607 -1.6410 -1.1455  1.9312
 1246SOL    HW215201   0.966   3.568   9.699 -1.5839  0.1477 -0.6856
 1247SOL     OW15202   3.133   1.141   3.050 -0.2035  0.1328 -0.5181
 1247SOL    HW115203   3.175   1.110   2.969  1.2615  0.0456  0.2620
 1247SOL    HW215204   3.045   1.104   3.047 -1.1719  2.4295 -0.3049
 1248SOL     OW15205   2.945   0.397   9.083  0.4323 -0.4715  0.2694
 1248SOL    HW115206   2.851   0.402   9.064  0.1095 -1.2465  1.6904
 1248SOL    HW215207   2.945   0.331   9.152 -0.8400 -0.1278  0.5953
 1249SOL     OW15208   2.809   1.085   9.736 -0.3529  0.6573 -0.0177
 1249SOL    HW115209   2.895   1.118   9.761 -0.1693  2.2653 -2.8331
 1249SOL    HW215210   2.804   1.111   9.644 -1.1288  1.0697  0.1380
 1250SOL     OW15211   2.190   1.994   8.289  0.3097 -0.2056 -0.0967
 1250SOL    HW115212   2.251   2.058   8.251 -0.2982  0.9391  0.8468
 1250SOL    HW215213   2.126   2.053   8.329 -0.0795 -0.1046 -0.8782
 1251SOL     OW15214   4.378   1.905  15.976  0.6093  0.2600 -0.2559
 1251SOL    HW115215   4.413   1.987  15.944  0.4241  0.8265  0.9951
 1251SOL    HW215216   4.434   1.866  16.043 -2.7251 -0.8812  1.9317
 1252SOL     OW15217   0.084   2.473   3.708 -0.0758 -0.8130 -0.3107
 1252SOL    HW115218   0.139   2.491   3.784  1.8394  0.4824 -1.9942
 1252SOL    HW215219   0.094   2.549   3.651  2.6837 -0.3824  0.7403
 1253SOL     OW15220   2.368   2.387  11.247 -0.5422 -0.2550 -0.1487
 1253SOL    HW115221   2.447   2.416  11.202 -0.9072  2.6392  1.0856
 1253SOL    HW215222   2.342   2.308  11.200 -1.7535 -0.1023  0.2823
 1254SOL     OW15223   1.701   3.051   6.631  0.3538  0.0062 -0.1231
 1254SOL    HW115224   1.636   3.038   6.700  0.2613 -2.0512 -0.6043
 1254SOL    HW215225   1.781   3.003   6.654  1.9889  2.3414 -0.9439
 1255SOL     OW15226   4.523   0.535   9.167 -0.0478 -0.2780 -0.3484
 1255SOL    HW115227   4.586   0.487   9.220  1.5508  2.7373  0.4641
 1255SOL    HW215228   4.484   0.466   9.113 -0.3672 -0.2618 -0.1404
 1256SOL     OW15229   4.645   2.593  17.483 -0.0378  0.0165  0.2145
 1256SOL    HW115230   4.608   2.675  17.514  1.4228  1.7546 -2.6948
 1256SOL    HW215231   4.567   2.538  17.477 -0.2654  0.3075  0.5533
 1257SOL     OW15232   4.610   1.001  17.009  0.5122 -0.1357 -0.1533
 1257SOL    HW115233   4.662   1.056  16.951  0.2272  0.8791  0.5540
 1257SOL    HW215234   4.658   1.002  17.093  0.7571 -1.0065 -0.2882
 1258SOL     OW15235   1.557   3.129   9.433 -0.3735  0.6194  0.1350
 1258SOL    HW115236   1.531   3.039   9.414 -0.8220  1.2225 -2.1011
 1258SOL    HW215237   1.623   3.113   9.500  0.0782 -0.1952 -0.5144
 1259SOL     OW15238   2.302   3.147   7.523  0.1104 -0.3745 -0.6131
 1259SOL    HW115239   2.265   3.228   7.556 -0.6932 -1.7396  1.8402
 1259SOL    HW215240   2.317   3.098   7.604  1.4605  0.7992 -0.1576
 1260SOL     OW15241   1.808   0.915  14.706 -0.0961 -0.0392  0.1954
 1260SOL    HW115242   1.898   0.946  14.721 -1.0017  2.0914  1.1823
 1260SOL    HW215243   1.745   0.982  14.731 -0.3142  0.0757 -0.6644
 1261SOL     OW15244   1.483   0.359   1.819  0.5141 -0.0415  0.0405
 1261SOL    HW115245   1.485   0.399   1.906 -1.0106  1.1436 -0.4753
 1261SOL    HW215246   1.415   0.413   1.779 -0.4291 -1.9255 -0.8926
 1262SOL     OW15247   4.714   0.382   0.424 -0.2524  0.1364  0.1631
 1262SOL    HW115248   0.027   0.470   0.428  0.5353 -0.1565 -1.1339
 1262SOL    HW215249   4.639   0.403   0.481  1.0498  1.5162  1.4085
 1263SOL     OW15250   0.993   4.207   2.599  0.2926  0.8674  1.3601
 1263SOL    HW115251   0.974   4.120   2.565  2.0579  1.0868 -0.2425
 1263SOL    HW215252   0.915   4.257   2.574 -0.2047 -0.4703  0.2201
 1264SOL     OW15253   2.568   3.608   6.355  0.8017 -0.0688 -0.4432
 1264SOL    HW115254   2.498   3.585   6.417 -0.8253  1.7578 -1.6014
 1264SOL    HW215255   2.649   3.596   6.405  0.0259  2.3598  1.3887
 1265SOL     OW15256   1.390   0.532   2.604  0.0221  0.0875 -0.1069
 1265SOL    HW115257   1.436   0.609   2.570 -1.3771 -0.2594 -2.8121
 1265SOL    HW215258   1.361   0.483   2.526  1.4422  2.1396 -1.9338
 1266SOL     OW15259   3.024   0.713  11.421  0.6743 -0.0683 -0.2603
 1266SOL    HW115260   3.047   0.756  11.504 -0.9030  1.7514 -0.7853
 1266SOL    HW215261   3.063   0.764  11.351  1.4429 -2.3038 -1.4681
 1267SOL     OW15262   1.964   3.538  14.273 -0.1788  0.5306 -0.2042
 1267SOL    HW115263   1.961   3.626  14.311  1.7032  0.1546  0.8193
 1267SOL    HW215264   1.947   3.488  14.353 -0.9317  2.0054  0.5466
 1268SOL     OW15265   4.368   4.157  11.563 -0.0973  0.3523 -0.1376
 1268SOL    HW115266   4.440   4.198  11.515 -1.5613  0.1907 -2.4492
 1268SOL    HW215267   4.374   4.209  11.644  1.0036 -0.9785  0.6278
 1269SOL     OW15268   2.618   0.018   1.919 -0.0663 -0.5785 -0.0621
 1269SOL    HW115269   2.579   4.700   1.843  0.7633 -1.0193 -0.2479
 1269SOL    HW215270   2.709   4.716   1.903 -0.5488 -3.4618  2.1120
 1270SOL     OW15271   4.062   0.025  10.125  0.4930 -0.0237  0.1413
 1270SOL    HW115272   3.987   0.073  10.090 -0.9007 -1.7995  0.7246
 1270SOL    HW215273   4.124   0.099  10.124  2.0086 -1.2748  1.2038
 1271SOL     OW15274   2.802   4.159   1.969 -0.0854  0.7424  0.6859
 1271SOL    HW115275   2.761   4.079   2.001  4.6186 -2.2019 -0.5210
 1271SOL    HW215276   2.883   4.127   1.929 -0.7511  0.2333 -0.2574
 1272SOL     OW15277   3.664   1.289   7.513  1.1545 -0.0758 -0.1485
 1272SOL    HW115278   3.671   1.375   7.470  1.3169 -0.2301 -0.4275
 1272SOL    HW215279   3.619   1.239   7.446  0.2697  0.7100 -0.1467
 1273SOL     OW15280   1.614   1.521  16.253 -0.0216  0.0178 -0.3134
 1273SOL    HW115281   1.643   1.470  16.329 -0.5754  0.8200  0.4319
 1273SOL    HW215282   1.523   1.491  16.254 -0.2901  0.9540  2.1323
 1274SOL     OW15283   4.430   3.117  15.904 -0.0703  0.8447 -0.3099
 1274SOL    HW115284   4.510   3.109  15.853  0.8371  1.9117  0.9152
 1274SOL    HW215285   4.458   3.079  15.987 -0.0412  0.5671 -0.4494
 1275SOL     OW15286   2.221   1.624   5.118  0.1299  0.5194 -0.1848
 1275SOL    HW115287   2.279   1.693   5.088 -0.5149  1.1454  0.0188
 1275SOL    HW215288   2.279   1.552   5.093 -2.0816 -0.9323 -1.2358
 1276SOL     OW15289   0.167   2.339   4.892 -0.1818  0.3127  0.0154
 1276SOL    HW115290   0.236   2.396   4.857  0.5624 -0.2417  0.5642
 1276SOL    HW215291   0.196   2.337   4.983 -2.0261  1.1465  0.6083
 1277SOL     OW15292   0.122   0.159   0.484 -0.0449  0.1359 -0.0549
 1277SOL    HW115293   0.209   0.198   0.471  0.2835 -0.4136  0.5080
 1277SOL    HW215294   0.071   0.231   0.448 -1.6608  0.0076  1.9954
 1278SOL     OW15295   0.997   4.684  14.299  0.0229  0.5021  0.3869
 1278SOL    HW115296   1.000   0.026  14.367  0.1052  1.6869 -0.7944
 1278SOL    HW215297   1.044   0.005  14.230 -0.1074  1.0230  0.6506
 1279SOL     OW15298   3.568   0.746   5.602 -0.2928 -0.0717 -0.1251
 1279SOL    HW115299   3.492   0.778   5.553 -1.2591 -1.7337  0.2653
 1279SOL    HW215300   3.626   0.822   5.600 -1.8545  1.1101 -1.4359
 1280SOL     OW15301   4.293   4.603   8.365  0.0080 -0.0171  0.1721
 1280SOL    HW115302   4.241   4.677   8.333  1.3295  0.9299  0.2004
 1280SOL    HW215303   4.235   4.567   8.433 -1.2841  0.4127 -0.6896
 1281SOL     OW15304   2.650   0.079   5.895  0.0033  0.2816  0.0515
 1281SOL    HW115305   2.677   0.019   5.964 -1.1348  1.1612  1.2542
 1281SOL    HW215306   2.663   0.159   5.946 -0.3840  1.1443 -1.1808
 1282SOL     OW15307   3.017   3.870  10.385 -0.8786  0.1805  0.0328
 1282SOL    HW115308   3.016   3.795  10.444  2.9238  0.0943  0.0214
 1282SOL    HW215309   3.017   3.943  10.447  0.2830  1.3499 -1.3336
 1283SOL     OW15310   3.126   1.175   6.780  0.2203  0.4860 -0.6841
 1283SOL    HW115311   3.133   1.166   6.685  2.7176  1.4027 -0.5644
 1283SOL    HW215312   3.073   1.098   6.801  0.9672  0.3996  0.8277
 1284SOL     OW15313   2.333   2.865   3.925  0.8184 -0.8471 -0.0377
 1284SOL    HW115314   2.405   2.902   3.874  0.7410  1.0662  1.2340
 1284SOL    HW215315   2.294   2.803   3.864 -0.0411  0.0120 -0.3726
 1285SOL     OW15316   4.306   1.022  17.624  0.5150  0.3690 -0.1010
 1285SOL    HW115317   4.217   0.987  17.620  0.5382 -0.0166  2.4227
 1285SOL    HW215318   4.296   1.087  17.555  0.3442  0.3917 -0.0538
 1286SOL     OW15319   1.746   0.392   6.346 -0.4004  0.1925  0.0271
 1286SOL    HW115320   1.700   0.360   6.269  0.8651  1.1266 -1.1188
 1286SOL    HW215321   1.835   0.359   6.332 -0.4485  1.5760 -3.5040
 1287SOL     OW15322   4.333   1.248   0.546 -0.1400  0.3011 -0.6515
 1287SOL    HW115323   4.407   1.199   0.581 -1.3658 -0.7696  0.4605
 1287SOL    HW215324   4.348   1.337   0.577 -0.3232  0.5593 -1.3094
 1288SOL     OW15325   2.142   0.841  10.656  0.7274 -0.2083  0.5996
 1288SOL    HW115326   2.200   0.777  10.615  0.5064  1.2045 -1.9347
 1288SOL    HW215327   2.184   0.829  10.741  0.2628 -1.1950  0.6931
 1289SOL     OW15328   0.466   2.881  16.668  0.3814 -0.5361 -0.1637
 1289SOL    HW115329   0.542   2.925  16.631  1.8531 -2.5614  0.4733
 1289SOL    HW215330   0.472   2.798  16.622  3.4304 -0.0915 -0.5501
 1290SOL     OW15331   0.741   2.675   0.806 -0.0529 -0.1776  0.1317
 1290SOL    HW115332   0.754   2.597   0.860 -1.8541 -0.3426  0.3462
 1290SOL    HW215333   0.768   2.640   0.721 -0.4099  1.0373 -0.4902
 1291SOL     OW15334   2.818   2.190   7.231  0.6156 -0.5951 -0.1683
 1291SOL    HW115335   2.756   2.213   7.162  1.0132  1.6237  0.2097
 1291SOL    HW215336   2.807   2.253   7.303 -0.4225 -0.9195 -0.0542
 1292SOL     OW15337   4.682   0.629   3.958  0.0093  0.0727 -0.2044
 1292SOL    HW115338   4.671   0.618   3.864  2.3049 -0.4550 -0.4054
 1292SOL    HW215339   4.702   0.722   3.968 -0.7492  0.0533  1.6287
 1293SOL     OW15340   2.522   4.379   9.146 -0.3404 -0.0972 -0.5242
 1293SOL    HW115341   2.607   4.354   9.183 -0.3878 -1.4357 -1.3167
 1293SOL    HW215342   2.490   4.297   9.109  0.6911 -1.0178  0.6197
 1294SOL     OW15343   3.136   2.397  15.448 -0.0644 -0.2069 -0.1546
 1294SOL    HW115344   3.205   2.331  15.437  0.4244  0.1577  0.7280
 1294SOL    HW215345   3.058   2.354  15.414 -0.8175  2.2233 -1.5095
 1295SOL     OW15346   2.843   3.097   8.354  0.3891  0.1746  0.2996
 1295SOL    HW115347   2.838   3.176   8.408  1.0970  1.1531 -1.0552
 1295SOL    HW215348   2.760   3.103   8.305  0.1961  0.7698  0.6870
 1296SOL     OW15349   1.655   3.710   5.826  0.3191 -0.1644  0.1681
 1296SOL    HW115350   1.673   3.630   5.875  2.2506  0.2337  0.1244
 1296SOL    HW215351   1.559   3.708   5.824  0.3668 -2.2077  0.0669
 1297SOL     OW15352   3.407   2.749   2.966  0.7664 -0.3622  0.2250
 1297SOL    HW115353   3.456   2.729   3.046 -0.0910  1.2455  1.1472
 1297SOL    HW215354   3.326   2.703   2.988 -0.7400  2.1953 -0.0119
 1298SOL     OW15355   0.074   0.279  13.387  0.3058 -0.0797 -0.2116
 1298SOL    HW115356   0.110   0.202  13.431 -1.9298 -0.3445  1.1559
 1298SOL    HW215357   0.072   0.336  13.464  2.4874  1.3794 -1.2345
 1299SOL     OW15358   3.915   1.344   5.590  0.4660  0.0774  0.4397
 1299SOL    HW115359   3.920   1.423   5.642  0.0038 -1.4517  2.7825
 1299SOL    HW215360   3.871   1.376   5.510  1.2255  0.6177  0.2420
 1300SOL     OW15361   4.280   1.783   4.926 -0.1336 -0.1013 -0.3690
 1300SOL    HW115362   4.244   1.842   4.859 -1.2227  0.2364  0.5148
 1300SOL    HW215363   4.241   1.813   5.008 -0.8740 -0.6767 -0.5100
 1301SOL     OW15364   3.054   1.520   6.677  0.3415 -0.6246 -0.4589
 1301SOL    HW115365   2.990   1.591   6.684 -1.5941 -2.5198  0.9730
 1301SOL    HW215366   2.992   1.447   6.683  0.8035 -0.9694  0.0686
 1302SOL     OW15367   2.738   2.552   1.494  0.3755 -0.2383 -0.0867
 1302SOL    HW115368   2.690   2.546   1.412  0.4029 -0.6848 -0.0702
 1302SOL    HW215369   2.763   2.644   1.488 -1.1511  0.2940  2.0047
 1303SOL     OW15370   0.359   1.911  16.298  0.2261 -0.2747  0.4704
 1303SOL    HW115371   0.326   1.993  16.260 -2.4709 -1.2465  0.7114
 1303SOL    HW215372   0.357   1.936  16.390 -1.1622  1.8207 -0.1022
 1304SOL     OW15373   4.505   3.264   5.596 -0.1950  0.4151 -0.2665
 1304SOL    HW115374   4.497   3.170   5.578 -2.0597  0.4107  0.5653
 1304SOL    HW215375   4.599   3.273   5.608  0.1277 -1.2069 -1.4485
 1305SOL     OW15376   0.020   2.372   9.264  0.1370 -0.2502 -0.1117
 1305SOL    HW115377   0.106   2.331   9.257 -0.4046 -1.3541 -0.3245
 1305SOL    HW215378   0.039   2.453   9.218  2.6834 -0.2208  1.0202
 1306SOL     OW15379   0.883   2.488   4.014  0.5585  0.9651 -0.0097
 1306SOL    HW115380   0.909   2.580   4.022 -1.1457  1.4403  0.0962
 1306SOL    HW215381   0.861   2.482   3.921 -1.6031 -0.6388  0.6123
 1307SOL     OW15382   4.045   1.859   8.523  0.0803  0.0113 -0.7617
 1307SOL    HW115383   4.044   1.930   8.588  2.9447  0.8182 -1.5858
 1307SOL    HW215384   3.989   1.896   8.455  0.6016 -1.2330 -1.8552
 1308SOL     OW15385   1.915   2.662  16.907  0.1893 -0.4405  0.5345
 1308SOL    HW115386   1.856   2.728  16.870  1.7478  0.6782  0.0537
 1308SOL    HW215387   1.971   2.719  16.960 -0.4562  0.4859  0.2254
 1309SOL     OW15388   4.477   0.959   4.844  0.3029 -0.2182  0.1160
 1309SOL    HW115389   4.512   0.950   4.755 -0.8772  0.2691 -0.3969
 1309SOL    HW215390   4.459   1.052   4.853 -0.5255 -0.3806  0.1499
 1310SOL     OW15391   3.775   1.861   6.758  0.0350 -0.5867 -0.0595
 1310SOL    HW115392   3.735   1.938   6.800  1.4965 -0.1231  0.4848
 1310SOL    HW215393   3.812   1.907   6.682  0.2598 -1.6478 -0.5860
 1311SOL     OW15394   1.715   2.811   5.412 -0.2193  0.4234 -0.5361
 1311SOL    HW115395   1.773   2.810   5.488  0.5893  1.5837 -1.1394
 1311SOL    HW215396   1.630   2.773   5.436  0.0242  2.0729  2.9528
 1312SOL     OW15397   1.905   1.548   1.691  0.5419 -0.0253 -0.0696
 1312SOL    HW115398   1.990   1.593   1.681  0.2524  0.1406 -1.7618
 1312SOL    HW215399   1.909   1.512   1.780  1.9647  0.4149  0.0422
 1313SOL     OW15400   3.835   0.596  15.345  0.6900  0.0661 -0.3210
 1313SOL    HW115401   3.786   0.588  15.427 -0.1257  1.3293 -0.6916
 1313SOL    HW215402   3.835   0.691  15.343  2.7547  0.0097 -3.7163
 1314SOL     OW15403   1.121   2.238   7.592  0.0250 -0.3230  0.0576
 1314SOL    HW115404   1.168   2.170   7.641  1.1340 -0.4829 -1.2099
 1314SOL    HW215405   1.186   2.301   7.561 -0.5327  1.4233  2.4772
 1315SOL     OW15406   3.867   3.977   9.946 -0.2458  0.2338 -1.0502
 1315SOL    HW115407   3.867   3.921  10.023  2.7705  1.7310  0.0513
 1315SOL    HW215408   3.917   3.924   9.884 -0.0772 -1.9331  0.9814
 1316SOL     OW15409   1.840   4.185   0.983 -0.1539  0.2920 -0.0175
 1316SOL    HW115410   1.830   4.092   0.961 -1.1573  0.3190  0.3694
 1316SOL    HW215411   1.878   4.223   0.903  1.2817  0.5977  0.8044
 1317SOL     OW15412   0.232   0.851  14.497  0.0867 -0.6656  0.1213
 1317SOL    HW115413   0.237   0.936  14.454  0.7625 -0.0499  1.3999
 1317SOL    HW215414   0.278   0.867  14.580  0.7682 -0.5434 -0.2871
 1318SOL     OW15415   0.436   2.879   7.432  0.3616 -0.2397 -0.3684
 1318SOL    HW115416   0.484   2.846   7.357 -0.6056  0.2098 -1.1846
 1318SOL    HW215417   0.381   2.940   7.383  1.1446 -1.8543 -3.2020
 1319SOL     OW15418   0.673   1.024  16.361  0.3032  0.2131  0.5021
 1319SOL    HW115419   0.594   1.033  16.414 -0.0959 -2.9977  0.4651
 1319SOL    HW215420   0.722   1.104  16.379  1.2978 -0.3340  0.2166
 1320SOL     OW15421   4.144   3.167   6.764 -0.1331 -0.1157  0.2918
 1320SOL    HW115422   4.081   3.147   6.695 -0.5323  0.4814  0.4764
 1320SOL    HW215423   4.231   3.169   6.725  0.3741  0.3789  1.4424
 1321SOL     OW15424   4.173   3.038   8.104  0.4380 -0.2713  0.1067
 1321SOL    HW115425   4.186   3.132   8.118  1.8581 -0.2657 -1.2897
 1321SOL    HW215426   4.253   3.015   8.058  0.4449 -1.4648  0.7102
 1322SOL     OW15427   0.857   1.835  14.342 -0.2846  0.7244 -0.3799
 1322SOL    HW115428   0.946   1.867  14.330 -0.1792 -0.2910 -2.2799
 1322SOL    HW215429   0.828   1.884  14.419  0.5643  0.9343 -0.1921
 1323SOL     OW15430   0.096   0.089   9.483 -0.0440  0.3618 -0.3229
 1323SOL    HW115431   0.097   0.002   9.523 -0.0494 -0.3081 -1.7636
 1323SOL    HW215432   0.017   0.118   9.530  0.1635 -0.9834  0.8530
 1324SOL     OW15433   4.201   2.608   3.997  0.2388 -0.3050  0.9069
 1324SOL    HW115434   4.292   2.632   3.977 -0.2133 -0.7004 -1.6945
 1324SOL    HW215435   4.206   2.601   4.092 -1.8812  0.0037  1.0359
 1325SOL     OW15436   3.409   0.462   2.583 -0.1632  0.1222 -0.7858
 1325SOL    HW115437   3.504   0.459   2.587 -0.0430  4.4197 -0.1782
 1325SOL    HW215438   3.376   0.373   2.571 -0.9829  0.0213  2.1430
 1326SOL     OW15439   3.608   4.120   2.911 -0.3717 -0.3271 -0.0460
 1326SOL    HW115440   3.558   4.126   2.829 -1.1110  1.3932  0.5397
 1326SOL    HW215441   3.698   4.124   2.876 -0.4064 -0.4296 -0.1497
 1327SOL     OW15442   3.048   3.637   3.783  0.4962 -0.3058 -0.1153
 1327SOL    HW115443   3.010   3.558   3.822 -0.0752 -0.8395 -1.7676
 1327SOL    HW215444   3.127   3.603   3.741  0.0995 -0.9818 -0.3237
 1328SOL     OW15445   3.939   4.616   6.409  0.4904  0.5325 -0.2940
 1328SOL    HW115446   3.861   4.583   6.453  1.6894  0.6968  1.9849
 1328SOL    HW215447   3.959   4.546   6.346 -0.5604  0.5352 -0.6258
 1329SOL     OW15448   1.174   2.274  14.168  0.3042  0.2896  0.6724
 1329SOL    HW115449   1.133   2.353  14.202  1.1543  1.1063 -0.1959
 1329SOL    HW215450   1.257   2.303  14.130 -0.0876  0.9357  0.3128
 1330SOL     OW15451   0.331   2.810   1.653  0.1023  1.0137  0.3339
 1330SOL    HW115452   0.272   2.824   1.579  3.0298  2.2863 -1.7319
 1330SOL    HW215453   0.301   2.723   1.677  0.8064  0.7894  0.3776
 1331SOL     OW15454   2.845   0.903   5.538 -0.4620 -0.8525  0.0771
 1331SOL    HW115455   2.761   0.859   5.554 -0.8209 -0.6056 -1.1421
 1331SOL    HW215456   2.886   0.901   5.624  1.1295 -3.8320 -0.7517
 1332SOL     OW15457   0.427   3.042   3.250 -0.4204  0.1397 -0.0517
 1332SOL    HW115458   0.411   3.121   3.197  0.7387  0.6570  0.3728
 1332SOL    HW215459   0.512   3.066   3.286  0.3238 -1.5966 -0.6643
 1333SOL     OW15460   2.733   2.344   0.901  0.1964 -0.2920 -0.4488
 1333SOL    HW115461   2.702   2.362   0.990  1.3790  0.1543 -0.1289
 1333SOL    HW215462   2.827   2.349   0.920  0.3641  2.2303 -1.9751
 1334SOL     OW15463   2.421   4.293   8.318  0.0256 -0.7183  0.6115
 1334SOL    HW115464   2.501   4.241   8.318  0.7562  0.3899  3.1137
 1334SOL    HW215465   2.421   4.314   8.225 -2.8132 -2.0915  0.2706
 1335SOL     OW15466   3.777   3.123   7.780  0.1427  0.0130  0.0311
 1335SOL    HW115467   3.866   3.087   7.775  0.7529  1.7687 -1.8458
 1335SOL    HW215468   3.792   3.173   7.860 -1.2575  1.4214 -0.5836
 1336SOL     OW15469   3.089   1.229   4.561 -0.1717 -0.5494 -0.6154
 1336SOL    HW115470   3.147   1.153   4.557  0.5391  0.1124 -3.0958
 1336SOL    HW215471   3.064   1.237   4.469  0.8639  0.5849 -0.8014
 1337SOL     OW15472   2.750   1.480   5.383 -1.1032 -0.1202 -0.2078
 1337SOL    HW115473   2.800   1.544   5.332 -0.5416  1.0018  1.7402
 1337SOL    HW215474   2.757   1.520   5.470 -1.3552  0.7220 -0.5773
 1338SOL     OW15475   3.634   0.457   3.754 -0.5874  0.3410  0.0815
 1338SOL    HW115476   3.722   0.465   3.790 -1.4369  0.0024  2.2066
 1338SOL    HW215477   3.592   0.373   3.772  0.7068  0.0819  1.8344
 1339SOL     OW15478   2.534   0.602   0.887 -0.3124  0.0282  0.5310
 1339SOL    HW115479   2.459   0.642   0.844  1.6620  2.9361 -0.2215
 1339SOL    HW215480   2.495   0.514   0.887 -1.0098  0.3346  1.6545
 1340SOL     OW15481   0.814   2.402   0.827  0.4204  0.1934 -0.6996
 1340SOL    HW115482   0.865   2.324   0.806 -0.7303 -0.8433  0.4421
 1340SOL    HW215483   0.804   2.432   0.736 -0.5276  1.0719 -0.3070
 1341SOL     OW15484   0.496   0.209   7.891  0.1251  0.0795 -0.2132
 1341SOL    HW115485   0.558   0.257   7.945 -2.0876  1.6540  0.9074
 1341SOL    HW215486   0.424   0.272   7.896 -0.7288 -0.7575 -1.8055
 1342SOL     OW15487   2.721   0.409   7.906 -0.2497  0.0736 -0.1921
 1342SOL    HW115488   2.681   0.341   7.961  0.2036 -1.6830 -2.0312
 1342SOL    HW215489   2.717   0.480   7.971  2.0101  0.7302 -0.7728
 1343SOL     OW15490   1.706   4.205   7.390 -0.1899  0.2250  0.1618
 1343SOL    HW115491   1.779   4.247   7.343  1.7610 -0.5805  2.5005
 1343SOL    HW215492   1.696   4.258   7.469  1.0040  1.0903 -0.2535
 1344SOL     OW15493   1.128   1.654   2.844 -0.0649  0.0903  0.1020
 1344SOL    HW115494   1.067   1.721   2.874 -1.2752 -0.2849 -1.5088
 1344SOL    HW215495   1.208   1.678   2.891  2.0095 -2.3274 -2.2210
 1345SOL     OW15496   2.422   3.027   3.568 -0.2880 -0.0160  0.1149
 1345SOL    HW115497   2.408   3.040   3.474 -0.4083 -1.7200 -0.1085
 1345SOL    HW215498   2.442   3.114   3.602 -2.4262  0.6452 -0.2839
 1346SOL     OW15499   4.555   2.491   0.928 -0.1244  0.0558  0.5860
 1346SOL    HW115500   4.570   2.579   0.964  0.9998  0.6507 -1.3265
 1346SOL    HW215501   4.628   2.488   0.866 -1.6907  1.3260 -1.3147
 1347SOL     OW15502   0.932   3.864   9.497 -0.2001 -0.0893 -0.0515
 1347SOL    HW115503   0.926   3.786   9.553 -0.3829  2.0577  2.9649
 1347SOL    HW215504   0.848   3.900   9.523 -1.5937 -2.5844 -1.1395
 1348SOL     OW15505   0.312   2.249   3.131  0.1238  0.1255 -0.2519
 1348SOL    HW115506   0.320   2.281   3.221  1.7424 -0.8918 -0.0358
 1348SOL    HW215507   0.333   2.157   3.147  1.2513  0.3366 -0.5472
 1349SOL     OW15508   1.454   4.623   4.796  0.3317  0.1204  0.4779
 1349SOL    HW115509   1.388   4.668   4.849 -1.1210 -0.7631 -0.5950
 1349SOL    HW215510   1.459   4.688   4.726 -1.5431  0.3468  0.5601
 1350SOL     OW15511   0.437   1.526  16.639 -0.4397  0.3573 -0.8031
 1350SOL    HW115512   0.509   1.559  16.585 -0.2242  2.2977  0.6974
 1350SOL    HW215513   0.362   1.550  16.585 -0.4368 -1.2360 -1.5010
 1351SOL     OW15514   1.680   0.862   2.737 -0.1022 -0.0129 -0.3509
 1351SOL    HW115515   1.727   0.787   2.700  0.7557  0.6951 -0.6976
 1351SOL    HW215516   1.625   0.820   2.804 -2.1357  0.2186 -1.8924
 1352SOL     OW15517   1.555   0.241   4.922 -0.3811  0.1521 -0.3776
 1352SOL    HW115518   1.641   0.278   4.904 -0.5317  0.1434 -1.0908
 1352SOL    HW215519   1.536   0.195   4.840 -0.8529 -0.9660  0.3540
 1353SOL     OW15520   3.782   3.764   8.817  0.1984 -0.1683 -0.2865
 1353SOL    HW115521   3.752   3.851   8.789  0.8202 -0.2262 -1.1243
 1353SOL    HW215522   3.698   3.726   8.846 -1.2511  2.7373 -0.6586
 1354SOL     OW15523   2.070   2.198   8.452 -0.0656 -0.7351 -0.3377
 1354SOL    HW115524   2.089   2.149   8.531  0.8942  1.3707  0.7361
 1354SOL    HW215525   2.142   2.260   8.463  0.2812 -1.3325  0.7279
 1355SOL     OW15526   3.704   1.753   5.763 -0.0058 -0.2141  0.4616
 1355SOL    HW115527   3.703   1.789   5.852 -0.7971  0.5064  0.1591
 1355SOL    HW215528   3.612   1.724   5.761 -0.5298  1.2249  3.2387
 1356SOL     OW15529   2.140   3.353   6.457  0.1378  0.4942  0.6393
 1356SOL    HW115530   2.097   3.317   6.534  0.8132 -0.4688  0.5695
 1356SOL    HW215531   2.122   3.293   6.385  0.7161  0.9416  0.1145
 1357SOL     OW15532   0.073   2.852   8.499 -0.4863 -0.1398 -0.0034
 1357SOL    HW115533   0.007   2.809   8.554 -0.9108  0.1833 -0.2575
 1357SOL    HW215534   0.114   2.919   8.554 -1.4320 -0.4636  1.0904
 1358SOL     OW15535   1.253   4.089   9.580 -0.0860 -0.0214 -0.1162
 1358SOL    HW115536   1.241   3.996   9.597  2.6656 -0.0830  1.3587
 1358SOL    HW215537   1.250   4.135   9.664 -3.0842  0.0989 -0.2886
 1359SOL     OW15538   2.044   0.376  16.549  0.3753 -0.1949 -0.4118
 1359SOL    HW115539   2.052   0.422  16.633 -0.0269  0.3129 -0.6469
 1359SOL    HW215540   1.990   0.303  16.580  2.1536 -1.6096 -0.7065
 1360SOL     OW15541   0.544   2.597   8.085 -0.6959 -0.3678  0.6778
 1360SOL    HW115542   0.495   2.652   8.147  0.3103  0.8169  0.4234
 1360SOL    HW215543   0.632   2.600   8.123  0.0434 -0.7047 -1.0414
 1361SOL     OW15544   1.365   0.598  12.728  0.0058  0.6955  0.1380
 1361SOL    HW115545   1.351   0.619  12.636  0.2065  2.1226  0.4306
 1361SOL    HW215546   1.331   0.677  12.771 -2.5581  0.5697 -1.6119
 1362SOL     OW15547   2.196   0.132   3.467 -0.2798  0.0408 -0.5875
 1362SOL    HW115548   2.145   0.148   3.388 -0.0809 -1.6973 -1.0635
 1362SOL    HW215549   2.138   0.177   3.530  0.5003  1.3050 -0.7669
 1363SOL     OW15550   4.250   1.493  11.535  0.0971 -0.5118  0.3287
 1363SOL    HW115551   4.173   1.465  11.584  0.0073 -0.0184  0.4746
 1363SOL    HW215552   4.282   1.408  11.504  0.7650  0.1426 -0.7986
 1364SOL     OW15553   0.669   0.354   8.027  0.5165  0.0951  0.0786
 1364SOL    HW115554   0.683   0.361   8.121  0.6512  2.5490 -0.1150
 1364SOL    HW215555   0.755   0.362   7.987  0.1071  1.4135 -0.5460
 1365SOL     OW15556   0.733   1.668  12.304  0.0341  0.7117  0.2565
 1365SOL    HW115557   0.723   1.645  12.396  0.7983  1.1837  0.4558
 1365SOL    HW215558   0.828   1.680  12.306  0.2814 -0.9424 -1.3192
 1366SOL     OW15559   1.908   1.459   7.574  0.0047  0.5305  0.0227
 1366SOL    HW115560   1.874   1.411   7.499 -0.8681 -1.0625  1.4421
 1366SOL    HW215561   1.985   1.495   7.530  0.7482 -2.3358 -1.0065
 1367SOL     OW15562   2.136   2.255  14.093  0.3661  0.0405 -0.0419
 1367SOL    HW115563   2.166   2.277  14.005 -0.3418 -0.1720 -0.3435
 1367SOL    HW215564   2.210   2.272  14.151  0.2745 -0.9476  0.3750
 1368SOL     OW15565   3.449   4.280   1.774  0.2648  0.9657 -0.1019
 1368SOL    HW115566   3.464   4.221   1.848  0.2651 -0.5083 -1.2595
 1368SOL    HW215567   3.449   4.217   1.702  0.9074  1.9394 -0.9565
 1369SOL     OW15568   1.494   0.807   6.256 -0.0464 -0.5125 -0.4823
 1369SOL    HW115569   1.537   0.737   6.305  0.0272  1.3796  2.1645
 1369SOL    HW215570   1.549   0.812   6.177  0.2612 -1.1758 -0.3082
 1370SOL     OW15571   2.162   3.763   5.498  0.2312 -0.1175  0.4249
 1370SOL    HW115572   2.133   3.845   5.459  1.7191 -0.0545 -0.5598
 1370SOL    HW215573   2.099   3.698   5.466  1.8122 -1.2843 -0.3421
 1371SOL     OW15574   3.138   2.864   0.469 -0.1799  0.0502 -0.2554
 1371SOL    HW115575   3.133   2.939   0.409 -0.2076  0.3606  0.1354
 1371SOL    HW215576   3.127   2.914   0.550  0.5738 -1.3925  0.7180
 1372SOL     OW15577   1.964   2.925   2.214 -0.2410  0.1907 -0.1011
 1372SOL    HW115578   1.924   2.901   2.130  0.7231 -0.8516 -0.2590
 1372SOL    HW215579   1.927   2.863   2.277 -0.7036  0.8079  0.2353
 1373SOL     OW15580   0.353   0.237   3.970  0.0392  0.1083  0.0761
 1373SOL    HW115581   0.339   0.274   4.057  0.4631  2.6999 -0.9422
 1373SOL    HW215582   0.375   0.317   3.923 -0.7728  0.3337  0.0712
 1374SOL     OW15583   2.537   1.064   3.883 -0.2546 -0.1610  0.2513
 1374SOL    HW115584   2.569   1.036   3.797 -0.8522 -0.7661  0.2256
 1374SOL    HW215585   2.534   0.982   3.932 -1.0145 -0.5119 -0.3847
 1375SOL     OW15586   2.059   3.980   4.211 -0.7554  0.6278  0.2146
 1375SOL    HW115587   2.128   3.949   4.153  0.1054 -0.2282  1.6877
 1375SOL    HW215588   2.054   4.071   4.184 -1.6081  1.4176  3.0932
 1376SOL     OW15589   4.013   0.931  11.197 -0.4206 -0.7355 -0.0473
 1376SOL    HW115590   3.920   0.935  11.218 -0.7549  1.0256 -1.8493
 1376SOL    HW215591   4.046   0.986  11.268  2.4326 -1.3144 -0.9226
 1377SOL     OW15592   2.912   0.536   8.361 -0.0539  0.4852  0.7463
 1377SOL    HW115593   2.874   0.605   8.416 -0.7761  1.6058 -1.1573
 1377SOL    HW215594   3.005   0.546   8.380  0.3582 -1.0699 -0.5089
 1378SOL     OW15595   2.340   2.343  10.885 -0.4481  0.4703  0.2013
 1378SOL    HW115596   2.289   2.414  10.846  2.4287  2.4656  0.0249
 1378SOL    HW215597   2.326   2.285  10.810  1.4640 -0.3561  0.5044
 1379SOL     OW15598   3.613   1.409  15.650 -0.1427 -0.1540 -0.7266
 1379SOL    HW115599   3.573   1.363  15.577 -0.3981 -3.5832  1.6096
 1379SOL    HW215600   3.704   1.399  15.623 -0.0098 -1.1530  0.0935
 1380SOL     OW15601   3.717   1.219   5.711 -0.0947  0.3755  0.5063
 1380SOL    HW115602   3.795   1.255   5.669 -0.9626 -0.7493 -2.0842
 1380SOL    HW215603   3.706   1.258   5.797 -1.2700 -1.4371  1.1812
 1381SOL     OW15604   2.965   1.529   0.038  0.5261 -0.6810  0.3688
 1381SOL    HW115605   2.991   1.616   0.068  1.5049 -0.3661 -1.4047
 1381SOL    HW215606   2.972   1.470   0.114 -1.8457  0.4181  1.4547
 1382SOL     OW15607   3.646   3.466   7.222 -0.6514  0.0864 -0.4512
 1382SOL    HW115608   3.647   3.518   7.142  0.2097 -1.0916 -1.2023
 1382SOL    HW215609   3.717   3.403   7.208 -0.6639 -0.1791  0.6888
 1383SOL     OW15610   1.638   1.323   5.798  0.2716  0.3062  0.7514
 1383SOL    HW115611   1.587   1.253   5.838  0.7613 -0.2023  0.4988
 1383SOL    HW215612   1.720   1.304   5.845 -0.4325 -2.0116  1.0453
 1384SOL     OW15613   1.084   2.979   8.578 -0.3601  0.5382 -0.2759
 1384SOL    HW115614   1.034   2.960   8.499  0.9454  2.6205 -1.6082
 1384SOL    HW215615   1.083   3.074   8.579 -1.0266  0.5306 -0.4663
 1385SOL     OW15616   1.892   2.130   3.478 -0.0813 -0.1318  0.1234
 1385SOL    HW115617   1.939   2.087   3.549  1.7268  1.1022 -0.3331
 1385SOL    HW215618   1.893   2.222   3.504  1.1566  0.5124 -2.2336
 1386SOL     OW15619   2.704   0.755  14.352  0.0988 -0.1410  0.2599
 1386SOL    HW115620   2.781   0.744  14.295  0.1006  2.5109 -0.2525
 1386SOL    HW215621   2.703   0.850  14.339 -0.3520  0.1050  2.1897
 1387SOL     OW15622   0.248   3.831  16.218 -0.0602 -0.1205 -0.2336
 1387SOL    HW115623   0.243   3.920  16.252 -1.4799 -0.2439 -0.1284
 1387SOL    HW215624   0.240   3.777  16.297  0.5832  1.0245  0.5967
 1388SOL     OW15625   1.512   4.689   9.825  0.2165  0.1808  0.0116
 1388SOL    HW115626   1.549   4.664   9.740  0.1045  1.7705 -0.5123
 1388SOL    HW215627   1.480   0.052   9.804 -0.8847 -0.1674  0.2390
 1389SOL     OW15628   3.386   3.402  12.109  0.0769  0.3295  0.8340
 1389SOL    HW115629   3.365   3.362  12.024 -0.3655  0.8476  0.6990
 1389SOL    HW215630   3.477   3.430  12.105  1.0940 -3.1189 -0.2906
 1390SOL     OW15631   2.429   2.107   5.292 -0.6676 -0.1158  0.1753
 1390SOL    HW115632   2.523   2.093   5.279 -0.1873  2.5462  0.7290
 1390SOL    HW215633   2.391   2.021   5.305 -2.4676  0.4413 -1.4410
 1391SOL     OW15634   4.003   0.051  12.401  0.3079 -0.3369 -0.3307
 1391SOL    HW115635   3.981   4.703  12.458 -1.8617  0.7076  0.1898
 1391SOL    HW215636   4.011   0.126  12.460  1.0040 -2.6504  2.5163
 1392SOL     OW15637   4.456   0.582   8.829  0.2510 -0.1071 -0.0705
 1392SOL    HW115638   4.517   0.518   8.867 -0.6052 -0.1167  1.3138
 1392SOL    HW215639   4.513   0.657   8.812 -1.0897  0.1467 -3.3101
 1393SOL     OW15640   0.490   4.333   2.246 -0.5044 -0.1915  0.3321
 1393SOL    HW115641   0.545   4.380   2.183 -2.2110 -1.1967 -1.8950
 1393SOL    HW215642   0.485   4.241   2.219 -0.4326 -0.9694  2.9550
 1394SOL     OW15643   1.713   2.089   5.894 -0.0413 -0.1991 -0.3796
 1394SOL    HW115644   1.664   2.146   5.954  3.3323  1.3454  0.9180
 1394SOL    HW215645   1.647   2.020   5.886 -0.3820  0.3125 -1.9421
 1395SOL     OW15646   4.248   0.907   3.916  0.4416 -0.9068  0.0165
 1395SOL    HW115647   4.318   0.872   3.971  2.5293  2.5673 -0.4494
 1395SOL    HW215648   4.192   0.947   3.982  1.8423 -1.1528  1.3444
 1396SOL     OW15649   0.903   4.421   6.611 -0.0952  0.1146 -0.2564
 1396SOL    HW115650   0.968   4.473   6.563 -1.0756  0.3251 -1.3441
 1396SOL    HW215651   0.940   4.333   6.603 -0.8172  0.0817 -3.2263
 1397SOL     OW15652   0.883   3.059   7.894  0.9038 -0.5352 -0.0534
 1397SOL    HW115653   0.869   3.042   7.987  0.5707 -0.3628 -0.0675
 1397SOL    HW215654   0.856   3.151   7.892  1.8273 -0.2467  0.6700
 1398SOL     OW15655   3.032   3.368  15.433  0.8830  0.5888  0.5057
 1398SOL    HW115656   3.037   3.461  15.455  0.1407  0.6712  0.2940
 1398SOL    HW215657   3.005   3.322  15.513 -2.2502 -0.4013 -1.1256
 1399SOL     OW15658   4.490   1.046   6.206  0.5210  0.6454  0.6310
 1399SOL    HW115659   4.494   0.973   6.145 -1.0621  0.8331  0.3155
 1399SOL    HW215660   4.408   1.017   6.247 -0.6537  0.6215 -1.7927
 1400SOL     OW15661   1.522   2.814   6.407  0.0337  0.2720 -0.0874
 1400SOL    HW115662   1.468   2.808   6.328  1.4582  2.6043 -1.2434
 1400SOL    HW215663   1.532   2.909   6.409  2.8890 -0.0119 -0.6041
 1401SOL     OW15664   4.244   1.889   3.406 -0.2822  0.0531  0.0004
 1401SOL    HW115665   4.208   1.898   3.494  2.0018 -1.2315  1.0509
 1401SOL    HW215666   4.318   1.949   3.409 -0.4582  0.3300 -0.9146
 1402SOL     OW15667   3.762   1.224   0.833  0.6864  0.1535 -0.6789
 1402SOL    HW115668   3.691   1.285   0.858 -0.3049 -0.5043 -1.9063
 1402SOL    HW215669   3.803   1.208   0.918  0.1987 -1.7560 -0.8132
 1403SOL     OW15670   2.869   1.192  11.408  0.0944  0.0952  0.6163
 1403SOL    HW115671   2.941   1.254  11.421  0.5014 -0.1804 -0.2630
 1403SOL    HW215672   2.806   1.249  11.364 -2.0394  0.2167  3.8988
 1404SOL     OW15673   3.301   2.558  15.631 -0.4869 -0.5797 -0.4715
 1404SOL    HW115674   3.257   2.581  15.713  1.2335  0.6238  0.1194
 1404SOL    HW215675   3.234   2.502  15.594 -0.5359  0.1201 -1.4458
 1405SOL     OW15676   0.939   1.760   2.402 -0.1095 -0.0461  0.5330
 1405SOL    HW115677   1.000   1.715   2.462 -0.5912 -2.7272 -0.9795
 1405SOL    HW215678   0.884   1.816   2.457 -0.9176 -1.5487  1.2572
 1406SOL     OW15679   0.036   0.562   1.923 -0.7120 -0.0577 -0.0698
 1406SOL    HW115680   0.001   0.572   2.012 -1.8325 -0.1731 -0.5035
 1406SOL    HW215681   0.110   0.623   1.921  0.3556 -1.2631  1.6868
 1407SOL     OW15682   4.423   3.586   2.109 -0.4609  0.1782  0.0703
 1407SOL    HW115683   4.518   3.575   2.100 -0.5219 -1.7415  1.8759
 1407SOL    HW215684   4.419   3.681   2.117  0.5519  0.3719 -1.5053
 1408SOL     OW15685   1.920   3.745   6.009  0.2723 -0.0088 -0.2716
 1408SOL    HW115686   2.004   3.700   6.005 -0.4674 -1.3753 -0.4366
 1408SOL    HW215687   1.875   3.734   5.925  0.7452 -1.0049 -0.3927
 1409SOL     OW15688   1.320   0.870   3.798  0.1976  0.4803  0.5989
 1409SOL    HW115689   1.406   0.894   3.765 -0.7147  0.5404 -1.7220
 1409SOL    HW215690   1.343   0.808   3.868  1.6998  0.1338 -0.2131
 1410SOL     OW15691   2.754   3.544   6.024 -0.0120  0.1856 -0.0320
 1410SOL    HW115692   2.766   3.603   5.949  0.8499  0.4685  0.3229
 1410SOL    HW215693   2.812   3.571   6.095 -0.8066  1.7809 -0.0017
 1411SOL     OW15694   4.287   2.409  10.894 -0.6860 -0.0923  0.3714
 1411SOL    HW115695   4.317   2.318  10.890 -1.3998 -0.3072 -0.0641
 1411SOL    HW215696   4.347   2.447  10.958 -1.0072  0.2906  0.4419
 1412SOL     OW15697   2.959   2.909   2.648  0.9436 -0.0540 -0.0526
 1412SOL    HW115698   2.907   2.950   2.717  1.6093  1.1074 -0.2574
 1412SOL    HW215699   2.930   2.957   2.571  0.6959  1.1195  0.7671
 1413SOL     OW15700   0.774   2.750  12.756  0.2555  0.1714 -0.4917
 1413SOL    HW115701   0.835   2.804  12.705 -0.2961 -0.2829 -1.6280
 1413SOL    HW215702   0.775   2.669  12.705  1.2600  0.3194 -0.7185
 1414SOL     OW15703   0.500   3.161  11.219 -0.2881  0.6999 -0.3185
 1414SOL    HW115704   0.497   3.107  11.140 -2.4716 -0.5901  0.6438
 1414SOL    HW215705   0.565   3.121  11.277  0.5623 -0.0449 -1.8022
 1415SOL     OW15706   0.861   3.203  11.597 -0.8805 -0.2578 -0.0222
 1415SOL    HW115707   0.810   3.169  11.671 -0.9543  0.8372  0.4348
 1415SOL    HW215708   0.919   3.259  11.649 -1.1449 -0.5138  0.5425
 1416SOL     OW15709   1.162   4.489   5.980  0.4398 -0.1328 -0.0825
 1416SOL    HW115710   1.147   4.469   5.888  0.3445  0.5793 -0.2248
 1416SOL    HW215711   1.164   4.399   6.013 -0.4932  0.3799  1.3811
 1417SOL     OW15712   0.015   4.353  13.522 -0.0832  0.8524 -0.1580
 1417SOL    HW115713   4.674   4.352  13.453  1.4036 -0.1259 -1.5670
 1417SOL    HW215714   4.707   4.290  13.585 -0.1718  0.9855 -0.0700
 1418SOL     OW15715   3.776   0.949  16.153 -0.0162  0.2104 -0.4415
 1418SOL    HW115716   3.726   1.029  16.137 -0.5626 -0.0029  0.2024
 1418SOL    HW215717   3.741   0.888  16.088 -1.5504 -3.1703  3.6298
 1419SOL     OW15718   4.280   1.295   4.407  0.5861  0.5339 -0.3056
 1419SOL    HW115719   4.283   1.227   4.475  0.7962 -0.2079 -1.0650
 1419SOL    HW215720   4.258   1.373   4.457 -1.0897 -0.5815  0.7119
 1420SOL     OW15721   2.954   3.328   3.161  0.1667 -0.0378  0.5094
 1420SOL    HW115722   3.020   3.312   3.093 -0.1246 -1.2334  0.5032
 1420SOL    HW215723   2.870   3.325   3.114 -0.6970 -0.3251  2.0861
 1421SOL     OW15724   0.475   3.060   8.727  0.4285 -0.5642  0.1044
 1421SOL    HW115725   0.527   3.089   8.652  0.5208 -0.2190  0.3027
 1421SOL    HW215726   0.505   3.131   8.783  0.1566 -1.2528  1.1157
 1422SOL     OW15727   3.962   1.778   2.654 -0.0365 -0.8919  0.1298
 1422SOL    HW115728   4.006   1.841   2.597  1.1660 -0.1975  1.8098
 1422SOL    HW215729   4.022   1.790   2.727 -1.2682 -0.8035  1.1331
 1423SOL     OW15730   0.441   3.264   6.598 -0.0576 -0.0495 -0.4560
 1423SOL    HW115731   0.514   3.281   6.538  0.1321  0.5400 -0.0493
 1423SOL    HW215732   0.478   3.190   6.646 -0.1493 -0.3917 -0.9047
 1424SOL     OW15733   3.247   1.726  16.873  0.0237 -0.6513 -0.2599
 1424SOL    HW115734   3.180   1.671  16.833 -1.0391  0.5630 -0.1567
 1424SOL    HW215735   3.196   1.753  16.950  0.4225  1.0691 -0.5960
 1425SOL     OW15736   3.943   1.209   2.151 -0.2811 -0.4898 -0.1711
 1425SOL    HW115737   3.890   1.270   2.202 -0.5802 -1.0636  0.2097
 1425SOL    HW215738   3.953   1.245   2.063  3.6080 -2.6573 -0.6306
 1426SOL     OW15739   3.012   1.219   4.300  0.0050  0.2385  0.7661
 1426SOL    HW115740   3.067   1.242   4.225 -0.2974 -1.2252  0.1028
 1426SOL    HW215741   2.971   1.137   4.273 -1.7766  0.6482  2.2089
 1427SOL     OW15742   2.348   0.787   2.361 -0.3753 -0.2631  0.3305
 1427SOL    HW115743   2.403   0.782   2.439  1.2548 -1.3789 -0.8760
 1427SOL    HW215744   2.409   0.748   2.298 -1.5896  0.1949 -1.1300
 1428SOL     OW15745   0.465   2.567   9.041 -0.0404 -0.1060  0.1003
 1428SOL    HW115746   0.520   2.541   9.114 -0.7866  0.8521  0.9903
 1428SOL    HW215747   0.471   2.661   9.028 -1.0682 -0.0259  0.2083
 1429SOL     OW15748   2.977   3.599  15.078 -0.3626 -0.0205  0.1695
 1429SOL    HW115749   2.902   3.561  15.033 -1.6244  1.4725  1.0038
 1429SOL    HW215750   3.045   3.570  15.016  0.7300 -1.4984  2.0458
 1430SOL     OW15751   3.898   4.301  12.953  0.6493 -0.4582 -0.3209
 1430SOL    HW115752   3.894   4.226  12.894 -2.8499  0.5318 -1.3583
 1430SOL    HW215753   3.946   4.259  13.024 -0.7748 -0.4108  0.6622
 1431SOL     OW15754   2.409   3.330   5.772  0.5806  0.5907  0.3925
 1431SOL    HW115755   2.489   3.283   5.750  0.5290 -0.2640  2.0011
 1431SOL    HW215756   2.435   3.422   5.764 -1.8538  1.3414  1.0440
 1432SOL     OW15757   2.240   3.131  12.861  0.0542 -0.4046 -0.1792
 1432SOL    HW115758   2.232   3.207  12.803 -2.4156 -0.3844  0.1541
 1432SOL    HW215759   2.212   3.058  12.806  0.1122 -0.8110  0.3368
 1433SOL     OW15760   0.267   3.947  16.578 -0.1749 -0.5252 -0.1969
 1433SOL    HW115761   0.263   3.857  16.544 -3.7442 -1.1062  1.6971
 1433SOL    HW215762   0.241   3.934  16.669 -0.0388  0.8868  0.0456
 1434SOL     OW15763   3.379   4.720  14.512  0.0472  0.5836  0.9587
 1434SOL    HW115764   3.366   0.087  14.490 -1.1094 -0.3990 -2.3963
 1434SOL    HW215765   3.447   4.718  14.580  1.6598 -3.3011 -0.7848
 1435SOL     OW15766   3.170   3.935   9.154 -0.2000  0.0931 -0.1769
 1435SOL    HW115767   3.253   3.917   9.110  0.1524  0.4364  0.3658
 1435SOL    HW215768   3.201   3.917   9.243 -1.4322  0.3586  0.3094
 1436SOL     OW15769   0.863   1.551   8.382  0.4292 -1.3174  0.2569
 1436SOL    HW115770   0.790   1.597   8.341  0.9963 -0.8040 -0.1703
 1436SOL    HW215771   0.933   1.615   8.387 -2.1131  1.6028 -1.5226
 1437SOL     OW15772   1.280   2.784   4.588  0.1946  0.4175 -0.0662
 1437SOL    HW115773   1.372   2.761   4.601  0.3311  1.1331  0.2760
 1437SOL    HW215774   1.251   2.718   4.525  2.3797  0.4490 -1.1365
 1438SOL     OW15775   4.030   0.379   7.678 -0.4629 -0.4333  0.4266
 1438SOL    HW115776   4.020   0.460   7.628 -0.2469 -0.5152  0.2500
 1438SOL    HW215777   3.950   0.333   7.654 -0.1199 -2.2768  2.7889
 1439SOL     OW15778   1.552   2.379   6.997  0.3260  0.1215  0.1624
 1439SOL    HW115779   1.562   2.320   7.072 -0.5119  1.6877  1.5058
 1439SOL    HW215780   1.478   2.337   6.954  0.0542 -0.4522  1.2012
 1440SOL     OW15781   3.170   4.228   5.856  0.3362 -0.2037  0.0928
 1440SOL    HW115782   3.156   4.293   5.787  0.0031 -0.1690  0.1929
 1440SOL    HW215783   3.197   4.287   5.926 -1.7666  0.0591  0.6835
 1441SOL     OW15784   1.115   1.770   3.529  0.7591 -0.0213 -0.2891
 1441SOL    HW115785   1.038   1.828   3.529  1.2232  0.5756  4.0305
 1441SOL    HW215786   1.116   1.752   3.435  0.9293  2.4581 -0.7716
 1442SOL     OW15787   3.422   2.822   5.060  0.5341 -0.3649 -0.3773
 1442SOL    HW115788   3.418   2.916   5.072 -1.0236 -0.6373  1.3052
 1442SOL    HW215789   3.376   2.821   4.976  1.3060 -0.9526 -0.7938
 1443SOL     OW15790   3.180   0.528   2.002  0.0570  0.3704 -0.4843
 1443SOL    HW115791   3.085   0.522   1.997 -0.0923  1.9786  0.4459
 1443SOL    HW215792   3.212   0.449   1.959 -0.5670 -1.1831  1.9187
 1444SOL     OW15793   4.626   1.440   3.659 -0.6200 -0.1125  0.1768
 1444SOL    HW115794   4.603   1.509   3.598 -0.8720 -0.1303  0.2508
 1444SOL    HW215795   4.649   1.498   3.732  0.2333 -0.2595  0.0319
 1445SOL     OW15796   0.471   1.645   8.542 -0.8750  0.6366  0.1349
 1445SOL    HW115797   0.552   1.656   8.592 -1.7595  0.7279  1.5339
 1445SOL    HW215798   0.442   1.736   8.534 -0.7993  0.6656  0.1998
 1446SOL     OW15799   1.508   2.324  11.632  0.3359  0.1248 -0.5116
 1446SOL    HW115800   1.458   2.369  11.700 -3.1002 -2.8609 -1.0706
 1446SOL    HW215801   1.565   2.392  11.596 -1.2785  0.8335 -1.7608
 1447SOL     OW15802   2.625   4.040  16.198  0.4606 -0.0803 -0.0482
 1447SOL    HW115803   2.541   4.073  16.231 -0.7829 -3.4670  0.2051
 1447SOL    HW215804   2.684   4.075  16.265  0.3790  1.2382 -0.6566
 1448SOL     OW15805   1.602   2.780   4.426 -0.0120 -0.0145  0.4294
 1448SOL    HW115806   1.657   2.740   4.493 -1.9009 -1.9968  0.8284
 1448SOL    HW215807   1.633   2.869   4.415 -1.2519  0.4958  1.0538
 1449SOL     OW15808   0.055   2.956   7.114  0.2243 -0.0088  0.5766
 1449SOL    HW115809   0.034   2.870   7.150 -0.6343 -0.0491 -0.0085
 1449SOL    HW215810   4.709   2.981   7.055  0.6082 -1.2613 -0.4076
 1450SOL     OW15811   0.176   4.138   7.750 -0.5009 -0.0417  0.3664
 1450SOL    HW115812   0.112   4.068   7.761 -0.4795 -0.1527 -0.2348
 1450SOL    HW215813   0.216   4.106   7.669  1.9989  2.3120  0.6636
 1451SOL     OW15814   0.979   3.127   2.624 -0.5697  0.3402 -0.5462
 1451SOL    HW115815   0.917   3.189   2.587  0.0113  0.5709 -1.1462
 1451SOL    HW215816   1.039   3.188   2.667 -0.1354 -0.4269 -0.0712
 1452SOL     OW15817   2.747   1.631   5.626 -0.3572 -0.1675 -0.6722
 1452SOL    HW115818   2.723   1.715   5.665 -2.0884  0.0460 -2.1773
 1452SOL    HW215819   2.677   1.583   5.671  1.5958 -0.2268  2.3367
 1453SOL     OW15820   3.933   3.061   2.076 -0.4960 -0.3318 -0.4984
 1453SOL    HW115821   3.983   2.993   2.120  2.3883 -0.0522 -3.3938
 1453SOL    HW215822   3.956   3.138   2.128 -0.5466 -0.6533 -0.0016
 1454SOL     OW15823   2.754   1.404   1.685  0.2826  0.3109  0.4553
 1454SOL    HW115824   2.754   1.348   1.763 -0.5683 -1.6044 -0.9063
 1454SOL    HW215825   2.750   1.488   1.730 -0.7021 -0.5340  1.9500
 1455SOL     OW15826   3.734   2.758   7.441 -0.3800 -0.1515  0.3025
 1455SOL    HW115827   3.800   2.802   7.387 -0.4843 -1.1476 -0.6379
 1455SOL    HW215828   3.709   2.829   7.500  2.2348  1.0512 -0.0387
 1456SOL     OW15829   1.429   1.980  12.509  0.3222  0.0376  0.0768
 1456SOL    HW115830   1.498   1.918  12.533  0.8436  0.1322 -1.1645
 1456SOL    HW215831   1.486   2.036  12.456 -2.1900  0.5947 -2.0508
 1457SOL     OW15832   1.620   3.652   4.595 -0.2382  0.3394  0.0010
 1457SOL    HW115833   1.680   3.577   4.598 -0.6270 -0.0082 -0.7428
 1457SOL    HW215834   1.651   3.704   4.669 -1.4802 -2.6459  2.5950
 1458SOL     OW15835   3.720   4.015   1.270  0.0483 -0.1187  0.5576
 1458SOL    HW115836   3.652   4.064   1.223 -1.0320 -0.3879  1.8730
 1458SOL    HW215837   3.696   4.042   1.358  2.1380 -1.1369  1.4445
 1459SOL     OW15838   2.709   4.370   3.589  0.4338 -0.3354  0.3481
 1459SOL    HW115839   2.713   4.274   3.586  0.7611 -0.3338  0.7282
 1459SOL    HW215840   2.646   4.389   3.520  0.0461  2.0053  1.3607
 1460SOL     OW15841   1.191   0.131  11.925  0.2732  0.0595 -0.2882
 1460SOL    HW115842   1.150   0.201  11.976 -0.3524 -0.1283 -0.5352
 1460SOL    HW215843   1.151   0.149  11.840 -0.6282 -1.8578 -0.2797
 1461SOL     OW15844   3.348   2.213  15.478 -0.2118 -0.3343 -0.0001
 1461SOL    HW115845   3.332   2.127  15.516 -0.3421  0.4566  1.7202
 1461SOL    HW215846   3.336   2.268  15.556 -0.3072 -0.5808  0.1567
 1462SOL     OW15847   1.304   1.046   8.364 -0.2769  0.2444 -0.0988
 1462SOL    HW115848   1.236   1.056   8.431 -1.2180 -3.1807 -0.5469
 1462SOL    HW215849   1.293   0.963   8.318  1.0839  0.3532 -0.6260
 1463SOL     OW15850   2.070   0.817   5.156  0.0468  0.2949 -0.1647
 1463SOL    HW115851   2.162   0.807   5.181  0.0115  3.4327  1.2682
 1463SOL    HW215852   2.083   0.771   5.073 -4.4853  0.9439 -1.1971
 1464SOL     OW15853   4.580   2.126  10.648  0.1042 -0.1860  0.0697
 1464SOL    HW115854   4.654   2.078  10.612  1.7259  3.5441 -1.6710
 1464SOL    HW215855   4.509   2.097  10.591  1.0138  0.2542 -1.2940
 1465SOL     OW15856   0.636   4.163  13.782  0.2952  0.7221 -0.2971
 1465SOL    HW115857   0.541   4.167  13.780  0.1940 -1.6398 -0.9752
 1465SOL    HW215858   0.655   4.085  13.835 -2.6876 -0.4194 -0.8920
 1466SOL     OW15859   0.435   0.221   2.991  0.5437  0.2429  0.2380
 1466SOL    HW115860   0.527   0.246   2.995  1.1707 -1.8226 -1.6534
 1466SOL    HW215861   0.446   0.137   3.036 -1.1174  0.3837  0.9106
 1467SOL     OW15862   2.851   2.424   5.732 -0.1045  0.4292 -0.3368
 1467SOL    HW115863   2.885   2.456   5.649  2.2935  1.5471  1.0556
 1467SOL    HW215864   2.866   2.499   5.790 -1.8931  0.4232  0.1327
 1468SOL     OW15865   0.738   4.578   4.317 -0.0633  0.3260 -0.5656
 1468SOL    HW115866   0.727   4.658   4.266  0.5764 -0.5282 -2.0364
 1468SOL    HW215867   0.646   4.553   4.313  0.8238 -3.1930  0.7517
 1469SOL     OW15868   1.331   3.358   6.811  0.1002 -0.0167 -0.0831
 1469SOL    HW115869   1.405   3.417   6.800  1.9219 -2.4047 -0.5877
 1469SOL    HW215870   1.307   3.342   6.719 -3.9144 -0.2303  1.0012
 1470SOL     OW15871   4.262   3.089  14.869  0.2899  0.3126 -0.0540
 1470SOL    HW115872   4.253   3.005  14.824 -1.9128 -0.2077  1.3382
 1470SOL    HW215873   4.277   3.142  14.790  0.3515 -0.5863 -0.6433
 1471SOL     OW15874   0.717   1.516   6.737 -0.3946 -0.1222 -0.5390
 1471SOL    HW115875   0.780   1.448   6.715 -0.4998  0.3439 -2.2638
 1471SOL    HW215876   0.636   1.471   6.759  0.1803 -0.5099  0.7737
 1472SOL     OW15877   3.553   3.531   6.969 -0.6655  0.2305  0.6498
 1472SOL    HW115878   3.600   3.459   6.926  0.2843  1.3192 -0.1031
 1472SOL    HW215879   3.463   3.512   6.940 -0.4816 -0.0767  0.2793
 1473SOL     OW15880   0.527   0.299   6.527  0.7002 -0.0485  0.3131
 1473SOL    HW115881   0.467   0.354   6.578  0.6841 -0.0725  0.3201
 1473SOL    HW215882   0.608   0.315   6.575  0.7879  0.2587  0.0654
 1474SOL     OW15883   4.689   1.294  16.750 -0.1435  0.0008 -0.8153
 1474SOL    HW115884   4.661   1.306  16.840  0.5180  1.4132 -0.8049
 1474SOL    HW215885   4.623   1.234  16.714  1.5936 -1.4696 -1.5640
 1475SOL     OW15886   4.619   0.503  10.927 -0.3965  0.2185  0.3366
 1475SOL    HW115887   4.577   0.441  10.867 -0.3194  0.9305 -0.4570
 1475SOL    HW215888   4.546   0.564  10.932  0.5303  1.4613 -1.0945
 1476SOL     OW15889   2.582   3.798   5.906  0.6465  0.0052  0.1323
 1476SOL    HW115890   2.518   3.777   5.838 -0.9112 -1.7006  2.1292
 1476SOL    HW215891   2.621   3.880   5.875 -1.6436  0.9943 -0.1674
 1477SOL     OW15892   4.212   0.146   5.192 -0.8534 -0.0035  0.1809
 1477SOL    HW115893   4.156   0.072   5.216  0.2519 -0.5931  0.9259
 1477SOL    HW215894   4.208   0.199   5.272 -2.2522  0.8451 -0.4560
 1478SOL     OW15895   4.291   1.516   5.020 -0.7698  0.4545  0.7804
 1478SOL    HW115896   4.368   1.500   5.076 -0.9274  0.0574  0.8868
 1478SOL    HW215897   4.316   1.602   4.987  0.1047  0.7741  2.2342
 1479SOL     OW15898   0.577   4.473   4.697  0.2836 -0.3725 -0.3398
 1479SOL    HW115899   0.537   4.542   4.645 -1.6976 -0.6143  0.8550
 1479SOL    HW215900   0.506   4.447   4.756 -0.4865  1.1396 -0.6065
 1480SOL     OW15901   1.656   1.965  10.915  0.2080  0.3465  0.1951
 1480SOL    HW115902   1.663   2.060  10.926 -1.0204  0.5338 -0.5928
 1480SOL    HW215903   1.565   1.950  10.943  0.3014 -0.5174  0.0214
 1481SOL     OW15904   4.184   4.085   4.574 -0.3522  0.4241  0.0521
 1481SOL    HW115905   4.162   4.097   4.482  1.1372  0.2118 -0.3363
 1481SOL    HW215906   4.259   4.025   4.570  0.2949  1.2117  0.3879
 1482SOL     OW15907   0.684   2.484   8.501  0.5102 -0.4732  0.0687
 1482SOL    HW115908   0.752   2.420   8.477 -0.5908 -1.7470  0.3199
 1482SOL    HW215909   0.666   2.464   8.593  0.7577 -3.0123 -0.4126
 1483SOL     OW15910   2.337   3.043  10.913 -0.3395  0.4977  0.2202
 1483SOL    HW115911   2.330   3.117  10.852  0.5672 -1.2784 -2.0165
 1483SOL    HW215912   2.308   3.081  10.996 -3.0283  1.7771 -1.3071
 1484SOL     OW15913   3.254   2.844  12.832 -0.1866  0.4532  0.7089
 1484SOL    HW115914   3.262   2.830  12.737  0.3263  1.3980  0.6116
 1484SOL    HW215915   3.348   2.848  12.849  0.3468 -1.9417 -1.5943
 1485SOL     OW15916   1.534   4.061   8.803 -0.0397 -0.0469  0.8045
 1485SOL    HW115917   1.570   4.072   8.715 -0.3742 -0.7624  0.5759
 1485SOL    HW215918   1.442   4.087   8.794  0.6204  2.4175  1.0530
 1486SOL     OW15919   0.675   4.156   8.837  0.7825  0.4464 -1.2274
 1486SOL    HW115920   0.720   4.197   8.763  3.0459 -1.3870 -0.8614
 1486SOL    HW215921   0.732   4.087   8.869  0.7770 -0.1219 -2.4574
 1487SOL     OW15922   3.798   1.398   4.893 -0.1624 -0.0191  0.1165
 1487SOL    HW115923   3.884   1.438   4.883  0.0003 -0.3106  0.3646
 1487SOL    HW215924   3.810   1.359   4.979 -1.1991 -0.1043  0.2267
 1488SOL     OW15925   1.528   4.707   7.375  1.0147 -0.3448  0.2862
 1488SOL    HW115926   1.548   4.683   7.465  1.3561  0.4228  0.4121
 1488SOL    HW215927   1.433   4.717   7.381  1.1401  2.8583 -3.1149
 1489SOL     OW15928   1.964   1.186   6.196  0.1951  0.8513 -0.4627
 1489SOL    HW115929   2.051   1.225   6.202  1.5102 -2.0769 -0.2477
 1489SOL    HW215930   1.949   1.143   6.280  1.9223 -0.6517 -0.9417
 1490SOL     OW15931   3.596   2.422   1.573  0.4206  0.2347 -0.4215
 1490SOL    HW115932   3.677   2.395   1.615 -2.2346 -2.2357  3.0159
 1490SOL    HW215933   3.594   2.517   1.584  0.6883  0.4262 -1.9937
 1491SOL     OW15934   3.629   2.784   2.573 -0.0883  0.4236 -0.2441
 1491SOL    HW115935   3.550   2.750   2.615  1.0235  0.8512  2.1800
 1491SOL    HW215936   3.673   2.807   2.654 -1.3946  1.8220  0.0621
 1492SOL     OW15937   3.558   2.981  17.305  0.1674  0.4739  0.2183
 1492SOL    HW115938   3.634   2.951  17.354  0.1033  0.0510  0.0559
 1492SOL    HW215939   3.499   2.906  17.295  0.5658 -0.1361  2.6817
 1493SOL     OW15940   1.741   2.442   6.766  0.0966 -0.2257  0.0403
 1493SOL    HW115941   1.682   2.387   6.715 -1.9976  1.5347  0.5399
 1493SOL    HW215942   1.705   2.426   6.853  2.5101 -2.7723  0.5686
 1494SOL     OW15943   2.533   4.007  16.499  0.0813  0.6462  0.2991
 1494SOL    HW115944   2.543   4.087  16.551 -2.1545  1.1882 -0.1105
 1494SOL    HW215945   2.557   3.942  16.566  1.2320  1.7404  0.9504
 1495SOL     OW15946   2.834   4.225   8.587 -0.4767 -0.8364 -0.6352
 1495SOL    HW115947   2.886   4.146   8.594 -0.9314 -1.1112 -0.3479
 1495SOL    HW215948   2.887   4.286   8.536 -1.2949  1.5253  1.3630
 1496SOL     OW15949   0.644   3.018   9.066 -0.1312  0.3414  0.0532
 1496SOL    HW115950   0.569   2.959   9.069  1.3028 -1.5441 -1.0950
 1496SOL    HW215951   0.630   3.093   9.124 -1.8494  0.1460 -0.1302
 1497SOL     OW15952   4.114   2.495   6.160 -0.3064  0.1967 -0.4094
 1497SOL    HW115953   4.124   2.586   6.131  2.6826 -0.5312 -1.6110
 1497SOL    HW215954   4.057   2.459   6.091  0.6941  0.4036 -1.3497
 1498SOL     OW15955   0.797   0.012   3.725 -0.0051 -0.0968 -0.0613
 1498SOL    HW115956   0.735   0.043   3.791  0.0673  1.1836 -0.6007
 1498SOL    HW215957   0.744   0.025   3.647  1.6410 -0.7559 -1.2829
 1499SOL     OW15958   3.223   2.024   7.905  0.2849  0.3628  0.0713
 1499SOL    HW115959   3.289   1.969   7.863  0.5354  0.9437 -0.3050
 1499SOL    HW215960   3.271   2.061   7.979  1.4346 -1.4378  0.2063
 1500SOL     OW15961   2.766   3.178  15.556 -0.2428  1.3188 -0.3756
 1500SOL    HW115962   2.683   3.183  15.604 -0.5560 -3.1438 -0.4153
 1500SOL    HW215963   2.813   3.242  15.609  2.7536 -1.7512  0.6573
 1501SOL     OW15964   2.681   4.598   0.372 -0.0644  0.5042  0.0858
 1501SOL    HW115965   2.757   4.619   0.426  0.1120  2.1689 -0.7934
 1501SOL    HW215966   2.629   4.531   0.417 -0.7416  0.7906 -0.2576
 1502SOL     OW15967   2.542   0.486   2.171  0.8499 -0.1999  0.4924
 1502SOL    HW115968   2.583   0.423   2.112 -0.5543 -0.2972 -0.3667
 1502SOL    HW215969   2.468   0.518   2.120 -0.1527 -1.2843  1.2763
 1503SOL     OW15970   0.944   3.987   1.394 -0.3219 -0.3475 -0.2192
 1503SOL    HW115971   0.878   3.917   1.402  0.6886 -1.1819  0.8427
 1503SOL    HW215972   0.888   4.062   1.375 -0.0938 -0.0934  0.1203
 1504SOL     OW15973   2.675   4.677   8.658  0.0549  0.2208 -0.0289
 1504SOL    HW115974   2.636   4.650   8.575  1.5787  1.7013 -1.2167
 1504SOL    HW215975   2.654   4.596   8.705 -0.3652  1.4719  1.9549
 1505SOL     OW15976   3.443   2.143   7.050  0.2798 -0.0849  0.3572
 1505SOL    HW115977   3.373   2.183   7.103  0.2415 -1.1538  1.1111
 1505SOL    HW215978   3.389   2.073   7.014 -0.7083  1.3097 -0.8664
 1506SOL     OW15979   2.557   0.701   3.169 -0.2280 -0.2181  0.0289
 1506SOL    HW115980   2.588   0.706   3.079  0.4693 -0.1939  0.2715
 1506SOL    HW215981   2.487   0.636   3.174 -0.9914  0.6723  1.1759
 1507SOL     OW15982   2.123   0.830   5.971 -0.0431 -0.2601  0.0879
 1507SOL    HW115983   2.107   0.850   5.879  1.9136 -0.0593 -0.2202
 1507SOL    HW215984   2.201   0.885   5.983 -1.7541  2.1074  0.2347
 1508SOL     OW15985   3.284   1.804  10.851  0.0190  0.0402  0.0990
 1508SOL    HW115986   3.292   1.711  10.830  0.3518 -0.1939  1.2614
 1508SOL    HW215987   3.294   1.839  10.763 -1.2677 -0.3735 -0.2094
 1509SOL     OW15988   4.639   2.812   3.313 -0.0204 -0.4706 -0.3237
 1509SOL    HW115989   4.544   2.821   3.307 -0.0813 -0.0261  1.1558
 1509SOL    HW215990   4.654   2.825   3.220 -0.3609  0.7510 -0.2150
 1510SOL     OW15991   2.509   2.669   7.405 -0.5348 -0.2576 -0.3222
 1510SOL    HW115992   2.548   2.751   7.376 -0.4328 -0.1633  0.0823
 1510SOL    HW215993   2.454   2.656   7.327 -0.4261 -1.9768 -0.1294
 1511SOL     OW15994   0.071   0.673   5.115  0.0801 -0.2826  0.7714
 1511SOL    HW115995   4.712   0.707   5.146  1.2209  1.4757  1.9821
 1511SOL    HW215996   0.079   0.718   5.031  0.8213 -1.7855  0.0531
 1512SOL     OW15997   0.528   1.896   6.979  0.3684 -0.1803  0.4060
 1512SOL    HW115998   0.533   1.991   6.988 -0.3063 -0.0085 -1.1556
 1512SOL    HW215999   0.612   1.853   6.963  0.1802  0.6483 -2.7182
 1513SOL     OW16000   1.215   1.782   4.645  0.3029  0.2219  0.4749
 1513SOL    HW116001   1.259   1.795   4.561  0.5444 -1.4213  0.3443
 1513SOL    HW216002   1.151   1.715   4.619  1.5766 -1.6537  2.1401
 1514SOL     OW16003   0.048   0.619   3.413 -0.4988 -0.1680 -0.0352
 1514SOL    HW116004   0.074   0.696   3.362  0.8194 -0.5137  0.1275
 1514SOL    HW216005   4.678   0.628   3.414 -0.4564  0.3712 -0.9165
 1515SOL     OW16006   2.222   0.274   2.526 -0.1811 -0.0748  0.5479
 1515SOL    HW116007   2.303   0.308   2.488 -0.7554  0.8622  0.1636
 1515SOL    HW216008   2.183   0.349   2.571  1.4771  0.0552  1.8055
 1516SOL     OW16009   0.845   0.710  16.944 -0.0620 -0.4715  0.7368
 1516SOL    HW116010   0.812   0.766  16.874  0.9695  0.0514  0.6622
 1516SOL    HW216011   0.807   0.624  16.928 -1.0091 -0.3199  2.1914
 1517SOL     OW16012   0.314   2.528  17.410 -0.3829 -0.4942 -0.5571
 1517SOL    HW116013   0.270   2.537  17.494 -1.0504  1.8542 -1.1608
 1517SOL    HW216014   0.270   2.600  17.364  0.8185  0.3109 -0.4362
 1518SOL     OW16015   3.915   2.302   0.124  0.6915 -0.1393 -0.2417
 1518SOL    HW116016   3.907   2.213   0.158  0.0539 -0.0001 -0.0315
 1518SOL    HW216017   3.823   2.328   0.129 -0.1262 -3.2686  0.5565
 1519SOL     OW16018   4.547   3.367   7.502  0.1921 -0.2516  0.4037
 1519SOL    HW116019   4.589   3.320   7.430 -1.3166 -1.6587  0.4303
 1519SOL    HW216020   4.572   3.307   7.572  0.9934  0.0276  0.3566
 1520SOL     OW16021   4.608   3.452   2.986 -0.1972 -0.2606  0.1271
 1520SOL    HW116022   4.515   3.467   3.000 -0.3069 -0.3892 -0.4746
 1520SOL    HW216023   4.633   3.533   2.941 -0.9277 -0.2051 -0.1750
 1521SOL     OW16024   0.160   2.553   1.970  0.1402  0.1109 -0.2265
 1521SOL    HW116025   0.162   2.493   2.044 -1.3004  0.0160 -0.2570
 1521SOL    HW216026   0.244   2.596   1.984  0.8149 -1.1900 -0.2688
 1522SOL     OW16027   2.293   1.250  17.682  0.5021  0.4030 -0.0615
 1522SOL    HW116028   2.290   1.296  17.598  1.4631  1.3771  0.4377
 1522SOL    HW216029   2.328   1.164  17.658 -0.1790  0.2519 -0.5040
 1523SOL     OW16030   3.587   4.348   8.311  0.0565  0.4560 -0.1374
 1523SOL    HW116031   3.557   4.433   8.277  0.7994  0.0830 -1.7611
 1523SOL    HW216032   3.579   4.315   8.221 -1.5444  1.2883 -0.3092
 1524SOL     OW16033   2.153   4.202   8.165  0.5703 -0.3293  0.2657
 1524SOL    HW116034   2.084   4.135   8.162  1.7737 -1.5956  0.7778
 1524SOL    HW216035   2.206   4.160   8.234 -1.8224 -1.2945  1.5084
 1525SOL     OW16036   2.532   0.756  12.500  0.1287 -0.0602 -0.4117
 1525SOL    HW116037   2.550   0.832  12.555  1.6668  0.4635 -1.6406
 1525SOL    HW216038   2.618   0.716  12.512 -0.6278 -2.1974 -2.1546
 1526SOL     OW16039   1.037   3.149   9.152  0.3459  0.5178  0.3231
 1526SOL    HW116040   1.069   3.119   9.237  1.2498  0.5720  0.0093
 1526SOL    HW216041   1.063   3.071   9.102 -0.1666  1.2900 -1.1361
 1527SOL     OW16042   0.539   4.312   6.145 -0.3752  0.1732 -0.1102
 1527SOL    HW116043   0.460   4.299   6.091  0.4212  2.2276 -1.7817
 1527SOL    HW216044   0.561   4.386   6.088 -0.3673 -0.9221 -1.5420
 1528SOL     OW16045   2.398   2.898  14.771  0.0490  0.1340  0.2013
 1528SOL    HW116046   2.467   2.956  14.805 -1.2270  1.8397 -0.1460
 1528SOL    HW216047   2.452   2.831  14.729  0.1045  0.0585  0.3896
 1529SOL     OW16048   1.510   2.488   3.378 -0.2791  0.0457 -0.5361
 1529SOL    HW116049   1.571   2.529   3.317  2.1055 -1.2505  1.0102
 1529SOL    HW216050   1.573   2.422   3.407  0.7632  0.9229 -0.7977
 1530SOL     OW16051   0.696   1.584   9.808  0.5309  0.5473 -0.0789
 1530SOL    HW116052   0.788   1.609   9.813  1.4050 -2.5671 -0.7243
 1530SOL    HW216053   0.657   1.655   9.756 -2.6359 -2.0187 -1.2497
 1531SOL     OW16054   4.492   2.848   8.495  0.1641 -0.3012  0.0662
 1531SOL    HW116055   4.464   2.788   8.426 -1.6912  0.9546 -0.2713
 1531SOL    HW216056   4.405   2.877   8.524  0.9659  2.2640 -0.1318
 1532SOL     OW16057   2.552   0.171   7.185  0.3716  0.2507 -0.2429
 1532SOL    HW116058   2.565   0.265   7.172  1.9131 -0.2523 -2.2664
 1532SOL    HW216059   2.626   0.132   7.138 -0.3105  1.0695 -1.9837
 1533SOL     OW16060   1.057   4.090   9.373 -0.1730 -0.2579  0.0306
 1533SOL    HW116061   1.010   4.013   9.405  0.1233 -0.5972 -0.3327
 1533SOL    HW216062   1.101   4.108   9.455  1.7916 -0.1092 -1.0636
 1534SOL     OW16063   1.087   2.319   4.965 -0.4723  0.2126  0.5783
 1534SOL    HW116064   1.032   2.241   4.976  1.6827 -1.4160 -0.0961
 1534SOL    HW216065   1.172   2.285   4.937 -0.3307 -0.5097  1.9039
 1535SOL     OW16066   2.963   0.452   3.526 -0.0632  0.1735 -0.1413
 1535SOL    HW116067   2.986   0.505   3.449  1.2754  1.0068  0.8399
 1535SOL    HW216068   2.871   0.474   3.540  0.3269  0.5721  1.6689
 1536SOL     OW16069   4.481   0.498   4.069 -0.1379 -0.4320 -0.2437
 1536SOL    HW116070   4.552   0.549   4.031  0.3591 -1.2375 -0.3753
 1536SOL    HW216071   4.435   0.576   4.102  0.9539  0.1414 -0.0713
 1537SOL     OW16072   0.224   2.080   2.511  0.0898 -0.2221 -0.0960
 1537SOL    HW116073   0.200   1.991   2.537 -0.8143  0.5853  1.8203
 1537SOL    HW216074   0.318   2.085   2.527 -0.1250 -2.2607  1.7682
 1538SOL     OW16075   4.475   2.416   8.524 -0.1463  0.3342 -0.3742
 1538SOL    HW116076   4.494   2.324   8.504  1.9834  0.6076  0.3904
 1538SOL    HW216077   4.564   2.451   8.516 -0.1755  0.3110 -0.8049
 1539SOL     OW16078   0.635   3.291   2.220  0.5521 -1.3010  0.2348
 1539SOL    HW116079   0.693   3.224   2.184  1.8668 -0.7286  1.2976
 1539SOL    HW216080   0.596   3.244   2.294  0.5355  1.3963  1.9487
 1540SOL     OW16081   4.160   3.528   2.161  0.2504 -0.2970  0.4366
 1540SOL    HW116082   4.245   3.518   2.119  0.6324 -0.6491  1.2828
 1540SOL    HW216083   4.155   3.624   2.154  2.0781 -0.3115 -0.8035
 1541SOL     OW16084   2.698   0.298   6.041  0.0172  0.5577  0.1413
 1541SOL    HW116085   2.708   0.392   6.055  1.7189  0.4121 -0.1540
 1541SOL    HW216086   2.681   0.257   6.126 -1.6367 -0.6712 -0.7863
 1542SOL     OW16087   1.118   1.188   7.632  0.5869  0.1127  0.1182
 1542SOL    HW116088   1.049   1.130   7.601 -0.1740  0.9971  0.1682
 1542SOL    HW216089   1.125   1.240   7.552  0.4553 -2.6045 -1.6352
 1543SOL     OW16090   4.048   3.330   2.622 -0.3378  0.2085  0.0894
 1543SOL    HW116091   3.969   3.381   2.638  0.6856  2.3500 -1.7035
 1543SOL    HW216092   4.115   3.397   2.633 -1.6353  1.7938 -1.5379
 1544SOL     OW16093   4.202   0.101   8.634 -0.4097  0.4323  0.3352
 1544SOL    HW116094   4.155   0.184   8.642 -0.9538  0.1285  0.3034
 1544SOL    HW216095   4.292   0.133   8.630  0.6595 -2.4471  1.1404
 1545SOL     OW16096   3.164   4.092   3.159 -0.0866 -0.1071  0.0929
 1545SOL    HW116097   3.124   4.034   3.094  0.1151  1.9513 -1.8422
 1545SOL    HW216098   3.250   4.050   3.160 -0.9618 -1.8888  1.3712
 1546SOL     OW16099   3.317   1.646   7.706 -0.2341  0.3235  0.4897
 1546SOL    HW116100   3.355   1.606   7.784 -2.1533 -1.1557  0.6651
 1546SOL    HW216101   3.396   1.657   7.652 -1.2500 -0.3643 -1.1615
 1547SOL     OW16102   4.156   1.812   5.205  0.5818 -0.0966  0.1627
 1547SOL    HW116103   4.220   1.775   5.267  0.3870 -0.2455  0.2756
 1547SOL    HW216104   4.082   1.754   5.224  0.5810  0.7163  2.6611
 1548SOL     OW16105   4.071   1.835  15.440  0.8541 -0.2861  0.1624
 1548SOL    HW116106   4.009   1.873  15.503 -0.3690 -1.7608 -0.1384
 1548SOL    HW216107   4.076   1.742  15.464  3.2925 -0.8176 -2.3823
 1549SOL     OW16108   4.351   4.704   1.810 -0.1320  0.0765 -0.0150
 1549SOL    HW116109   4.313   4.629   1.856  1.2333  0.8111  2.3286
 1549SOL    HW216110   4.316   0.056   1.854 -0.0672  0.7304 -1.1260
 1550SOL     OW16111   3.831   1.932  12.387 -0.0289  0.1019  0.3635
 1550SOL    HW116112   3.775   1.895  12.318 -0.6945  0.2055  0.8506
 1550SOL    HW216113   3.837   1.858  12.447 -0.0550 -0.0665  0.1589
 1551SOL     OW16114   2.472   3.362   0.399  0.0684 -0.1803  0.8454
 1551SOL    HW116115   2.424   3.439   0.427 -0.4117 -0.3284  0.4298
 1551SOL    HW216116   2.564   3.378   0.421 -0.3654  1.7013  1.2363
 1552SOL     OW16117   0.416   2.035   9.332 -0.2558  0.4494  0.1959
 1552SOL    HW116118   0.416   1.983   9.252 -0.2475  1.2656 -0.3340
 1552SOL    HW216119   0.357   1.989   9.391  2.1606 -1.0860  1.4533
 1553SOL     OW16120   1.707   0.238   1.746  0.2003  0.3852  0.3988
 1553SOL    HW116121   1.755   0.248   1.829 -0.8467 -1.4654  1.2344
 1553SOL    HW216122   1.638   0.298   1.775  0.2781  0.6600  0.0141
 1554SOL     OW16123   4.593   0.862   3.598 -0.2805  0.0904  0.8488
 1554SOL    HW116124   4.508   0.880   3.639 -0.3973  2.3221 -0.3762
 1554SOL    HW216125   4.568   0.792   3.538 -1.4441  3.4860 -2.6091
 1555SOL     OW16126   0.655   4.059   5.299 -0.1460  0.3481  0.5165
 1555SOL    HW116127   0.721   4.101   5.355 -0.4490  0.7152  0.5933
 1555SOL    HW216128   0.631   3.996   5.367  0.4822 -0.0563  0.3616
 1556SOL     OW16129   3.773   0.892   7.180  0.6461  0.7760 -0.6954
 1556SOL    HW116130   3.719   0.904   7.102 -0.7017 -1.6493 -0.1244
 1556SOL    HW216131   3.856   0.867   7.141  0.1737 -1.1438 -0.4750
 1557SOL     OW16132   4.359   0.122   6.631  0.1211  0.5066  0.1693
 1557SOL    HW116133   4.319   0.136   6.717 -0.0834 -0.5555  0.2501
 1557SOL    HW216134   4.313   0.042   6.604 -0.4664  0.8053  0.2911
 1558SOL     OW16135   4.614   0.341   4.679 -0.0468  0.3993 -0.0260
 1558SOL    HW116136   4.588   0.263   4.728 -1.6786 -0.0116 -1.5285
 1558SOL    HW216137   4.531   0.387   4.667 -0.6804 -0.5268  0.7596
 1559SOL     OW16138   3.043   3.536   5.876  0.0397 -0.1596  0.8679
 1559SOL    HW116139   2.966   3.502   5.829  0.1664  3.2683 -1.8089
 1559SOL    HW216140   3.078   3.459   5.920  1.5126  0.1023  0.1464
 1560SOL     OW16141   0.228   1.935   4.312  0.3735 -0.2807  0.1418
 1560SOL    HW116142   0.256   1.843   4.310 -0.7275 -0.6369  0.9347
 1560SOL    HW216143   0.202   1.949   4.403  2.3730  1.9649  0.3456
 1561SOL     OW16144   4.398   4.515   9.544 -0.0315 -1.0732 -0.0787
 1561SOL    HW116145   4.464   4.564   9.496  0.7258 -1.7394  0.2882
 1561SOL    HW216146   4.388   4.431   9.498 -2.9121 -0.8970  0.1727
 1562SOL     OW16147   2.131   0.268  14.723 -0.3270 -0.0110  0.4941
 1562SOL    HW116148   2.060   0.312  14.769  0.5254  2.4778 -0.5708
 1562SOL    HW216149   2.076   0.240  14.650  0.6885 -1.2123  0.1890
 1563SOL     OW16150   2.403   0.223   8.639  0.3605  0.0701 -0.1670
 1563SOL    HW116151   2.371   0.219   8.548  0.7755  0.5387 -0.3296
 1563SOL    HW216152   2.383   0.313   8.663 -1.0228 -0.2167 -0.2095
 1564SOL     OW16153   3.990   2.109   0.688  0.6462 -0.5286 -0.7852
 1564SOL    HW116154   3.981   2.097   0.593  0.9876  1.2774 -1.0639
 1564SOL    HW216155   4.085   2.112   0.699  0.5155 -0.2097  0.2527
 1565SOL     OW16156   2.236   3.055   9.569  0.1690  0.1475  0.4023
 1565SOL    HW116157   2.232   3.077   9.662  1.1432 -1.9973  0.9597
 1565SOL    HW216158   2.144   3.073   9.551  0.1719 -0.2356  0.0085
 1566SOL     OW16159   3.702   2.399  12.194  0.0833  0.1579 -0.3637
 1566SOL    HW116160   3.706   2.352  12.277 -3.0150  2.1849  0.9242
 1566SOL    HW216161   3.625   2.455  12.207  1.9557  2.5291  0.5050
 1567SOL     OW16162   4.585   3.544   6.898 -1.0088  0.9018 -0.3955
 1567SOL    HW116163   4.567   3.517   6.808  1.4306  0.6396 -0.7962
 1567SOL    HW216164   4.676   3.565   6.879 -0.5482 -0.0322  0.7358
 1568SOL     OW16165   2.669   1.697   4.989 -0.8381  0.1995 -0.0840
 1568SOL    HW116166   2.704   1.698   5.078  1.1418  3.2937 -0.8734
 1568SOL    HW216167   2.701   1.610   4.969 -0.7299  0.6630 -1.9555
 1569SOL     OW16168   2.329   3.854   1.087 -0.3027 -0.0378  0.5269
 1569SOL    HW116169   2.407   3.839   1.034  1.0742  2.1032  1.9045
 1569SOL    HW216170   2.356   3.919   1.152  0.8226 -0.8695  0.8975
 1570SOL     OW16171   3.631   4.192   4.583 -0.6989  0.0358  0.2914
 1570SOL    HW116172   3.657   4.256   4.517 -0.4420  0.1717  0.5245
 1570SOL    HW216173   3.719   4.177   4.617 -0.1635  1.0886 -0.6110
 1571SOL     OW16174   3.654   3.408   4.953  0.4922 -0.1287  0.3922
 1571SOL    HW116175   3.734   3.397   4.900  0.2063 -0.1843 -0.0311
 1571SOL    HW216176   3.579   3.393   4.895  0.1609 -0.0053  0.7936
 1572SOL     OW16177   3.755   2.228   6.548 -0.0484  0.4953 -0.0063
 1572SOL    HW116178   3.801   2.307   6.522 -0.7705  1.4668  1.6093
 1572SOL    HW216179   3.690   2.268   6.606 -1.5829 -0.7148 -0.8972
 1573SOL     OW16180   3.558   0.203   6.761  0.1524  0.3427 -0.6351
 1573SOL    HW116181   3.544   0.249   6.678  1.1236  3.0498  0.7396
 1573SOL    HW216182   3.520   0.119   6.733 -0.4180  0.1818  0.6096
 1574SOL     OW16183   0.374   2.461   5.365  0.7375 -0.0460  0.1202
 1574SOL    HW116184   0.436   2.513   5.312  2.0211  0.6553  2.3162
 1574SOL    HW216185   0.373   2.508   5.448 -1.3715 -0.5000  0.3377
 1575SOL     OW16186   3.632   0.099   1.771 -0.2137  0.6136  0.0462
 1575SOL    HW116187   3.550   0.076   1.813 -0.5650  1.4829 -0.1499
 1575SOL    HW216188   3.613   0.077   1.680 -1.8314 -1.4802  0.9075
 1576SOL     OW16189   4.036   4.685   5.264  0.0071  0.5974 -0.3471
 1576SOL    HW116190   4.055   4.659   5.354  2.5154 -1.6802 -1.5425
 1576SOL    HW216191   3.990   4.610   5.227  1.3495 -0.8889  0.9712
 1577SOL     OW16192   2.201   1.148   7.629  0.3848 -0.1521 -0.6178
 1577SOL    HW116193   2.226   1.067   7.586  2.3107  0.4402 -0.5760
 1577SOL    HW216194   2.174   1.197   7.551  0.4716  0.0489 -0.5231
 1578SOL     OW16195   4.534   2.950  16.139  0.0406  0.0573  0.1020
 1578SOL    HW116196   4.571   2.862  16.130  0.3072  0.0548  1.2989
 1578SOL    HW216197   4.611   2.995  16.174  0.4603  0.2266 -1.0406
 1579SOL     OW16198   1.442   2.441   4.578  0.2656  0.6779 -0.6045
 1579SOL    HW116199   1.352   2.463   4.603  0.8090  0.8170  1.2289
 1579SOL    HW216200   1.423   2.394   4.496  1.3854 -1.4438  0.3471
 1580SOL     OW16201   4.094   3.354   8.773  0.4952  0.0057 -0.2296
 1580SOL    HW116202   4.089   3.322   8.683  0.3442  0.1080 -0.2576
 1580SOL    HW216203   4.187   3.376   8.785  0.1704  1.5418 -0.4317
 1581SOL     OW16204   1.717   1.573   8.967 -0.1371 -0.5666  0.1140
 1581SOL    HW116205   1.743   1.515   9.039 -1.5618 -1.9643 -0.5063
 1581SOL    HW216206   1.733   1.511   8.897 -0.2950 -0.9642  0.4271
 1582SOL     OW16207   3.658   2.613   3.410  0.2165  0.4895 -0.1990
 1582SOL    HW116208   3.648   2.519   3.422  1.9447  0.3018 -0.2259
 1582SOL    HW216209   3.571   2.647   3.433 -0.1333 -0.3662 -0.2529
 1583SOL     OW16210   0.380   0.316   1.133  0.1283 -0.2169 -0.2617
 1583SOL    HW116211   0.414   0.228   1.116  1.2045 -0.0040  0.8124
 1583SOL    HW216212   0.434   0.379   1.086  1.1452  0.3183  1.6728
 1584SOL     OW16213   2.770   1.117   4.090  0.3560 -0.3029  0.2040
 1584SOL    HW116214   2.730   1.099   4.175  1.0665  0.2252  0.6431
 1584SOL    HW216215   2.702   1.094   4.026  0.3710  0.4094 -0.0651
 1585SOL     OW16216   4.565   4.094   7.686 -0.0848 -0.2637 -0.1766
 1585SOL    HW116217   4.634   4.053   7.739  0.6809  1.1822 -0.0538
 1585SOL    HW216218   4.499   4.092   7.755 -0.6758  0.1595 -0.7350
 1586SOL     OW16219   4.345   4.409   2.266  0.0171  0.4931  0.4546
 1586SOL    HW116220   4.418   4.455   2.307  0.5375 -0.5251  0.6644
 1586SOL    HW216221   4.323   4.340   2.329  1.8369  2.6226  3.3941
 1587SOL     OW16222   1.164   0.532   4.253  0.3449  0.1419  0.0232
 1587SOL    HW116223   1.216   0.454   4.234 -1.2895 -0.9749  0.1457
 1587SOL    HW216224   1.075   0.500   4.269  0.1091 -0.6030 -2.8247
 1588SOL     OW16225   2.544   2.547  17.117  0.3079 -0.1839 -0.0801
 1588SOL    HW116226   2.549   2.460  17.155 -0.3493  0.2718  1.0447
 1588SOL    HW216227   2.587   2.529  17.033 -0.1386  0.5785 -0.4760
 1589SOL     OW16228   4.153   4.027   6.661 -0.5423 -0.3147  0.2344
 1589SOL    HW116229   4.209   3.951   6.674  3.3341  2.3749 -0.6824
 1589SOL    HW216230   4.155   4.031   6.565 -0.2250  3.5651  0.3815
 1590SOL     OW16231   0.889   3.995   8.936 -0.1163 -0.0666  0.1012
 1590SOL    HW116232   0.892   3.911   8.890 -3.5049 -0.8554  1.2966
 1590SOL    HW216233   0.906   3.970   9.027 -3.1382 -0.8875  0.4243
 1591SOL     OW16234   2.992   2.262   6.149  0.1394  0.2937 -0.0352
 1591SOL    HW116235   3.083   2.233   6.153  0.4253  1.1683 -0.0674
 1591SOL    HW216236   3.002   2.346   6.103 -0.3277  1.1299  1.3984
 1592SOL     OW16237   1.452   0.451  13.554 -0.5616  0.2458 -0.1928
 1592SOL    HW116238   1.400   0.474  13.631  0.3158  1.0482  0.1716
 1592SOL    HW216239   1.403   0.375  13.523  0.4335 -0.6434  0.4287
 1593SOL     OW16240   1.525   3.353   1.763  0.4123  0.0534 -0.0041
 1593SOL    HW116241   1.430   3.362   1.767  0.3778 -0.1229 -0.4068
 1593SOL    HW216242   1.536   3.270   1.717  1.0291 -0.0310  0.2921
 1594SOL     OW16243   0.946   4.250   7.797  0.3872 -0.1304 -0.0210
 1594SOL    HW116244   1.010   4.279   7.731  2.5797  0.1207  2.1936
 1594SOL    HW216245   0.941   4.332   7.846  0.1026  0.2456 -0.6822
 1595SOL     OW16246   0.409   3.543  17.602  0.1412  0.1996 -0.4214
 1595SOL    HW116247   0.419   3.638  17.597  1.0627  0.0373 -1.6653
 1595SOL    HW216248   0.351   3.520  17.530 -0.5128 -0.9913  0.4741
 1596SOL     OW16249   0.759   4.681   0.673  0.4669  0.6517  0.2147
 1596SOL    HW116250   0.839   4.637   0.704 -1.0433 -1.9770  0.3903
 1596SOL    HW216251   0.746   4.638   0.588 -0.3903 -1.7492  1.5719
 1597SOL     OW16252   0.706   4.253   4.604 -0.7226 -0.0517 -0.1908
 1597SOL    HW116253   0.792   4.249   4.647 -0.5751 -0.0612 -0.4871
 1597SOL    HW216254   0.675   4.341   4.624 -3.3597 -1.2531  1.1184
 1598SOL     OW16255   3.592   4.459   7.145 -0.2078  0.2394 -0.1807
 1598SOL    HW116256   3.555   4.476   7.058 -2.5348 -2.3112  0.3206
 1598SOL    HW216257   3.533   4.511   7.201  0.6935  0.7681  0.2721
 1599SOL     OW16258   2.157   1.250   6.820  0.1899  0.6272  0.2627
 1599SOL    HW116259   2.182   1.206   6.902 -0.8404 -0.6610 -0.1007
 1599SOL    HW216260   2.212   1.328   6.828 -1.4325  1.9902 -1.8552
 1600SOL     OW16261   1.400   2.548   7.265 -0.1797  0.2732  0.5668
 1600SOL    HW116262   1.455   2.625   7.280 -0.5423  0.7039 -0.2859
 1600SOL    HW216263   1.338   2.587   7.203  2.2671  0.2192 -1.9591
 1601SOL     OW16264   1.115   3.652   3.519 -0.1355  0.2293 -0.2196
 1601SOL    HW116265   1.100   3.576   3.574 -0.5253  1.7888  1.8272
 1601SOL    HW216266   1.141   3.713   3.589 -0.9329  1.5522 -1.0712
 1602SOL     OW16267   1.178   2.842  14.193  0.3176  0.4455 -0.0956
 1602SOL    HW116268   1.098   2.790  14.200  0.8117 -0.1655  0.9206
 1602SOL    HW216269   1.185   2.847  14.098 -0.6970  0.5745 -0.1553
 1603SOL     OW16270   2.968   2.017   3.975  0.6494 -0.0864  0.1227
 1603SOL    HW116271   3.057   1.994   3.948  1.2493 -0.3794  2.3704
 1603SOL    HW216272   2.951   1.943   4.033 -0.4231 -0.7136 -1.0057
 1604SOL     OW16273   3.305   0.596   2.801  0.1677 -0.0579 -0.2443
 1604SOL    HW116274   3.322   0.560   2.714 -1.5300  0.4385 -0.7911
 1604SOL    HW216275   3.376   0.660   2.806 -0.8415  1.0290  0.3140
 1605SOL     OW16276   0.889   3.869   9.200  0.2349 -0.1712 -0.1869
 1605SOL    HW116277   0.854   3.780   9.205  0.3266 -0.1958  0.0026
 1605SOL    HW216278   0.962   3.865   9.262 -1.2330 -0.6312  1.5257
 1606SOL     OW16279   2.638   0.466   6.662 -0.2012  0.0048 -0.1104
 1606SOL    HW116280   2.599   0.546   6.625 -0.0861 -1.2336 -2.8306
 1606SOL    HW216281   2.619   0.472   6.756 -0.9189 -0.5008 -0.2252
 1607SOL     OW16282   3.845   3.159   4.083 -0.3488 -0.1473 -0.8034
 1607SOL    HW116283   3.934   3.176   4.113  0.3763 -0.6689 -2.6257
 1607SOL    HW216284   3.808   3.243   4.112  0.6557 -0.0325  0.1252
 1608SOL     OW16285   0.954   3.239   3.410  0.1995  0.2660 -0.1649
 1608SOL    HW116286   0.976   3.204   3.324  0.9941  1.9878 -0.6574
 1608SOL    HW216287   1.034   3.216   3.457 -0.8058  0.9155  1.8589
 1609SOL     OW16288   1.101   4.606   1.526  0.3285 -0.2268 -0.0816
 1609SOL    HW116289   1.195   4.595   1.512  0.1971  0.5787 -1.5253
 1609SOL    HW216290   1.072   4.676   1.468  0.3024 -0.7647 -0.7108
 1610SOL     OW16291   4.605   0.480   1.619  0.7742 -0.5741 -0.1422
 1610SOL    HW116292   4.612   0.433   1.536 -0.1895  0.8462 -1.0182
 1610SOL    HW216293   4.510   0.466   1.628  0.0407  2.8035 -2.8182
 1611SOL     OW16294   3.315   0.212   4.369  0.1501 -0.0960  0.1227
 1611SOL    HW116295   3.310   0.305   4.344  3.6000  0.0070 -0.2711
 1611SOL    HW216296   3.315   0.179   4.279  1.5258 -0.2108  0.1604
 1612SOL     OW16297   2.837   4.126  11.362 -0.3696  0.3933  0.4518
 1612SOL    HW116298   2.867   4.186  11.430  0.0430  0.8481 -0.1302
 1612SOL    HW216299   2.914   4.071  11.372 -0.7684  0.1244  2.0407
 1613SOL     OW16300   1.324   3.161   9.557  0.2841 -0.2845  0.1804
 1613SOL    HW116301   1.361   3.128   9.639  0.7934 -0.3738 -0.0804
 1613SOL    HW216302   1.408   3.160   9.510  1.3906 -5.0835  2.3010
 1614SOL     OW16303   1.821   0.838   8.270  0.1005 -0.4075  0.3573
 1614SOL    HW116304   1.784   0.911   8.221 -0.3285 -1.3625 -0.7381
 1614SOL    HW216305   1.858   0.789   8.197 -0.4482 -1.4770  0.7860
 1615SOL     OW16306   2.842   1.889   4.598  0.3202 -0.1970  0.0584
 1615SOL    HW116307   2.769   1.828   4.587  0.6918 -0.5420 -0.4808
 1615SOL    HW216308   2.880   1.889   4.510 -0.5017  0.9544 -0.2816
 1616SOL     OW16309   1.984   1.059   6.424  0.4839  0.4219  0.6014
 1616SOL    HW116310   2.053   1.029   6.483  0.1257  0.4542  1.0413
 1616SOL    HW216311   1.916   0.995   6.445  1.1343 -0.4618 -0.0182
 1617SOL     OW16312   1.276   2.929   1.543  0.2936 -0.4998  0.2137
 1617SOL    HW116313   1.324   2.857   1.502 -0.9835 -1.0488 -0.3247
 1617SOL    HW216314   1.336   3.000   1.522  1.6686 -1.4301  1.0220
 1618SOL     OW16315   0.900   1.637   2.159 -0.5287 -0.1237 -0.2596
 1618SOL    HW116316   0.903   1.682   2.243  1.5840  1.9757 -1.4548
 1618SOL    HW216317   0.859   1.709   2.111 -0.3847 -0.3262 -0.6848
 1619SOL     OW16318   2.743   3.489  14.937 -0.2423 -0.1477  0.1203
 1619SOL    HW116319   2.649   3.481  14.920 -0.2595  0.6347 -0.1234
 1619SOL    HW216320   2.781   3.530  14.860 -0.9679  0.1654 -0.0759
 1620SOL     OW16321   3.091   4.397   7.719 -0.7826 -0.4440 -0.2247
 1620SOL    HW116322   3.041   4.411   7.639  0.3904 -0.5838 -0.9753
 1620SOL    HW216323   3.116   4.305   7.707  1.9463  0.3445 -0.5456
 1621SOL     OW16324   0.009   0.607   7.965  0.0218  0.2164  0.3470
 1621SOL    HW116325   0.002   0.566   7.879  1.9001  1.1094 -0.2274
 1621SOL    HW216326   4.643   0.635   7.977 -0.3373 -0.9815  0.4350
 1622SOL     OW16327   3.632   2.232  14.623  0.5680  0.5648  0.3885
 1622SOL    HW116328   3.696   2.221  14.553  0.0072  1.2945 -0.2403
 1622SOL    HW216329   3.559   2.192  14.575  1.4477 -3.2717  2.2727
 1623SOL     OW16330   0.063   0.966   4.741  0.2353 -0.5515 -0.3976
 1623SOL    HW116331   0.076   1.051   4.783  0.2765 -1.0129  0.5400
 1623SOL    HW216332   0.148   0.959   4.697  0.9391 -1.0821  1.0389
 1624SOL     OW16333   3.455   1.880   7.758  0.4195  0.0936  0.1014
 1624SOL    HW116334   3.418   1.933   7.688  0.9726 -0.3582 -0.5271
 1624SOL    HW216335   3.473   1.799   7.710 -0.0627 -0.6959  1.2206
 1625SOL     OW16336   2.805   2.967  12.638  0.3019 -0.3193 -0.0727
 1625SOL    HW116337   2.888   2.977  12.684  0.1244  1.0190 -0.0381
 1625SOL    HW216338   2.762   2.899  12.690 -2.5795  2.1994  0.8943
 1626SOL     OW16339   0.832   3.475   3.326 -0.1553 -0.8715  0.4977
 1626SOL    HW116340   0.852   3.385   3.351  1.2718 -0.6688  0.0660
 1626SOL    HW216341   0.920   3.510   3.318 -0.4685 -0.2380 -0.1483
 1627SOL     OW16342   4.553   3.618   8.824 -0.5711 -0.2120  0.9623
 1627SOL    HW116343   4.590   3.605   8.911  1.1980  0.6052  0.3457
 1627SOL    HW216344   4.539   3.713   8.829  1.1284  0.0306  1.2451
 1628SOL     OW16345   3.339   1.704  14.357 -0.0870  0.1837 -0.1181
 1628SOL    HW116346   3.285   1.758  14.415  0.2820  2.1630 -1.5970
 1628SOL    HW216347   3.312   1.616  14.384 -2.0254  0.2328 -1.9146
 1629SOL     OW16348   1.128   1.212  15.850 -0.2575 -0.1783 -0.4937
 1629SOL    HW116349   1.066   1.194  15.780 -1.3967  0.6344  0.3198
 1629SOL    HW216350   1.210   1.191  15.806 -1.0745 -1.1454 -1.5325
 1630SOL     OW16351   4.660   3.809  16.951 -0.5846 -0.3350  0.0678
 1630SOL    HW116352   4.669   3.814  16.856 -1.1032  1.8622  0.1540
 1630SOL    HW216353   0.029   3.817  16.968 -0.1815 -0.7104 -1.9972
 1631SOL     OW16354   2.076   4.439  14.991 -0.1723 -0.0277  0.2032
 1631SOL    HW116355   2.133   4.504  15.033 -0.2838 -0.0398  0.3729
 1631SOL    HW216356   2.036   4.492  14.922 -0.1088  1.6324  1.4416
 1632SOL     OW16357   4.354   0.259  12.415  0.0475 -0.1001 -0.0432
 1632SOL    HW116358   4.413   0.333  12.401  1.3172 -0.9272  0.9718
 1632SOL    HW216359   4.345   0.265  12.510  0.8471  1.3897 -0.0567
 1633SOL     OW16360   3.478   2.471   4.281  0.2270  0.1496  0.1772
 1633SOL    HW116361   3.469   2.380   4.252 -0.2548 -0.3699  1.9421
 1633SOL    HW216362   3.429   2.509   4.208  1.0768  3.2887  1.2430
 1634SOL     OW16363   0.298   2.245  17.586  0.0839 -0.8184 -0.2555
 1634SOL    HW116364   0.317   2.334  17.555 -0.6684 -0.3826  0.5457
 1634SOL    HW216365   0.356   2.198  17.526  1.6206  0.5586  0.1363
 1635SOL     OW16366   2.915   4.182   4.893 -0.3151 -0.7184 -0.7578
 1635SOL    HW116367   2.884   4.272   4.889 -1.8084 -1.2522 -1.0177
 1635SOL    HW216368   2.862   4.153   4.967  1.2853 -0.6798  0.4002
 1636SOL     OW16369   0.646   4.302   3.841 -0.3465  0.6113  0.0944
 1636SOL    HW116370   0.735   4.282   3.814 -0.5325  0.0694 -0.1147
 1636SOL    HW216371   0.664   4.376   3.899  0.4473 -0.5826  1.3754
 1637SOL     OW16372   4.637   4.396   3.063 -0.1416 -0.3020 -0.2234
 1637SOL    HW116373   4.693   4.470   3.037  3.2520 -2.7361  0.1671
 1637SOL    HW216374   4.684   4.360   3.138 -2.1480  0.1601  1.2647
 1638SOL     OW16375   3.163   3.087  12.060  0.0427 -0.1978  0.5829
 1638SOL    HW116376   3.100   3.137  12.111 -0.2848 -0.4514  0.4276
 1638SOL    HW216377   3.190   3.146  11.989  1.6961 -1.1144  0.4372
 1639SOL     OW16378   1.654   1.822   4.724 -0.2394  0.2808 -0.0672
 1639SOL    HW116379   1.565   1.821   4.757 -0.2621 -1.9092 -0.1546
 1639SOL    HW216380   1.692   1.872   4.796 -1.2020  1.0586 -0.1093
 1640SOL     OW16381   0.881   1.904  12.432 -0.0619  0.3677 -0.7639
 1640SOL    HW116382   0.873   1.974  12.497 -1.8295 -1.0713  0.5680
 1640SOL    HW216383   0.977   1.897  12.429 -0.0751 -0.1864  0.0369
 1641SOL     OW16384   3.923   3.960   9.091 -0.0213  0.5629 -0.2223
 1641SOL    HW116385   3.940   3.866   9.093 -1.5143  0.2862  0.0682
 1641SOL    HW216386   3.947   3.974   9.183  0.4254  0.9210 -0.3958
 1642SOL     OW16387   4.552   0.460   6.031  0.1051  0.5944  0.2967
 1642SOL    HW116388   4.612   0.489   5.963  0.9902  2.7087  2.0206
 1642SOL    HW216389   4.549   0.529   6.097 -0.6411  0.4970  0.3736
 1643SOL     OW16390   4.061   3.291   4.984  0.0645 -0.0119  0.7033
 1643SOL    HW116391   4.066   3.346   5.063  2.4234 -1.8256  1.8150
 1643SOL    HW216392   3.998   3.228   5.019 -0.4110  1.0258  1.7541
 1644SOL     OW16393   2.919   2.861   9.655  0.7666  0.4808 -0.1370
 1644SOL    HW116394   2.842   2.853   9.711  0.4098  0.8645 -0.5755
 1644SOL    HW216395   2.969   2.916   9.715 -1.8402  3.9730 -1.1911
 1645SOL     OW16396   0.592   0.156  13.777 -0.1659  0.6409  0.5723
 1645SOL    HW116397   0.634   0.218  13.836  0.7421 -0.2937  0.9028
 1645SOL    HW216398   0.612   0.199  13.694 -3.2249  2.1405  0.5959
 1646SOL     OW16399   2.839   4.704   4.824  0.5746 -0.9091 -0.0496
 1646SOL    HW116400   2.875   0.062   4.855  0.1794  0.3788 -3.0521
 1646SOL    HW216401   2.898   4.682   4.752  1.2629 -1.5923  0.7192
 1647SOL     OW16402   0.286   1.582   7.202 -0.8880  0.3685 -0.0241
 1647SOL    HW116403   0.198   1.600   7.234 -0.9944 -1.4147  0.6901
 1647SOL    HW216404   0.292   1.489   7.221  1.3973  0.8972  1.8972
 1648SOL     OW16405   4.159   0.850   6.158 -0.1350  0.5881  0.5362
 1648SOL    HW116406   4.233   0.859   6.098 -0.5445  2.3450  0.2757
 1648SOL    HW216407   4.112   0.932   6.143 -1.9849  0.0155  3.0678
 1649SOL     OW16408   4.593   4.145   9.236 -0.3373  0.6178 -0.5608
 1649SOL    HW116409   4.577   4.118   9.145 -1.1332  2.2846 -0.9362
 1649SOL    HW216410   4.523   4.210   9.244  0.3402  1.3002 -0.1493
 1650SOL     OW16411   3.589   4.358   6.071  0.3640 -0.0464 -0.0009
 1650SOL    HW116412   3.609   4.398   5.986 -2.0185 -1.3483 -1.1926
 1650SOL    HW216413   3.666   4.372   6.125  0.2450  0.9515 -0.1041
 1651SOL     OW16414   3.935   1.854  17.004 -0.3628 -0.4947  0.1283
 1651SOL    HW116415   3.871   1.785  16.985  0.8343 -1.5207 -0.0942
 1651SOL    HW216416   3.876   1.930  16.993 -1.3172 -1.1270  0.9004
 1652SOL     OW16417   1.777   3.227   9.170  0.1809 -0.2323  0.0085
 1652SOL    HW116418   1.742   3.242   9.257  0.4802 -0.4277  0.1608
 1652SOL    HW216419   1.787   3.132   9.175  0.9685 -0.2211 -1.2742
 1653SOL     OW16420   0.793   4.354   9.524  0.4014 -0.4547 -0.0988
 1653SOL    HW116421   0.727   4.380   9.588  2.2915  0.3245  1.5581
 1653SOL    HW216422   0.857   4.364   9.595  1.1643  0.9580 -0.9855
 1654SOL     OW16423   2.763   4.593  13.737  0.6606  0.3582 -0.0989
 1654SOL    HW116424   2.793   4.513  13.779  0.2312  0.0177 -0.4512
 1654SOL    HW216425   2.833   4.613  13.674  0.3356 -1.3941 -1.0202
 1655SOL     OW16426   1.855   1.449   4.100  0.7146 -0.5090  0.3149
 1655SOL    HW116427   1.803   1.386   4.050  0.1632  0.1843  0.0230
 1655SOL    HW216428   1.779   1.507   4.111 -1.9927 -3.7962 -0.8586
 1656SOL     OW16429   1.999   4.013   5.958 -0.0109 -1.0679 -0.0770
 1656SOL    HW116430   1.956   3.931   5.982 -0.6553  0.0928  2.7332
 1656SOL    HW216431   2.044   3.972   5.884 -2.1611 -4.1669  0.3446
 1657SOL     OW16432   1.736   4.524   6.359  0.1489  0.0763 -0.2170
 1657SOL    HW116433   1.709   4.611   6.330  2.0281  0.1237 -1.8684
 1657SOL    HW216434   1.818   4.545   6.405  0.3100 -1.9589  0.4283
 1658SOL     OW16435   2.156   2.986  14.663 -0.1557  0.0264  0.1706
 1658SOL    HW116436   2.229   2.932  14.694 -2.0604 -2.3326  0.5762
 1658SOL    HW216437   2.092   2.915  14.655  1.2780 -1.1844 -0.4834
 1659SOL     OW16438   3.110   2.161  15.269 -0.4166 -0.5761  0.1949
 1659SOL    HW116439   3.080   2.083  15.223  0.1715 -0.1716 -0.8706
 1659SOL    HW216440   3.068   2.225  15.212  1.4272  1.1671  0.7961
 1660SOL     OW16441   3.749   3.727   4.736  0.3806 -0.2892 -0.2873
 1660SOL    HW116442   3.790   3.784   4.671  0.8414  0.2146  0.4541
 1660SOL    HW216443   3.825   3.702   4.787 -0.4581 -1.1572  0.5382
 1661SOL     OW16444   0.394   2.300   8.596  0.3750 -0.3242 -0.0471
 1661SOL    HW116445   0.388   2.369   8.662  1.1899  0.4147 -0.7697
 1661SOL    HW216446   0.304   2.273   8.575  1.2822 -0.5505 -3.5091
 1662SOL     OW16447   0.255   3.914  12.822  0.4679  0.0246 -0.1979
 1662SOL    HW116448   0.238   3.858  12.897  1.2776  0.0734  0.0196
 1662SOL    HW216449   0.318   3.860  12.776  0.4984 -1.1639  1.2611
 1663SOL     OW16450   1.440   4.165   2.339 -0.9201 -0.4581  0.3109
 1663SOL    HW116451   1.534   4.178   2.328 -0.6742 -1.6939  0.9878
 1663SOL    HW216452   1.408   4.251   2.312  0.5534  0.8706  2.7152
 1664SOL     OW16453   3.293   0.794   4.515 -0.0257 -0.0346  0.0952
 1664SOL    HW116454   3.290   0.773   4.421 -0.3754  1.2421 -0.1719
 1664SOL    HW216455   3.286   0.889   4.506 -0.8849 -0.2127 -1.2435
 1665SOL     OW16456   3.385   1.514   4.183 -0.4398 -0.3684  0.5702
 1665SOL    HW116457   3.464   1.494   4.232  0.3674 -0.3332 -0.7171
 1665SOL    HW216458   3.420   1.528   4.095  0.7152  0.8567  1.2279
 1666SOL     OW16459   4.388   0.205   2.237 -0.6716  0.4205  0.6588
 1666SOL    HW116460   4.389   0.211   2.332  0.0871 -0.0527  0.6834
 1666SOL    HW216461   4.433   0.287   2.215  1.2805 -1.0453 -0.9500
 1667SOL     OW16462   1.714   4.011  15.784  0.2783 -0.1334 -0.1376
 1667SOL    HW116463   1.677   4.097  15.804  0.1126 -0.2003 -0.1501
 1667SOL    HW216464   1.652   3.947  15.820 -0.9373  2.0416  1.6629
 1668SOL     OW16465   2.957   3.280  15.741 -0.4538 -0.1721 -0.2116
 1668SOL    HW116466   3.039   3.326  15.760 -0.0079  0.0953 -2.7608
 1668SOL    HW216467   2.927   3.230  15.817 -0.1384  2.8774  1.8889
 1669SOL     OW16468   2.157   3.278   0.569 -0.8220 -0.2318  0.7417
 1669SOL    HW116469   2.159   3.329   0.488  2.0080 -0.6659  0.5318
 1669SOL    HW216470   2.083   3.221   0.550 -0.7377  0.4917 -1.7067
 1670SOL     OW16471   3.936   3.110   2.779 -0.1639 -0.0548 -0.3800
 1670SOL    HW116472   3.967   3.176   2.717 -1.9836  1.8663  0.7652
 1670SOL    HW216473   3.974   3.131   2.865  1.6372 -0.6688 -1.0187
 1671SOL     OW16474   0.108   0.485   4.828 -0.1045 -0.0555  0.3765
 1671SOL    HW116475   0.039   0.430   4.791  1.5427 -1.2899 -0.8584
 1671SOL    HW216476   0.072   0.568   4.798 -0.3408 -0.4417 -0.4157
 1672SOL     OW16477   4.601   3.116   4.850  0.3699 -0.2202  1.2577
 1672SOL    HW116478   4.611   3.197   4.800  1.4797 -0.5931  0.8655
 1672SOL    HW216479   4.589   3.047   4.784 -0.6155  0.7408  0.4358
 1673SOL     OW16480   1.282   3.425   5.759 -0.6699 -0.3056  0.2861
 1673SOL    HW116481   1.355   3.380   5.717 -0.8304  1.0682 -1.4937
 1673SOL    HW216482   1.226   3.349   5.777  0.7294 -0.6620  3.0633
 1674SOL     OW16483   1.894   3.088   5.891  0.2324  0.5039 -0.6824
 1674SOL    HW116484   1.831   3.096   5.963 -0.2794 -1.2380 -0.9339
 1674SOL    HW216485   1.868   3.000   5.863  1.6060 -0.0392 -0.2915
 1675SOL     OW16486   0.686   2.552  12.328  0.5110 -0.2770 -0.7206
 1675SOL    HW116487   0.610   2.563  12.385  1.3212  3.1194 -0.3092
 1675SOL    HW216488   0.715   2.640  12.304 -1.5945  0.8506  0.9254
 1676SOL     OW16489   1.541   3.073   8.895  0.1415  0.0400  0.5216
 1676SOL    HW116490   1.507   3.117   8.818  2.1273 -0.7253 -0.7836
 1676SOL    HW216491   1.478   3.099   8.963 -1.2103 -0.7954 -0.4255
 1677SOL     OW16492   1.108   3.079   5.244 -0.0579 -0.4302  0.2001
 1677SOL    HW116493   1.146   3.058   5.158  0.3158 -1.3257  0.5782
 1677SOL    HW216494   1.158   3.023   5.304 -1.0682 -0.2893  1.1767
 1678SOL     OW16495   0.017   1.806   3.667 -0.2702 -0.2612 -0.4766
 1678SOL    HW116496   0.033   1.876   3.730  1.1663  0.1069 -1.2335
 1678SOL    HW216497   4.688   1.751   3.723 -0.7463  1.0327  0.3340
 1679SOL     OW16498   0.948   4.280  17.418 -0.2083  0.0157  0.4698
 1679SOL    HW116499   0.957   4.367  17.458 -0.2794  0.1229  0.2549
 1679SOL    HW216500   0.891   4.233  17.478  1.5213 -0.9255  1.3603
 1680SOL     OW16501   2.393   3.444   8.608 -0.2012 -0.2530  0.3256
 1680SOL    HW116502   2.454   3.411   8.674  0.5396 -1.8924 -1.2018
 1680SOL    HW216503   2.448   3.489   8.544 -1.7184  1.1022 -0.0255
 1681SOL     OW16504   3.754   2.311   4.763 -0.0453 -0.0791  0.7632
 1681SOL    HW116505   3.745   2.217   4.772 -0.8465 -0.2258 -1.6991
 1681SOL    HW216506   3.670   2.345   4.732 -0.2276 -0.9006  0.3781
 1682SOL     OW16507   0.056   2.247   8.667  0.9701 -0.3018 -0.5427
 1682SOL    HW116508   0.075   2.241   8.761 -1.3311  1.7885  0.0580
 1682SOL    HW216509   0.014   2.161   8.658  1.1677 -0.6961  2.2865
 1683SOL     OW16510   1.474   1.500   4.715 -0.2545 -0.8965 -0.0021
 1683SOL    HW116511   1.424   1.465   4.642  1.0954 -2.1501 -0.3257
 1683SOL    HW216512   1.463   1.595   4.707 -0.6715 -0.7593  2.1349
 1684SOL     OW16513   2.936   3.936   5.446 -0.1711  0.1910 -0.2041
 1684SOL    HW116514   2.958   3.861   5.502 -2.3353  0.1732  0.6174
 1684SOL    HW216515   2.865   3.980   5.492 -0.6695  0.4509 -1.2244
 1685SOL     OW16516   1.575   4.002   1.032  0.5312  0.0646 -0.4056
 1685SOL    HW116517   1.650   4.002   0.973 -0.4318 -1.3184 -1.6314
 1685SOL    HW216518   1.604   3.931   1.090  2.0739  1.0781  0.0724
 1686SOL     OW16519   0.475   3.652   2.423 -0.2012 -0.2248 -0.1077
 1686SOL    HW116520   0.384   3.631   2.398 -0.2896 -1.7180  1.4506
 1686SOL    HW216521   0.450   3.744   2.431 -1.5060 -0.4943 -0.9865
 1687SOL     OW16522   3.817   2.417  15.368  0.2320  0.1102 -0.1150
 1687SOL    HW116523   3.833   2.410  15.274 -0.1139 -1.5947 -0.0485
 1687SOL    HW216524   3.727   2.387  15.380 -0.6344  1.9123 -2.3065
 1688SOL     OW16525   2.029   0.203  12.608  0.5026  0.5011 -0.3812
 1688SOL    HW116526   1.949   0.174  12.563 -0.0724  1.5504 -0.0465
 1688SOL    HW216527   2.096   0.196  12.541 -0.5057  2.2229 -1.5595
 1689SOL     OW16528   4.473   2.158   8.490 -0.0636 -0.1425  0.2282
 1689SOL    HW116529   4.550   2.102   8.493 -1.3461 -2.0083 -1.5683
 1689SOL    HW216530   4.411   2.115   8.548 -2.6441  0.8360 -1.7961
 1690SOL     OW16531   1.326   3.911   8.332 -0.3001 -0.1879 -0.2959
 1690SOL    HW116532   1.394   3.844   8.332 -1.6431 -1.5297  2.2715
 1690SOL    HW216533   1.263   3.867   8.389  2.3911 -1.4127  1.7641
 1691SOL     OW16534   4.129   2.550   6.446  0.6897  0.5152 -0.2458
 1691SOL    HW116535   4.048   2.508   6.476  2.3006 -1.6111  1.0734
 1691SOL    HW216536   4.113   2.545   6.352  0.6480 -1.7033 -0.1267
 1692SOL     OW16537   3.677   1.715   3.824 -0.1872  0.0596  0.0579
 1692SOL    HW116538   3.648   1.802   3.851 -1.8281 -0.5002  0.0849
 1692SOL    HW216539   3.768   1.701   3.849  0.1638 -2.1575 -2.4943
 1693SOL     OW16540   3.362   1.386  11.242 -0.0311 -0.0736 -0.5836
 1693SOL    HW116541   3.400   1.401  11.156 -2.5746  0.4604 -1.6182
 1693SOL    HW216542   3.269   1.393  11.219  0.4531  1.4205 -2.0339
 1694SOL     OW16543   1.477   1.792   8.151  0.0510  0.0810  0.1170
 1694SOL    HW116544   1.394   1.800   8.199  0.3351  1.6137  0.3672
 1694SOL    HW216545   1.487   1.884   8.126 -0.9600  0.2321  0.2524
 1695SOL     OW16546   3.136   2.237   6.842 -0.5206  0.3029 -0.3780
 1695SOL    HW116547   3.215   2.183   6.843 -1.2742 -0.8057 -0.3163
 1695SOL    HW216548   3.089   2.201   6.917  1.3761 -0.3317  0.4871
 1696SOL     OW16549   3.573   1.187  15.487  0.8288 -0.0844  0.1545
 1696SOL    HW116550   3.491   1.166  15.530  1.0591 -3.9649 -1.3260
 1696SOL    HW216551   3.563   1.148  15.400  1.0187  1.2502 -0.4614
 1697SOL     OW16552   3.232   3.635   7.216  0.2905  0.1073 -0.3323
 1697SOL    HW116553   3.164   3.614   7.152  0.0616  1.4134 -0.5056
 1697SOL    HW216554   3.273   3.709   7.170 -1.9999  1.1054 -0.7592
 1698SOL     OW16555   2.361   3.611   1.352 -0.3142  0.1760 -0.1569
 1698SOL    HW116556   2.386   3.598   1.261 -1.0332 -0.7486 -0.2189
 1698SOL    HW216557   2.438   3.565   1.385  0.2254 -0.8211 -2.7679
 1699SOL     OW16558   4.316   1.848  13.165 -0.0805 -0.0978 -0.2558
 1699SOL    HW116559   4.313   1.814  13.254  2.0340 -0.6903 -0.4264
 1699SOL    HW216560   4.335   1.766  13.120  0.3054  1.2844 -2.6262
 1700SOL     OW16561   2.568   3.618   9.628 -0.7604 -0.2628 -0.0100
 1700SOL    HW116562   2.611   3.702   9.612 -1.9887  0.6261  1.4159
 1700SOL    HW216563   2.507   3.604   9.556 -0.5881  0.6181 -0.3219
 1701SOL     OW16564   1.676   0.898   9.676 -0.3344 -0.2286 -0.1005
 1701SOL    HW116565   1.644   0.987   9.664  1.0918  0.4533  1.1034
 1701SOL    HW216566   1.769   0.897   9.652 -0.8491  0.2040 -2.1080
 1702SOL     OW16567   2.787   1.224   9.461  0.8396 -0.3192  0.0919
 1702SOL    HW116568   2.799   1.318   9.478  0.4446 -0.1452 -0.5916
 1702SOL    HW216569   2.834   1.212   9.378 -0.0474  1.4903 -0.6845
 1703SOL     OW16570   2.238   3.644   5.946  0.1296  0.3255 -0.3360
 1703SOL    HW116571   2.181   3.568   5.962 -0.3543  0.7515 -0.0089
 1703SOL    HW216572   2.321   3.628   5.991 -0.2659 -0.6979  0.0290
 1704SOL     OW16573   0.127   0.730  11.426 -0.2745  0.0819 -0.1594
 1704SOL    HW116574   0.047   0.768  11.463  0.1856  0.9392 -0.0313
 1704SOL    HW216575   0.189   0.795  11.459  0.1243 -0.8998  1.0320
 1705SOL     OW16576   1.926   0.080   7.402 -0.1645  0.7572 -0.0569
 1705SOL    HW116577   1.871   0.009   7.369 -0.7585  2.5210 -2.8603
 1705SOL    HW216578   1.950   0.120   7.318 -1.6362 -0.1486 -0.9013
 1706SOL     OW16579   2.716   0.137   2.268 -0.3181 -0.2855  0.1547
 1706SOL    HW116580   2.785   0.155   2.331  1.6624 -0.5601 -1.9609
 1706SOL    HW216581   2.747   0.054   2.232 -2.1471 -0.8322 -0.1782
 1707SOL     OW16582   2.585   1.474   4.381 -0.5001  0.5155  0.4768
 1707SOL    HW116583   2.538   1.395   4.408 -2.9532  0.9711 -2.5191
 1707SOL    HW216584   2.516   1.509   4.326 -0.2038 -0.2665 -0.4019
 1708SOL     OW16585   2.742   3.710   1.487 -0.2982 -0.2457  0.3067
 1708SOL    HW116586   2.702   3.728   1.572 -1.1251  1.8606 -0.5329
 1708SOL    HW216587   2.829   3.746   1.502  0.4604 -1.6421 -0.7476
 1709SOL     OW16588   2.592   4.551   5.426 -0.7117  0.0822  0.0333
 1709SOL    HW116589   2.602   4.606   5.505 -1.3353  0.3251 -0.0535
 1709SOL    HW216590   2.502   4.520   5.418  0.1999 -2.6815  0.3930
 1710SOL     OW16591   3.805   3.155   2.428 -0.2715 -0.0940 -0.3133
 1710SOL    HW116592   3.779   3.247   2.432 -0.5292 -0.2119  0.7541
 1710SOL    HW216593   3.896   3.172   2.403  0.3826 -1.5214  1.1157
 1711SOL     OW16594   2.227   0.168   4.297 -0.0302  0.1485 -0.1995
 1711SOL    HW116595   2.201   0.134   4.382 -0.4488  3.1651  0.9065
 1711SOL    HW216596   2.289   0.101   4.268  0.4952  0.4489  0.2140
 1712SOL     OW16597   1.926   1.794   0.158 -0.0573 -0.3974  0.1375
 1712SOL    HW116598   1.970   1.718   0.195 -2.9489 -2.0655  0.1258
 1712SOL    HW216599   1.897   1.844   0.234 -2.0564 -0.1676 -0.7836
 1713SOL     OW16600   0.143   3.509   3.046  0.0219 -0.1075 -0.6898
 1713SOL    HW116601   0.182   3.518   2.960  0.4206  2.9161 -0.1951
 1713SOL    HW216602   0.055   3.486   3.016  0.7972 -0.9306 -2.2946
 1714SOL     OW16603   3.890   2.625   1.982  0.4844  0.2023 -0.1568
 1714SOL    HW116604   3.966   2.682   1.973  0.6073 -0.2054 -1.6552
 1714SOL    HW216605   3.916   2.576   2.060  1.4557 -0.8837 -1.1737
 1715SOL     OW16606   4.416   2.083   6.775 -0.8003 -0.6387  0.7152
 1715SOL    HW116607   4.372   2.001   6.755  0.3359 -1.3035  0.9322
 1715SOL    HW216608   4.373   2.097   6.859 -0.5293 -0.1609  0.7763
 1716SOL     OW16609   2.308   1.914   3.004 -0.1440  0.7638 -0.0887
 1716SOL    HW116610   2.347   1.826   3.006  1.2317  1.3690 -0.1651
 1716SOL    HW216611   2.385   1.969   3.017  0.4909 -0.3409  0.8576
 1717SOL     OW16612   2.558   3.680   6.703  0.0830 -0.0916 -0.2693
 1717SOL    HW116613   2.531   3.749   6.643 -0.5174 -0.7318 -0.7366
 1717SOL    HW216614   2.506   3.608   6.668  1.3459 -1.3287  0.3773
 1718SOL     OW16615   2.536   4.286   6.053  0.4446 -0.4015  0.2428
 1718SOL    HW116616   2.558   4.282   5.960  1.9772  0.2844  0.5644
 1718SOL    HW216617   2.510   4.196   6.072 -0.5568  0.1267  1.4280
 1719SOL     OW16618   3.959   2.675  12.291 -0.0937  0.1821 -0.0771
 1719SOL    HW116619   3.951   2.712  12.203 -1.5310  0.7518  0.2867
 1719SOL    HW216620   3.978   2.583  12.269 -1.2269  0.1264 -0.8516
 1720SOL     OW16621   2.640   1.253   6.027 -0.0237 -0.1263  0.1530
 1720SOL    HW116622   2.712   1.311   6.049  0.0567 -0.2588  0.2371
 1720SOL    HW216623   2.571   1.310   5.993  2.2480  1.7104 -1.3550
 1721SOL     OW16624   0.305   4.318   4.391 -0.8240 -0.1446 -0.5295
 1721SOL    HW116625   0.312   4.293   4.299  3.2353  1.3400 -0.5791
 1721SOL    HW216626   0.209   4.328   4.390 -0.5963  2.3079  0.7981
 1722SOL     OW16627   2.250   1.946   4.009 -0.0655 -0.2773 -0.9947
 1722SOL    HW116628   2.244   1.876   3.943  1.0918 -0.7475 -0.6016
 1722SOL    HW216629   2.276   2.022   3.958 -1.1464  0.4189 -0.5302
 1723SOL     OW16630   2.858   4.624   2.193 -0.0409 -0.0579  0.8346
 1723SOL    HW116631   2.884   4.580   2.274  0.0458  0.8768  1.3105
 1723SOL    HW216632   2.800   4.561   2.150 -0.0612  0.8628 -0.4997
 1724SOL     OW16633   2.358   0.137  14.706  0.1881  0.3746  0.9452
 1724SOL    HW116634   2.288   0.197  14.732  0.8436  1.0112  1.2464
 1724SOL    HW216635   2.377   0.153  14.613  0.2181  2.2529  1.2707
 1725SOL     OW16636   1.299   2.027  14.186 -0.9049 -0.4807  0.4414
 1725SOL    HW116637   1.249   2.106  14.209  0.7294  0.7851 -0.3856
 1725SOL    HW216638   1.388   2.040  14.219 -1.3782 -0.6870  1.8010
 1726SOL     OW16639   0.093   4.382   1.791 -0.3435 -0.2715  0.1998
 1726SOL    HW116640   0.093   4.384   1.887  1.8066 -0.5602  0.2059
 1726SOL    HW216641   0.003   4.411   1.775  0.1261  0.7144 -0.6375
 1727SOL     OW16642   3.752   3.431  15.127 -0.2687 -0.5980 -0.1040
 1727SOL    HW116643   3.783   3.349  15.163 -0.4737 -1.7363 -2.5274
 1727SOL    HW216644   3.780   3.497  15.191  0.1895  0.3778 -1.3123
 1728SOL     OW16645   1.747   4.561   5.364 -0.0086  0.7971  0.1908
 1728SOL    HW116646   1.717   4.649   5.343 -1.4807 -0.0015 -0.9935
 1728SOL    HW216647   1.691   4.533   5.436 -0.7423 -3.2496 -1.9311
 1729SOL     OW16648   2.357   1.675  12.104  0.1818 -1.2526 -0.1987
 1729SOL    HW116649   2.338   1.600  12.160 -0.8805 -0.4058  0.5756
 1729SOL    HW216650   2.450   1.689  12.122  0.2995  0.3689 -2.1088
 1730SOL     OW16651   3.231   3.135   8.022  0.1298 -0.3656  0.0025
 1730SOL    HW116652   3.237   3.063   8.085  1.5563  1.1058  1.6009
 1730SOL    HW216653   3.322   3.163   8.011 -0.1364  0.1443 -0.8939
 1731SOL     OW16654   2.001   0.803  10.261  0.7433 -0.0612  0.0410
 1731SOL    HW116655   1.931   0.763  10.209  0.1117 -1.2077  1.8033
 1731SOL    HW216656   1.945   0.864  10.308  0.1316 -1.1720  0.7493
 1732SOL     OW16657   4.686   0.637   5.568  0.0995  0.2428 -0.2623
 1732SOL    HW116658   0.011   0.688   5.504  0.6814 -0.4307 -0.3407
 1732SOL    HW216659   4.680   0.556   5.518 -0.1014  0.7406 -1.0548
 1733SOL     OW16660   0.058   3.951   9.337 -0.2755 -0.1022  0.2779
 1733SOL    HW116661   0.086   4.038   9.366 -2.9032  0.1880  1.8815
 1733SOL    HW216662   4.710   3.993   9.292 -1.4623 -1.5596  0.8480
 1734SOL     OW16663   1.658   4.229   6.994  0.0042 -0.4485  0.4266
 1734SOL    HW116664   1.598   4.155   6.988  0.8947 -1.0653 -1.0050
 1734SOL    HW216665   1.610   4.291   6.939 -0.5840 -1.7539 -0.5498
 1735SOL     OW16666   0.406   4.711  14.837 -0.4405 -0.0606 -0.0587
 1735SOL    HW116667   0.400   4.641  14.771 -1.9130 -2.1964  2.3419
 1735SOL    HW216668   0.332   4.684  14.892 -0.1164 -2.9230 -0.9989
 1736SOL     OW16669   0.409   0.155   1.421  0.1882  0.1893 -0.0304
 1736SOL    HW116670   0.337   0.217   1.424  0.2525  0.2110  1.4656
 1736SOL    HW216671   0.390   0.112   1.338  1.8099 -1.0653  0.2350
 1737SOL     OW16672   1.932   1.110   1.271  0.2928  0.3832  0.0155
 1737SOL    HW116673   1.868   1.080   1.335  1.6666 -1.8265  0.3627
 1737SOL    HW216674   1.876   1.122   1.194  1.9048 -0.7181 -1.3327
 1738SOL     OW16675   4.458   4.308  13.402  0.5025 -0.0656  0.0056
 1738SOL    HW116676   4.436   4.392  13.442 -1.6224 -2.4397  3.8781
 1738SOL    HW216677   4.381   4.255  13.425 -0.9447  1.9440 -0.1898
 1739SOL     OW16678   0.364   0.169   0.349 -0.1220  0.5658  0.0839
 1739SOL    HW116679   0.456   0.145   0.363 -0.6882 -1.4210  0.4552
 1739SOL    HW216680   0.348   0.130   0.263  0.7939  0.5592 -0.0855
 1740SOL     OW16681   0.936   1.398   2.285 -1.2526  0.4947 -0.4608
 1740SOL    HW116682   0.904   1.412   2.374  0.9979 -0.0557  0.4149
 1740SOL    HW216683   0.882   1.467   2.245  0.3414  2.1518  0.2683
 1741SOL     OW16684   1.867   1.303   5.282  0.0569 -0.1814 -0.2988
 1741SOL    HW116685   1.923   1.376   5.309 -1.1281  0.4675  0.3845
 1741SOL    HW216686   1.835   1.267   5.365  0.6380 -2.1177 -0.9130
 1742SOL     OW16687   2.676   2.189   3.543 -0.3578  0.3206 -0.6236
 1742SOL    HW116688   2.625   2.131   3.486 -0.4708  0.9793 -1.1946
 1742SOL    HW216689   2.715   2.130   3.607 -1.4158 -0.0274 -0.2978
 1743SOL     OW16690   0.772   4.657   1.885  0.6084 -0.1025  0.1964
 1743SOL    HW116691   0.862   4.637   1.863  1.3005 -0.4111  3.2425
 1743SOL    HW216692   0.728   4.652   1.800 -0.9104  2.6060  0.8401
 1744SOL     OW16693   3.491   2.900   6.199 -0.4561 -0.5020  0.0809
 1744SOL    HW116694   3.440   2.843   6.141  1.3397 -0.5117 -1.4848
 1744SOL    HW216695   3.426   2.918   6.266  0.3789 -1.2029  1.0739
 1745SOL     OW16696   0.969   1.095   5.433  0.3057  0.5889 -0.2582
 1745SOL    HW116697   0.889   1.070   5.480  1.8383 -1.4116  1.2740
 1745SOL    HW216698   0.979   1.020   5.374 -0.5792  0.9469 -0.8661
 1746SOL     OW16699   1.339   4.695   7.119  0.0678 -0.0106 -0.5548
 1746SOL    HW116700   1.314   4.657   7.203  1.7260  1.2601  0.5145
 1746SOL    HW216701   1.414   4.642   7.093 -1.0709 -0.9904 -1.8331
 1747SOL     OW16702   3.405   1.144   4.148 -0.3129 -0.1809  0.4554
 1747SOL    HW116703   3.327   1.194   4.168 -0.4191 -0.3163  0.3794
 1747SOL    HW216704   3.466   1.150   4.222  0.2307  0.0835 -0.0175
 1748SOL     OW16705   0.799   3.257   7.163 -0.8430  0.2659  0.1768
 1748SOL    HW116706   0.730   3.313   7.198 -1.1329 -0.3548  0.5904
 1748SOL    HW216707   0.830   3.208   7.239  0.1128  2.6697  1.3274
 1749SOL     OW16708   0.072   0.357   3.198 -0.1219  0.3018 -0.3361
 1749SOL    HW116709   0.124   0.421   3.246  0.3027 -2.1115  2.3518
 1749SOL    HW216710   0.129   0.281   3.205 -1.5672 -1.1810 -4.0182
 1750SOL     OW16711   4.627   2.419   4.858 -0.5304 -0.1216 -0.0317
 1750SOL    HW116712   4.707   2.367   4.865 -0.8569 -0.4503  1.2612
 1750SOL    HW216713   4.606   2.442   4.948 -2.1145 -1.2925 -0.0970
 1751SOL     OW16714   3.038   3.048   2.420  0.0967 -0.8037 -0.6304
 1751SOL    HW116715   3.131   3.057   2.440 -0.5240  2.1988  0.8975
 1751SOL    HW216716   3.035   3.126   2.364  0.7924 -1.2811 -1.3445
 1752SOL     OW16717   4.105   3.609   4.064 -0.4721  0.1502  0.0985
 1752SOL    HW116718   4.049   3.576   3.994 -0.0555 -1.1299  0.3816
 1752SOL    HW216719   4.193   3.603   4.028 -0.5653  0.2674 -0.1473
 1753SOL     OW16720   3.990   2.813   4.999 -0.0278  0.1854 -0.0364
 1753SOL    HW116721   3.972   2.798   4.906 -2.2755  2.0038  0.1005
 1753SOL    HW216722   3.921   2.757   5.036 -0.3295  0.3961 -0.2750
 1754SOL     OW16723   0.623   1.429  16.091  0.2933  0.5352  0.5129
 1754SOL    HW116724   0.595   1.489  16.023 -0.1651  0.3954  0.5767
 1754SOL    HW216725   0.658   1.358  16.037  0.7243 -0.1225  1.6568
 1755SOL     OW16726   1.283   0.834   1.677  0.6674 -0.4462  0.0830
 1755SOL    HW116727   1.255   0.787   1.598  1.8795 -2.0055  0.5783
 1755SOL    HW216728   1.328   0.771   1.733 -0.9631 -1.3676  0.3424
 1756SOL     OW16729   1.460   3.788   0.121  0.6057  0.1165 -0.2672
 1756SOL    HW116730   1.430   3.732   0.192 -0.4758 -1.4176 -1.9335
 1756SOL    HW216731   1.543   3.803   0.166  0.0791  1.0522  0.3990
 1757SOL     OW16732   1.905   1.236  17.586 -0.2134  0.1544 -1.0683
 1757SOL    HW116733   1.970   1.167  17.574 -0.0160  0.2711 -0.6546
 1757SOL    HW216734   1.838   1.203  17.526 -2.0128 -1.1267  1.6528
 1758SOL     OW16735   1.130   2.399   5.490 -0.3580 -0.1927  0.2395
 1758SOL    HW116736   1.076   2.458   5.543  0.2708 -0.5027  1.2320
 1758SOL    HW216737   1.071   2.386   5.415  1.6549  2.2501 -1.7276
 1759SOL     OW16738   2.079   1.529  17.019  0.0816  0.1403  0.2325
 1759SOL    HW116739   2.165   1.541  17.058 -0.0707 -0.4303  0.7489
 1759SOL    HW216740   2.038   1.602  17.066 -0.1938  1.3345 -1.8708
 1760SOL     OW16741   0.058   0.721  17.388 -0.1348 -0.0054  0.1876
 1760SOL    HW116742   0.091   0.679  17.467 -0.2716 -1.4034 -0.4854
 1760SOL    HW216743   0.031   0.645  17.336  2.6008 -0.8011 -0.0929
 1761SOL     OW16744   0.933   1.637   6.890  0.3871  0.3305 -0.1719
 1761SOL    HW116745   0.875   1.612   6.818 -1.9703 -0.5486  1.9966
 1761SOL    HW216746   0.914   1.584   6.968 -1.8141  0.2459 -0.7643
 1762SOL     OW16747   4.204   0.770   5.727  0.1756 -0.3145 -0.0614
 1762SOL    HW116748   4.223   0.699   5.788 -2.7328 -0.4649  0.6635
 1762SOL    HW216749   4.234   0.841   5.783 -2.3681 -0.0163  0.9388
 1763SOL     OW16750   1.659   1.625   4.044  0.5111 -0.0106  0.1645
 1763SOL    HW116751   1.746   1.661   4.029 -0.1251  0.4713 -2.4939
 1763SOL    HW216752   1.607   1.689   3.995  1.1100  1.0133  0.8864
 1764SOL     OW16753   3.699   0.413   2.221  0.2930 -0.1717 -0.1460
 1764SOL    HW116754   3.694   0.340   2.159 -1.9404 -0.6525  0.5969
 1764SOL    HW216755   3.717   0.364   2.301  0.0389  0.6133  0.3907
 1765SOL     OW16756   3.159   3.359   1.026 -0.1669  0.7550  0.6161
 1765SOL    HW116757   3.226   3.391   0.966 -1.0905  0.7858 -0.4042
 1765SOL    HW216758   3.155   3.425   1.095 -2.0752  0.6529  0.6222
 1766SOL     OW16759   4.032   4.014   8.655 -0.3017 -0.6427 -0.3206
 1766SOL    HW116760   4.031   3.958   8.577  3.3421  1.7887 -2.1222
 1766SOL    HW216761   3.989   4.093   8.621  1.9004  1.4265  1.7057
 1767SOL     OW16762   1.210   1.910   1.009 -0.5443 -0.2597  0.1102
 1767SOL    HW116763   1.219   1.999   0.973 -1.0872 -0.6559 -1.0192
 1767SOL    HW216764   1.144   1.923   1.076 -1.7836 -0.5937 -1.0441
 1768SOL     OW16765   3.000   1.153   7.922 -0.0377  0.5142  0.0621
 1768SOL    HW116766   3.052   1.231   7.900  1.1498 -1.0452 -2.7310
 1768SOL    HW216767   2.940   1.195   7.983  0.4118 -1.9879  2.2222
 1769SOL     OW16768   2.525   3.709   8.898  0.3360  0.3130  0.0565
 1769SOL    HW116769   2.552   3.688   8.808 -0.5868 -2.7247  0.4872
 1769SOL    HW216770   2.466   3.634   8.910 -1.3242  1.5387 -0.4316
 1770SOL     OW16771   0.306   3.243   4.448  0.0177 -0.3264  0.1639
 1770SOL    HW116772   0.257   3.164   4.427 -0.1513 -0.3333  0.5809
 1770SOL    HW216773   0.326   3.284   4.363  1.0003 -0.0509  0.5241
 1771SOL     OW16774   4.414   0.120   8.037 -0.6883 -0.2782  0.2729
 1771SOL    HW116775   4.418   0.042   8.093  1.7559 -1.4069 -1.4831
 1771SOL    HW216776   4.328   0.110   7.997  0.0364 -1.1139 -1.0832
 1772SOL     OW16777   1.391   4.349   7.241 -0.1550 -0.7814  0.1425
 1772SOL    HW116778   1.467   4.402   7.214  0.2515 -0.7157  1.3646
 1772SOL    HW216779   1.375   4.377   7.332 -1.3957  0.9181 -0.5999
 1773SOL     OW16780   4.548   4.623   8.487  0.1527 -0.0598 -0.5951
 1773SOL    HW116781   4.525   4.682   8.559  0.0217 -1.3235  0.3932
 1773SOL    HW216782   4.467   4.637   8.439  1.1463  1.6348 -1.7769
 1774SOL     OW16783   4.114   0.579  10.875 -0.4684 -0.9384 -0.4366
 1774SOL    HW116784   4.168   0.547  10.803  1.1548 -2.3010  1.3826
 1774SOL    HW216785   4.146   0.669  10.881  0.3519 -1.2082 -0.7338
 1775SOL     OW16786   2.852   2.506   7.226  0.2049  0.1020  0.7664
 1775SOL    HW116787   2.850   2.599   7.248 -0.2700  0.1485  0.5133
 1775SOL    HW216788   2.942   2.495   7.197  0.3417 -0.9448  1.5915
 1776SOL     OW16789   1.215   1.949   8.798 -0.2015  0.6799 -0.6865
 1776SOL    HW116790   1.295   1.917   8.758 -0.0111  0.3775 -0.0643
 1776SOL    HW216791   1.233   1.938   8.891  0.6249  1.1132 -0.8010
 1777SOL     OW16792   3.999   3.393   7.705  0.4848 -0.1999  0.3726
 1777SOL    HW116793   3.951   3.342   7.639 -2.4077  1.9619  0.8146
 1777SOL    HW216794   4.045   3.325   7.756  1.5348  0.9128  0.9012
 1778SOL     OW16795   0.222   3.535  16.966  0.2791 -0.3676 -0.6374
 1778SOL    HW116796   0.153   3.469  16.966  0.4298 -0.5306  0.8586
 1778SOL    HW216797   0.272   3.495  17.037  0.7307  0.3881 -0.5388
 1779SOL     OW16798   3.880   0.567   7.546  0.0136 -0.2159 -0.0847
 1779SOL    HW116799   3.794   0.555   7.505 -0.0840 -0.7790  0.2897
 1779SOL    HW216800   3.857   0.635   7.609 -0.4262 -1.0306  0.6503
 1780SOL     OW16801   0.145   0.814   9.051 -0.5237  0.1310  0.5304
 1780SOL    HW116802   0.123   0.852   8.966 -1.5074  2.4932  1.8509
 1780SOL    HW216803   0.053   0.804   9.075  0.0646 -4.5788  0.9864
 1781SOL     OW16804   1.158   1.692   3.946  0.0052 -0.3770 -0.4752
 1781SOL    HW116805   1.080   1.700   4.001  0.7530  2.2621  0.2165
 1781SOL    HW216806   1.135   1.632   3.875 -0.2916 -0.7774 -0.0414
 1782SOL     OW16807   2.416   3.631   7.550  0.4960  0.0367 -0.4080
 1782SOL    HW116808   2.420   3.625   7.645  0.7763  0.8401 -0.3737
 1782SOL    HW216809   2.364   3.711   7.541 -0.2037 -0.4500 -0.7576
 1783SOL     OW16810   3.497   2.153   0.715  0.4609 -0.0731 -0.2179
 1783SOL    HW116811   3.538   2.212   0.777  0.3803  1.0196 -1.2196
 1783SOL    HW216812   3.543   2.159   0.632 -1.3038 -0.2163 -1.1970
 1784SOL     OW16813   3.592   1.532   1.358 -0.2275 -0.5832 -0.0264
 1784SOL    HW116814   3.524   1.590   1.392 -3.3175 -2.2991 -3.3992
 1784SOL    HW216815   3.545   1.449   1.363  0.8268 -1.1939 -0.3039
 1785SOL     OW16816   2.582   2.732   4.960 -0.1021  0.4440 -0.2326
 1785SOL    HW116817   2.534   2.685   4.892  0.4693 -0.9163  0.3016
 1785SOL    HW216818   2.642   2.666   4.994  0.2766  0.7582 -0.2952
 1786SOL     OW16819   2.976   3.769   9.091  0.1330 -0.0897 -0.0324
 1786SOL    HW116820   2.931   3.812   9.019  2.0282 -0.2780 -1.3303
 1786SOL    HW216821   3.057   3.820   9.100 -0.6029  1.2548 -1.1355
 1787SOL     OW16822   3.845   0.521   5.459 -0.4002 -0.1742 -0.0930
 1787SOL    HW116823   3.881   0.535   5.546  0.8099 -1.1593 -0.4351
 1787SOL    HW216824   3.790   0.447   5.483  1.8083 -1.5354  0.7832
 1788SOL     OW16825   0.554   4.594  13.697 -0.5554 -0.0133  0.6282
 1788SOL    HW116826   0.466   4.603  13.660 -0.3592 -2.1932 -0.3641
 1788SOL    HW216827   0.571   4.685  13.720  2.1749 -0.4782  0.4116
 1789SOL     OW16828   2.017   0.376   5.739  0.3107  0.1438  0.3370
 1789SOL    HW116829   1.947   0.404   5.680 -0.3963 -0.9244  0.6658
 1789SOL    HW216830   2.001   0.438   5.810 -0.0906 -0.9151  1.1686
 1790SOL     OW16831   3.659   3.081  15.683 -0.5052 -0.0112  0.2523
 1790SOL    HW116832   3.575   3.044  15.658  1.1512 -3.4625 -0.1213
 1790SOL    HW216833   3.641   3.125  15.766 -1.8156 -0.5952  0.2617
 1791SOL     OW16834   3.585   3.017   8.235 -0.1000 -0.0968  0.0850
 1791SOL    HW116835   3.524   3.064   8.291 -0.5775  1.2416 -1.5294
 1791SOL    HW216836   3.550   2.929   8.244 -0.2511 -0.2060 -1.4550
 1792SOL     OW16837   0.147   0.466   9.523 -0.3985  0.5966  0.0768
 1792SOL    HW116838   0.163   0.495   9.613 -0.4578  0.0352  0.2726
 1792SOL    HW216839   0.197   0.384   9.525  1.4862  1.7276 -1.5127
 1793SOL     OW16840   1.412   1.438   0.325 -0.5028  0.4292  0.1988
 1793SOL    HW116841   1.492   1.396   0.292 -0.0763  0.5095  1.1212
 1793SOL    HW216842   1.364   1.360   0.353  0.5388 -0.3392 -0.1312
 1794SOL     OW16843   4.411   0.718  14.609  0.5884  0.0349  0.3914
 1794SOL    HW116844   4.495   0.763  14.613 -0.7875  2.6455 -0.7717
 1794SOL    HW216845   4.350   0.792  14.607  1.2533  0.6270  2.3959
 1795SOL     OW16846   1.256   1.735   5.420 -0.0691 -0.2013  0.1949
 1795SOL    HW116847   1.312   1.698   5.489  1.3017 -0.1109 -0.8586
 1795SOL    HW216848   1.300   1.817   5.398 -1.8872  0.3266 -1.4702
 1796SOL     OW16849   4.250   2.944   7.163  0.3817 -0.0494  0.0693
 1796SOL    HW116850   4.258   3.037   7.141  0.8060 -0.3235 -0.9024
 1796SOL    HW216851   4.316   2.897   7.113 -0.2172  1.3225 -2.0200
 1797SOL     OW16852   4.704   2.250  14.571  0.1112  0.3578 -0.4669
 1797SOL    HW116853   0.062   2.278  14.533  0.3204 -1.6040 -1.4310
 1797SOL    HW216854   4.671   2.188  14.506  1.1193 -2.1573  1.4301
 1798SOL     OW16855   3.692   2.770   4.642  0.1746 -0.0591 -0.1133
 1798SOL    HW116856   3.688   2.739   4.551 -1.1573  0.2802 -0.1679
 1798SOL    HW216857   3.597   2.784   4.650  0.5847  2.5677 -0.0052
 1799SOL     OW16858   0.081   4.213   2.930  0.1497  0.0682  0.2290
 1799SOL    HW116859   4.724   4.251   2.963 -0.6572 -0.5213 -1.1327
 1799SOL    HW216860   0.088   4.252   2.843  0.2851 -1.7217 -0.5613
 1800SOL     OW16861   2.487   0.033  10.220  0.2680 -0.3525  0.1238
 1800SOL    HW116862   2.509   4.691  10.285  1.7682  0.9022  0.9152
 1800SOL    HW216863   2.394   0.042  10.242  0.0556  0.2797 -1.0413
 1801SOL     OW16864   1.935   0.125   2.659  0.2181  0.0561 -0.2055
 1801SOL    HW116865   1.905   0.043   2.620  0.2198  0.0392 -0.1714
 1801SOL    HW216866   1.934   0.190   2.589  0.4074  0.3186  0.0329
 1802SOL     OW16867   1.061   0.727   2.494 -0.4851 -0.1600  0.3218
 1802SOL    HW116868   1.087   0.708   2.584 -0.3351 -0.5707  0.1884
 1802SOL    HW216869   1.083   0.642   2.458 -0.2377  0.1968 -0.3769
 1803SOL     OW16870   2.412   3.852   2.923 -0.4173  0.7759  0.2872
 1803SOL    HW116871   2.357   3.925   2.950  0.6900  1.4456  0.7013
 1803SOL    HW216872   2.343   3.795   2.888  0.1555 -0.1114  0.6049
 1804SOL     OW16873   2.804   1.843  15.437  0.1550  0.1822  0.4076
 1804SOL    HW116874   2.738   1.909  15.458 -0.7100 -1.1283  1.8793
 1804SOL    HW216875   2.884   1.895  15.433  1.5113 -2.0434 -1.6210
 1805SOL     OW16876   1.575   1.161  10.936 -0.1104  0.1188 -0.5637
 1805SOL    HW116877   1.597   1.068  10.947  0.5136  0.3382  0.0028
 1805SOL    HW216878   1.490   1.151  10.893  0.0892  0.5755 -1.0684
 1806SOL     OW16879   0.269   2.034   5.176  0.1428  0.0401 -0.2369
 1806SOL    HW116880   0.192   1.993   5.137  2.9366 -1.9877 -3.6264
 1806SOL    HW216881   0.262   2.129   5.170  0.6886  0.1378  0.6031
 1807SOL     OW16882   0.805   0.647   2.097 -0.1856  0.1950  0.8600
 1807SOL    HW116883   0.733   0.598   2.137 -2.0945  2.4370  0.1564
 1807SOL    HW216884   0.818   0.709   2.168 -1.3805  1.1149  0.2704
 1808SOL     OW16885   3.766   2.953  12.762 -0.0393 -0.0038 -0.1183
 1808SOL    HW116886   3.788   2.915  12.677  1.9594  2.9284 -0.9175
 1808SOL    HW216887   3.850   2.971  12.803 -0.2409  1.2062 -0.2529
 1809SOL     OW16888   1.362   2.405   6.258 -0.2159 -0.3124  0.5346
 1809SOL    HW116889   1.272   2.379   6.278 -0.2222 -1.7531 -1.3163
 1809SOL    HW216890   1.363   2.481   6.316  0.0764  0.1013 -0.0105
 1810SOL     OW16891   0.556   4.440  15.289 -0.2712  0.2922  0.0325
 1810SOL    HW116892   0.611   4.441  15.210 -2.3406 -0.9166 -1.4143
 1810SOL    HW216893   0.607   4.496  15.347 -0.6565  1.0188 -0.3342
 1811SOL     OW16894   0.632   2.363   2.954  0.1277  0.3790  0.2261
 1811SOL    HW116895   0.575   2.439   2.941  1.4868  1.1468 -1.2149
 1811SOL    HW216896   0.572   2.289   2.960  0.2320  0.2572 -0.2262
 1812SOL     OW16897   2.330   1.060  15.433  0.1263  0.0761  0.4984
 1812SOL    HW116898   2.378   1.133  15.394  2.3088 -0.7466  1.6138
 1812SOL    HW216899   2.326   1.095  15.522  0.7346  1.0585  0.1348
 1813SOL     OW16900   1.422   2.461  10.157  0.0470 -0.3307 -0.1464
 1813SOL    HW116901   1.509   2.420  10.153  1.3769  2.3118  1.7823
 1813SOL    HW216902   1.381   2.406  10.223  1.3885 -0.0127  0.9626
 1814SOL     OW16903   1.908   1.000   6.874 -0.0396 -0.5585 -0.5605
 1814SOL    HW116904   1.838   0.999   6.809 -2.2944 -0.6422  1.8500
 1814SOL    HW216905   1.921   1.094   6.888 -1.3210 -0.7197  1.7194
 1815SOL     OW16906   2.401   2.550  13.113  0.4817  0.2628  0.0042
 1815SOL    HW116907   2.436   2.491  13.179 -1.6039 -2.2393 -1.1074
 1815SOL    HW216908   2.442   2.632  13.140  2.0993 -0.4879 -0.2002
 1816SOL     OW16909   4.335   1.081   7.697 -0.8199 -0.2655 -0.0530
 1816SOL    HW116910   4.334   1.155   7.637  0.9265 -1.0674 -1.0666
 1816SOL    HW216911   4.401   1.106   7.761  1.0266 -2.1888 -1.2038
 1817SOL     OW16912   3.840   0.355   9.809 -0.0043 -0.0228 -0.3797
 1817SOL    HW116913   3.794   0.321   9.732 -1.5989 -1.3276  1.1338
 1817SOL    HW216914   3.774   0.405   9.857  0.3221  0.4137 -0.3915
 1818SOL     OW16915   3.214   1.665  11.203 -0.4417  0.2593 -0.1745
 1818SOL    HW116916   3.158   1.641  11.277  0.5858  2.2727  1.2593
 1818SOL    HW216917   3.179   1.611  11.132 -2.7971  1.0961  0.3303
 1819SOL     OW16918   1.317   0.836  11.692 -0.6579 -0.0091  0.5269
 1819SOL    HW116919   1.256   0.900  11.729 -0.7133 -0.9654  2.0460
 1819SOL    HW216920   1.387   0.897  11.667 -2.1343  1.1083 -0.9943
 1820SOL     OW16921   2.655   2.701  10.130  0.3964  0.0607 -0.6808
 1820SOL    HW116922   2.690   2.749  10.055 -0.6791 -2.1677 -2.6076
 1820SOL    HW216923   2.606   2.775  10.167  1.0513  0.4630 -0.6255
 1821SOL     OW16924   1.223   2.999   1.818  0.5819 -0.4597  0.1001
 1821SOL    HW116925   1.144   3.054   1.818  0.5025 -0.5678 -1.4050
 1821SOL    HW216926   1.236   2.972   1.727 -0.7588 -0.2932 -0.1331
 1822SOL     OW16927   4.344   1.061   5.150 -0.3290 -0.8691 -0.2759
 1822SOL    HW116928   4.284   1.001   5.194 -0.7347 -0.0951  0.2410
 1822SOL    HW216929   4.295   1.116   5.089  0.5931  1.7530  1.3248
 1823SOL     OW16930   2.363   1.736   8.711  0.2311 -0.5925  0.6765
 1823SOL    HW116931   2.333   1.649   8.737 -1.5369 -0.6541 -1.5167
 1823SOL    HW216932   2.298   1.759   8.644  0.1582  0.2198  1.0257
 1824SOL     OW16933   3.870   1.646  13.446  0.0113  0.1330  0.3173
 1824SOL    HW116934   3.895   1.722  13.393 -2.4766 -1.3339 -2.9621
 1824SOL    HW216935   3.893   1.575  13.386 -0.1654 -1.2584  1.9039
 1825SOL     OW16936   1.841   0.188   3.845  0.1167 -0.5933 -0.4523
 1825SOL    HW116937   1.812   0.248   3.914  0.2637  1.2106 -1.9596
 1825SOL    HW216938   1.904   0.132   3.890  0.7666  1.3468  1.0574
 1826SOL     OW16939   4.277   2.937  10.094 -0.5703 -0.1174  0.1032
 1826SOL    HW116940   4.354   2.962  10.145 -3.0490  0.9348  3.3022
 1826SOL    HW216941   4.243   2.866  10.149 -0.3456  0.3140  0.7930
 1827SOL     OW16942   1.353   1.411   3.143 -0.3058 -0.2270  0.1527
 1827SOL    HW116943   1.301   1.492   3.141  1.4077  0.8338 -1.6586
 1827SOL    HW216944   1.286   1.358   3.186 -0.2439  0.5606  1.2117
 1828SOL     OW16945   3.084   2.539   8.664  0.2028  0.0599 -0.3343
 1828SOL    HW116946   3.058   2.612   8.720  1.0740  0.6790 -0.7245
 1828SOL    HW216947   3.018   2.472   8.683  1.2355 -0.8532  0.0189
 1829SOL     OW16948   4.700   2.875  16.815  0.3606  0.2653  0.0488
 1829SOL    HW116949   0.010   2.864  16.727 -0.0618  0.9503 -0.2065
 1829SOL    HW216950   4.656   2.790  16.812 -0.1535  0.5694 -0.9635
 1830SOL     OW16951   3.296   3.494   3.679 -0.5991  0.3029 -0.3515
 1830SOL    HW116952   3.366   3.509   3.616  1.1375 -1.7753  1.1199
 1830SOL    HW216953   3.238   3.427   3.642 -1.7479  1.5072 -0.7547
 1831SOL     OW16954   3.650   1.448  11.131  0.8016  0.2191 -0.1417
 1831SOL    HW116955   3.615   1.457  11.042  1.6637 -0.6402 -0.5764
 1831SOL    HW216956   3.603   1.520  11.172  1.2818 -0.1636  1.0987
 1832SOL     OW16957   1.198   0.719   7.047  0.6317 -0.3026 -0.6214
 1832SOL    HW116958   1.179   0.691   6.958  0.9741 -0.7110 -0.5656
 1832SOL    HW216959   1.228   0.805   7.018  2.2406 -0.3406  0.8916
 1833SOL     OW16960   2.956   4.653  13.314  0.0609  0.1142  0.1607
 1833SOL    HW116961   2.873   4.610  13.293 -0.4762  0.6965  1.1198
 1833SOL    HW216962   2.988   4.671  13.225  1.7895 -0.9103  0.5708
 1834SOL     OW16963   2.635   0.453   8.925  0.1424 -0.1713 -0.2663
 1834SOL    HW116964   2.670   0.542   8.919 -0.7008  0.1109 -1.0320
 1834SOL    HW216965   2.656   0.417   8.838 -0.2449  2.2629 -1.3564
 1835SOL     OW16966   2.574   0.113   5.419  0.6232 -0.0161 -0.3908
 1835SOL    HW116967   2.488   0.101   5.378  0.7659  0.9526 -0.9817
 1835SOL    HW216968   2.539   0.151   5.499  1.1065 -1.3088  0.4399
 1836SOL     OW16969   1.247   4.598  11.346 -0.1641  0.5639 -0.3477
 1836SOL    HW116970   1.297   4.639  11.416 -2.0857 -1.4350  2.1777
 1836SOL    HW216971   1.196   4.673  11.313  1.0347  1.3501 -0.4226
 1837SOL     OW16972   1.318   1.172  12.491  0.1596 -0.3118 -0.0864
 1837SOL    HW116973   1.241   1.127  12.525 -0.8592 -0.2092 -2.2258
 1837SOL    HW216974   1.266   1.243  12.451  0.1215 -0.1070  0.3311
 1838SOL     OW16975   3.414   1.271   0.465 -0.3598  0.2356  0.5849
 1838SOL    HW116976   3.431   1.184   0.428 -1.8035  0.4724 -0.6097
 1838SOL    HW216977   3.389   1.250   0.555  0.5924  0.2084  0.8404
 1839SOL     OW16978   1.989   2.221   6.928 -0.1462 -0.2201  0.5790
 1839SOL    HW116979   1.945   2.140   6.902  1.5369 -1.2880  1.0208
 1839SOL    HW216980   1.982   2.269   6.846 -0.2515 -1.2727 -0.0276
 1840SOL     OW16981   0.937   3.837  16.648  0.3577 -0.5257  0.2560
 1840SOL    HW116982   0.890   3.915  16.678 -0.9849 -1.9385  1.7672
 1840SOL    HW216983   1.014   3.878  16.609  0.5232 -0.8780  0.2101
 1841SOL     OW16984   2.910   1.970   2.577  0.2727 -0.1685 -0.2609
 1841SOL    HW116985   2.952   1.890   2.608 -0.3739 -0.4849 -0.2178
 1841SOL    HW216986   2.824   1.934   2.557 -1.4927  2.1210  3.2623
 1842SOL     OW16987   2.764   3.748   3.741  0.4769  0.0988  0.2708
 1842SOL    HW116988   2.785   3.840   3.726 -1.5845  0.3828 -1.0200
 1842SOL    HW216989   2.848   3.703   3.745  0.2818 -0.3120 -0.0888
 1843SOL     OW16990   0.200   1.012  11.549  0.3039 -0.3033  0.0357
 1843SOL    HW116991   0.118   1.056  11.526  1.1577  0.2040 -2.0019
 1843SOL    HW216992   0.242   1.087  11.591 -0.9187  0.3430  0.1353
 1844SOL     OW16993   4.236   3.073   1.314  0.3872 -0.6835  0.1620
 1844SOL    HW116994   4.226   3.019   1.235  1.7080 -2.4972  1.2504
 1844SOL    HW216995   4.154   3.123   1.317 -0.3529 -1.9906  2.1123
 1845SOL     OW16996   1.240   0.411   2.112  0.2595 -0.1340  0.1120
 1845SOL    HW116997   1.203   0.345   2.054  0.7353  0.1615 -0.5337
 1845SOL    HW216998   1.333   0.412   2.090  0.2022  1.3083 -0.0740
 1846SOL     OW16999   1.908   2.018   4.105 -0.2274  0.0283  0.3964
 1846SOL    HW117000   1.850   2.094   4.093  0.3249  0.3184 -0.3726
 1846SOL    HW217001   1.978   2.052   4.161 -1.6394  1.2099  1.4552
 1847SOL     OW17002   1.580   1.610   5.945  0.5018  0.0512  0.4574
 1847SOL    HW117003   1.577   1.558   6.025 -1.4549  1.1983  1.1311
 1847SOL    HW217004   1.500   1.589   5.897  0.1597 -0.1349  1.1069
 1848SOL     OW17005   4.157   1.018   2.669 -0.2132 -0.1326 -0.5230
 1848SOL    HW117006   4.221   1.074   2.625  1.0506  0.3166  1.8676
 1848SOL    HW217007   4.088   0.998   2.606 -1.5373  1.4959  0.4208
 1849SOL     OW17008   0.735   3.690  17.555  0.2366 -0.0448  0.2836
 1849SOL    HW117009   0.693   3.705  17.470  2.7777  0.0160 -0.9583
 1849SOL    HW217010   0.817   3.738  17.544 -0.3772  1.4251  2.1145
 1850SOL     OW17011   0.887   0.905  14.308  0.2403 -0.0088 -0.1655
 1850SOL    HW117012   0.933   0.826  14.281  1.3277  0.7757 -0.6122
 1850SOL    HW217013   0.897   0.966  14.235 -2.1046 -0.1234 -0.5720
 1851SOL     OW17014   1.337   3.189   5.599  0.5705 -0.2013 -0.5878
 1851SOL    HW117015   1.346   3.104   5.555 -1.5381 -0.4462 -0.5214
 1851SOL    HW217016   1.281   3.239   5.540  1.2487  1.9935  0.6224
 1852SOL     OW17017   1.759   2.769   2.148  0.6906  0.0295  0.7500
 1852SOL    HW117018   1.795   2.680   2.144 -2.0609 -0.9612 -1.8054
 1852SOL    HW217019   1.693   2.754   2.215 -0.5977  0.7167 -0.3840
 1853SOL     OW17020   3.439   0.516   8.430  0.3698 -0.0704  0.7057
 1853SOL    HW117021   3.421   0.503   8.337  0.0220 -0.6016  0.8488
 1853SOL    HW217022   3.346   0.511   8.451  0.3039  2.7323  1.0970
 1854SOL     OW17023   1.709   4.471   1.859  0.4022  0.1414  0.4470
 1854SOL    HW117024   1.746   4.398   1.908 -0.6408  0.5856  1.9072
 1854SOL    HW217025   1.659   4.519   1.925 -0.8940  1.1193 -1.2494
 1855SOL     OW17026   2.498   1.777   1.631 -0.3301 -0.4133  0.1422
 1855SOL    HW117027   2.479   1.692   1.591  0.7529 -0.5732 -0.0441
 1855SOL    HW217028   2.509   1.835   1.556  3.1146 -1.5881 -0.2828
 1856SOL     OW17029   2.000   2.156  10.716  0.1037  0.1695 -0.1036
 1856SOL    HW117030   1.929   2.092  10.726 -0.1937  0.3154 -1.1679
 1856SOL    HW217031   1.961   2.243  10.717 -0.2025  0.0416 -0.6598
 1857SOL     OW17032   0.219   0.625   8.676  0.2154  0.7097 -0.5962
 1857SOL    HW117033   0.262   0.655   8.756  0.1120 -0.1472 -0.2196
 1857SOL    HW217034   0.254   0.538   8.658 -0.5857  0.3306 -0.3175
 1858SOL     OW17035   2.552   2.739   7.937  0.3202  0.1869  0.2104
 1858SOL    HW117036   2.582   2.784   7.858  0.2481  0.2162  0.1998
 1858SOL    HW217037   2.559   2.644   7.928  1.2922  0.2453  0.4385
 1859SOL     OW17038   2.406   1.555   4.146  0.6393 -0.0611  0.0015
 1859SOL    HW117039   2.456   1.499   4.087 -1.1954 -0.3039 -1.2982
 1859SOL    HW217040   2.321   1.511   4.145  1.0480 -0.7903 -1.7761
 1860SOL     OW17041   2.260   0.519   2.302  0.0913  0.2842  0.8074
 1860SOL    HW117042   2.228   0.610   2.299 -0.5194  0.0362 -0.0778
 1860SOL    HW217043   2.338   0.530   2.357 -0.6816  0.3739  1.8982
 1861SOL     OW17044   0.651   0.887   4.876  0.4090  0.0156 -0.2488
 1861SOL    HW117045   0.682   0.899   4.786  1.3414  3.2201  0.5216
 1861SOL    HW217046   0.562   0.856   4.860  0.0760  0.6285  0.4687
 1862SOL     OW17047   4.618   2.423   6.056  0.1716 -0.2645  0.5077
 1862SOL    HW117048   4.532   2.440   6.095 -0.0200  1.7144 -0.7922
 1862SOL    HW217049   4.668   2.479   6.115  1.0011 -0.2026 -0.2508
 1863SOL     OW17050   1.020   1.688   4.501 -0.4320 -0.3380 -0.2048
 1863SOL    HW117051   0.984   1.763   4.454 -0.7780  1.4624  2.8919
 1863SOL    HW217052   0.939   1.652   4.537  1.0719 -1.3602  2.1721
 1864SOL     OW17053   4.014   2.669  17.277 -0.3916 -0.1425 -0.1668
 1864SOL    HW117054   4.103   2.683  17.245 -0.9064  1.2164 -1.0300
 1864SOL    HW217055   4.041   2.665  17.368  0.0505  1.1775 -0.2416
 1865SOL     OW17056   1.238   0.428   6.657 -0.2324 -0.0676 -0.0835
 1865SOL    HW117057   1.295   0.361   6.697  1.4981  1.5969  0.2360
 1865SOL    HW217058   1.198   0.381   6.584 -0.9738 -1.1913  1.0245
 1866SOL     OW17059   1.408   2.381   1.803  0.5187 -0.2227 -0.3645
 1866SOL    HW117060   1.421   2.437   1.880 -0.2656  0.4194 -0.7011
 1866SOL    HW217061   1.378   2.447   1.740 -1.6702  2.0985  3.0858
 1867SOL     OW17062   4.146   0.386  14.193  0.4772  0.0249 -0.1851
 1867SOL    HW117063   4.096   0.338  14.127  0.6772 -0.1780 -0.1915
 1867SOL    HW217064   4.071   0.440  14.218  0.5037  0.0738 -0.2106
 1868SOL     OW17065   4.477   0.452   1.942  0.0181  0.4219 -0.2895
 1868SOL    HW117066   4.482   0.547   1.954 -1.3629  0.0384  3.2416
 1868SOL    HW217067   4.404   0.438   1.882 -0.8154 -0.3182  0.9082
 1869SOL     OW17068   4.465   2.010   2.267  0.3961  0.3715  0.1934
 1869SOL    HW117069   4.373   2.034   2.259  0.7739  1.2794 -1.4469
 1869SOL    HW217070   4.477   1.958   2.187  0.0800 -0.0201  0.3952
 1870SOL     OW17071   3.760   3.919  14.768 -0.2026  0.5389  0.1696
 1870SOL    HW117072   3.846   3.919  14.726 -1.2635 -2.1744 -1.9472
 1870SOL    HW217073   3.721   3.979  14.704  2.5382 -1.0858 -3.0334
 1871SOL     OW17074   2.735   3.266   4.173  0.0763 -0.7487 -0.1168
 1871SOL    HW117075   2.705   3.220   4.095 -1.7553 -2.4262  1.5658
 1871SOL    HW217076   2.703   3.354   4.153  2.2453 -0.4813 -2.3863
 1872SOL     OW17077   3.933   2.784  14.132  0.6112 -0.4480 -0.3118
 1872SOL    HW117078   3.962   2.830  14.053 -0.0855  1.5233  0.5576
 1872SOL    HW217079   3.932   2.694  14.100  1.8373 -0.4018 -0.4539
 1873SOL     OW17080   1.319   3.617   0.651  0.5115 -0.2251 -0.0875
 1873SOL    HW117081   1.239   3.585   0.607 -1.1777  3.7525  0.0670
 1873SOL    HW217082   1.283   3.682   0.711 -0.7972 -1.1442  0.1230
 1874SOL     OW17083   0.091   0.569   8.293 -0.2568 -0.5304  0.2857
 1874SOL    HW117084   0.003   0.574   8.254 -1.0658 -0.8380  2.0455
 1874SOL    HW217085   0.147   0.568   8.216 -1.3167  1.2289 -0.5260
 1875SOL     OW17086   1.544   1.458   3.718 -0.0572  0.2452  0.4881
 1875SOL    HW117087   1.581   1.435   3.804 -0.9882 -2.2609  0.2016
 1875SOL    HW217088   1.621   1.456   3.661 -0.1601  2.1675  0.2639
 1876SOL     OW17089   1.528   0.312   8.972 -0.5596  0.4868 -0.1921
 1876SOL    HW117090   1.476   0.300   9.051 -1.2733  2.0196 -0.4359
 1876SOL    HW217091   1.606   0.259   8.991 -0.8772 -0.5384 -1.6867
 1877SOL     OW17092   4.026   0.116   4.349 -0.0498 -0.5510  0.4992
 1877SOL    HW117093   4.109   0.078   4.376  0.8612  0.4745 -0.8683
 1877SOL    HW217094   3.990   0.151   4.431  1.2483 -0.3967  1.0042
 1878SOL     OW17095   0.591   2.494   4.442 -0.5948  0.0111 -0.3418
 1878SOL    HW117096   0.676   2.461   4.413 -0.0281  1.6900 -0.5871
 1878SOL    HW217097   0.609   2.586   4.425  2.7455 -0.1182  2.5353
 1879SOL     OW17098   2.657   2.588  11.318 -0.4486  0.0050  0.2916
 1879SOL    HW117099   2.707   2.506  11.317 -0.1837  0.1798 -1.4603
 1879SOL    HW217100   2.718   2.659  11.296 -0.3228  0.0275  0.7057
 1880SOL     OW17101   4.519   2.066   7.342  0.3799 -0.3118 -0.0889
 1880SOL    HW117102   4.563   2.151   7.330  2.6667 -1.4747  0.1570
 1880SOL    HW217103   4.445   2.091   7.396  1.4597  1.9323  0.3874
 1881SOL     OW17104   4.495   2.430  16.066 -0.4763 -0.3743 -0.3221
 1881SOL    HW117105   4.469   2.451  16.156  2.2219 -1.2719  0.6715
 1881SOL    HW217106   4.427   2.488  16.030  2.0642  0.8029 -3.1581
 1882SOL     OW17107   1.256   3.512   4.902  0.2828  0.2499  0.1379
 1882SOL    HW117108   1.183   3.493   4.842  1.4641  0.6205 -1.4194
 1882SOL    HW217109   1.202   3.556   4.968 -1.4177  0.3016 -1.2600
 1883SOL     OW17110   1.443   3.097   7.024 -0.0849 -0.4603 -0.0619
 1883SOL    HW117111   1.387   3.144   6.962  0.4802  0.7366  0.3322
 1883SOL    HW217112   1.388   3.053   7.089 -0.2719 -3.6937 -2.4195
 1884SOL     OW17113   4.692   3.202   7.683 -0.0492 -0.7595 -0.1467
 1884SOL    HW117114   0.048   3.180   7.729  0.1525 -0.5733 -0.4134
 1884SOL    HW217115   4.685   3.141   7.609 -0.4202 -0.1787 -0.5907
 1885SOL     OW17116   3.434   2.831   4.619  0.0227  0.2171  0.0422
 1885SOL    HW117117   3.391   2.782   4.549  0.9698 -1.5629  0.7053
 1885SOL    HW217118   3.357   2.858   4.668 -0.8647 -2.5114  0.1416
 1886SOL     OW17119   1.357   4.634  11.747 -0.5777  0.1389 -0.5627
 1886SOL    HW117120   1.387   4.711  11.699  0.1065 -0.3327 -0.8909
 1886SOL    HW217121   1.264   4.635  11.724 -0.6468  1.1088 -0.2384
 1887SOL     OW17122   4.202   4.030   9.445 -0.0695  0.2623 -0.1352
 1887SOL    HW117123   4.142   4.032   9.520 -0.4065  0.5825 -0.4158
 1887SOL    HW217124   4.165   3.962   9.390 -0.4316 -0.0659  0.5196
 1888SOL     OW17125   1.993   0.419   8.837  0.0892  0.1881  0.2818
 1888SOL    HW117126   1.958   0.507   8.824 -0.3035  0.1987  1.4739
 1888SOL    HW217127   2.018   0.426   8.929 -2.8452 -3.7839  1.3656
 1889SOL     OW17128   2.159   2.538   2.369 -0.0582  0.3686 -0.0149
 1889SOL    HW117129   2.224   2.559   2.437 -0.4522 -1.7877  1.0219
 1889SOL    HW217130   2.204   2.475   2.313 -2.6697 -0.4706 -1.1418
 1890SOL     OW17131   1.781   0.291   9.786 -0.0341 -0.0592 -0.1277
 1890SOL    HW117132   1.764   0.198   9.804  0.0987 -0.2198 -0.8455
 1890SOL    HW217133   1.854   0.290   9.724  1.0406 -0.2820  1.1325
 1891SOL     OW17134   3.054   2.148   6.561  0.0595 -0.0082  0.2169
 1891SOL    HW117135   2.988   2.194   6.510 -0.3039  0.3042  0.9695
 1891SOL    HW217136   3.071   2.209   6.633  1.7665  1.4236 -1.4034
 1892SOL     OW17137   2.391   4.543   6.766  0.4841 -0.1026  0.5821
 1892SOL    HW117138   2.484   4.524   6.752  0.3075  0.0936 -0.8363
 1892SOL    HW217139   2.350   4.483   6.703  0.9069 -2.2180  2.3116
 1893SOL     OW17140   3.985   0.204   3.353 -0.0813  0.1923 -0.1589
 1893SOL    HW117141   3.950   0.268   3.291 -1.5423  1.0999  1.5920
 1893SOL    HW217142   3.986   0.261   3.430 -0.3178 -2.0711  1.5299
 1894SOL     OW17143   1.374   0.413   5.062  0.2521 -0.2594  0.0873
 1894SOL    HW117144   1.442   0.349   5.043  1.9672  1.4000  0.6844
 1894SOL    HW217145   1.294   0.360   5.064 -0.5919  1.0269  0.7341
 1895SOL     OW17146   0.537   3.390   8.016  0.6446  0.1974 -0.6375
 1895SOL    HW117147   0.543   3.307   7.969 -1.9967 -1.2859  1.6550
 1895SOL    HW217148   0.625   3.421   8.037 -0.5094  1.8466  1.7980
 1896SOL     OW17149   1.089   0.544   6.254  0.4134 -0.7725  0.2267
 1896SOL    HW117150   1.031   0.496   6.314 -0.8781  0.8469  0.2835
 1896SOL    HW217151   1.171   0.508   6.287 -0.6089 -3.5327 -0.2050
 1897SOL     OW17152   1.144   2.484   1.083  0.1247 -0.1500  0.0731
 1897SOL    HW117153   1.148   2.395   1.047 -4.5202  0.2790 -1.4967
 1897SOL    HW217154   1.056   2.514   1.059  0.4951  0.1391 -0.9496
 1898SOL     OW17155   2.473   4.242   6.885 -0.5032  0.4728 -0.2817
 1898SOL    HW117156   2.454   4.150   6.872  0.3129  0.2109  0.3907
 1898SOL    HW217157   2.458   4.259   6.978  0.4496  0.6510 -0.1637
 1899SOL     OW17158   4.543   3.623   8.342  0.3226 -0.1831 -0.3675
 1899SOL    HW117159   4.603   3.611   8.268  0.0299 -1.5693 -0.3846
 1899SOL    HW217160   4.559   3.549   8.401 -1.7411 -2.3053 -2.4922
 1900SOL     OW17161   2.396   2.013  10.856 -0.2091 -0.6625 -0.0124
 1900SOL    HW117162   2.427   1.936  10.808  0.2478  0.2729 -1.2453
 1900SOL    HW217163   2.349   2.074  10.798 -0.4820 -1.6207 -0.7887
 1901SOL     OW17164   4.023   4.388   2.609  0.3474 -0.1054  0.3985
 1901SOL    HW117165   4.038   4.391   2.515  2.8245  3.1666  0.9249
 1901SOL    HW217166   3.954   4.455   2.610 -2.1332 -2.6914  2.0424
 1902SOL     OW17167   3.072   3.152   6.740 -0.1383 -0.7763 -0.2134
 1902SOL    HW117168   3.008   3.083   6.725 -0.5487 -0.6473  0.9435
 1902SOL    HW217169   3.126   3.126   6.815  0.9795  1.3476 -0.2622
 1903SOL     OW17170   2.697   0.012   6.853 -0.1652  0.4109 -0.3791
 1903SOL    HW117171   2.668   0.065   6.779 -0.4792 -0.0289 -0.5760
 1903SOL    HW217172   2.706   4.647   6.821 -3.0616  0.9171 -2.6088
 1904SOL     OW17173   3.782   0.691  16.048 -0.3866 -0.9605 -0.2448
 1904SOL    HW117174   3.749   0.630  15.981 -0.7871 -2.4329  1.3054
 1904SOL    HW217175   3.862   0.643  16.069 -0.6251 -1.6380 -0.8487
 1905SOL     OW17176   3.952   0.339   8.866 -0.1265  0.4222  0.3903
 1905SOL    HW117177   3.998   0.274   8.920  1.3472 -0.5939 -2.1123
 1905SOL    HW217178   4.010   0.343   8.790  1.1337  1.4204  1.3879
 1906SOL     OW17179   2.032   0.033  16.988  0.1577 -0.8047  0.2292
 1906SOL    HW117180   2.066   0.121  17.007  0.6456 -0.9480  0.0136
 1906SOL    HW217181   1.940   0.059  17.001 -0.6288 -4.1323  1.3681
 1907SOL     OW17182   2.519   1.672   3.375 -0.0332  0.7457  0.5172
 1907SOL    HW117183   2.614   1.673   3.381  0.0158 -0.8335  0.1873
 1907SOL    HW217184   2.504   1.577   3.368  2.1888  0.4437 -0.1778
 1908SOL     OW17185   0.835   3.940   4.690 -0.0254 -0.6291  0.6750
 1908SOL    HW117186   0.875   3.977   4.611 -0.8152 -1.7796 -0.2722
 1908SOL    HW217187   0.859   4.007   4.754 -0.7206  0.3682 -0.1000
 1909SOL     OW17188   3.732   2.034   4.777  0.1551 -0.0301 -0.1368
 1909SOL    HW117189   3.792   1.974   4.820 -0.1643 -1.5552 -1.8389
 1909SOL    HW217190   3.650   2.019   4.825 -0.8094  1.5970 -1.2388
 1910SOL     OW17191   3.979   2.729   8.925  0.7631 -0.2312  0.1895
 1910SOL    HW117192   3.889   2.699   8.915  0.7042  0.9222 -2.4535
 1910SOL    HW217193   3.995   2.777   8.844 -0.8501  0.6615  0.4037
 1911SOL     OW17194   1.611   2.210   7.906  0.0628 -0.0635  0.3157
 1911SOL    HW117195   1.633   2.222   7.814 -2.9050 -1.2556 -0.5681
 1911SOL    HW217196   1.699   2.206   7.942 -0.1566 -0.8195  0.7897
 1912SOL     OW17197   4.080   4.399   4.137 -0.2827 -0.0219  0.4298
 1912SOL    HW117198   4.171   4.404   4.105 -0.0496 -0.5189  1.0132
 1912SOL    HW217199   4.061   4.492   4.145 -0.6379 -0.0236 -0.3526
 1913SOL     OW17200   0.166   4.291   1.139 -0.2431  0.2381  0.0744
 1913SOL    HW117201   0.083   4.331   1.113 -0.9142 -1.7600 -0.8182
 1913SOL    HW217202   0.230   4.345   1.092 -1.1167  1.1686 -0.0550
 1914SOL     OW17203   1.983   3.224  14.277 -0.2552 -0.2435  0.4224
 1914SOL    HW117204   2.056   3.218  14.340  0.9375 -0.5153 -0.9792
 1914SOL    HW217205   2.030   3.247  14.197  0.9043 -1.5973  0.7133
 1915SOL     OW17206   1.689   1.403  10.986 -0.2884  0.3970 -0.5139
 1915SOL    HW117207   1.650   1.319  10.962  0.1233 -0.4299  1.7424
 1915SOL    HW217208   1.773   1.380  11.026 -0.7973  1.2108  1.0248
 1916SOL     OW17209   2.496   3.566  10.570 -0.3166 -0.1950  0.3557
 1916SOL    HW117210   2.487   3.588  10.662  1.3840  1.3446  0.1404
 1916SOL    HW217211   2.589   3.579  10.550  0.3171 -2.8441  1.6220
 1917SOL     OW17212   3.361   3.379   3.200 -0.2429  0.2409  0.1887
 1917SOL    HW117213   3.421   3.449   3.174 -1.5338  1.5984  0.8588
 1917SOL    HW217214   3.293   3.424   3.250 -0.8922  0.5836 -0.9902
 1918SOL     OW17215   1.822   1.740   2.412 -0.9661 -0.4496 -0.0459
 1918SOL    HW117216   1.786   1.817   2.456  1.7173 -0.3879  2.0265
 1918SOL    HW217217   1.911   1.750   2.446 -1.0683 -0.9045  0.3591
 1919SOL     OW17218   2.601   2.642   0.757 -0.0426  0.2819 -0.7797
 1919SOL    HW117219   2.674   2.623   0.815  0.3480  1.4197 -0.8920
 1919SOL    HW217220   2.554   2.718   0.791 -0.0554 -0.3639  0.6267
 1920SOL     OW17221   1.109   1.373   2.824  0.0048 -0.1742 -0.2692
 1920SOL    HW117222   1.110   1.466   2.846  3.6630  0.0055 -1.1036
 1920SOL    HW217223   1.047   1.336   2.887  0.3733  0.9540  0.7576
 1921SOL     OW17224   0.146   2.598   2.850  0.2836 -0.1328 -0.9655
 1921SOL    HW117225   0.060   2.611   2.811  0.4825  1.0861 -0.9760
 1921SOL    HW217226   0.170   2.508   2.826  1.1926 -0.3282  0.6595
 1922SOL     OW17227   3.442   0.781  11.984 -0.5028  0.0889 -0.8369
 1922SOL    HW117228   3.381   0.813  12.050  0.3948  0.1961 -0.0560
 1922SOL    HW217229   3.407   0.814  11.901  2.5474  1.4826 -1.5850
 1923SOL     OW17230   1.352   0.585   3.102 -0.1881 -0.1632  0.3930
 1923SOL    HW117231   1.294   0.519   3.063  0.2064 -1.0480  1.3233
 1923SOL    HW217232   1.367   0.565   3.194  1.8135 -0.7690 -0.0675
 1924SOL     OW17233   0.282   3.143   4.209  0.1831 -0.3012  0.3346
 1924SOL    HW117234   0.370   3.110   4.229  1.6939  0.9883 -4.1381
 1924SOL    HW217235   0.235   3.060   4.206 -0.4704 -0.0025  2.1170
 1925SOL     OW17236   3.099   0.168  14.561  0.2086 -0.0002 -0.3101
 1925SOL    HW117237   3.017   0.208  14.533  0.7750  1.6276  0.3707
 1925SOL    HW217238   3.160   0.197  14.493  0.4262 -0.5157 -0.3354
 1926SOL     OW17239   4.038   4.135   8.184  0.4938 -0.1478 -0.3289
 1926SOL    HW117240   4.118   4.085   8.200  0.4866  0.2399  0.9722
 1926SOL    HW217241   3.965   4.076   8.201  0.6794 -0.5909 -1.0722
 1927SOL     OW17242   3.302   4.106  15.827  0.2406 -0.3482 -0.1285
 1927SOL    HW117243   3.234   4.146  15.773  0.1475  0.3329  0.5047
 1927SOL    HW217244   3.347   4.051  15.762 -1.0591 -1.0540 -0.4371
 1928SOL     OW17245   1.962   4.004   8.211  0.1583  0.3291  0.1742
 1928SOL    HW117246   1.966   3.962   8.297  0.1428  3.4232  1.6821
 1928SOL    HW217247   1.972   3.932   8.149 -0.0525  1.8489 -1.6453
 1929SOL     OW17248   0.817   3.039   5.238  0.4282  0.7774 -0.1121
 1929SOL    HW117249   0.908   3.060   5.216  0.8958  1.1446  2.1593
 1929SOL    HW217250   0.788   3.129   5.224 -3.5708 -0.3619  0.8657
 1930SOL     OW17251   2.551   1.342   2.897  0.2902  0.4803 -0.0856
 1930SOL    HW117252   2.604   1.374   2.970  1.5261  0.3427 -0.9057
 1930SOL    HW217253   2.595   1.264   2.863 -0.0390  1.3274 -2.5044
 1931SOL     OW17254   1.598   2.651   6.683  0.1324 -0.1404  0.0163
 1931SOL    HW117255   1.619   2.672   6.593  0.4435  1.1246  0.3804
 1931SOL    HW217256   1.668   2.589   6.704 -0.9320 -0.0953  3.7285
 1932SOL     OW17257   3.406   2.683   2.691  0.1218 -0.4569  0.5059
 1932SOL    HW117258   3.394   2.715   2.781  2.6658 -3.1114  1.7921
 1932SOL    HW217259   3.322   2.713   2.658  0.4449  1.3355  1.3052
 1933SOL     OW17260   3.432   1.024   6.817  0.3756 -0.0601  0.3902
 1933SOL    HW117261   3.416   1.019   6.723  1.0018  1.0364  0.2313
 1933SOL    HW217262   3.460   1.115   6.823  1.9211 -0.4324 -1.2974
 1934SOL     OW17263   2.470   1.027   0.718 -0.2855  0.2629  0.2581
 1934SOL    HW117264   2.483   0.984   0.634  0.0483  0.0457  0.4215
 1934SOL    HW217265   2.555   1.069   0.730  0.4021 -0.3727 -2.5795
 1935SOL     OW17266   4.035   3.297   2.243  0.5555  0.3599 -0.7876
 1935SOL    HW117267   3.992   3.366   2.294  1.1716  0.4199 -0.3417
 1935SOL    HW217268   4.101   3.357   2.208 -0.7031  1.4872 -1.2291
 1936SOL     OW17269   2.760   3.354  10.466  0.1620  0.5153 -0.3238
 1936SOL    HW117270   2.680   3.329  10.512  0.2865 -0.4942 -0.6461
 1936SOL    HW217271   2.833   3.317  10.515 -0.4160 -1.1861 -0.7552
 1937SOL     OW17272   1.759   2.773   5.975  0.0274  0.1986 -0.4157
 1937SOL    HW117273   1.691   2.718   6.016 -0.1326  0.3634 -0.4596
 1937SOL    HW217274   1.736   2.858   6.013  1.1276  0.5996 -0.6624
 1938SOL     OW17275   1.255   1.150   4.907 -0.0097 -0.0018 -0.1822
 1938SOL    HW117276   1.298   1.129   4.823  0.3728  0.4802 -0.1057
 1938SOL    HW217277   1.260   1.065   4.950 -1.0489  1.0549  1.9699
 1939SOL     OW17278   4.639   3.339   3.405  0.2871  0.1403  0.2150
 1939SOL    HW117279   4.640   3.413   3.466 -0.8150 -1.0657  1.6692
 1939SOL    HW217280   4.642   3.265   3.464  0.2551 -0.6434 -0.7622
 1940SOL     OW17281   0.912   1.278  12.646  0.0016  0.2257 -0.3991
 1940SOL    HW117282   0.819   1.293  12.664 -0.5848 -0.1500 -3.1208
 1940SOL    HW217283   0.949   1.285  12.734  0.2738  1.5276 -0.6174
 1941SOL     OW17284   3.612   4.080   9.887  0.4096 -0.0466  0.2377
 1941SOL    HW117285   3.617   4.173   9.906 -2.9910 -0.4203  3.2059
 1941SOL    HW217286   3.700   4.043   9.895  0.6227  0.5159  0.4634
 1942SOL     OW17287   1.358   2.567   5.259  0.2841  0.4258 -0.0361
 1942SOL    HW117288   1.304   2.586   5.182  1.0559  0.5304 -0.5475
 1942SOL    HW217289   1.419   2.498   5.234 -0.6209 -0.3286 -0.2019
 1943SOL     OW17290   3.268   4.275   7.321 -0.3281  1.2237 -0.0107
 1943SOL    HW117291   3.297   4.264   7.231 -0.3096 -2.7991  0.4869
 1943SOL    HW217292   3.174   4.261   7.318  0.0090 -0.9456 -0.1914
 1944SOL     OW17293   2.637   3.824   7.479 -1.2155 -0.8205  0.4808
 1944SOL    HW117294   2.617   3.733   7.459 -1.5767 -0.5758 -0.2626
 1944SOL    HW217295   2.641   3.818   7.575  1.6472  0.3653  0.4434
 1945SOL     OW17296   0.905   1.615  14.589  0.3098  1.2254  0.8118
 1945SOL    HW117297   0.957   1.694  14.603 -1.2666  2.3000  0.6050
 1945SOL    HW217298   0.915   1.563  14.668  0.5365  0.4885  0.2979
 1946SOL     OW17299   3.655   2.577  15.984  0.6711  0.1752 -0.4552
 1946SOL    HW117300   3.741   2.535  15.986  0.3112 -0.5421 -0.1102
 1946SOL    HW217301   3.657   2.644  16.052 -0.3091 -1.0400  0.7740
 1947SOL     OW17302   3.241   3.071  16.774 -0.1228  0.5939 -0.4294
 1947SOL    HW117303   3.185   3.129  16.722 -0.5554 -1.3898 -2.1738
 1947SOL    HW217304   3.324   3.117  16.763  0.5267 -0.9820 -2.1409
 1948SOL     OW17305   3.232   1.986   0.080  0.2536  0.7181  0.4745
 1948SOL    HW117306   3.287   2.063   0.064  0.0617  0.5225 -1.1415
 1948SOL    HW217307   3.163   2.003   0.016  0.1491 -3.0260 -0.4360
 1949SOL     OW17308   2.099   2.851  17.010 -0.0842  0.2112 -0.1469
 1949SOL    HW117309   2.107   2.938  17.048 -2.2277  1.4937 -2.6222
 1949SOL    HW217310   2.149   2.860  16.929 -0.0988 -2.8156 -0.4921
 1950SOL     OW17311   2.459   1.486   3.796  0.1477 -0.0763 -0.3940
 1950SOL    HW117312   2.464   1.414   3.858 -0.3906  1.2062  1.1473
 1950SOL    HW217313   2.543   1.469   3.754  0.9612  1.6581  0.5168
 1951SOL     OW17314   2.464   1.719   2.723  0.3931  0.6673  0.4628
 1951SOL    HW117315   2.557   1.697   2.727  0.2702  0.2542  1.2157
 1951SOL    HW217316   2.436   1.700   2.813  2.2858 -1.2507  0.6495
 1952SOL     OW17317   0.932   4.545   2.795 -0.5923 -0.2475 -0.0509
 1952SOL    HW117318   0.873   4.562   2.869  0.8589 -1.3409  1.3388
 1952SOL    HW217319   0.869   4.543   2.722 -0.5650  0.0551 -0.0819
 1953SOL     OW17320   2.805   1.926   3.379 -0.2629 -0.5702  0.7471
 1953SOL    HW117321   2.728   1.947   3.433  0.6533  0.1571  1.7802
 1953SOL    HW217322   2.884   1.945   3.429  0.5545  0.0663 -0.7997
 1954SOL     OW17323   4.395   1.696   6.423  0.0594  0.6165 -0.0414
 1954SOL    HW117324   4.339   1.634   6.376 -1.0175  0.8252  0.9596
 1954SOL    HW217325   4.430   1.768   6.369 -0.9593  0.3103 -1.1081
 1955SOL     OW17326   0.401   2.595  10.910  0.6059 -0.4208 -0.0284
 1955SOL    HW117327   0.348   2.569  10.986  1.9836 -0.8948  0.7705
 1955SOL    HW217328   0.384   2.522  10.850  0.9974 -1.3509  0.9781
 1956SOL     OW17329   2.308   2.249   8.235  0.1579 -0.5320  0.1734
 1956SOL    HW117330   2.374   2.209   8.178 -1.5451  1.1310 -2.9141
 1956SOL    HW217331   2.358   2.316   8.283 -0.7597 -1.3703  2.3328
 1957SOL     OW17332   4.677   1.549  16.272  0.4219  0.0812  0.6007
 1957SOL    HW117333   0.047   1.552  16.288  0.4678  1.9634 -0.0069
 1957SOL    HW217334   4.653   1.462  16.301 -0.0117  0.6082  1.7927
 1958SOL     OW17335   0.375   3.128   9.414  0.4733 -0.0658  0.0294
 1958SOL    HW117336   0.469   3.130   9.431  0.3091  1.6889  0.8396
 1958SOL    HW217337   0.359   3.037   9.437 -0.4198  0.1523  0.2869
 1959SOL     OW17338   0.470   0.138   6.846  0.2150 -0.4633 -0.7092
 1959SOL    HW117339   0.383   0.173   6.826  0.1353 -0.7216 -0.8026
 1959SOL    HW217340   0.435   0.052   6.869  0.1082 -0.5893 -1.3675
 1960SOL     OW17341   2.373   3.547   6.550  0.0207 -0.0562  0.2079
 1960SOL    HW117342   2.344   3.458   6.570  1.0035 -0.3844  0.1561
 1960SOL    HW217343   2.290   3.596   6.547 -0.6432 -1.2488 -0.7114
 1961SOL     OW17344   1.702   1.761   7.476  0.6325 -0.1925 -0.2324
 1961SOL    HW117345   1.665   1.803   7.398 -0.2586  2.3281  1.5585
 1961SOL    HW217346   1.690   1.832   7.539  0.0809 -0.2140 -0.3084
 1962SOL     OW17347   1.390   0.538   3.694 -0.2672  0.0895  0.2358
 1962SOL    HW117348   1.375   0.447   3.670 -3.1788  0.8500 -0.9099
 1962SOL    HW217349   1.473   0.553   3.650 -0.0909  1.5265  1.0596
 1963SOL     OW17350   1.641   3.280   5.444 -0.8126 -0.4105 -0.1475
 1963SOL    HW117351   1.563   3.309   5.396 -0.6904 -0.9458 -0.6736
 1963SOL    HW217352   1.647   3.189   5.412 -2.3765  0.0169 -1.6360
 1964SOL     OW17353   0.987   1.552  16.853  0.4673  0.1476 -0.5813
 1964SOL    HW117354   0.931   1.614  16.900  0.6234 -1.3787  1.6163
 1964SOL    HW217355   1.074   1.590  16.846  0.3974  0.1200 -1.5782
 1965SOL     OW17356   0.527   1.082   6.274  0.2224  0.0724  0.0752
 1965SOL    HW117357   0.497   1.107   6.362  4.2070 -1.5925  1.9224
 1965SOL    HW217358   0.580   1.007   6.299  0.2137 -0.2434 -0.8683
 1966SOL     OW17359   1.811   3.570  13.908  0.8803  0.6786  1.0629
 1966SOL    HW117360   1.824   3.660  13.938 -1.5054  0.9986  1.1613
 1966SOL    HW217361   1.813   3.576  13.813  0.2012  0.1118  1.0097
 1967SOL     OW17362   3.785   3.657   5.098 -0.3415 -0.3674  0.2380
 1967SOL    HW117363   3.727   3.588   5.066 -0.6360  1.1342 -2.4930
 1967SOL    HW217364   3.732   3.689   5.171 -2.0045  0.6229 -1.3916
 1968SOL     OW17365   2.904   2.873   5.176 -0.2456  0.5353  0.1916
 1968SOL    HW117366   2.946   2.791   5.150 -1.1097  0.1293  0.0777
 1968SOL    HW217367   2.973   2.933   5.204  1.6043 -1.2634 -0.5517
 1969SOL     OW17368   4.612   1.355   4.724  0.1891  0.4298 -0.2792
 1969SOL    HW117369   4.553   1.332   4.796 -0.2433  1.0155 -0.4521
 1969SOL    HW217370   4.699   1.338   4.762 -0.5461  0.2547  1.3456
 1970SOL     OW17371   3.376   3.348  17.336 -0.1266  0.3883 -0.0364
 1970SOL    HW117372   3.348   3.432  17.372  0.7128  0.3940  0.6038
 1970SOL    HW217373   3.302   3.289  17.350 -0.6710  1.7478  2.9351
 1971SOL     OW17374   2.497   0.710   7.865 -0.2587  0.6447 -0.2002
 1971SOL    HW117375   2.502   0.709   7.961  0.5982  1.0374 -0.2398
 1971SOL    HW217376   2.582   0.754   7.863 -0.0935  0.3757  0.9059
 1972SOL     OW17377   2.182   0.816   3.256  0.4972 -0.1735 -0.0375
 1972SOL    HW117378   2.256   0.869   3.286 -0.1290 -0.1945  1.5373
 1972SOL    HW217379   2.184   0.818   3.160  0.1178 -1.6423 -0.0765
 1973SOL     OW17380   3.891   3.813   5.687 -0.2384  0.8519 -0.5366
 1973SOL    HW117381   3.967   3.862   5.718 -0.2235 -0.3078  1.2367
 1973SOL    HW217382   3.866   3.756   5.759 -0.2637 -0.0474 -1.2512
 1974SOL     OW17383   3.073   0.684   2.698 -0.6188  0.0340  0.0566
 1974SOL    HW117384   3.119   0.664   2.616 -1.7878 -2.4768 -0.0009
 1974SOL    HW217385   3.146   0.655   2.752  0.4716  2.3081 -0.2062
 1975SOL     OW17386   3.368   4.324   4.555  0.1338  0.4094  0.3133
 1975SOL    HW117387   3.431   4.396   4.560  1.2607 -0.4872 -0.9141
 1975SOL    HW217388   3.308   4.343   4.627  2.0583 -1.4840  2.4307
 1976SOL     OW17389   0.529   2.953   2.323 -0.3137  0.1328 -0.0609
 1976SOL    HW117390   0.544   2.918   2.411 -1.4659  1.6918  0.7700
 1976SOL    HW217391   0.502   3.043   2.341  2.1117  0.7540  0.3644
 1977SOL     OW17392   4.412   4.254   9.480  0.2758  0.0884 -0.7447
 1977SOL    HW117393   4.419   4.200   9.401 -1.5828  1.7941 -2.0735
 1977SOL    HW217394   4.436   4.179   9.535 -0.9253 -0.5301 -1.0569
 1978SOL     OW17395   0.801   3.418  11.193  0.0460 -0.7394  0.8037
 1978SOL    HW117396   0.765   3.424  11.281  0.6169  1.6889  0.8703
 1978SOL    HW217397   0.866   3.488  11.196 -0.9208  0.2100 -0.4237
 1979SOL     OW17398   1.177   0.138  13.242  0.4952  0.2379  0.3256
 1979SOL    HW117399   1.139   0.051  13.253  1.1405 -0.1299 -0.2985
 1979SOL    HW217400   1.138   0.184  13.168 -0.3775 -0.5013  0.3239
 1980SOL     OW17401   4.520   4.378   7.921  0.1048  0.2038  0.3245
 1980SOL    HW117402   4.563   4.326   7.989  0.2536 -0.7347 -0.4846
 1980SOL    HW217403   4.428   4.356   7.936 -0.1119  1.2425  0.5268
 1981SOL     OW17404   0.886   1.222   5.173  0.1397  0.7129  0.2730
 1981SOL    HW117405   0.907   1.193   5.262  0.9964 -1.6873 -0.7249
 1981SOL    HW217406   0.794   1.245   5.189  0.0650 -0.0156  0.9106
 1982SOL     OW17407   2.039   2.456  16.787  0.0213 -0.2160 -0.1411
 1982SOL    HW117408   2.007   2.539  16.821  1.9135 -0.3282  1.9048
 1982SOL    HW217409   2.101   2.440  16.859 -3.1279 -1.4409  2.3101
 1983SOL     OW17410   3.122   1.872   6.500 -0.4874 -0.3147 -0.5606
 1983SOL    HW117411   3.159   1.830   6.577 -2.5795 -0.0458  0.5984
 1983SOL    HW217412   3.058   1.933   6.536 -0.7869 -1.3294  0.6271
 1984SOL     OW17413   3.391   2.951  12.133 -0.2040 -0.0405  0.8203
 1984SOL    HW117414   3.402   2.898  12.054 -0.1998 -1.1319  1.5547
 1984SOL    HW217415   3.319   3.009  12.111  2.2274  2.0933 -1.5216
 1985SOL     OW17416   4.114   2.633   0.411 -0.6236  0.4303 -0.0810
 1985SOL    HW117417   4.179   2.681   0.360 -0.5776  0.2575 -0.1843
 1985SOL    HW217418   4.091   2.710   0.463  0.1229  1.8343 -1.8596
 1986SOL     OW17419   3.813   0.340  14.434 -0.4694  0.1099 -0.3142
 1986SOL    HW117420   3.864   0.409  14.391  0.3397  0.0042  0.4874
 1986SOL    HW217421   3.873   0.267  14.445  1.2564  1.3066 -1.6494
 1987SOL     OW17422   2.801   1.487  14.577  0.2636 -0.7137 -0.1919
 1987SOL    HW117423   2.724   1.445  14.539  1.1584 -1.4916 -1.1516
 1987SOL    HW217424   2.832   1.533  14.500 -2.4194  0.9716 -0.2662
 1988SOL     OW17425   2.630   0.551   1.815 -0.5666 -0.1672 -0.1814
 1988SOL    HW117426   2.557   0.547   1.877  1.7233  1.0212  2.6282
 1988SOL    HW217427   2.635   0.644   1.795 -2.1563  0.4740  2.3200
 1989SOL     OW17428   0.049   4.430   6.792  0.1729 -0.2968  0.2733
 1989SOL    HW117429   0.118   4.429   6.725  0.3512 -1.6231  0.4737
 1989SOL    HW217430   4.713   4.365   6.755  0.0163  0.4122 -0.7326
 1990SOL     OW17431   4.112   2.915   5.880 -0.1038 -0.0872 -0.1629
 1990SOL    HW117432   4.024   2.946   5.857  0.2564 -0.2971 -1.8450
 1990SOL    HW217433   4.154   2.915   5.794 -0.6765 -2.2001 -0.4615
 1991SOL     OW17434   0.343   0.026   8.638  0.1202 -0.2987  0.5934
 1991SOL    HW117435   0.299   0.040   8.554  0.4669  2.5942  0.9059
 1991SOL    HW217436   0.268   0.052   8.690 -0.5460 -2.6706  0.8087
 1992SOL     OW17437   4.554   3.594   0.407  0.3382  0.2795  0.7405
 1992SOL    HW117438   4.471   3.582   0.361  0.8976 -0.8882  0.0420
 1992SOL    HW217439   4.526   3.671   0.456  2.0566  0.3984  1.5560
 1993SOL     OW17440   0.406   4.474  14.676 -0.4887 -0.5835 -0.1277
 1993SOL    HW117441   0.444   4.395  14.714  1.1252  0.7168  0.9463
 1993SOL    HW217442   0.324   4.441  14.638  1.4228 -2.6991 -2.4223
 1994SOL     OW17443   0.284   2.546   7.636  0.0080 -0.0266  0.7143
 1994SOL    HW117444   0.277   2.489   7.560 -0.9479 -1.0986  1.5925
 1994SOL    HW217445   0.363   2.511   7.676  1.1535  2.4536  0.6540
 1995SOL     OW17446   2.007   1.779   7.194  0.1300  0.4117  0.5092
 1995SOL    HW117447   1.928   1.808   7.147  1.1974  1.5119 -0.6146
 1995SOL    HW217448   2.059   1.859   7.194  0.2457  0.3310  1.8819
 1996SOL     OW17449   0.364   1.676   0.027  0.6102 -0.1019 -0.4171
 1996SOL    HW117450   0.351   1.721  17.646 -0.4707 -0.8146 -0.6383
 1996SOL    HW217451   0.281   1.682   0.075  0.6100  1.7787 -0.6405
 1997SOL     OW17452   3.557   1.684   2.120 -0.3782 -0.6489  0.4696
 1997SOL    HW117453   3.525   1.766   2.083  0.8516 -1.3591 -2.1920
 1997SOL    HW217454   3.477   1.658   2.166 -0.7352  0.5963  0.5456
 1998SOL     OW17455   1.146   0.238   5.170 -0.8203 -0.2004  1.2712
 1998SOL    HW117456   1.123   0.147   5.157 -1.8371 -0.1337  2.5620
 1998SOL    HW217457   1.144   0.245   5.266 -0.5731 -2.8310  1.4469
 1999SOL     OW17458   3.068   1.420  16.247  0.4450 -0.3961 -0.1795
 1999SOL    HW117459   3.113   1.433  16.164 -0.3816  0.1523 -0.5382
 1999SOL    HW217460   3.115   1.348  16.289  1.7824  0.3629 -0.3972
 2000SOL     OW17461   3.936   1.762   6.332 -0.2767 -0.5773  0.2807
 2000SOL    HW117462   3.877   1.821   6.379  1.0476  1.7659 -1.0317
 2000SOL    HW217463   3.978   1.711   6.402 -0.5486 -2.9503 -1.2995
 2001SOL     OW17464   4.486   3.806   7.870  0.6987 -0.3454 -0.1236
 2001SOL    HW117465   4.399   3.767   7.870 -0.1800  1.5883 -0.9475
 2001SOL    HW217466   4.470   3.894   7.905  2.4780  0.8669 -2.3875
 2002SOL     OW17467   3.493   0.618   6.002  0.3688 -0.2442  0.0147
 2002SOL    HW117468   3.557   0.592   6.068 -2.4236 -1.2243  2.3277
 2002SOL    HW217469   3.410   0.585   6.037 -0.5955 -1.3526 -3.3145
 2003SOL     OW17470   0.620   1.620   2.518 -0.0587 -0.1812  0.2237
 2003SOL    HW117471   0.546   1.582   2.470 -0.5642  2.1361 -0.8702
 2003SOL    HW217472   0.575   1.696   2.557  0.8152 -0.0615  0.9746
 2004SOL     OW17473   3.919   0.812   3.967  0.2322 -0.4631  0.6861
 2004SOL    HW117474   3.974   0.735   3.961  0.4363 -0.1487 -1.3150
 2004SOL    HW217475   3.919   0.837   4.060  1.4410 -1.2512  0.8907
 2005SOL     OW17476   1.099   3.692   9.108 -0.4182 -0.8532 -0.1855
 2005SOL    HW117477   1.030   3.679   9.172 -1.3376 -0.0944 -1.0289
 2005SOL    HW217478   1.147   3.611   9.092  1.2265 -0.0883  0.7982
 2006SOL     OW17479   0.057   0.547   6.455 -0.0889  0.1944 -0.7060
 2006SOL    HW117480   0.104   0.479   6.406  1.8422  0.2684  1.0598
 2006SOL    HW217481   0.029   0.489   6.525  1.0657  1.3368  0.6866
 2007SOL     OW17482   2.623   2.549   6.009  0.0850  0.6060  0.5407
 2007SOL    HW117483   2.630   2.456   6.032 -2.2732  0.0236 -1.1056
 2007SOL    HW217484   2.710   2.568   5.975 -0.0142 -1.2838 -0.7626
 2008SOL     OW17485   3.491   1.652  11.185 -0.0024 -0.3325 -0.5987
 2008SOL    HW117486   3.504   1.747  11.195  2.1346 -0.7212  0.2744
 2008SOL    HW217487   3.396   1.659  11.182  0.1951  2.4734 -0.3846
 2009SOL     OW17488   0.090   3.888  13.795 -0.1450  0.6470 -0.5074
 2009SOL    HW117489   0.137   3.827  13.852 -0.5446  0.0279 -0.8346
 2009SOL    HW217490   0.052   3.829  13.730 -1.1072 -0.7008  1.2740
 2010SOL     OW17491   3.167   2.817  11.814  0.0484  0.4000 -0.4203
 2010SOL    HW117492   3.259   2.834  11.832 -0.5289  0.0272  3.0576
 2010SOL    HW217493   3.132   2.777  11.894  0.5952 -1.4234 -1.0845
 2011SOL     OW17494   3.549   1.925   5.220  0.1020  0.0033 -0.0599
 2011SOL    HW117495   3.586   1.991   5.161  0.6115 -0.1591  0.0824
 2011SOL    HW217496   3.561   1.842   5.175 -0.1556  0.9647 -1.9235
 2012SOL     OW17497   1.002   3.110   5.532 -0.5293  0.5477 -0.3901
 2012SOL    HW117498   0.951   3.108   5.451 -0.3623 -0.6407 -0.4651
 2012SOL    HW217499   1.080   3.156   5.501 -1.9251  3.5129  0.4866
 2013SOL     OW17500   4.388   4.064   7.917 -0.2039 -0.1261  0.2820
 2013SOL    HW117501   4.315   4.122   7.894  1.4504  2.2935  1.1086
 2013SOL    HW217502   4.403   4.077   8.011  0.3034 -0.9974  0.3154
 2014SOL     OW17503   4.003   0.468   2.160 -0.1356 -0.3248  0.1740
 2014SOL    HW117504   3.924   0.523   2.164  0.0346  0.0211 -1.2053
 2014SOL    HW217505   4.054   0.522   2.100 -1.5200 -3.1780 -3.5965
 2015SOL     OW17506   2.863   2.801   7.308  0.3415 -0.0031 -0.1825
 2015SOL    HW117507   2.774   2.830   7.288  0.0661 -2.0199 -1.9897
 2015SOL    HW217508   2.879   2.849   7.389 -0.8117  0.6385 -0.3264
 2016SOL     OW17509   4.187   0.262  10.114 -0.3032 -0.1097  0.3491
 2016SOL    HW117510   4.251   0.325  10.147 -0.3244  0.5761 -0.9262
 2016SOL    HW217511   4.147   0.318  10.047  1.9147  0.1860 -0.7241
 2017SOL     OW17512   4.665   1.341   2.935 -0.3235  0.5133 -0.4238
 2017SOL    HW117513   4.635   1.290   3.011  1.2528  0.5300  0.2078
 2017SOL    HW217514   4.583   1.378   2.903  0.2325 -0.0140 -2.4767
 2018SOL     OW17515   2.733   2.238   1.198 -0.3488 -0.4425 -0.3658
 2018SOL    HW117516   2.719   2.249   1.292 -0.3048  2.4371 -0.6992
 2018SOL    HW217517   2.651   2.194   1.174  0.3528 -2.3819  0.7591
 2019SOL     OW17518   3.715   3.880  15.991 -0.3609 -0.0107 -0.4276
 2019SOL    HW117519   3.656   3.947  15.956  2.3971  1.6222 -1.9685
 2019SOL    HW217520   3.774   3.951  16.019 -0.4010 -0.7870  1.5905
 2020SOL     OW17521   2.193   4.340   0.658  0.0089 -0.7114  0.2893
 2020SOL    HW117522   2.205   4.433   0.641 -1.3065 -0.2532  1.8823
 2020SOL    HW217523   2.164   4.341   0.749 -0.3242  1.8415  0.1583
 2021SOL     OW17524   1.487   3.165   8.640 -0.4289  0.1778  0.1989
 2021SOL    HW117525   1.577   3.140   8.617 -1.7210 -3.1229 -1.4007
 2021SOL    HW217526   1.447   3.098   8.584 -1.5511 -1.2016  2.6881
 2022SOL     OW17527   2.143   2.327  12.132  0.3273 -0.7054  0.5479
 2022SOL    HW117528   2.145   2.419  12.160  3.7485 -1.1401  1.7058
 2022SOL    HW217529   2.158   2.327  12.037 -0.2928  1.9247  0.4317
 2023SOL     OW17530   4.121   4.026   7.430  0.4450 -0.0499 -0.1537
 2023SOL    HW117531   4.171   4.078   7.367 -0.4310  0.2406 -0.6008
 2023SOL    HW217532   4.046   4.085   7.432  0.2953 -0.2425 -0.0880
 2024SOL     OW17533   0.305   4.184   4.154  1.0736  0.2129 -0.1892
 2024SOL    HW117534   0.272   4.099   4.183  3.1901 -0.4486  0.2729
 2024SOL    HW217535   0.390   4.158   4.120  0.8728  0.0972 -0.5977
 2025SOL     OW17536   1.353   2.686   3.289  0.1633  0.2775 -0.5877
 2025SOL    HW117537   1.301   2.702   3.368  0.3633  2.3096 -0.8828
 2025SOL    HW217538   1.427   2.648   3.337 -0.5850 -0.7054 -0.2042
 2026SOL     OW17539   1.685   3.095  15.140  0.3729 -0.2078 -0.3082
 2026SOL    HW117540   1.722   3.020  15.187  2.6563  0.7997 -0.4894
 2026SOL    HW217541   1.641   3.050  15.068 -0.1172  1.1082 -0.8373
 2027SOL     OW17542   1.531   2.291   6.674 -0.2743 -0.0778 -0.0165
 2027SOL    HW117543   1.525   2.199   6.698  0.6412 -0.7451 -2.3754
 2027SOL    HW217544   1.449   2.330   6.705  1.2362  2.0926  1.2871
 2028SOL     OW17545   1.675   3.847   8.861  0.0289 -0.2710  0.2485
 2028SOL    HW117546   1.641   3.936   8.849 -2.4680 -1.3950 -1.1118
 2028SOL    HW217547   1.595   3.806   8.828  1.1649  0.4430 -3.4907
 2029SOL     OW17548   0.670   1.256   2.242 -0.4904 -0.3005  0.0254
 2029SOL    HW117549   0.668   1.189   2.174  1.1736 -0.2578 -0.0738
 2029SOL    HW217550   0.763   1.275   2.257 -0.5018  0.0272 -0.2975
 2030SOL     OW17551   0.246   3.293  11.653 -0.4099  0.3058 -0.1644
 2030SOL    HW117552   0.228   3.290  11.747 -0.8895 -1.3185 -0.3052
 2030SOL    HW217553   0.234   3.387  11.641  0.1891  0.4524  0.4013
 2031SOL     OW17554   4.275   1.027   9.217 -0.0836 -0.0742  0.4759
 2031SOL    HW117555   4.322   0.974   9.153  1.6560  1.8059  0.2201
 2031SOL    HW217556   4.217   1.073   9.156  1.1617  0.7816 -0.0494
 2032SOL     OW17557   0.502   4.109   5.747  0.5178 -0.4337 -0.2693
 2032SOL    HW117558   0.571   4.070   5.801  0.0005  0.2425  0.9033
 2032SOL    HW217559   0.489   4.049   5.674  0.8363 -0.1108 -0.5884
 2033SOL     OW17560   0.118   1.173   2.020 -0.5701 -0.1360  0.2601
 2033SOL    HW117561   0.152   1.213   1.940  0.2325  1.3764  1.3464
 2033SOL    HW217562   0.045   1.125   1.981 -0.5010  1.0954 -1.3927
 2034SOL     OW17563   2.346   3.022   9.985 -0.2558 -0.1491  0.9469
 2034SOL    HW117564   2.260   2.980   9.977 -1.3625  2.1552  0.7175
 2034SOL    HW217565   2.320   3.099  10.037 -2.0000 -0.9690  1.2895
 2035SOL     OW17566   2.780   1.112   0.461 -0.7067  0.3954  0.4891
 2035SOL    HW117567   2.777   1.023   0.495 -0.6400  0.6785  1.2332
 2035SOL    HW217568   2.861   1.108   0.409 -1.8887  2.0562 -1.5154
 2036SOL     OW17569   1.000   0.226   3.101 -0.2538  0.0085  0.1605
 2036SOL    HW117570   1.085   0.264   3.078 -1.3554  2.9139  0.9315
 2036SOL    HW217571   0.952   0.302   3.132  1.1933  1.3506 -0.8957
 2037SOL     OW17572   2.316   0.385  17.138 -0.3250 -0.2600 -0.3738
 2037SOL    HW117573   2.273   0.315  17.186  0.6467  0.5453  1.6891
 2037SOL    HW217574   2.314   0.460  17.197 -0.1021 -0.7075  0.1947
 2038SOL     OW17575   1.247   0.058   3.749 -0.2013 -0.0148 -0.3414
 2038SOL    HW117576   1.176   4.719   3.762 -0.8060  0.9453  1.1137
 2038SOL    HW217577   1.196   0.128   3.790  0.4648  0.3416 -0.1376
 2039SOL     OW17578   4.297   1.487   8.665  0.1897  0.1979 -0.6499
 2039SOL    HW117579   4.372   1.466   8.721  0.5319  0.1649 -1.1219
 2039SOL    HW217580   4.319   1.576   8.638 -2.0571 -0.2156 -3.8287
 2040SOL     OW17581   4.349   1.029   3.699 -0.2631 -0.0013 -0.3954
 2040SOL    HW117582   4.314   0.988   3.777  0.0739  0.7143  0.1332
 2040SOL    HW217583   4.276   1.087   3.678 -2.2173 -2.3261  0.0667
 2041SOL     OW17584   2.283   3.935   4.049  0.4599  0.8352 -0.7215
 2041SOL    HW117585   2.301   3.888   3.967  0.1802 -0.6650  0.0805
 2041SOL    HW217586   2.359   3.912   4.103 -0.9845 -0.9974  0.5307
 2042SOL     OW17587   4.404   2.135   8.209 -0.6579  0.0038  0.5785
 2042SOL    HW117588   4.425   2.049   8.173 -1.2764  0.2623 -0.3988
 2042SOL    HW217589   4.458   2.144   8.287  0.8686 -0.4515 -0.4163
 2043SOL     OW17590   4.408   2.733  16.543 -0.6715 -0.0965  0.2814
 2043SOL    HW117591   4.351   2.801  16.507  0.0382  0.2392 -0.2266
 2043SOL    HW217592   4.371   2.654  16.505  0.2154  0.4250 -1.6902
 2044SOL     OW17593   4.145   0.742   4.927 -0.6451  0.3529  0.0330
 2044SOL    HW117594   4.132   0.667   4.984  0.3798  0.0281 -0.1520
 2044SOL    HW217595   4.237   0.764   4.938 -0.3994  0.0248 -1.2941
 2045SOL     OW17596   1.749   2.013   4.526 -0.4013  0.1818 -0.2888
 2045SOL    HW117597   1.696   1.950   4.575  0.1364 -1.2496 -1.5691
 2045SOL    HW217598   1.704   2.016   4.442 -0.7131  1.5487 -0.0847
 2046SOL     OW17599   0.223   0.675  11.167  0.1362  0.0162  0.5427
 2046SOL    HW117600   0.172   0.716  11.236 -0.5961  0.1531 -0.0748
 2046SOL    HW217601   0.299   0.651  11.220  0.9660  0.3128 -0.4930
 2047SOL     OW17602   3.331   0.916   2.313  0.0864  0.6287  0.3581
 2047SOL    HW117603   3.259   0.888   2.257 -0.1601 -0.4354  1.2019
 2047SOL    HW217604   3.406   0.894   2.258  0.7767  1.8032  0.8307
 2048SOL     OW17605   4.456   0.007   3.198  0.2142  0.4727  0.5873
 2048SOL    HW117606   4.540   0.046   3.222  0.6971  0.3343 -0.9034
 2048SOL    HW217607   4.390   0.066   3.235 -0.3426  0.7410 -0.8312
 2049SOL     OW17608   1.719   3.036   1.910  0.4369  0.1199  0.5425
 2049SOL    HW117609   1.688   3.127   1.908  0.3870  0.1153  1.2224
 2049SOL    HW217610   1.638   2.990   1.929  2.0858 -2.3464  1.6169
 2050SOL     OW17611   0.817   2.283   6.950  0.2262  0.1479  0.0461
 2050SOL    HW117612   0.760   2.347   6.907  0.5322  0.7661  0.5655
 2050SOL    HW217613   0.747   2.249   7.007 -0.8584 -0.0664 -1.4151
 2051SOL     OW17614   3.742   2.668   5.506 -0.2272  0.4656  0.2896
 2051SOL    HW117615   3.668   2.673   5.445 -0.6461  0.7452  0.8294
 2051SOL    HW217616   3.811   2.712   5.457  0.1763 -1.4497 -0.8674
 2052SOL     OW17617   3.452   4.496   7.902 -0.2640  0.0878  0.6064
 2052SOL    HW117618   3.524   4.545   7.943  0.8037  0.4712 -1.7228
 2052SOL    HW217619   3.428   4.553   7.829  1.5167  1.4193  1.0523
 2053SOL     OW17620   0.938   0.727  15.199  0.3973  0.1311  0.0031
 2053SOL    HW117621   0.931   0.632  15.192  0.7036  0.2171 -1.5924
 2053SOL    HW217622   0.892   0.753  15.118  1.8726 -0.7249 -1.1076
 2054SOL     OW17623   1.831   3.112  17.223 -0.4914 -0.3946  0.0168
 2054SOL    HW117624   1.812   3.021  17.202  0.3042 -0.8219  1.1560
 2054SOL    HW217625   1.924   3.107  17.203 -0.5010  0.0708 -0.1525
 2055SOL     OW17626   4.281   1.602   1.756  0.3293  0.5675 -0.2901
 2055SOL    HW117627   4.355   1.544   1.776  1.2240  1.8932  0.2253
 2055SOL    HW217628   4.327   1.684   1.736  0.6991  0.3059 -0.5165
 2056SOL     OW17629   1.556   3.177   7.765  0.3121  0.4499  0.0779
 2056SOL    HW117630   1.552   3.266   7.731  1.4878  0.3051 -0.4591
 2056SOL    HW217631   1.648   3.169   7.790  0.7333  0.6711 -1.3962
 2057SOL     OW17632   0.420   0.409   9.329  0.0095 -0.1727  0.2504
 2057SOL    HW117633   0.483   0.442   9.394 -0.2722 -0.5001  0.6904
 2057SOL    HW217634   0.369   0.489   9.319  0.0842 -0.4197 -2.0507
 2058SOL     OW17635   3.551   0.427   2.943  0.0627  0.7932 -0.2015
 2058SOL    HW117636   3.524   0.454   3.031  2.9958  0.5260  0.7962
 2058SOL    HW217637   3.611   0.498   2.922  0.1778  0.0212 -2.4999
 2059SOL     OW17638   1.625   0.214  11.015  0.1869  0.2234 -0.1041
 2059SOL    HW117639   1.697   0.243  11.071 -0.1135 -0.7185  0.7545
 2059SOL    HW217640   1.672   0.177  10.940 -2.0112  1.0916 -1.9037
 2060SOL     OW17641   0.588   4.605   4.003 -0.0060  0.1600  0.2662
 2060SOL    HW117642   0.529   4.530   4.006 -0.1349  0.2436 -0.0696
 2060SOL    HW217643   0.572   4.634   3.913  1.4924 -1.5743 -0.5448
 2061SOL     OW17644   3.255   2.295   0.788  0.5086  0.4290  0.0244
 2061SOL    HW117645   3.312   2.234   0.741 -1.5276 -1.0184 -0.5602
 2061SOL    HW217646   3.224   2.342   0.711  0.2042  1.7924  0.9784
 2062SOL     OW17647   1.527   2.049  16.304  0.6167  0.1285  0.3303
 2062SOL    HW117648   1.536   1.955  16.316 -1.9270 -0.2797 -0.8722
 2062SOL    HW217649   1.459   2.068  16.369 -0.0225  0.5887 -0.4780
 2063SOL     OW17650   2.515   1.166   9.472 -0.5553  0.4960 -0.2301
 2063SOL    HW117651   2.604   1.198   9.458 -1.0632  1.9201 -0.2721
 2063SOL    HW217652   2.511   1.149   9.566 -0.5627  1.8237  0.0176
 2064SOL     OW17653   3.434   3.819   2.492  0.1915 -0.2074 -0.3137
 2064SOL    HW117654   3.341   3.822   2.512  0.0260 -0.6855 -1.0429
 2064SOL    HW217655   3.463   3.728   2.502  0.5153  0.1248  1.9056
 2065SOL     OW17656   0.619   3.933  11.633 -0.1103 -0.0681  0.4231
 2065SOL    HW117657   0.649   4.010  11.586  2.2441 -1.7517 -0.8325
 2065SOL    HW217658   0.586   3.966  11.717 -1.5704 -3.2940  1.1361
 2066SOL     OW17659   1.626   4.696   5.700  0.3445 -0.9008 -0.2082
 2066SOL    HW117660   1.657   4.636   5.768  3.0227  1.7466  0.8810
 2066SOL    HW217661   1.716   4.711   5.669 -0.4165 -0.8271 -2.3705
 2067SOL     OW17662   4.260   2.145   1.565  0.1526  0.1431 -0.3580
 2067SOL    HW117663   4.286   2.172   1.477  0.4360  0.7000 -0.1035
 2067SOL    HW217664   4.188   2.087   1.540  0.1005  0.5208 -1.0877
 2068SOL     OW17665   0.647   2.073   2.744  0.5760  0.1499  0.2546
 2068SOL    HW117666   0.702   2.149   2.764 -0.0511  0.1010  2.1170
 2068SOL    HW217667   0.568   2.085   2.796 -0.7148  0.4653 -1.7395
 2069SOL     OW17668   0.334   1.697   4.362  0.2314 -0.2181 -0.1508
 2069SOL    HW117669   0.306   1.676   4.451 -1.0271 -0.1848 -0.5445
 2069SOL    HW217670   0.334   1.617   4.308  0.2493 -0.9320  0.9167
 2070SOL     OW17671   1.612   0.858  11.818  0.0068 -0.1726 -0.0281
 2070SOL    HW117672   1.705   0.843  11.800  0.3835  1.8003  0.2934
 2070SOL    HW217673   1.608   0.929  11.755 -2.7515 -0.6990 -0.4574
 2071SOL     OW17674   2.500   1.941   1.387  0.0970  0.2150 -0.5858
 2071SOL    HW117675   2.477   1.985   1.305  1.4498  3.2901  0.6618
 2071SOL    HW217676   2.509   1.851   1.357  0.2795  0.5042 -1.4077
 2072SOL     OW17677   2.235   2.187   6.355  0.2814  0.2399  0.4170
 2072SOL    HW117678   2.148   2.225   6.365  0.3804  0.6998 -0.4169
 2072SOL    HW217679   2.290   2.265   6.364 -0.5193  0.7938  0.4873
 2073SOL     OW17680   4.544   0.750   7.116 -0.2037 -0.0078  0.5729
 2073SOL    HW117681   4.457   0.765   7.079  0.1376 -1.7760 -0.9403
 2073SOL    HW217682   4.533   0.745   7.211  0.0946 -1.1277  0.5445
 2074SOL     OW17683   1.357   0.388   2.379 -0.4077 -0.1256  0.5290
 2074SOL    HW117684   1.405   0.308   2.360  1.1537  0.6313  1.2180
 2074SOL    HW217685   1.384   0.433   2.299 -0.7678  1.1067  1.0899
 2075SOL     OW17686   0.762   0.966  11.019  0.0795 -0.4351  0.2455
 2075SOL    HW117687   0.722   1.053  11.011  1.4315 -0.0904 -2.6837
 2075SOL    HW217688   0.716   0.927  11.094 -1.5289 -1.3047 -1.2177
 2076SOL     OW17689   1.185   3.621   1.263 -0.0993  0.7148 -0.0279
 2076SOL    HW117690   1.165   3.664   1.346 -2.4313  0.5344 -0.5092
 2076SOL    HW217691   1.262   3.672   1.237  0.5405  0.7378  1.9273
 2077SOL     OW17692   4.308   0.785   6.984  0.5782  0.0426 -0.3478
 2077SOL    HW117693   4.283   0.871   6.951 -0.6412  0.2195  1.0275
 2077SOL    HW217694   4.248   0.723   6.942 -0.2846  0.5097  0.1828
 2078SOL     OW17695   2.686   2.363   7.048  0.0760 -0.0981  0.3483
 2078SOL    HW117696   2.736   2.415   7.111 -2.2629  0.0670  2.0824
 2078SOL    HW217697   2.618   2.422   7.016  0.7793  0.3954 -0.2267
 2079SOL     OW17698   0.139   3.026   3.400 -0.1930  0.9508 -0.5884
 2079SOL    HW117699   0.212   3.050   3.343  0.1526  0.1731 -0.4699
 2079SOL    HW217700   0.086   2.965   3.349  0.5658  1.7112 -2.2851
 2080SOL     OW17701   4.281   3.425   7.413 -0.5165 -0.1751  0.5633
 2080SOL    HW117702   4.377   3.434   7.416 -0.4516 -0.7830  0.2229
 2080SOL    HW217703   4.258   3.474   7.492 -0.1185 -1.1999  1.3176
 2081SOL     OW17704   2.404   4.490   0.839  0.3095 -0.9958 -0.3307
 2081SOL    HW117705   2.426   4.445   0.757  1.7992  2.3021 -1.7387
 2081SOL    HW217706   2.328   4.445   0.876  0.7289 -1.2697  0.1846
 2082SOL     OW17707   0.191   2.069  11.749 -0.1300 -0.3250 -0.0061
 2082SOL    HW117708   0.117   2.063  11.809  1.7452 -0.3997  2.2665
 2082SOL    HW217709   0.247   2.126  11.801  0.2423  0.1856 -0.9696
 2083SOL     OW17710   3.726   0.431  11.498  0.5245 -0.2038  0.2933
 2083SOL    HW117711   3.673   0.351  11.494 -0.0248  0.1164  1.1320
 2083SOL    HW217712   3.663   0.498  11.526  0.5191 -0.1982  0.2681
 2084SOL     OW17713   3.689   0.621   7.216  0.2012 -0.3209 -0.2836
 2084SOL    HW117714   3.734   0.701   7.191  1.1627 -0.2934  1.5104
 2084SOL    HW217715   3.759   0.561   7.191  0.8898  0.8547 -1.1632
 2085SOL     OW17716   2.963   0.793   7.558 -0.1220 -0.1479  0.3579
 2085SOL    HW117717   2.894   0.860   7.560  1.5449  1.5550  0.6933
 2085SOL    HW217718   3.027   0.829   7.620  2.1532  0.5156 -2.3897
 2086SOL     OW17719   0.195   0.311   8.373 -0.4090  0.0298 -0.0285
 2086SOL    HW117720   0.214   0.353   8.457 -1.6542 -0.8022  0.6784
 2086SOL    HW217721   0.168   0.392   8.330  0.8552  0.8132  0.6765
 2087SOL     OW17722   3.626   1.553   7.298 -0.2686 -0.8999  0.7542
 2087SOL    HW117723   3.706   1.592   7.334  0.1885  0.2815 -1.5158
 2087SOL    HW217724   3.624   1.613   7.223  1.5096 -0.4756  1.0506
 2088SOL     OW17725   4.537   0.789   3.182  0.5653  0.2704 -0.0513
 2088SOL    HW117726   4.621   0.824   3.154 -1.3185  1.6155 -3.9675
 2088SOL    HW217727   4.485   0.816   3.107 -1.0512  1.3891  1.4738
 2089SOL     OW17728   4.105   3.514  10.412 -0.5539  0.3573 -0.2146
 2089SOL    HW117729   4.057   3.493  10.492 -1.6213  1.6449 -0.5006
 2089SOL    HW217730   4.159   3.592  10.428  0.2680 -0.6185  1.7930
 2090SOL     OW17731   3.094   2.801   9.448  0.6916  0.4449 -0.1558
 2090SOL    HW117732   3.166   2.771   9.503 -0.7961  1.4275  2.3240
 2090SOL    HW217733   3.020   2.799   9.510  1.1366  0.9751  0.3920
 2091SOL     OW17734   2.415   0.743   0.640  0.4723  0.4064 -0.0401
 2091SOL    HW117735   2.359   0.740   0.717  1.0864 -0.0911  0.3919
 2091SOL    HW217736   2.408   0.660   0.593  0.8734 -0.4092  1.3448
 2092SOL     OW17737   2.883   4.515   1.776 -0.6619  0.0837 -0.2069
 2092SOL    HW117738   2.920   4.497   1.863  1.7966  0.4723 -1.1531
 2092SOL    HW217739   2.894   4.610   1.768  0.7758  0.2086  3.2086
 2093SOL     OW17740   3.274   3.767   9.649  0.2027  0.0581  0.6604
 2093SOL    HW117741   3.317   3.707   9.710  0.2512 -1.9931 -1.3789
 2093SOL    HW217742   3.298   3.848   9.695 -0.8512 -0.1351  1.5487
 2094SOL     OW17743   3.688   1.585   1.908 -0.2534 -0.0184 -0.2736
 2094SOL    HW117744   3.644   1.634   1.978  2.0295 -0.2377  1.3099
 2094SOL    HW217745   3.627   1.511   1.903  1.6020 -1.4762 -1.1711
 2095SOL     OW17746   2.161   1.651   1.673 -0.0760  0.6231  0.2406
 2095SOL    HW117747   2.237   1.593   1.671  1.9770  3.3492 -0.1282
 2095SOL    HW217748   2.144   1.646   1.767 -1.2600 -0.8179 -0.0452
 2096SOL     OW17749   0.566   1.054   8.740 -0.1058  0.1241 -0.4783
 2096SOL    HW117750   0.627   1.041   8.812 -1.2561 -1.3981  0.2252
 2096SOL    HW217751   0.545   1.147   8.753  0.0164  0.2379 -1.0769
 2097SOL     OW17752   0.199   3.279   4.835 -0.9473 -0.5854  1.0255
 2097SOL    HW117753   0.204   3.199   4.782  2.0179  1.1998 -1.4232
 2097SOL    HW217754   0.210   3.343   4.764  0.2914 -1.4107  0.4629
 2098SOL     OW17755   1.868   0.669   7.097 -0.2914  0.2110 -0.1751
 2098SOL    HW117756   1.775   0.693   7.094 -0.2063  0.2811 -1.8156
 2098SOL    HW217757   1.901   0.756   7.121 -0.5515  0.3159 -0.1880
 2099SOL     OW17758   3.852   0.929   3.739  0.3683  0.3425 -0.5290
 2099SOL    HW117759   3.851   0.886   3.824  2.8378  1.3350  0.0155
 2099SOL    HW217760   3.857   1.020   3.765 -1.1096 -0.0005  0.9079
 2100SOL     OW17761   3.560   3.709   5.331  0.4439 -0.1892 -0.3648
 2100SOL    HW117762   3.506   3.763   5.388 -2.8366 -1.6789 -2.0821
 2100SOL    HW217763   3.646   3.728   5.368  1.1819 -0.1975 -2.0752
 2101SOL     OW17764   3.753   2.218   9.161 -0.0068 -0.1712  0.0037
 2101SOL    HW117765   3.665   2.183   9.175 -0.3828  0.6122 -0.4167
 2101SOL    HW217766   3.790   2.175   9.238  2.0800 -0.9510 -1.4662
 2102SOL     OW17767   2.628   2.015  15.508 -0.0639  0.1960  0.5138
 2102SOL    HW117768   2.553   2.014  15.566 -2.7010 -1.3601 -2.9247
 2102SOL    HW217769   2.625   2.106  15.479  0.8364  0.0671  0.0069
 2103SOL     OW17770   2.323   0.638   1.686 -0.1537  0.1836 -0.4525
 2103SOL    HW117771   2.410   0.678   1.698 -0.9417  1.0949  2.0729
 2103SOL    HW217772   2.316   0.655   1.592 -1.4729  1.4954 -0.1159
 2104SOL     OW17773   2.937   2.418   4.850  0.2815  0.3518  0.1672
 2104SOL    HW117774   2.979   2.483   4.795  0.0753 -0.3824 -0.8454
 2104SOL    HW217775   2.997   2.343   4.843 -0.4847 -0.1763 -0.7004
 2105SOL     OW17776   3.261   1.457  14.402  0.0961 -0.5817 -0.4041
 2105SOL    HW117777   3.171   1.425  14.390  0.8384 -2.1338 -1.9402
 2105SOL    HW217778   3.313   1.377  14.404 -0.1427 -0.7677 -1.4887
 2106SOL     OW17779   3.186   2.678   7.314 -0.2055  0.0359 -0.1786
 2106SOL    HW117780   3.264   2.706   7.360  0.2911 -1.9238  0.1811
 2106SOL    HW217781   3.130   2.651   7.387 -2.6683  2.7038 -1.0614
 2107SOL     OW17782   2.459   3.431   7.321  0.3279 -0.2532  0.0736
 2107SOL    HW117783   2.475   3.488   7.396  1.3518  1.1626 -1.2184
 2107SOL    HW217784   2.436   3.349   7.366 -0.1527 -0.0094  0.2685
 2108SOL     OW17785   2.456   2.461  16.600  0.1465  0.8108  0.2258
 2108SOL    HW117786   2.524   2.524  16.573 -0.6238  1.7307  0.4281
 2108SOL    HW217787   2.391   2.453  16.530  1.0288 -1.4809 -0.3298
 2109SOL     OW17788   2.640   4.037   8.027 -0.6394 -0.4660  0.3166
 2109SOL    HW117789   2.669   4.064   8.114 -2.6562 -1.1954  1.2371
 2109SOL    HW217790   2.697   3.964   8.002  1.5073  1.8262 -1.3558
 2110SOL     OW17791   0.545   2.373   1.041  0.0533 -0.7822 -0.0040
 2110SOL    HW117792   0.513   2.310   1.105  1.7092 -0.5463  1.0319
 2110SOL    HW217793   0.534   2.460   1.079  1.0679 -0.0753 -1.3127
 2111SOL     OW17794   0.047   2.746   9.052 -0.0735  0.1949  0.2069
 2111SOL    HW117795   0.113   2.694   9.098  1.3549  0.8596 -1.0718
 2111SOL    HW217796   4.709   2.754   9.124  0.5277  1.5873  0.5774
 2112SOL     OW17797   1.177   4.447  11.902 -0.0216 -0.6013 -0.5998
 2112SOL    HW117798   1.262   4.485  11.878  0.3070 -1.4253 -0.7411
 2112SOL    HW217799   1.116   4.520  11.890  1.4096  0.6152 -0.6368
 2113SOL     OW17800   4.459   1.040   4.092 -0.0149 -0.1976 -0.1243
 2113SOL    HW117801   4.447   1.102   4.020 -0.7251  1.3497  1.3204
 2113SOL    HW217802   4.524   1.091   4.140 -1.0795  1.6267 -0.5931
 2114SOL     OW17803   3.141   3.268   2.957 -0.9839  0.5051 -0.3173
 2114SOL    HW117804   3.228   3.248   2.991 -0.3196  0.4632 -2.0267
 2114SOL    HW217805   3.141   3.226   2.871  0.3755 -2.5433  1.1874
 2115SOL     OW17806   1.675   0.172   4.424 -0.4048 -0.0011 -0.0649
 2115SOL    HW117807   1.726   0.143   4.348  0.4021  0.6455  0.2314
 2115SOL    HW217808   1.630   0.246   4.385  2.9484  2.9776  1.7572
 2116SOL     OW17809   0.646   4.330   0.590  0.1095 -0.1348  0.0027
 2116SOL    HW117810   0.641   4.244   0.548  1.8053 -0.2907  0.1195
 2116SOL    HW217811   0.704   4.304   0.662  0.0031 -0.9752 -0.2142
 2117SOL     OW17812   1.727   1.427  11.587  0.1987  0.4302  0.0297
 2117SOL    HW117813   1.658   1.462  11.531  0.0734  0.4734  0.2079
 2117SOL    HW217814   1.804   1.482  11.574 -0.1041  1.3315  1.8952
 2118SOL     OW17815   1.852   2.220   8.053 -0.8137 -0.0020  0.9200
 2118SOL    HW117816   1.910   2.143   8.056  0.5962  0.8823 -2.7292
 2118SOL    HW217817   1.877   2.252   8.139 -3.0572 -0.4234  1.7044
 2119SOL     OW17818   1.923   2.949   4.643 -0.7562 -0.6536  0.4914
 2119SOL    HW117819   2.004   2.927   4.689  0.0724  1.1487 -0.1024
 2119SOL    HW217820   1.913   3.037   4.680  0.4735 -0.8421  1.2789
 2120SOL     OW17821   2.044   3.165  15.127  0.0063  0.1526  0.2528
 2120SOL    HW117822   2.082   3.177  15.040 -0.7934 -0.5761 -0.1900
 2120SOL    HW217823   2.069   3.244  15.176 -0.0431 -0.0147  0.5468
 2121SOL     OW17824   2.516   0.493   4.756  0.3446 -0.8497  0.7027
 2121SOL    HW117825   2.448   0.449   4.705  1.2506  1.2812 -2.3517
 2121SOL    HW217826   2.565   0.422   4.798 -0.9146 -2.0403  0.1674
 2122SOL     OW17827   2.362   2.896   6.001 -0.8381 -0.0978  0.0657
 2122SOL    HW117828   2.317   2.941   5.930 -0.9319  0.3643  0.4179
 2122SOL    HW217829   2.421   2.967   6.025 -0.2696 -0.6314  0.2543
 2123SOL     OW17830   0.078   1.401   0.697  0.0583 -0.6262  0.1157
 2123SOL    HW117831   0.101   1.453   0.620 -0.2000 -1.6628 -0.6562
 2123SOL    HW217832   0.139   1.433   0.764 -1.3425  2.5289 -0.1115
 2124SOL     OW17833   4.251   4.386  13.671  0.3060  0.4529 -0.3641
 2124SOL    HW117834   4.269   4.308  13.618 -3.0555 -1.9587  2.0032
 2124SOL    HW217835   4.338   4.384  13.711 -0.8750 -0.0067  2.1852
 2125SOL     OW17836   3.123   1.906   7.545 -0.0195 -0.3986  0.7523
 2125SOL    HW117837   3.201   1.961   7.554  0.5553 -1.1696  0.4386
 2125SOL    HW217838   3.056   1.954   7.495 -1.4885 -2.3576  0.8400
 2126SOL     OW17839   4.175   4.183   2.748  0.1205  0.0653  0.1633
 2126SOL    HW117840   4.241   4.216   2.687  0.0090 -1.0022 -0.5395
 2126SOL    HW217841   4.147   4.265   2.788 -0.1701 -1.3077  2.7920
 2127SOL     OW17842   2.595   0.331   1.306 -0.3103  0.0648 -0.4584
 2127SOL    HW117843   2.582   0.276   1.229 -3.0461  0.7876 -0.5027
 2127SOL    HW217844   2.575   0.418   1.272 -2.0206 -1.1070 -2.4277
 2128SOL     OW17845   2.585   2.942   0.163 -0.5709 -0.5736  0.2983
 2128SOL    HW117846   2.534   2.934   0.082 -1.4917  3.4129  0.4984
 2128SOL    HW217847   2.514   2.951   0.226  0.7705 -1.2261  1.9027
 2129SOL     OW17848   0.422   3.457   9.316 -0.0772  0.5261 -0.3276
 2129SOL    HW117849   0.482   3.389   9.347  0.2333  0.5194 -0.9559
 2129SOL    HW217850   0.469   3.536   9.344 -1.7486  1.5093 -0.2989
 2130SOL     OW17851   3.989   2.277  17.383  0.4672 -0.2660  0.2415
 2130SOL    HW117852   3.925   2.266  17.313  1.3733 -1.5535 -0.3659
 2130SOL    HW217853   3.948   2.228  17.455  0.4114  2.5430  2.1262
 2131SOL     OW17854   3.631   2.156  12.721 -0.2205  0.1049  0.4743
 2131SOL    HW117855   3.554   2.129  12.670 -1.5647  2.7658  1.0877
 2131SOL    HW217856   3.651   2.238  12.675 -0.5095 -1.0973 -1.8032
 2132SOL     OW17857   0.553   2.598   7.100  0.6754  0.0548  0.4665
 2132SOL    HW117858   0.606   2.677   7.098 -0.4019  0.7558 -0.0742
 2132SOL    HW217859   0.600   2.531   7.050  0.5369 -1.7872  2.7891
 2133SOL     OW17860   2.333   0.895   7.479 -0.0415 -0.1329  0.0702
 2133SOL    HW117861   2.379   0.943   7.410  0.5121 -1.7283 -0.6790
 2133SOL    HW217862   2.242   0.903   7.452  0.6209  2.6414 -1.3337
 2134SOL     OW17863   2.172   2.649  15.819 -0.6129  0.7386 -0.4170
 2134SOL    HW117864   2.113   2.596  15.765  0.1869 -1.2893  0.7185
 2134SOL    HW217865   2.248   2.663  15.762  0.0660  0.3182  0.3815
 2135SOL     OW17866   3.893   1.094   0.188  0.3904 -0.6257 -0.1725
 2135SOL    HW117867   3.920   1.176   0.230  0.4253 -1.1297  0.7733
 2135SOL    HW217868   3.800   1.114   0.183  0.3117 -1.1552 -0.8427
 2136SOL     OW17869   0.747   0.835   4.641  0.3823  0.2113  0.3761
 2136SOL    HW117870   0.841   0.846   4.625 -0.2391  2.8292 -1.4573
 2136SOL    HW217871   0.727   0.743   4.656 -0.0330  0.5384  1.8278
 2137SOL     OW17872   2.652   4.555   8.988 -0.4795  0.3682  0.2400
 2137SOL    HW117873   2.719   4.487   8.980 -0.5245  0.2497  0.8885
 2137SOL    HW217874   2.582   4.498   9.019  0.4856 -0.2068  1.3514
 2138SOL     OW17875   2.329   0.808  10.924 -0.0313  0.0303 -0.5411
 2138SOL    HW117876   2.286   0.742  10.979 -1.5531  1.6143  0.1865
 2138SOL    HW217877   2.362   0.869  10.990 -1.6150 -0.5225  0.7672
 2139SOL     OW17878   0.626   3.452  13.637 -0.1364 -0.0420  0.0630
 2139SOL    HW117879   0.540   3.493  13.631  0.2954  0.9007  0.4530
 2139SOL    HW217880   0.639   3.472  13.730 -0.6049  2.5836 -0.4358
 2140SOL     OW17881   0.703   2.821   5.026  0.6699  0.3046  0.0904
 2140SOL    HW117882   0.693   2.873   5.106 -1.6282  1.8855 -1.2076
 2140SOL    HW217883   0.712   2.892   4.962  0.4894 -0.0230 -0.3005
 2141SOL     OW17884   2.819   0.965  16.840 -0.5518  0.6936 -0.2601
 2141SOL    HW117885   2.768   0.959  16.759  1.4007  2.9666 -1.6722
 2141SOL    HW217886   2.761   1.016  16.897 -1.5894 -0.3918 -0.3399
 2142SOL     OW17887   3.975   4.389   3.666 -0.5164  0.3385  0.0360
 2142SOL    HW117888   4.063   4.428   3.667  0.4652 -1.8282 -1.0189
 2142SOL    HW217889   3.933   4.463   3.710  2.2649  1.9444  0.0304
 2143SOL     OW17890   4.543   1.137   9.337 -0.0258 -0.5286 -0.5883
 2143SOL    HW117891   4.575   1.063   9.389 -2.4411 -3.1895 -2.9351
 2143SOL    HW217892   4.574   1.119   9.248  1.6594  2.4150 -0.6245
 2144SOL     OW17893   1.376   3.583   9.163  0.2155  0.1636  0.1347
 2144SOL    HW117894   1.385   3.672   9.196  2.0136  0.3831 -0.9501
 2144SOL    HW217895   1.470   3.569   9.170  0.4222  1.0182 -1.0173
 2145SOL     OW17896   3.933   3.643   9.551 -0.1850 -0.2730  0.3178
 2145SOL    HW117897   3.953   3.586   9.476 -2.3392  0.4426 -0.8161
 2145SOL    HW217898   3.841   3.670   9.551  0.1196  0.7408  1.1011
 2146SOL     OW17899   0.296   3.198  14.614  0.3272  0.0353  0.0831
 2146SOL    HW117900   0.292   3.137  14.687 -0.6590 -0.6715 -0.5509
 2146SOL    HW217901   0.384   3.176  14.585  0.5165 -2.3680  2.4948
 2147SOL     OW17902   2.836   4.237   4.434  0.0131 -0.2739 -0.3450
 2147SOL    HW117903   2.789   4.296   4.492  0.3641 -0.3199 -0.0144
 2147SOL    HW217904   2.833   4.157   4.487 -2.1848  0.2209  0.2792
 2148SOL     OW17905   1.305   1.808   1.857  0.2534  0.2805  0.8257
 2148SOL    HW117906   1.236   1.844   1.913 -2.1490 -0.4674 -1.6472
 2148SOL    HW217907   1.254   1.759   1.793 -0.3822  1.1529  0.6659
 2149SOL     OW17908   0.325   0.284   5.689  0.1645 -0.0613  0.3064
 2149SOL    HW117909   0.270   0.349   5.645 -0.3127 -0.0826  0.8663
 2149SOL    HW217910   0.325   0.209   5.629 -0.0683  1.2655 -1.3481
 2150SOL     OW17911   1.514   4.565   3.017  0.5037 -0.0099  0.5485
 2150SOL    HW117912   1.518   4.470   3.013  3.4365  0.1632 -0.3170
 2150SOL    HW217913   1.446   4.595   2.957 -0.0013 -0.1155  1.0673
 2151SOL     OW17914   2.400   1.731  10.120  0.4468 -0.1983  0.1088
 2151SOL    HW117915   2.472   1.747  10.059  0.2544  3.3404  0.8360
 2151SOL    HW217916   2.374   1.645  10.088  0.6956 -0.4796  0.6471
 2152SOL     OW17917   0.942   4.436   0.684 -0.4281  0.2801 -0.6175
 2152SOL    HW117918   0.961   4.472   0.771 -1.9283  0.1137 -0.2120
 2152SOL    HW217919   0.885   4.363   0.711 -0.8790  1.6064  2.1054
 2153SOL     OW17920   4.492   1.738  16.167  0.4255  0.5789 -0.6656
 2153SOL    HW117921   4.555   1.678  16.209 -1.0697  0.1220  0.9390
 2153SOL    HW217922   4.529   1.822  16.193  2.3497  0.1241 -1.9215
 2154SOL     OW17923   2.002   1.716   1.420  0.4797  0.4728 -0.5617
 2154SOL    HW117924   2.061   1.741   1.492  0.8197  1.7572 -1.2903
 2154SOL    HW217925   1.945   1.792   1.409  0.5249  0.5708 -0.1377
 2155SOL     OW17926   3.152   1.220  11.632 -0.1232  0.6825 -0.0011
 2155SOL    HW117927   3.142   1.230  11.727  0.3961 -0.4357  0.1675
 2155SOL    HW217928   3.075   1.271  11.609  1.1038  1.5273 -2.2552
 2156SOL     OW17929   1.522   0.242   5.661 -0.3732 -0.1788 -0.1048
 2156SOL    HW117930   1.565   0.156   5.657 -1.3192 -0.6224 -0.5802
 2156SOL    HW217931   1.544   0.283   5.744 -2.1717  0.2362  0.1685
 2157SOL     OW17932   3.627   1.151   5.120 -0.2985 -0.4356  0.3329
 2157SOL    HW117933   3.615   1.179   5.030  1.7780  0.3005  0.2827
 2157SOL    HW217934   3.717   1.179   5.136  0.2748 -2.3105  0.3676
 2158SOL     OW17935   0.106   1.580   8.273  0.2258  0.2701 -0.0340
 2158SOL    HW117936   0.115   1.486   8.292 -0.5601  0.1099 -0.4657
 2158SOL    HW217937   0.197   1.610   8.264 -0.4651  1.5589 -2.5692
 2159SOL     OW17938   2.142   1.650   4.034 -0.1950  0.3646 -0.2114
 2159SOL    HW117939   2.197   1.615   3.964  0.9867 -2.8974  2.3943
 2159SOL    HW217940   2.181   1.737   4.041  1.1957 -0.2387 -0.5601
 2160SOL     OW17941   4.026   2.861   7.268 -0.2796 -0.1591  0.3414
 2160SOL    HW117942   3.945   2.897   7.230 -0.6050 -0.7578  0.4723
 2160SOL    HW217943   4.093   2.907   7.218 -1.1509 -1.1901 -1.7698
 2161SOL     OW17944   2.774   2.757   3.920  0.1545  0.0998 -0.0111
 2161SOL    HW117945   2.743   2.674   3.885 -1.9562  1.1460 -0.6321
 2161SOL    HW217946   2.794   2.812   3.845 -1.6234 -0.6939 -1.0613
 2162SOL     OW17947   1.666   4.607   8.501  0.2340 -0.5976 -0.3481
 2162SOL    HW117948   1.706   4.691   8.523 -1.6412 -0.3550  2.1990
 2162SOL    HW217949   1.735   4.550   8.536  1.4109  0.4514 -0.9914
 2163SOL     OW17950   2.053   2.526   8.494  0.3687 -0.4644 -0.0173
 2163SOL    HW117951   2.045   2.570   8.579 -3.9443 -0.8436 -0.2304
 2163SOL    HW217952   2.119   2.460   8.515  1.7212  0.4523 -1.4429
 2164SOL     OW17953   2.194   0.578   3.372 -0.2621  0.2497 -0.1346
 2164SOL    HW117954   2.174   0.498   3.324 -1.1795  1.5303 -1.8799
 2164SOL    HW217955   2.197   0.649   3.308  0.9471 -0.6616 -1.0806
 2165SOL     OW17956   3.391   1.587   5.017  0.3762  0.0860 -0.2120
 2165SOL    HW117957   3.415   1.676   5.042  0.3400  1.0694 -3.6041
 2165SOL    HW217958   3.313   1.609   4.966  1.2557  0.2486 -1.4795
 2166SOL     OW17959   0.893   1.172   4.790 -0.5346  0.1888  0.5372
 2166SOL    HW117960   0.957   1.217   4.845  0.3537 -0.3627 -0.0508
 2166SOL    HW217961   0.904   1.086   4.831 -0.1650  0.8234  1.7895
 2167SOL     OW17962   3.815   4.484  10.251  0.2229 -0.8674 -0.2601
 2167SOL    HW117963   3.731   4.482  10.296  2.0419  0.8941  3.2115
 2167SOL    HW217964   3.795   4.529  10.170  0.2772 -1.8891 -0.8451
 2168SOL     OW17965   4.464   3.109   6.694  0.2636 -0.6232  0.0405
 2168SOL    HW117966   4.439   3.072   6.609 -1.8888 -0.3983  0.5726
 2168SOL    HW217967   4.543   3.162   6.688 -0.0309 -0.2910 -1.0582
 2169SOL     OW17968   3.849   0.253   5.667  0.1201 -0.1327  0.1316
 2169SOL    HW117969   3.813   0.220   5.585  1.6916 -0.3727 -0.4605
 2169SOL    HW217970   3.935   0.213   5.669 -0.0547 -0.5749 -1.4342
 2170SOL     OW17971   1.574   2.077  13.776  0.0045 -0.2206  0.0492
 2170SOL    HW117972   1.544   2.029  13.852  1.3580  0.6903  1.1593
 2170SOL    HW217973   1.503   2.142  13.774  1.4681  1.3970  0.4240
 2171SOL     OW17974   1.821   2.273  15.179 -0.2528 -0.3083  0.5242
 2171SOL    HW117975   1.752   2.298  15.117 -1.7616 -1.4286  1.7678
 2171SOL    HW217976   1.857   2.192  15.142 -1.7429 -0.0755 -1.3986
 2172SOL     OW17977   0.203   1.315  17.119 -0.3384 -0.1531  0.3581
 2172SOL    HW117978   0.117   1.304  17.079 -2.0010  2.0291  3.3327
 2172SOL    HW217979   0.227   1.395  17.071  2.4988 -1.6838 -0.7506
 2173SOL     OW17980   2.727   2.665  16.682  0.8405 -0.5977  0.6730
 2173SOL    HW117981   2.706   2.758  16.673  0.1833 -0.8525 -0.4280
 2173SOL    HW217982   2.766   2.644  16.597 -1.5668  0.5590 -0.7045
 2174SOL     OW17983   3.413   3.217   5.556  0.0379 -0.1463 -0.2876
 2174SOL    HW117984   3.508   3.210   5.545 -0.2191 -1.3329 -1.7504
 2174SOL    HW217985   3.397   3.184   5.467 -1.9836 -0.7068  0.3027
 2175SOL     OW17986   2.339   1.484   1.581 -0.6859 -0.5580 -0.0181
 2175SOL    HW117987   2.363   1.412   1.639 -0.8935 -1.0454 -0.5387
 2175SOL    HW217988   2.252   1.465   1.546  0.5081 -2.2873 -2.0184
 2176SOL     OW17989   1.292   0.644  17.212 -0.8540  0.0308 -0.4864
 2176SOL    HW117990   1.278   0.664  17.119  3.2150  2.0364 -0.6970
 2176SOL    HW217991   1.199   0.638  17.234 -1.1137  0.9964 -1.3283
 2177SOL     OW17992   1.321   0.883   5.925 -0.3626  0.7543 -0.2859
 2177SOL    HW117993   1.265   0.842   5.859  0.3430 -0.1135 -0.3497
 2177SOL    HW217994   1.282   0.838   6.000  0.1873 -0.1664 -0.5503
 2178SOL     OW17995   0.360   2.674   4.268 -0.1340  0.1874 -0.3107
 2178SOL    HW117996   0.307   2.669   4.189  0.7364  0.6857 -0.9225
 2178SOL    HW217997   0.439   2.638   4.230 -0.2535 -0.4039  0.0049
 2179SOL     OW17998   1.438   3.671   4.138 -0.0715 -1.2035  0.4277
 2179SOL    HW117999   1.431   3.735   4.209 -0.1657 -0.1811 -0.5057
 2179SOL    HW218000   1.507   3.614   4.171  1.6571 -1.0379 -2.9403
 2180SOL     OW18001   3.522   0.261   3.488  0.1919  0.4437  0.3029
 2180SOL    HW118002   3.530   0.344   3.536 -2.5268  1.8195 -1.5715
 2180SOL    HW218003   3.606   0.216   3.495 -0.0408 -0.1656 -0.8792
 2181SOL     OW18004   2.225   2.135   2.131  0.0958 -0.1888 -0.0713
 2181SOL    HW118005   2.161   2.063   2.129 -0.4821  0.3240 -0.1927
 2181SOL    HW218006   2.193   2.197   2.065 -1.3441  0.6422  1.4009
 2182SOL     OW18007   3.419   0.188   6.090  0.7517 -0.0671  0.0125
 2182SOL    HW118008   3.353   0.164   6.156 -1.4308  2.2008 -1.3544
 2182SOL    HW218009   3.404   0.282   6.086  1.1886  0.0386  0.7740
 2183SOL     OW18010   3.996   3.749   2.601 -0.3026 -0.7486  0.1507
 2183SOL    HW118011   3.955   3.737   2.516 -0.5983 -1.6006  0.4104
 2183SOL    HW218012   4.016   3.843   2.597 -0.7140 -0.7020 -0.6379
 2184SOL     OW18013   0.205   4.121   5.052 -0.1636 -0.7623 -0.3435
 2184SOL    HW118014   0.268   4.133   5.124  1.9990 -3.1930 -1.8313
 2184SOL    HW218015   0.176   4.212   5.053  1.0777 -0.3441 -2.1716
 2185SOL     OW18016   4.575   0.441   3.058 -0.3801 -0.7160 -0.0723
 2185SOL    HW118017   4.642   0.498   3.020 -0.0130  1.1995  3.4388
 2185SOL    HW218018   4.629   0.393   3.121 -3.3288 -0.4866  2.6075
 2186SOL     OW18019   2.347   0.084  11.177  0.7661  0.1077  0.2836
 2186SOL    HW118020   2.338   0.123  11.264 -1.7407  2.3611 -0.9743
 2186SOL    HW218021   2.313   4.721  11.191  0.8276 -0.0507 -0.5625
 2187SOL     OW18022   0.688   0.256   2.269  0.0404 -0.0899 -0.1228
 2187SOL    HW118023   0.736   0.194   2.214 -0.0600 -0.2284 -0.0541
 2187SOL    HW218024   0.650   0.193   2.329 -0.3822 -0.4489 -0.7710
 2188SOL     OW18025   0.632   0.828   5.746 -0.3698  0.2465 -0.0427
 2188SOL    HW118026   0.598   0.759   5.690 -0.0608  0.6124 -0.6847
 2188SOL    HW218027   0.692   0.775   5.798 -1.5550 -0.8008  0.2503
 2189SOL     OW18028   4.128   1.525   4.420  0.3677 -0.1215 -0.4501
 2189SOL    HW118029   4.043   1.498   4.384  1.8685 -1.3849 -3.0491
 2189SOL    HW218030   4.183   1.535   4.343 -1.8946  2.0449 -1.7912
 2190SOL     OW18031   1.982   0.334  15.393  0.1836 -0.1961 -0.2063
 2190SOL    HW118032   1.922   0.294  15.330  0.7907  0.2891 -1.0845
 2190SOL    HW218033   1.915   0.392  15.429 -0.6478 -0.3523 -1.5082
 2191SOL     OW18034   4.605   0.064   2.136  0.3735 -0.1126 -0.3191
 2191SOL    HW118035   4.519   0.083   2.174  0.9733 -1.0899  1.5645
 2191SOL    HW218036   4.641   0.151   2.120 -0.3950 -0.3329 -3.1475
 2192SOL     OW18037   3.922   4.622   8.426  0.7896 -0.6203  0.6446
 2192SOL    HW118038   3.945   4.534   8.398  1.5916 -0.8116  1.9170
 2192SOL    HW218039   3.865   4.651   8.354  2.9140  0.2822 -0.6851
 2193SOL     OW18040   1.457   3.407   8.257 -0.3684  0.1823  0.0185
 2193SOL    HW118041   1.426   3.458   8.182  0.3227  1.0106  0.2974
 2193SOL    HW218042   1.534   3.458   8.283  0.6290  0.2505 -3.1222
 2194SOL     OW18043   1.645   3.938   3.291  0.1225  0.0371 -0.1833
 2194SOL    HW118044   1.594   3.993   3.230  0.1957  0.0481 -0.2345
 2194SOL    HW218045   1.626   3.983   3.373 -0.0743  0.6657 -0.5673
 2195SOL     OW18046   2.545   0.830   2.161  0.4694  0.1542  1.0626
 2195SOL    HW118047   2.488   0.867   2.094  1.5061 -1.1484 -0.5514
 2195SOL    HW218048   2.593   0.909   2.185  0.7184  0.7242 -1.2485
 2196SOL     OW18049   1.673   1.677   5.287 -0.3554 -0.4791 -0.7040
 2196SOL    HW118050   1.648   1.688   5.195 -0.3882  2.2574 -0.3720
 2196SOL    HW218051   1.597   1.629   5.319 -0.5860  0.8596  0.7317
 2197SOL     OW18052   1.186   0.988   6.502  0.0397 -0.1872  0.2128
 2197SOL    HW118053   1.111   0.929   6.492  0.9231 -0.8610 -2.2505
 2197SOL    HW218054   1.174   1.041   6.582 -3.5883 -0.5923 -0.0701
 2198SOL     OW18055   0.176   4.246   9.930  0.2224  0.0385 -0.2548
 2198SOL    HW118056   0.154   4.224  10.021  1.4957 -1.4608 -0.3095
 2198SOL    HW218057   0.119   4.322   9.923 -0.8348 -0.6351  1.1699
 2199SOL     OW18058   2.590   4.389  13.558  0.5244  0.5149 -0.3827
 2199SOL    HW118059   2.631   4.474  13.574  2.1935 -0.6882  1.7168
 2199SOL    HW218060   2.503   4.404  13.519  0.3220  1.1443  0.3065
 2200SOL     OW18061   1.262   4.251  16.866 -0.0728  0.1253  0.6274
 2200SOL    HW118062   1.196   4.320  16.876  0.4500  0.4207  2.0753
 2200SOL    HW218063   1.286   4.272  16.776 -0.4961  0.6102  0.6277
 2201SOL     OW18064   1.697   3.779   4.824 -0.4044 -1.3064  0.1243
 2201SOL    HW118065   1.753   3.773   4.901 -0.4479 -0.4064  0.2224
 2201SOL    HW218066   1.693   3.873   4.809  1.7629 -1.0539  1.1953
 2202SOL     OW18067   3.109   0.680  12.112  0.0977 -0.2984  0.1944
 2202SOL    HW118068   3.181   0.741  12.129  0.8795 -1.6998  1.9329
 2202SOL    HW218069   3.032   0.734  12.130  0.1370 -0.1058 -0.2137
 2203SOL     OW18070   4.721   0.518  17.220 -0.1386 -0.6512  0.0382
 2203SOL    HW118071   4.720   0.424  17.238 -1.1518 -0.4081  1.2876
 2203SOL    HW218072   4.665   0.525  17.143 -2.0306  2.1489  1.6514
 2204SOL     OW18073   4.523   3.310   5.301  0.1699 -0.5659  0.2254
 2204SOL    HW118074   4.505   3.252   5.227 -1.0699 -1.4768  1.2400
 2204SOL    HW218075   4.516   3.241   5.367 -0.6733 -1.1665 -0.4987
 2205SOL     OW18076   0.624   0.172   5.836 -0.4409  0.2049 -0.6548
 2205SOL    HW118077   0.697   0.185   5.776  0.7827 -1.8865  0.3670
 2205SOL    HW218078   0.570   0.250   5.831  0.3697  0.7803 -0.2988
 2206SOL     OW18079   2.368   0.478   8.669  0.8318  0.0309  0.1335
 2206SOL    HW118080   2.405   0.563   8.695  0.9842  0.4357 -1.4352
 2206SOL    HW218081   2.326   0.511   8.590 -0.3380 -0.8953  0.3712
 2207SOL     OW18082   3.456   3.677  12.381 -0.7440  0.1100  0.1603
 2207SOL    HW118083   3.519   3.610  12.354 -2.6213 -0.7348 -2.0829
 2207SOL    HW218084   3.461   3.734  12.304  0.2131 -0.5923 -0.3033
 2208SOL     OW18085   3.951   2.391  13.814  0.2142  0.4919  0.1128
 2208SOL    HW118086   3.893   2.466  13.833 -0.1849 -0.4444  2.6508
 2208SOL    HW218087   4.039   2.416  13.843  0.5393 -0.9719  0.3761
 2209SOL     OW18088   3.493   2.851   9.367  0.6396 -0.0900 -0.0234
 2209SOL    HW118089   3.461   2.761   9.360 -2.1015  1.2710 -4.1156
 2209SOL    HW218090   3.546   2.852   9.447 -0.1864 -0.5784  0.5255
 2210SOL     OW18091   1.929   3.375   8.266  0.2104 -0.4079  0.2777
 2210SOL    HW118092   1.955   3.465   8.246  0.8557  0.0341  3.1674
 2210SOL    HW218093   1.875   3.390   8.343 -1.7807  1.4979 -1.4660
 2211SOL     OW18094   0.195   2.356   5.928  0.5172 -0.4613  0.2866
 2211SOL    HW118095   0.162   2.429   5.981  0.3770 -0.3121 -0.0022
 2211SOL    HW218096   0.126   2.290   5.931  0.4814 -0.4231  0.3067
 2212SOL     OW18097   2.574   0.357  10.712  0.4550 -0.6572  0.2874
 2212SOL    HW118098   2.540   0.444  10.732  0.9029 -0.5205  0.4510
 2212SOL    HW218099   2.632   0.350  10.787  2.6807 -0.5806 -1.4249
 2213SOL     OW18100   3.943   3.694   9.030 -0.3469 -0.0837  0.5425
 2213SOL    HW118101   3.928   3.601   9.013  1.7588 -0.0304 -1.5503
 2213SOL    HW218102   3.871   3.732   8.980 -0.4697 -2.3914 -1.0293
 2214SOL     OW18103   4.500   1.675   6.652 -0.0183 -0.1387  0.5648
 2214SOL    HW118104   4.449   1.705   6.577  1.7009  0.2618 -0.4545
 2214SOL    HW218105   4.502   1.583   6.628 -1.2466 -0.7831  2.9784
 2215SOL     OW18106   4.500   1.302  12.899  0.6806 -0.1621 -0.2422
 2215SOL    HW118107   4.410   1.335  12.889  0.5353 -0.5374 -0.1736
 2215SOL    HW218108   4.489   1.222  12.951  0.3782 -0.2239 -0.3967
 2216SOL     OW18109   2.798   2.910  10.000 -0.4090 -0.1239  0.0277
 2216SOL    HW118110   2.755   2.994  10.015 -0.0636 -0.2771  1.9038
 2216SOL    HW218111   2.887   2.933   9.973  0.0915 -0.2453  1.5434
 2217SOL     OW18112   0.121   0.451  11.492 -0.4869  0.0297 -0.5621
 2217SOL    HW118113   0.128   0.524  11.430 -1.0180  0.1634 -0.4580
 2217SOL    HW218114   0.054   0.494  11.545 -0.8684  0.6444 -1.5334
 2218SOL     OW18115   2.944   4.082   7.964  0.0875  0.5882 -0.4622
 2218SOL    HW118116   2.932   4.158   8.022 -2.1052 -0.8379  0.9484
 2218SOL    HW218117   2.906   4.119   7.885 -1.9516 -1.5243 -0.4539
 2219SOL     OW18118   4.202   2.325   8.507 -0.2910 -0.0149 -0.3246
 2219SOL    HW118119   4.151   2.374   8.572  1.0447  1.2729 -0.2325
 2219SOL    HW218120   4.291   2.339   8.541  0.4228  0.3547 -2.3367
 2220SOL     OW18121   4.665   3.736   0.200 -0.6291  0.1785 -0.3162
 2220SOL    HW118122   4.651   3.813   0.255 -0.2267 -0.9583  1.3766
 2220SOL    HW218123   4.655   3.669   0.268 -1.6468 -1.3574 -2.0051
 2221SOL     OW18124   4.290   2.000   3.936 -0.3314 -0.1973 -0.5995
 2221SOL    HW118125   4.247   2.007   4.022 -0.9206 -2.4101 -0.7084
 2221SOL    HW218126   4.306   2.092   3.917  1.2240 -0.3527 -0.0073
 2222SOL     OW18127   2.236   2.911   5.238  0.1366 -0.3703 -0.1162
 2222SOL    HW118128   2.229   2.878   5.148 -0.7201 -0.6743  0.0683
 2222SOL    HW218129   2.303   2.848   5.266  0.8542  0.0516 -0.8877
 2223SOL     OW18130   2.802   1.526  13.459 -0.2288 -0.1829  0.0957
 2223SOL    HW118131   2.735   1.480  13.409 -0.3552 -0.3275  0.3969
 2223SOL    HW218132   2.790   1.516  13.554 -2.4504 -0.7640 -0.2619
 2224SOL     OW18133   0.993   0.263   2.811  0.1214  0.0944 -0.1884
 2224SOL    HW118134   1.011   0.206   2.737  2.5326  0.3216  0.2427
 2224SOL    HW218135   1.025   0.201   2.876 -0.9365 -1.2963 -0.9816
 2225SOL     OW18136   0.227   3.700   4.723  0.1167  0.0933  0.0207
 2225SOL    HW118137   0.262   3.783   4.752  0.3053  0.4847 -1.3080
 2225SOL    HW218138   0.304   3.647   4.704  0.1064  0.1778 -0.2634
 2226SOL     OW18139   3.709   2.473   3.022  0.2290 -0.4922  0.5965
 2226SOL    HW118140   3.691   2.556   3.065  1.4958  0.6139 -0.9782
 2226SOL    HW218141   3.787   2.496   2.971 -0.2671 -0.8340 -0.3104
 2227SOL     OW18142   1.513   4.592   5.498  0.4596 -0.2400 -0.3016
 2227SOL    HW118143   1.533   4.629   5.584  0.1721  2.1282 -1.2646
 2227SOL    HW218144   1.428   4.633   5.483 -0.4593 -2.0019  0.0766
 2228SOL     OW18145   4.500   1.667   6.051  0.0593 -0.7150  0.6184
 2228SOL    HW118146   4.500   1.644   5.958  0.9326  1.6041  0.0307
 2228SOL    HW218147   4.594   1.681   6.063 -0.0475 -0.5484  1.2610
 2229SOL     OW18148   1.885   0.892  13.058 -0.1903  0.9009  0.3380
 2229SOL    HW118149   1.817   0.923  13.119 -0.5734  1.0426 -0.1528
 2229SOL    HW218150   1.851   0.810  13.023  0.0453  1.5895 -1.5549
 2230SOL     OW18151   3.993   2.717  10.278 -0.0673  0.2825  0.6008
 2230SOL    HW118152   3.985   2.810  10.298 -0.3702  0.2951  0.4253
 2230SOL    HW218153   4.059   2.679  10.335 -0.5888 -0.8943  0.4281
 2231SOL     OW18154   0.886   0.228   5.803 -0.3515  0.5498 -0.0481
 2231SOL    HW118155   0.963   0.228   5.859  0.2023  0.9798 -0.8140
 2231SOL    HW218156   0.888   0.319   5.773  1.2264  0.3035 -0.7086
 2232SOL     OW18157   2.804   2.512   2.718 -0.3126  0.3361 -0.3012
 2232SOL    HW118158   2.744   2.448   2.681 -1.4012  0.9208  0.4778
 2232SOL    HW218159   2.875   2.512   2.653  0.0609 -0.6960  0.1074
 2233SOL     OW18160   0.487   0.624   1.769 -0.2801  0.2065 -0.1772
 2233SOL    HW118161   0.449   0.712   1.779 -0.6752  0.0780 -0.5752
 2233SOL    HW218162   0.577   0.647   1.748 -0.4283  1.1589  0.2092
 2234SOL     OW18163   1.083   1.189   5.710 -0.4897 -0.1943  0.4631
 2234SOL    HW118164   0.995   1.151   5.711 -0.7617  0.3816 -1.0319
 2234SOL    HW218165   1.088   1.239   5.791 -1.9790  0.9784 -0.1850
 2235SOL     OW18166   3.330   3.078  17.433  0.1628 -0.0923  0.1747
 2235SOL    HW118167   3.268   3.006  17.420  0.3801 -0.3333  0.4723
 2235SOL    HW218168   3.367   3.089  17.346 -0.7810  0.9263 -0.1030
 2236SOL     OW18169   2.932   0.697   2.296  0.1581 -0.0364  0.2147
 2236SOL    HW118170   2.882   0.706   2.377  1.5897 -0.7835  1.1891
 2236SOL    HW218171   2.861   0.672   2.237 -1.7370 -1.5257  3.1027
 2237SOL     OW18172   1.256   1.257   6.951  0.3360  0.3138  0.2686
 2237SOL    HW118173   1.274   1.342   6.990 -0.7586  0.0399  1.3845
 2237SOL    HW218174   1.161   1.262   6.954  0.3342 -0.1009  1.1850
 2238SOL     OW18175   1.956   0.682  13.366  0.3181 -0.1380  0.0692
 2238SOL    HW118176   1.968   0.653  13.456 -0.9137 -0.5602  0.0928
 2238SOL    HW218177   1.875   0.633  13.349  0.2864  0.0527 -0.3318
 2239SOL     OW18178   3.747   4.200   9.327  0.3234 -0.3637  0.1961
 2239SOL    HW118179   3.702   4.151   9.397 -2.8837 -0.1933 -1.7551
 2239SOL    HW218180   3.693   4.173   9.253  0.2884  1.8050 -0.5770
 2240SOL     OW18181   3.741   0.876   6.907  0.4172 -0.3950 -0.3620
 2240SOL    HW118182   3.756   0.783   6.893  2.5463 -0.0245 -0.4798
 2240SOL    HW218183   3.664   0.897   6.854  0.9472  0.2672 -0.8684
 2241SOL     OW18184   0.801   3.529  10.260 -0.3326 -0.8736 -0.1633
 2241SOL    HW118185   0.891   3.561  10.251 -0.5530 -0.5703 -1.2843
 2241SOL    HW218186   0.788   3.525  10.354 -3.7109 -0.5778 -0.6130
 2242SOL     OW18187   4.423   2.850   9.155  0.3202  0.3858  0.1794
 2242SOL    HW118188   4.375   2.770   9.130  1.8730 -0.2751 -0.6797
 2242SOL    HW218189   4.398   2.911   9.085 -0.6783  1.3582  1.3721
 2243SOL     OW18190   2.402   2.790   0.892 -0.1184  0.0908 -0.0866
 2243SOL    HW118191   2.361   2.811   0.808  0.3015 -1.3863 -0.6597
 2243SOL    HW218192   2.367   2.705   0.920 -0.8725  1.1277  2.1839
 2244SOL     OW18193   0.621   3.268   9.172  0.0053 -0.7619 -0.2123
 2244SOL    HW118194   0.651   3.328   9.240 -3.0925 -0.2522  0.7163
 2244SOL    HW218195   0.656   3.311   9.094  0.2429 -1.1737 -0.3344
 2245SOL     OW18196   3.944   1.477   8.223  0.0992 -0.0342  0.1657
 2245SOL    HW118197   4.020   1.501   8.170 -1.2890 -1.2719 -2.3428
 2245SOL    HW218198   3.962   1.508   8.312  0.5709  1.1812 -0.3625
 2246SOL     OW18199   2.814   0.661   8.980  0.4422  0.0342 -0.4259
 2246SOL    HW118200   2.781   0.698   9.062 -0.9027 -2.7256  0.2890
 2246SOL    HW218201   2.903   0.637   9.005  0.3711  1.4383  1.1460
 2247SOL     OW18202   3.461   2.257   1.409 -0.1654  0.1234 -0.5875
 2247SOL    HW118203   3.534   2.203   1.379 -0.2798 -0.1663 -0.3479
 2247SOL    HW218204   3.501   2.300   1.485  0.7617  0.1947 -1.1157
 2248SOL     OW18205   1.435   4.514   8.910 -0.6372 -0.5559  0.3480
 2248SOL    HW118206   1.347   4.488   8.882 -0.5484 -1.6673  1.0948
 2248SOL    HW218207   1.460   4.552   8.826 -1.2359  3.2215  1.9178
 2249SOL     OW18208   1.815   3.497   5.908  0.1197  0.1678  0.0593
 2249SOL    HW118209   1.847   3.475   5.821  0.6723  0.2206  0.2444
 2249SOL    HW218210   1.884   3.452   5.958  1.4331  1.2440 -0.7902
 2250SOL     OW18211   3.877   2.332   6.063 -0.2938 -0.1930 -0.1145
 2250SOL    HW118212   3.899   2.304   5.974  0.1075 -0.8680  0.1950
 2250SOL    HW218213   3.831   2.411   6.038 -0.0215 -0.1147 -0.3716
 2251SOL     OW18214   2.740   2.044   3.762 -0.4336 -0.1368 -0.4456
 2251SOL    HW118215   2.823   2.019   3.802 -1.4482  0.6650  2.1076
 2251SOL    HW218216   2.675   1.980   3.790 -0.8298  0.5102  0.1132
 2252SOL     OW18217   2.042   1.983   1.267  0.2519 -0.0331  0.4193
 2252SOL    HW118218   2.121   2.033   1.247  0.1007 -0.3647 -1.0263
 2252SOL    HW218219   2.064   1.905   1.214 -1.9794  0.1162 -0.7139
 2253SOL     OW18220   1.846   0.263  11.148 -0.1974  0.0223  0.0972
 2253SOL    HW118221   1.908   0.190  11.151 -0.2739 -0.0855 -0.8502
 2253SOL    HW218222   1.852   0.291  11.240 -0.1317  2.0758 -0.5353
 2254SOL     OW18223   0.824   3.724  15.062  0.3847  0.0087 -0.3269
 2254SOL    HW118224   0.786   3.649  15.107 -0.1725 -0.1354 -1.0311
 2254SOL    HW218225   0.916   3.706  15.082  0.3086  0.6201  0.6039
 2255SOL     OW18226   2.126   0.075   4.520 -0.4020  0.3278  0.5975
 2255SOL    HW118227   2.108   4.711   4.550  2.0574 -0.2003  0.4430
 2255SOL    HW218228   2.052   0.122   4.558 -0.7631  1.1157 -1.0790
 2256SOL     OW18229   3.835   0.886   2.464 -0.5566  0.5311 -0.3032
 2256SOL    HW118230   3.771   0.816   2.456 -0.7237  0.4184  1.9118
 2256SOL    HW218231   3.835   0.896   2.560  0.2931  1.9863 -0.4482
 2257SOL     OW18232   1.737   1.866   4.992 -0.9899 -0.4638  0.4744
 2257SOL    HW118233   1.770   1.947   5.029 -0.7618 -1.0827  1.6540
 2257SOL    HW218234   1.766   1.806   5.061 -2.3738 -0.8990  0.6885
 2258SOL     OW18235   1.816   3.207   7.872  0.0061  0.7591  0.5134
 2258SOL    HW118236   1.888   3.270   7.868 -0.9822  1.9026  0.5943
 2258SOL    HW218237   1.855   3.137   7.924  1.4717  1.9929  1.0798
 2259SOL     OW18238   1.666   2.393   1.110 -0.8212 -0.6060 -0.2151
 2259SOL    HW118239   1.754   2.405   1.074 -0.6209 -1.1951  0.0729
 2259SOL    HW218240   1.684   2.448   1.186  0.8977 -0.0267 -1.0494
 2260SOL     OW18241   1.173   2.039   5.626 -0.4032  0.1526  0.6072
 2260SOL    HW118242   1.242   2.045   5.691  0.7747 -0.3973 -0.5911
 2260SOL    HW218243   1.213   2.041   5.539 -2.4269 -0.6933 -0.3488
 2261SOL     OW18244   3.567   4.286  12.044 -0.6232 -0.2274  0.4099
 2261SOL    HW118245   3.600   4.346  11.978  3.0968 -1.7720  0.9009
 2261SOL    HW218246   3.621   4.321  12.115 -0.9623  0.8742  0.1163
 2262SOL     OW18247   0.167   2.616   9.501  0.1928 -0.2234  0.2177
 2262SOL    HW118248   0.126   2.655   9.578  0.6474  2.2696 -0.8253
 2262SOL    HW218249   0.119   2.637   9.421  1.5725  1.6206 -0.0987
 2263SOL     OW18250   3.208   2.490  16.624  0.0035 -0.1886  0.4561
 2263SOL    HW118251   3.138   2.455  16.678 -1.3591  0.3648 -0.9597
 2263SOL    HW218252   3.268   2.539  16.681 -0.3474  0.4150  0.3083
 2264SOL     OW18253   4.383   1.609   8.078  0.2803 -0.3526 -0.1155
 2264SOL    HW118254   4.403   1.655   7.996 -1.2222  1.2169  0.3771
 2264SOL    HW218255   4.475   1.603   8.101  0.4186 -0.0524 -0.5679
 2265SOL     OW18256   1.781   3.725   3.754 -0.5524 -0.0728  0.0674
 2265SOL    HW118257   1.738   3.684   3.829 -1.8973 -0.6461 -1.0250
 2265SOL    HW218258   1.766   3.656   3.690  1.4585  0.7134 -1.2462
 2266SOL     OW18259   0.106   0.851   3.283  0.1917  0.0197  0.1272
 2266SOL    HW118260   0.150   0.798   3.217 -0.5120  0.1303 -0.4370
 2266SOL    HW218261   0.144   0.939   3.283  0.6721 -0.1886 -0.1494
 2267SOL     OW18262   1.773   4.360   1.502  0.0866 -0.5855 -0.0440
 2267SOL    HW118263   1.749   4.271   1.477  0.9119 -1.3885  1.9563
 2267SOL    HW218264   1.857   4.371   1.457  0.2265  0.5086  0.4991
 2268SOL     OW18265   2.375   3.898  11.270 -0.1235  0.6295  0.0052
 2268SOL    HW118266   2.316   3.973  11.278 -2.0644 -0.6546 -2.3119
 2268SOL    HW218267   2.459   3.944  11.279 -0.8147  1.5997  1.4718
 2269SOL     OW18268   2.332   2.177   9.553 -0.4333  0.6257  0.2479
 2269SOL    HW118269   2.346   2.264   9.515 -1.9426  1.5132  1.7212
 2269SOL    HW218270   2.363   2.117   9.485 -2.4578 -0.8323  0.5824
 2270SOL     OW18271   2.017   2.813   1.666 -0.4478 -0.1434 -0.2569
 2270SOL    HW118272   1.995   2.860   1.747  2.6323  0.9890 -0.0760
 2270SOL    HW218273   2.106   2.782   1.686  0.3967  3.4829  1.6826
 2271SOL     OW18274   0.504   2.215   5.667  0.4847 -0.8682 -0.1213
 2271SOL    HW118275   0.551   2.138   5.635 -1.3918 -1.1321 -2.2396
 2271SOL    HW218276   0.582   2.266   5.690  0.4885 -1.6162  1.5411
 2272SOL     OW18277   4.657   4.162   8.917 -0.4660 -0.2755  0.1375
 2272SOL    HW118278   0.010   4.109   8.935 -0.3507  0.6381  2.4021
 2272SOL    HW218279   4.679   4.243   8.963  0.4327 -1.0533  1.1232
 2273SOL     OW18280   2.524   1.139   9.738 -0.1321 -0.1429 -0.2376
 2273SOL    HW118281   2.514   1.230   9.766  1.4418  0.4906 -1.6942
 2273SOL    HW218282   2.619   1.127   9.733  0.0714  0.5186  2.3259
 2274SOL     OW18283   3.105   2.487   7.136 -0.1142  0.5563  0.9182
 2274SOL    HW118284   3.161   2.553   7.178  1.6195 -0.6672  0.5159
 2274SOL    HW218285   3.158   2.408   7.130 -0.4213  0.5182 -1.3520
 2275SOL     OW18286   4.001   3.698   4.869 -0.0789 -0.4167 -0.7690
 2275SOL    HW118287   4.032   3.788   4.865 -0.8332 -0.0467  1.5916
 2275SOL    HW218288   3.996   3.672   4.961 -1.7287 -0.4620 -0.8732
 2276SOL     OW18289   4.066   1.974   1.455 -0.6497 -0.4184 -0.2719
 2276SOL    HW118290   3.996   1.982   1.391 -0.3019 -1.2322 -0.7603
 2276SOL    HW218291   4.087   1.881   1.462 -0.2385 -0.2411  0.8682
 2277SOL     OW18292   3.297   2.269  17.279 -0.6208 -0.4185 -0.3572
 2277SOL    HW118293   3.221   2.250  17.334 -0.1545 -1.7749 -0.2006
 2277SOL    HW218294   3.375   2.224  17.312 -0.2686 -1.1474 -2.1656
 2278SOL     OW18295   0.041   2.638  13.340  1.0001 -0.3648 -0.3692
 2278SOL    HW118296   0.047   2.720  13.292 -1.2792 -1.0118 -1.7271
 2278SOL    HW218297   0.075   2.671  13.423  0.3250  0.2359 -0.3352
 2279SOL     OW18298   2.744   0.540   7.651  0.5590  0.4495 -0.5528
 2279SOL    HW118299   2.734   0.492   7.732 -3.1475 -1.8253 -2.3494
 2279SOL    HW218300   2.801   0.615   7.670  0.5268  0.3037  0.0968
 2280SOL     OW18301   4.253   0.659  15.532  0.1742  0.4790 -0.0308
 2280SOL    HW118302   4.197   0.708  15.471  1.2463  0.1103 -1.2962
 2280SOL    HW218303   4.305   0.612  15.466  0.9228  3.4416 -1.5656
 2281SOL     OW18304   0.367   2.158  10.278  0.7126  0.1542 -0.3351
 2281SOL    HW118305   0.347   2.070  10.311  1.9401  0.1341  0.3915
 2281SOL    HW218306   0.402   2.190  10.362 -0.3730 -1.8842  0.8879
 2282SOL     OW18307   2.245   2.009  12.090  0.1988 -0.6110  0.0927
 2282SOL    HW118308   2.249   1.990  11.996 -0.4783 -1.6552  0.2662
 2282SOL    HW218309   2.333   1.978  12.112 -0.2955 -1.4964  0.8297
 2283SOL     OW18310   0.796   2.983   8.850 -0.1046  0.0934  0.1188
 2283SOL    HW118311   0.801   3.070   8.810 -0.1374  0.8501  1.7409
 2283SOL    HW218312   0.739   3.003   8.925 -1.7370  0.0136 -1.1158
 2284SOL     OW18313   4.490   1.980   2.559 -0.1954  0.4405  0.1359
 2284SOL    HW118314   4.475   2.017   2.472  1.9015  0.8999 -0.0187
 2284SOL    HW218315   4.507   1.891   2.529  0.4331  0.9884 -1.1198
 2285SOL     OW18316   3.886   4.244   3.433 -0.2213  0.2156 -0.2333
 2285SOL    HW118317   3.982   4.248   3.436 -0.2188 -1.0238  1.7308
 2285SOL    HW218318   3.866   4.271   3.523 -0.7011 -0.6927 -0.0715
 2286SOL     OW18319   2.429   0.646   7.317  0.0184  1.0076  0.4184
 2286SOL    HW118320   2.464   0.730   7.346 -0.7383  1.7230 -0.7533
 2286SOL    HW218321   2.480   0.589   7.375 -1.1323 -2.0408 -1.5667
 2287SOL     OW18322   3.727   0.769  16.748 -0.5697  0.0771  0.2422
 2287SOL    HW118323   3.715   0.679  16.718  1.8681 -0.5370  1.0745
 2287SOL    HW218324   3.752   0.817  16.669  2.0828  1.3629  1.8728
 2288SOL     OW18325   3.683   2.993   4.879 -0.3387 -0.0698  0.3823
 2288SOL    HW118326   3.618   2.938   4.836  0.7827 -0.2529 -1.0656
 2288SOL    HW218327   3.763   2.960   4.839 -0.3898  2.8016 -2.0753
 2289SOL     OW18328   4.200   4.341   1.869  0.2826 -0.2642  0.0926
 2289SOL    HW118329   4.253   4.406   1.916 -0.8828 -1.5749  3.2385
 2289SOL    HW218330   4.240   4.255   1.883  0.7282 -0.0606  0.0754
 2290SOL     OW18331   1.766   2.986   3.841 -0.1529 -0.5766  0.0504
 2290SOL    HW118332   1.749   2.919   3.908 -3.2164  0.3508  0.1929
 2290SOL    HW218333   1.860   2.991   3.858  0.1579  0.9110 -2.1227
 2291SOL     OW18334   2.952   0.627   2.964  0.0881  0.0828  0.4261
 2291SOL    HW118335   2.911   0.544   2.940  2.3592 -0.4283 -1.6836
 2291SOL    HW218336   3.010   0.652   2.892  0.5495 -0.4644  0.6033
 2292SOL     OW18337   3.668   4.145  15.024 -0.1351  0.4882  0.1434
 2292SOL    HW118338   3.708   4.165  14.939  0.4589 -0.0877  0.2892
 2292SOL    HW218339   3.744   4.156  15.080 -1.4360 -0.6802  2.1300
 2293SOL     OW18340   2.429   0.508   5.365 -0.4393  0.2287 -0.0943
 2293SOL    HW118341   2.391   0.595   5.378  1.6118  1.3253 -1.3744
 2293SOL    HW218342   2.474   0.514   5.281 -1.0955 -2.0273 -0.5884
 2294SOL     OW18343   1.363   0.914   7.927  0.8283 -0.1884 -0.6712
 2294SOL    HW118344   1.336   0.993   7.879  2.1436  0.0567 -1.0033
 2294SOL    HW218345   1.384   0.866   7.848 -0.4694 -0.3839 -0.8914
 2295SOL     OW18346   0.812   0.962   1.561  0.4071 -0.7253 -0.7738
 2295SOL    HW118347   0.876   0.978   1.492 -0.7976  3.9940 -0.7894
 2295SOL    HW218348   0.745   0.913   1.512 -0.1524  0.5365 -1.2605
 2296SOL     OW18349   4.446   4.272  11.791  0.4344 -0.0774 -0.2058
 2296SOL    HW118350   4.405   4.341  11.843  0.7305 -0.0513 -0.0049
 2296SOL    HW218351   4.538   4.293  11.811 -0.1794  0.4485  2.0860
 2297SOL     OW18352   1.781   0.877   4.071 -0.3603 -0.2998 -0.3087
 2297SOL    HW118353   1.852   0.904   4.013  1.3857  0.1018  2.0184
 2297SOL    HW218354   1.709   0.939   4.056  1.9687  3.2024  2.9918
 2298SOL     OW18355   0.791   4.509  13.758 -0.0818 -0.6279  0.0844
 2298SOL    HW118356   0.831   4.596  13.751 -2.2359  0.5985  3.0128
 2298SOL    HW218357   0.697   4.527  13.754  0.0830 -0.4600 -3.1354
 2299SOL     OW18358   1.903   4.363   2.738 -0.5124  0.4667 -0.1683
 2299SOL    HW118359   1.986   4.323   2.712 -1.1371 -1.8766  1.4248
 2299SOL    HW218360   1.845   4.292   2.708  2.1690 -0.5024 -3.0784
 2300SOL     OW18361   0.107   3.915   7.516 -0.5447  0.2000  0.2424
 2300SOL    HW118362   0.062   3.835   7.487 -0.1054  0.1706 -0.3503
 2300SOL    HW218363   0.183   3.875   7.557 -1.6624  0.0359  2.1599
 2301SOL     OW18364   3.966   1.384   6.270  0.5332 -0.1135 -0.1382
 2301SOL    HW118365   3.933   1.330   6.342  1.5185 -2.0787 -1.1691
 2301SOL    HW218366   4.014   1.319   6.218  1.5025  0.2089  0.3384
 2302SOL     OW18367   2.843   2.389   1.913 -0.4445 -0.1962 -0.1756
 2302SOL    HW118368   2.864   2.319   1.975  1.5539  0.2352 -0.3724
 2302SOL    HW218369   2.825   2.464   1.969  2.2671 -0.1749  0.6380
 2303SOL     OW18370   1.347   0.173   8.525 -0.6179 -0.2677  0.9806
 2303SOL    HW118371   1.405   0.247   8.544  1.3639 -0.7398 -3.3262
 2303SOL    HW218372   1.335   0.127   8.608  0.5594  2.0174  2.4283
 2304SOL     OW18373   4.051   1.090   3.212  0.3539 -0.1147 -0.2476
 2304SOL    HW118374   4.033   1.018   3.273  0.1153  0.5534  0.4610
 2304SOL    HW218375   4.146   1.097   3.214  0.0941  2.5005  2.0545
 2305SOL     OW18376   3.177   0.675   6.233  0.5637  0.3862  0.3617
 2305SOL    HW118377   3.229   0.753   6.253 -2.3752  2.1816  1.0692
 2305SOL    HW218378   3.112   0.672   6.303  0.7282  0.1375  0.5006
 2306SOL     OW18379   1.441   0.931   9.006 -0.3003  0.1338 -0.6049
 2306SOL    HW118380   1.361   0.945   9.057  0.5759  1.1740  0.4921
 2306SOL    HW218381   1.430   0.837   8.990  0.9083 -0.2467  0.7185
 2307SOL     OW18382   3.012   1.512  11.706 -0.1683 -0.4244  0.4740
 2307SOL    HW118383   3.069   1.486  11.778  0.4734  1.8360  0.7804
 2307SOL    HW218384   2.924   1.507  11.742 -0.5634 -0.6292 -0.5035
 2308SOL     OW18385   4.644   3.202   8.946 -0.4306  0.0160  0.3717
 2308SOL    HW118386   4.687   3.123   8.979  1.7850  1.5183  1.1127
 2308SOL    HW218387   4.610   3.174   8.861  0.2407  0.0471  0.0935
 2309SOL     OW18388   3.698   1.713  17.323  0.1204 -0.6971 -0.1149
 2309SOL    HW118389   3.707   1.716  17.228 -1.7138  0.9916 -0.2449
 2309SOL    HW218390   3.608   1.746  17.331 -0.0523 -0.8117 -1.7132
 2310SOL     OW18391   1.611   4.258   3.525  0.7408  0.1422  0.0330
 2310SOL    HW118392   1.615   4.165   3.545 -0.6843 -0.3658 -2.1152
 2310SOL    HW218393   1.615   4.301   3.611 -0.3659  0.8902 -0.3022
 2311SOL     OW18394   2.553   0.803   1.729 -0.2913 -0.4521 -0.0805
 2311SOL    HW118395   2.515   0.878   1.683  1.5869  0.3526 -0.3326
 2311SOL    HW218396   2.600   0.845   1.801  0.2567 -1.6815  0.2887
 2312SOL     OW18397   1.520   1.548   8.318 -0.1114 -0.2603 -0.1500
 2312SOL    HW118398   1.480   1.607   8.254  0.7219 -1.3323 -1.6525
 2312SOL    HW218399   1.475   1.465   8.306 -0.7978  0.1897 -0.7394
 2313SOL     OW18400   0.599   3.961   5.047 -0.1019  0.0962  0.6281
 2313SOL    HW118401   0.531   3.903   5.082 -0.5854  0.1094 -0.2938
 2313SOL    HW218402   0.629   3.996   5.131 -0.9889  0.0718  0.9465
 2314SOL     OW18403   3.576   4.610  11.644  0.3856  0.6411  0.1044
 2314SOL    HW118404   3.623   4.598  11.562 -1.6149  0.1011 -0.9502
 2314SOL    HW218405   3.483   4.603  11.622 -0.0867  0.4868  2.1670
 2315SOL     OW18406   2.969   1.818   5.046 -0.1615  0.3672 -0.2718
 2315SOL    HW118407   2.966   1.912   5.029  2.7192  0.9931  2.6732
 2315SOL    HW218408   3.037   1.779   4.993 -0.6098 -0.5550 -0.1653
 2316SOL     OW18409   2.071   0.662   3.021  0.2053 -0.3741  0.0092
 2316SOL    HW118410   1.977   0.679   3.027  0.0808 -1.5559  1.7865
 2316SOL    HW218411   2.086   0.645   3.115  1.0947  1.4348  0.1871
 2317SOL     OW18412   2.531   2.940  12.310 -0.2844 -0.2738 -0.5213
 2317SOL    HW118413   2.581   3.010  12.353  0.4973 -0.8951 -0.4082
 2317SOL    HW218414   2.474   2.983  12.246  0.1691  0.2109 -0.6062
 2318SOL     OW18415   2.587   0.180   6.330  0.1188 -0.2038  0.0185
 2318SOL    HW118416   2.495   0.159   6.316  0.1702 -1.1135  0.9579
 2318SOL    HW218417   2.640   0.118   6.280 -2.0105 -2.0343  0.0037
 2319SOL     OW18418   3.365   0.273  14.464  0.0253 -0.3930 -0.3555
 2319SOL    HW118419   3.443   0.305  14.420  0.1914  1.4268  1.2381
 2319SOL    HW218420   3.310   0.265  14.386 -0.0712 -0.4475 -0.2827
 2320SOL     OW18421   1.804   4.361  14.757 -0.7734 -0.1723  0.3787
 2320SOL    HW118422   1.816   4.313  14.838  1.0825 -2.4254 -1.2393
 2320SOL    HW218423   1.875   4.425  14.763 -0.7038 -0.2687  0.5567
 2321SOL     OW18424   3.753   4.570  15.253  0.2871  0.4561 -0.2628
 2321SOL    HW118425   3.668   4.537  15.281  1.1540 -1.5788 -0.0767
 2321SOL    HW218426   3.816   4.540  15.318  0.2003  2.9381  0.9724
 2322SOL     OW18427   3.100   1.415  11.150 -0.6404 -0.3472 -0.1391
 2322SOL    HW118428   3.028   1.413  11.213 -1.4977  0.0476 -1.1121
 2322SOL    HW218429   3.049   1.409  11.069  0.2679 -0.0367 -0.7357
 2323SOL     OW18430   4.144   1.717  15.199  0.2272  0.0700 -0.2295
 2323SOL    HW118431   4.118   1.727  15.291 -0.2716 -0.2805 -0.3351
 2323SOL    HW218432   4.145   1.810  15.176 -0.4317 -0.2862 -1.6799
 2324SOL     OW18433   4.628   3.938   9.769  0.0582 -0.0039  0.0404
 2324SOL    HW118434   4.686   4.007   9.738  0.9066 -0.6790  0.1254
 2324SOL    HW218435   4.552   3.950   9.712 -0.1294 -1.6364 -0.0622
 2325SOL     OW18436   0.692   1.562  12.817 -0.2565  0.2284  0.3962
 2325SOL    HW118437   0.759   1.621  12.851 -1.0022  2.2216 -1.5973
 2325SOL    HW218438   0.634   1.562  12.894 -2.8037 -1.1560 -1.5171
 2326SOL     OW18439   1.190   1.657   3.281 -0.5904 -0.3085 -0.3081
 2326SOL    HW118440   1.223   1.742   3.251 -2.3734  0.9692  1.3550
 2326SOL    HW218441   1.264   1.624   3.330 -0.3777 -0.0784 -0.4751
 2327SOL     OW18442   1.706   3.072  13.915  0.6978  0.2621 -0.0564
 2327SOL    HW118443   1.717   3.112  14.001 -1.4148 -1.5658  1.0574
 2327SOL    HW218444   1.782   3.109  13.870  2.8410 -0.8722  2.6592
 2328SOL     OW18445   2.088   2.025   0.537  0.2524 -0.2265  0.1006
 2328SOL    HW118446   2.168   2.074   0.516 -0.5877  0.0217 -2.5939
 2328SOL    HW218447   2.053   2.104   0.577 -1.1154 -1.0313  0.4981
 2329SOL     OW18448   1.090   0.024   6.324  0.5335 -0.4113  0.0224
 2329SOL    HW118449   1.000   4.719   6.328 -0.4603  2.4756 -0.3571
 2329SOL    HW218450   1.086   0.048   6.231  0.0933 -0.7491 -0.0425
 2330SOL     OW18451   2.759   1.460   1.033  0.4566  0.3434  0.2270
 2330SOL    HW118452   2.776   1.408   1.112 -0.2050  1.6337  1.2132
 2330SOL    HW218453   2.816   1.533   1.059 -0.1643  2.0848 -3.3071
 2331SOL     OW18454   1.852   0.837   2.451 -0.0735  0.2995  0.1241
 2331SOL    HW118455   1.880   0.746   2.453 -0.6616  0.0979 -0.7673
 2331SOL    HW218456   1.903   0.877   2.521  0.3400 -0.2302  0.1163
 2332SOL     OW18457   3.521   0.565   6.737  0.0064 -0.6045 -0.2734
 2332SOL    HW118458   3.492   0.499   6.674 -2.5238 -0.6343  0.9041
 2332SOL    HW218459   3.436   0.568   6.782  0.3756  1.3921  0.2946
 2333SOL     OW18460   0.580   1.942  15.267 -0.4880 -0.5531  0.3645
 2333SOL    HW118461   0.621   1.992  15.196  0.8134  1.5506  2.5840
 2333SOL    HW218462   0.502   1.993  15.291 -1.2571 -0.4546 -2.2963
 2334SOL     OW18463   3.190   1.058   0.567 -0.1547 -0.0482  0.6980
 2334SOL    HW118464   3.246   1.061   0.644 -0.1120 -2.2621  0.7519
 2334SOL    HW218465   3.246   0.992   0.526 -1.1819  0.3697 -1.3580
 2335SOL     OW18466   3.936   1.941  14.985  0.0725  0.6035 -0.1104
 2335SOL    HW118467   3.914   1.976  15.071 -0.6332  0.5366 -0.2644
 2335SOL    HW218468   3.990   2.012  14.951  0.8413 -0.7255 -1.6286
 2336SOL     OW18469   3.704   3.770   8.275 -0.5148  0.1363 -0.3959
 2336SOL    HW118470   3.726   3.752   8.367 -1.7902  1.5352  0.1775
 2336SOL    HW218471   3.720   3.696   8.216 -0.7524  0.2400 -0.5898
 2337SOL     OW18472   2.448   0.752   9.000 -0.1040 -0.4975  0.0880
 2337SOL    HW118473   2.463   0.763   9.094 -2.7677  2.1208  0.2009
 2337SOL    HW218474   2.460   0.841   8.966 -1.7327 -0.9126 -1.5281
 2338SOL     OW18475   1.491   2.603   7.606  0.5326  0.1460 -0.0222
 2338SOL    HW118476   1.540   2.623   7.526 -1.1349  1.7275 -0.6647
 2338SOL    HW218477   1.552   2.558   7.664  0.2554 -0.3035 -0.0774
 2339SOL     OW18478   0.594   1.138   2.015 -0.2825  0.2189 -0.1580
 2339SOL    HW118479   0.510   1.165   1.978 -2.4362 -0.1676  4.4837
 2339SOL    HW218480   0.582   1.044   2.029  0.0525  0.2188  0.1073
 2340SOL     OW18481   2.686   4.440   0.705 -0.1891  0.9365  0.4649
 2340SOL    HW118482   2.772   4.419   0.669 -0.4220 -0.3333  0.6471
 2340SOL    HW218483   2.635   4.421   0.626  1.5425  1.4249 -0.7431
 2341SOL     OW18484   2.548   4.000   2.595 -0.5024  0.0440 -0.1235
 2341SOL    HW118485   2.566   4.089   2.626 -0.2236 -0.0623  0.0188
 2341SOL    HW218486   2.605   4.004   2.518 -1.9690 -0.4721 -1.2459
 2342SOL     OW18487   1.444   4.600   0.079 -0.0694  0.4013  0.4922
 2342SOL    HW118488   1.479   4.633  17.698 -1.4255  0.1632 -0.1733
 2342SOL    HW218489   1.525   4.566   0.118 -0.6691  0.2466  1.6201
 2343SOL     OW18490   2.413   0.907   0.143  0.4926 -0.5592  0.0552
 2343SOL    HW118491   2.451   0.909   0.055 -0.6644 -1.7851 -0.4594
 2343SOL    HW218492   2.431   0.819   0.175  3.1871 -0.1222 -0.2200
 2344SOL     OW18493   2.834   0.299  13.476 -0.4778 -0.8997 -0.2148
 2344SOL    HW118494   2.916   0.250  13.467 -0.2369 -0.3671 -0.9280
 2344SOL    HW218495   2.772   0.243  13.429 -0.7900  1.0657 -2.1643
 2345SOL     OW18496   2.460   4.257   8.020 -0.0956  0.1777  0.3351
 2345SOL    HW118497   2.547   4.217   8.016 -0.2715 -0.4870  3.2824
 2345SOL    HW218498   2.468   4.307   7.938 -0.6655  0.2780  0.3385
 2346SOL     OW18499   2.799   1.332   1.269 -0.1743 -0.2059 -0.1530
 2346SOL    HW118500   2.763   1.247   1.244  0.4888 -0.5771  0.1327
 2346SOL    HW218501   2.836   1.308   1.354 -1.2755  2.0425  0.9468
 2347SOL     OW18502   1.502   2.170  14.509  0.2494  0.2029 -0.4476
 2347SOL    HW118503   1.463   2.256  14.496 -0.5197 -0.3262 -1.5951
 2347SOL    HW218504   1.543   2.153  14.424 -1.3893  0.1703 -1.2271
 2348SOL     OW18505   0.698   4.276   2.788 -0.2480 -0.4700 -1.2856
 2348SOL    HW118506   0.733   4.317   2.868  0.2401 -0.4981 -1.4852
 2348SOL    HW218507   0.623   4.334   2.786  0.1125  0.0736  0.4904
 2349SOL     OW18508   0.840   1.744  16.115  0.6409 -0.1689  0.4146
 2349SOL    HW118509   0.775   1.765  16.182 -2.2440  0.0450 -2.4516
 2349SOL    HW218510   0.859   1.829  16.074 -1.5927  0.4279  0.6310
 2350SOL     OW18511   0.262   4.405   2.395 -0.2008 -0.7097  0.4541
 2350SOL    HW118512   0.336   4.381   2.340  0.2882  1.1161  0.3226
 2350SOL    HW218513   0.230   4.316   2.413 -2.4636  0.5168  2.5931
 2351SOL     OW18514   1.520   2.639   3.893  0.6606 -0.0584  0.0859
 2351SOL    HW118515   1.582   2.675   3.956 -0.6087  1.1275  0.6725
 2351SOL    HW218516   1.573   2.659   3.816  1.1297  1.7791  0.8789
 2352SOL     OW18517   2.399   0.750  10.555 -0.3082 -0.0038 -0.6340
 2352SOL    HW118518   2.342   0.773  10.482 -0.7790  2.0277  0.3892
 2352SOL    HW218519   2.488   0.774  10.526  1.0804 -2.6483  1.4417
 2353SOL     OW18520   3.964   1.350   1.318  0.2716 -0.2679 -0.4998
 2353SOL    HW118521   3.938   1.426   1.370  0.1887 -1.3705  1.0897
 2353SOL    HW218522   3.972   1.282   1.385  1.6850 -0.5316 -0.9484
 2354SOL     OW18523   2.906   0.462   1.977 -0.2344 -0.1559 -0.3864
 2354SOL    HW118524   2.856   0.442   1.899  2.7558 -0.6298 -2.1859
 2354SOL    HW218525   2.845   0.516   2.029 -0.9480  0.4491 -1.8617
 2355SOL     OW18526   0.770   1.268  15.931  0.3505 -0.1261  0.4827
 2355SOL    HW118527   0.775   1.338  15.866  2.0601 -0.0757  0.6829
 2355SOL    HW218528   0.861   1.239  15.923  0.5980  1.1166 -1.2288
 2356SOL     OW18529   3.885   3.098   5.074 -0.5332 -0.1272  0.3525
 2356SOL    HW118530   3.934   3.016   5.064  1.4834  1.1016  0.2429
 2356SOL    HW218531   3.806   3.082   5.023 -0.0526  1.8648 -0.9970
 2357SOL     OW18532   1.738   0.622  13.214  0.0067  0.2751 -0.5477
 2357SOL    HW118533   1.749   0.603  13.121 -1.8242  1.2776 -0.9573
 2357SOL    HW218534   1.726   0.717  13.212 -0.4162  0.1715 -2.4904
 2358SOL     OW18535   4.487   3.046   5.417 -0.6259 -0.0143  0.2678
 2358SOL    HW118536   4.477   3.013   5.328 -1.0076 -0.6741  0.5555
 2358SOL    HW218537   4.456   2.974   5.472 -0.5627  0.6539  1.1815
 2359SOL     OW18538   1.811   3.234   7.480 -0.4211 -0.0333  0.3992
 2359SOL    HW118539   1.863   3.280   7.545  1.5162 -0.6674 -0.6988
 2359SOL    HW218540   1.800   3.300   7.411 -0.9388 -1.5410 -0.9608
 2360SOL     OW18541   1.922   4.195   6.966 -0.0461 -0.2242  0.0049
 2360SOL    HW118542   1.827   4.204   6.973 -0.1849 -3.3812  2.2458
 2360SOL    HW218543   1.953   4.263   7.025  1.2808 -0.7248 -0.1258
 2361SOL     OW18544   1.565   3.075   6.394  0.5476  0.3391  0.2746
 2361SOL    HW118545   1.606   3.087   6.480  0.4199  0.0017  0.3806
 2361SOL    HW218546   1.503   3.148   6.392 -0.9960 -1.0355 -1.4650
 2362SOL     OW18547   1.943   1.665  14.447  0.0547 -0.3993  0.2501
 2362SOL    HW118548   1.916   1.609  14.374 -0.7539  1.6242 -1.0029
 2362SOL    HW218549   1.908   1.753  14.433 -1.9209 -1.1357  0.4841
 2363SOL     OW18550   1.564   2.640   8.710 -0.0928  0.1645  0.6093
 2363SOL    HW118551   1.488   2.647   8.653  0.1806 -3.2416 -0.1747
 2363SOL    HW218552   1.632   2.634   8.643 -1.6167  0.0314 -0.9151
 2364SOL     OW18553   1.695   3.957   7.525 -0.3448  0.1934 -0.5600
 2364SOL    HW118554   1.609   3.925   7.553 -0.1172  0.7962  0.8288
 2364SOL    HW218555   1.666   4.041   7.490 -0.5930  0.2498 -0.2278
 2365SOL     OW18556   3.191   0.326   5.902 -0.8631  0.2772 -0.5095
 2365SOL    HW118557   3.099   0.300   5.907  0.0187 -2.7422  0.2390
 2365SOL    HW218558   3.223   0.264   5.836 -2.4926 -0.7883 -0.3018
 2366SOL     OW18559   1.569   0.300   5.404 -0.0475  0.1260  0.0706
 2366SOL    HW118560   1.539   0.280   5.493  2.8378 -1.6170  0.6483
 2366SOL    HW218561   1.589   0.393   5.417 -2.9846  1.2162 -3.4546
 2367SOL     OW18562   3.513   4.188   4.204 -0.2955  0.5670 -0.0998
 2367SOL    HW118563   3.593   4.135   4.203 -0.3231  0.5281 -0.9187
 2367SOL    HW218564   3.456   4.125   4.247  1.5775 -1.1439 -0.1225
 2368SOL     OW18565   1.713   2.011   3.738 -0.4689  0.1710  0.7701
 2368SOL    HW118566   1.655   2.082   3.711 -0.6975 -1.0133 -1.9358
 2368SOL    HW218567   1.692   2.005   3.831  0.7286  1.1620  1.1004
 2369SOL     OW18568   1.555   4.384   6.777  0.2904  0.0303 -0.1454
 2369SOL    HW118569   1.643   4.395   6.741 -0.0361  2.6318 -0.1749
 2369SOL    HW218570   1.528   4.318   6.714 -2.8755  1.9307 -0.7772
 2370SOL     OW18571   0.004   0.224   5.946  0.3427 -0.1415  0.0339
 2370SOL    HW118572   4.725   0.309   5.901 -2.5432  0.1112  0.8078
 2370SOL    HW218573   4.670   0.245   6.017  0.9430 -0.3622  0.5991
 2371SOL     OW18574   1.446   1.658   5.641 -0.1401  0.5997  0.3847
 2371SOL    HW118575   1.379   1.630   5.704 -0.1994  3.3402  1.5397
 2371SOL    HW218576   1.493   1.577   5.624 -1.0996  0.2994 -0.8624
 2372SOL     OW18577   0.105   4.303   1.494  0.0457  0.0401  0.3127
 2372SOL    HW118578   0.027   4.248   1.501  0.0708 -0.0471 -0.1104
 2372SOL    HW218579   0.116   4.314   1.589 -1.2711 -1.0503  0.5949
 2373SOL     OW18580   3.306   1.650   0.561 -0.2700  0.1551 -0.1369
 2373SOL    HW118581   3.239   1.622   0.623  0.1663  1.3007  0.8450
 2373SOL    HW218582   3.327   1.740   0.586  0.4210  0.2111 -0.9280
 2374SOL     OW18583   1.274   2.561   7.944 -0.7568 -0.2290 -0.1714
 2374SOL    HW118584   1.328   2.609   8.008 -0.8520 -1.0723  0.5391
 2374SOL    HW218585   1.194   2.555   7.997 -0.6980  0.3069 -0.0250
 2375SOL     OW18586   0.767   2.811   5.370  0.0401  0.5734  0.0617
 2375SOL    HW118587   0.808   2.892   5.339  2.7249 -0.0493  2.0421
 2375SOL    HW218588   0.719   2.851   5.443 -1.8056  0.2290 -0.9579
 2376SOL     OW18589   3.289   0.210  17.453 -0.2284 -0.2810  0.4862
 2376SOL    HW118590   3.274   0.269  17.527 -0.8628  0.2498 -0.0716
 2376SOL    HW218591   3.270   0.123  17.488 -0.7586  0.6485  2.5404
 2377SOL     OW18592   2.156   0.167   5.628  0.3630  0.7477 -0.1844
 2377SOL    HW118593   2.096   0.230   5.669 -0.2165 -0.4127  0.7640
 2377SOL    HW218594   2.162   0.211   5.543  0.3733 -0.4215 -0.7801
 2378SOL     OW18595   2.739   2.274  13.724  0.1587 -0.0026 -0.0158
 2378SOL    HW118596   2.713   2.197  13.773 -2.6617  2.2998  2.0450
 2378SOL    HW218597   2.685   2.341  13.765  2.4320  1.8953 -0.1132
 2379SOL     OW18598   2.354   0.442   6.479  0.1492  0.0994 -0.0191
 2379SOL    HW118599   2.263   0.470   6.466  0.4034  0.0445 -1.9007
 2379SOL    HW218600   2.396   0.523   6.510 -0.7291  0.5081  0.1277
 2380SOL     OW18601   1.866   0.352  13.138 -0.3633  0.5708  0.0270
 2380SOL    HW118602   1.893   0.331  13.227 -0.0375  2.7952  0.4659
 2380SOL    HW218603   1.907   0.280  13.092  2.0335  1.8322  0.1792
 2381SOL     OW18604   4.606   3.608   2.417  0.3818  0.0968  0.2084
 2381SOL    HW118605   4.622   3.640   2.328 -0.0323  0.1478  0.1536
 2381SOL    HW218606   4.593   3.697   2.450 -0.0401 -0.0017  0.3003
 2382SOL     OW18607   0.267   0.511   9.790  0.2713 -0.8500 -0.2062
 2382SOL    HW118608   0.357   0.481   9.779  0.1373 -0.8418 -1.3105
 2382SOL    HW218609   0.249   0.465   9.872 -0.3956  1.7818  1.1290
 2383SOL     OW18610   1.316   3.052   4.349  0.9472 -0.4985 -0.8385
 2383SOL    HW118611   1.306   3.147   4.356 -1.9065 -1.0283  2.2668
 2383SOL    HW218612   1.354   3.052   4.437  0.1240 -2.2927 -0.4957
 2384SOL     OW18613   1.410   2.692   0.934  0.2903 -0.3646  0.3850
 2384SOL    HW118614   1.377   2.782   0.926  2.1296  0.3638  0.9094
 2384SOL    HW218615   1.379   2.651   0.854  1.9866 -0.2054 -0.3455
 2385SOL     OW18616   3.445   2.321   7.778  0.2105 -0.2891  0.4247
 2385SOL    HW118617   3.478   2.315   7.689  0.4870  2.7449  0.3233
 2385SOL    HW218618   3.484   2.242   7.815  0.8847 -1.0612 -1.9875
 2386SOL     OW18619   2.717   1.414   3.425 -0.5248  0.1494 -0.2909
 2386SOL    HW118620   2.761   1.329   3.429  2.1785  1.5950  0.7379
 2386SOL    HW218621   2.791   1.462   3.387 -0.9749  0.7268 -0.4418
 2387SOL     OW18622   3.341   2.148   6.541  0.0749  0.4977 -0.3076
 2387SOL    HW118623   3.405   2.100   6.488 -0.1625 -0.3169  0.1451
 2387SOL    HW218624   3.258   2.123   6.502 -0.1816  0.9155 -0.0261
 2388SOL     OW18625   3.099   3.290   6.353  0.2969 -0.0408 -0.1691
 2388SOL    HW118626   3.124   3.199   6.341  3.4791  0.7709  0.3670
 2388SOL    HW218627   3.140   3.326   6.274 -0.0856  0.9706  0.0872
 2389SOL     OW18628   4.287   3.589   6.124  0.0374  0.2816 -0.3256
 2389SOL    HW118629   4.309   3.682   6.117  2.6218 -0.4131 -1.5715
 2389SOL    HW218630   4.361   3.548   6.078  1.6357  1.7702  0.9093
 2390SOL     OW18631   1.417   3.705  13.062 -0.1785 -0.2252 -0.5252
 2390SOL    HW118632   1.380   3.769  13.002  0.3080 -0.5748 -1.1891
 2390SOL    HW218633   1.498   3.690  13.013 -0.2923  1.0309 -1.1024
 2391SOL     OW18634   1.170   3.200   7.239  0.9917 -0.0674 -0.6498
 2391SOL    HW118635   1.231   3.186   7.312 -1.6061  0.7971  1.6698
 2391SOL    HW218636   1.159   3.106   7.224 -1.5200  0.2494 -0.8311
 2392SOL     OW18637   3.835   1.989   1.734 -0.0837  0.1867  0.3998
 2392SOL    HW118638   3.797   1.909   1.698 -0.8720  0.7322  0.0200
 2392SOL    HW218639   3.904   1.952   1.789 -0.5505  1.9053  2.1197
 2393SOL     OW18640   4.092   2.693  13.721 -0.0610 -0.5150 -0.6163
 2393SOL    HW118641   4.156   2.626  13.746  1.2762  0.7999 -0.5179
 2393SOL    HW218642   4.145   2.752  13.668  1.7467 -2.2392 -0.7414
 2394SOL     OW18643   1.653   1.981  15.146  0.2984  0.3678 -0.0749
 2394SOL    HW118644   1.653   1.912  15.079 -2.3958 -0.1329  0.4406
 2394SOL    HW218645   1.680   2.064  15.108  0.3760  1.9346  3.4876
 2395SOL     OW18646   3.567   1.828   9.000 -0.0554  0.1929  0.4621
 2395SOL    HW118647   3.576   1.748   9.053  1.8261  1.5711  2.2609
 2395SOL    HW218648   3.577   1.882   9.079 -0.9781  3.2105 -1.4960
 2396SOL     OW18649   4.505   3.114   8.683  0.6767  0.3302 -0.4446
 2396SOL    HW118650   4.506   3.040   8.622 -1.4640 -1.2577  1.4445
 2396SOL    HW218651   4.490   3.185   8.620  0.5302  1.1491  0.5145
 2397SOL     OW18652   3.036   1.345   2.190  0.0346 -0.2751  0.2986
 2397SOL    HW118653   3.127   1.361   2.212  0.2709  0.2614 -1.0705
 2397SOL    HW218654   3.030   1.349   2.095 -0.2981 -0.0881  0.3240
 2398SOL     OW18655   0.644   3.921   9.277 -0.2882  0.2999  0.3327
 2398SOL    HW118656   0.740   3.931   9.278 -0.3682  1.1224 -0.4783
 2398SOL    HW218657   0.631   3.827   9.288 -2.5480  0.5574 -0.3399
 2399SOL     OW18658   2.586   1.363   0.013 -0.1377  0.3910  0.3282
 2399SOL    HW118659   2.538   1.295  17.667 -0.1331  1.4879 -1.2009
 2399SOL    HW218660   2.613   1.314   0.091 -1.7660 -0.9275  0.0578
 2400SOL     OW18661   1.126   4.012  13.672 -0.4628  0.0104 -0.1075
 2400SOL    HW118662   1.214   3.976  13.681 -1.5243 -2.8333 -1.0700
 2400SOL    HW218663   1.106   3.992  13.580 -2.0628 -2.5186  0.7850
 2401SOL     OW18664   1.693   2.324   6.435 -0.1250 -0.1487 -0.0409
 2401SOL    HW118665   1.717   2.411   6.406  0.4669  0.0637  1.1187
 2401SOL    HW218666   1.621   2.330   6.498  1.1941 -0.4674  1.4913
 2402SOL     OW18667   0.438   0.851   5.110  0.4642  0.1804  0.5131
 2402SOL    HW118668   0.430   0.815   5.022  0.8508 -1.7642  1.2762
 2402SOL    HW218669   0.470   0.938   5.086  2.2679  0.0348  2.3751
 2403SOL     OW18670   1.393   1.757  17.552 -0.1356  0.2316 -0.0955
 2403SOL    HW118671   1.338   1.709  17.614  0.2614 -1.0353 -0.7160
 2403SOL    HW218672   1.368   1.844  17.584 -1.4754 -0.8782  1.9030
 2404SOL     OW18673   0.844   4.697   5.967 -0.0641  0.3901 -0.2057
 2404SOL    HW118674   0.925   0.008   6.001 -2.1909  2.2720  2.8890
 2404SOL    HW218675   0.815   0.044   5.911 -1.3446 -0.7181 -0.9903
 2405SOL     OW18676   4.349   2.278  12.982  0.2435 -0.2371  0.1154
 2405SOL    HW118677   4.442   2.264  13.000  0.6021  0.8219 -0.8985
 2405SOL    HW218678   4.338   2.250  12.891 -0.1872  1.8580 -0.4824
 2406SOL     OW18679   3.847   3.947   1.927 -0.2742  0.2186 -0.1646
 2406SOL    HW118680   3.779   3.889   1.894  0.1148 -0.9968  1.1879
 2406SOL    HW218681   3.813   3.946   2.016 -0.0006  2.0979 -0.0392
 2407SOL     OW18682   2.279   0.375   6.960 -0.2525  0.4855  0.4062
 2407SOL    HW118683   2.302   0.422   7.040  0.1825 -0.5267  0.8812
 2407SOL    HW218684   2.285   0.446   6.896 -1.6122 -0.3947 -0.7279
 2408SOL     OW18685   2.894   1.834   2.896  0.0582  0.3469 -0.2979
 2408SOL    HW118686   2.873   1.912   2.844  0.5031  1.1187  0.6914
 2408SOL    HW218687   2.969   1.795   2.850  1.1376  0.7041  1.1552
 2409SOL     OW18688   3.603   1.757   7.110 -0.0549 -0.1824  0.4964
 2409SOL    HW118689   3.610   1.836   7.164  1.9327 -1.0145  1.4886
 2409SOL    HW218690   3.588   1.794   7.023  0.7459 -2.7989 -0.7603
 2410SOL     OW18691   3.188   1.169   6.293  0.0238  0.2525 -0.5150
 2410SOL    HW118692   3.160   1.246   6.342 -1.2013 -1.4844  1.5242
 2410SOL    HW218693   3.198   1.111   6.368  0.6791  1.9151  0.6887
 2411SOL     OW18694   2.860   3.700   9.312  0.4371 -0.5965  0.0220
 2411SOL    HW118695   2.887   3.728   9.225 -1.0723 -0.5986 -0.4364
 2411SOL    HW218696   2.938   3.708   9.367  0.8933 -2.0978 -0.4325
 2412SOL     OW18697   4.572   2.106  15.915  0.1972 -0.3017  0.4740
 2412SOL    HW118698   4.613   2.091  16.000  2.3873 -1.8883 -0.8602
 2412SOL    HW218699   4.648   2.135  15.864 -0.0586 -2.5387 -1.1756
 2413SOL     OW18700   0.715   3.164   6.249 -0.0930 -0.2717  0.6844
 2413SOL    HW118701   0.768   3.128   6.178 -0.7341 -0.6772  0.4081
 2413SOL    HW218702   0.650   3.095   6.264  0.4644 -1.3656 -2.0393
 2414SOL     OW18703   3.409   3.235   4.298  0.3635 -0.2467  0.3446
 2414SOL    HW118704   3.323   3.270   4.324  1.7131  2.4763  1.1017
 2414SOL    HW218705   3.461   3.230   4.378  0.7512  0.1444  0.1139
 2415SOL     OW18706   4.186   2.511   2.561 -0.8415 -0.0045 -0.0196
 2415SOL    HW118707   4.246   2.441   2.535 -0.3452  0.7476 -0.8731
 2415SOL    HW218708   4.142   2.537   2.481  0.0112  3.0032  0.4983
 2416SOL     OW18709   1.532   4.708   1.017 -0.0733  0.7945  0.1779
 2416SOL    HW118710   1.506   4.618   1.037 -1.6109  0.8190 -1.7385
 2416SOL    HW218711   1.623   4.695   0.990  0.2701 -0.7962  2.0848
 2417SOL     OW18712   0.044   2.090   4.830 -0.1734  0.6129 -0.2350
 2417SOL    HW118713   0.029   2.057   4.919  0.2921  1.7038  0.2436
 2417SOL    HW218714   0.086   2.175   4.846  2.8008 -1.3023  2.1742
 2418SOL     OW18715   4.593   4.515   2.402 -0.3794  0.4526  0.7863
 2418SOL    HW118716   4.688   4.529   2.395  0.3247 -4.6184  0.1687
 2418SOL    HW218717   4.562   4.579   2.466  1.4525  0.6027  1.5437
 2419SOL     OW18718   3.318   4.160  15.267 -0.0525  0.1044  0.5663
 2419SOL    HW118719   3.246   4.223  15.280  0.8393  1.1054  0.6648
 2419SOL    HW218720   3.384   4.210  15.220  0.2117 -0.7419  0.0444
 2420SOL     OW18721   3.259   1.319   1.336  0.2255  0.0734  0.6915
 2420SOL    HW118722   3.328   1.253   1.331 -0.4893 -0.7009  0.9875
 2420SOL    HW218723   3.193   1.272   1.284 -0.9048  1.0023  1.2726
 2421SOL     OW18724   2.207   0.998   0.278 -0.4384 -0.0684  0.3418
 2421SOL    HW118725   2.286   0.963   0.237 -0.1596  0.1042  0.7293
 2421SOL    HW218726   2.235   1.006   0.369 -0.3440 -1.2544  0.4136
 2422SOL     OW18727   0.623   3.682   2.104  0.8644  0.4569 -0.1213
 2422SOL    HW118728   0.652   3.620   2.037  1.2865  0.8182 -0.2701
 2422SOL    HW218729   0.561   3.623   2.147  3.4252 -1.1463  1.3834
 2423SOL     OW18730   0.895   2.112   1.001  0.1780  0.1977 -0.0657
 2423SOL    HW118731   0.804   2.090   1.019  0.3415  0.6737  1.3690
 2423SOL    HW218732   0.943   2.061   1.065 -0.2121  1.1688  1.0060
 2424SOL     OW18733   1.285   1.346  13.138  0.0032  0.4290  0.1088
 2424SOL    HW118734   1.238   1.351  13.055  0.5185  2.0090 -0.0857
 2424SOL    HW218735   1.270   1.435  13.172  1.8132  0.7755 -0.0307
 2425SOL     OW18736   1.343   3.177  10.284  0.6872 -0.2581 -0.1485
 2425SOL    HW118737   1.434   3.206  10.288  0.1350  1.2248  1.4020
 2425SOL    HW218738   1.307   3.185  10.372  3.6046 -0.0362  1.0185
 2426SOL     OW18739   3.625   1.647   8.073  0.5742 -0.4130  0.1954
 2426SOL    HW118740   3.642   1.568   8.125  2.1686  0.8502  1.6105
 2426SOL    HW218741   3.555   1.680   8.130 -1.1766  0.4663 -2.4420
 2427SOL     OW18742   3.451   1.361  16.926 -0.2434 -0.8202  0.1839
 2427SOL    HW118743   3.523   1.300  16.919  0.2599 -0.3274  1.0252
 2427SOL    HW218744   3.384   1.294  16.910 -2.1180  1.3785 -1.2436
 2428SOL     OW18745   0.826   3.164   2.889 -0.3549  0.3974  0.3120
 2428SOL    HW118746   0.777   3.086   2.860 -1.1836  0.7679  0.6971
 2428SOL    HW218747   0.913   3.125   2.887  0.4829  2.2433  0.8892
 2429SOL     OW18748   3.782   1.424   0.563  0.4592  0.4224  0.0219
 2429SOL    HW118749   3.690   1.428   0.538  1.1698 -0.6857 -2.7781
 2429SOL    HW218750   3.787   1.515   0.591  0.2159  0.2664  0.5703
 2430SOL     OW18751   1.647   0.605   9.358 -0.1314 -0.0460 -0.3187
 2430SOL    HW118752   1.668   0.675   9.296  1.3002 -0.8444 -0.7193
 2430SOL    HW218753   1.731   0.560   9.369 -1.0221 -1.8467 -0.9609
 2431SOL     OW18754   1.829   1.727  16.416  0.0650 -0.1948  0.1073
 2431SOL    HW118755   1.871   1.797  16.467 -1.4221  0.4018  0.5002
 2431SOL    HW218756   1.750   1.769  16.383  1.2775  2.2126  0.2222
 2432SOL     OW18757   0.098   4.683   2.306  0.1814 -0.7702 -0.2349
 2432SOL    HW118758   0.173   0.002   2.266  1.6748 -2.0154  1.1639
 2432SOL    HW218759   0.032   4.694   2.238  0.1113 -1.7903 -0.3291
 2433SOL     OW18760   0.246   0.298  17.026  0.3868 -0.1512  0.0315
 2433SOL    HW118761   0.172   0.357  17.039  1.1016  0.5981  0.7800
 2433SOL    HW218762   0.299   0.324  17.102  1.2180  1.2818 -1.0289
 2434SOL     OW18763   3.339   0.279  14.901  0.0468  0.3013  0.7606
 2434SOL    HW118764   3.308   0.321  14.981 -0.4220 -2.2784  1.9109
 2434SOL    HW218765   3.340   0.360  14.850  2.3954  0.3282  0.8517
 2435SOL     OW18766   4.674   3.663  15.867 -0.0527 -0.0045 -0.1125
 2435SOL    HW118767   4.689   3.664  15.772  0.8020  0.4653  0.0249
 2435SOL    HW218768   0.030   3.698  15.903 -0.4261 -0.1586  0.8802
 2436SOL     OW18769   2.054   4.159  16.907  0.0557 -0.3051 -0.1626
 2436SOL    HW118770   2.015   4.120  16.828 -1.4607 -0.6997  0.7684
 2436SOL    HW218771   1.973   4.200  16.937  2.4817  2.4397  2.6103
 2437SOL     OW18772   3.696   2.381  11.479 -0.1988  0.6487  0.9139
 2437SOL    HW118773   3.738   2.295  11.472  0.5577  1.2873 -2.6404
 2437SOL    HW218774   3.718   2.405  11.569 -1.2345 -1.0442  1.6005
 2438SOL     OW18775   4.057   2.764  15.541  0.6725  0.3943 -0.2623
 2438SOL    HW118776   4.049   2.675  15.575  0.6126  0.5953  0.2489
 2438SOL    HW218777   3.972   2.802  15.562  0.8451  1.1233 -0.8909
 2439SOL     OW18778   3.044   4.336  15.271 -0.8669 -0.2788  0.3914
 2439SOL    HW118779   3.037   4.354  15.177 -2.5068 -0.0987  0.5440
 2439SOL    HW218780   3.026   4.242  15.278 -1.4283 -0.1746  0.3492
 2440SOL     OW18781   4.281   3.697   7.164  0.1187  0.6828 -0.5412
 2440SOL    HW118782   4.249   3.710   7.254 -1.9388 -0.5261 -1.0868
 2440SOL    HW218783   4.333   3.774   7.146  0.6274  0.3971 -0.2955
 2441SOL     OW18784   4.477   3.384   6.011  0.4487 -0.1067 -0.4710
 2441SOL    HW118785   4.417   3.316   6.041  1.1563 -0.7771 -0.5965
 2441SOL    HW218786   4.550   3.334   5.976  2.3262  0.9754  1.9384
 2442SOL     OW18787   4.080   0.807  15.366  0.3318  0.0645  0.1576
 2442SOL    HW118788   4.003   0.840  15.320  0.6052  0.2305 -0.1739
 2442SOL    HW218789   4.053   0.716  15.379  0.9183 -0.0069  0.8396
 2443SOL     OW18790   0.961   1.214   0.077 -0.1696  0.5225  0.1382
 2443SOL    HW118791   0.951   1.137   0.133  0.9415 -0.5066 -1.1037
 2443SOL    HW218792   0.868   1.224   0.057 -0.5517  0.6367  1.8945
 2444SOL     OW18793   0.216   0.147   3.293  0.2094 -0.6292 -0.4174
 2444SOL    HW118794   0.278   0.076   3.274 -1.6234 -1.9432 -1.5308
 2444SOL    HW218795   0.261   0.184   3.369  1.8138 -0.9394 -1.2025
 2445SOL     OW18796   2.698   0.830  10.474 -0.5580 -0.1924 -0.3089
 2445SOL    HW118797   2.769   0.767  10.487  1.5649  2.0224 -1.1830
 2445SOL    HW218798   2.719   0.893  10.542 -2.5027 -0.7471  0.8080
 2446SOL     OW18799   0.272   2.548  15.172  0.4186 -0.7568  0.1412
 2446SOL    HW118800   0.332   2.475  15.189  0.7150 -0.9552 -1.7024
 2446SOL    HW218801   0.203   2.503  15.122 -2.1470  0.7620  2.3557
 2447SOL     OW18802   1.415   3.641   5.924 -0.8929  0.3697  0.3233
 2447SOL    HW118803   1.387   3.554   5.898 -0.3722  0.0985  0.6918
 2447SOL    HW218804   1.415   3.633   6.019 -2.8721 -2.1248  0.0941
 2448SOL     OW18805   2.848   3.897   7.192  0.1144  0.2292  0.1122
 2448SOL    HW118806   2.914   3.861   7.252  2.0583  1.1683 -1.4627
 2448SOL    HW218807   2.832   3.823   7.134  0.2108 -0.0245  0.4046
 2449SOL     OW18808   3.949   0.577   7.915  0.3253 -0.0611  0.2840
 2449SOL    HW118809   3.932   0.629   7.836  0.1393  0.1975  0.4931
 2449SOL    HW218810   4.042   0.596   7.931  0.5203 -0.6082 -0.1870
 2450SOL     OW18811   3.365   0.281   2.840 -0.8923  0.3722 -0.4171
 2450SOL    HW118812   3.428   0.347   2.870 -2.8885  1.1845  1.9904
 2450SOL    HW218813   3.388   0.197   2.879  0.4639  0.7940 -0.3207
 2451SOL     OW18814   2.458   3.722   5.211  0.4361 -0.1855 -0.1160
 2451SOL    HW118815   2.542   3.689   5.179  0.3728  0.0421 -0.5172
 2451SOL    HW218816   2.404   3.656   5.168  0.2187  1.1241 -1.8503
 2452SOL     OW18817   2.531   4.315   3.062 -0.0434 -0.0382  0.2152
 2452SOL    HW118818   2.517   4.354   2.975  0.7075 -1.2966 -0.4812
 2452SOL    HW218819   2.534   4.223   3.034 -1.7691 -0.4313  1.2925
 2453SOL     OW18820   0.788   1.449   5.787  0.2312  0.2361  0.0643
 2453SOL    HW118821   0.732   1.420   5.859  0.9525 -1.0808  0.1093
 2453SOL    HW218822   0.730   1.424   5.715  0.5971  1.6519 -0.7234
 2454SOL     OW18823   0.550   0.771   2.444 -0.0126  0.2683 -0.1512
 2454SOL    HW118824   0.638   0.786   2.409 -0.3513  0.6858 -0.8047
 2454SOL    HW218825   0.539   0.829   2.519  0.7731 -1.5239  1.3548
 2455SOL     OW18826   2.911   0.388   5.291 -0.2854 -0.0575  0.7337
 2455SOL    HW118827   2.849   0.336   5.240 -1.7269  1.0393  1.3822
 2455SOL    HW218828   2.861   0.391   5.372  0.6471 -1.6092  1.3746
 2456SOL     OW18829   1.695   2.935   9.166  0.6571  0.0462 -0.0305
 2456SOL    HW118830   1.613   2.922   9.214 -0.0828  2.3099 -0.7122
 2456SOL    HW218831   1.662   2.884   9.092  0.6588 -0.5191  0.3568
 2457SOL     OW18832   0.842   1.250  16.378 -0.4690  0.2433 -0.0287
 2457SOL    HW118833   0.826   1.319  16.442  1.9083 -0.0359  0.8640
 2457SOL    HW218834   0.903   1.289  16.316  1.6850  1.4239  2.8294
 2458SOL     OW18835   0.575   0.160   9.886 -0.5560  0.0210  0.0024
 2458SOL    HW118836   0.602   0.156   9.977 -1.5635 -0.2451  0.2945
 2458SOL    HW218837   0.641   0.099   9.853 -0.9840  0.1950 -1.1917
 2459SOL     OW18838   3.433   1.467   4.735 -0.3292  0.3963 -0.3594
 2459SOL    HW118839   3.371   1.432   4.671  0.6038 -1.6754 -0.1432
 2459SOL    HW218840   3.452   1.557   4.708 -2.1218  1.2785  1.3078
 2460SOL     OW18841   1.607   4.239  10.450 -0.2836 -0.4276 -0.0979
 2460SOL    HW118842   1.633   4.244  10.358 -1.2149  3.2057 -0.1758
 2460SOL    HW218843   1.572   4.150  10.458  1.1295 -1.0192 -0.4576
 2461SOL     OW18844   3.457   1.511   3.441 -0.5996 -0.0950 -0.3058
 2461SOL    HW118845   3.384   1.450   3.455 -1.0060  0.8013  1.4740
 2461SOL    HW218846   3.520   1.457   3.393 -0.9308 -0.6255 -0.1545
 2462SOL     OW18847   3.923   2.612   4.249  0.4102  0.3163  0.4190
 2462SOL    HW118848   4.013   2.581   4.240  0.5561  0.8820 -0.0617
 2462SOL    HW218849   3.919   2.694   4.200  1.1262 -0.8793 -1.6135
 2463SOL     OW18850   0.885   0.619   3.593  0.0409 -0.4510 -0.4140
 2463SOL    HW118851   0.979   0.641   3.596 -0.0062 -0.0037 -1.8055
 2463SOL    HW218852   0.856   0.700   3.634  0.3346 -0.4740 -0.1571
 2464SOL     OW18853   0.899   1.853  16.626 -0.3848  0.0962  0.1500
 2464SOL    HW118854   0.865   1.796  16.695 -0.1245  0.2099  0.3693
 2464SOL    HW218855   0.938   1.800  16.557 -0.9828 -1.2753  0.8642
 2465SOL     OW18856   4.164   2.014   7.709  0.4974 -0.4576 -0.9529
 2465SOL    HW118857   4.147   2.096   7.754 -2.8373 -0.8179 -1.5443
 2465SOL    HW218858   4.168   1.970   7.794  1.9922 -0.2152 -0.8907
 2466SOL     OW18859   3.366   2.057   7.558 -0.3986  0.3324  0.4338
 2466SOL    HW118860   3.295   2.121   7.560 -2.8886 -2.4735  1.6065
 2466SOL    HW218861   3.437   2.122   7.564 -1.1939  1.1483  0.9474
 2467SOL     OW18862   2.001   4.167   9.141 -0.3109 -0.0456 -0.6998
 2467SOL    HW118863   2.032   4.130   9.224 -1.6671  2.9039  1.1681
 2467SOL    HW218864   1.915   4.173   9.185 -0.7558  1.8487 -1.8285
 2468SOL     OW18865   3.836   0.088   4.547  0.2315  0.0099  0.0688
 2468SOL    HW118866   3.813   4.720   4.545 -0.8841  0.2534  1.5210
 2468SOL    HW218867   3.755   0.123   4.509  1.4098  1.8048 -0.7833
 2469SOL     OW18868   4.683   0.234   6.266 -0.1795  0.2982  0.0329
 2469SOL    HW118869   4.616   0.299   6.289 -1.4685 -0.3137 -1.9501
 2469SOL    HW218870   4.672   0.160   6.326 -2.7208  0.6921  0.0789
 2470SOL     OW18871   2.931   1.475   4.609 -0.4917 -0.3617  0.2018
 2470SOL    HW118872   2.854   1.429   4.643  0.6057 -1.0943  1.7103
 2470SOL    HW218873   3.001   1.411   4.626 -0.0795 -0.4777 -1.8736
 2471SOL     OW18874   2.550   1.572  17.257 -0.0725  0.7593 -0.7571
 2471SOL    HW118875   2.608   1.618  17.195 -1.6501  1.3178 -1.8153
 2471SOL    HW218876   2.617   1.559  17.324 -1.3090 -0.5831  0.2144
 2472SOL     OW18877   3.038   3.409   7.591  0.0526 -0.0700  0.7652
 2472SOL    HW118878   3.127   3.431   7.564 -0.2518  0.9596  0.5928
 2472SOL    HW218879   3.052   3.328   7.639 -1.0262 -1.1067 -0.6637
 2473SOL     OW18880   4.707   2.185   7.756 -0.6448 -0.2933 -0.2662
 2473SOL    HW118881   4.617   2.184   7.789 -0.7211  0.3458 -0.4578
 2473SOL    HW218882   0.024   2.159   7.839 -3.8383 -1.8166  0.8685
 2474SOL     OW18883   1.132   1.249   3.200 -0.1308  0.2025  0.0088
 2474SOL    HW118884   1.176   1.174   3.239  1.1194  1.5764  1.2496
 2474SOL    HW218885   1.098   1.219   3.116  1.6727 -1.9198  0.0482
 2475SOL     OW18886   1.703   3.989   3.951 -0.1459 -0.1453  0.5865
 2475SOL    HW118887   1.728   4.077   3.921  3.0577 -1.9896 -2.2580
 2475SOL    HW218888   1.708   3.937   3.871  0.0554  0.0659  0.4595
 2476SOL     OW18889   0.033   2.692   6.919  0.1057  0.6660  0.1628
 2476SOL    HW118890   0.125   2.715   6.935  0.1236 -0.0700  1.1292
 2476SOL    HW218891   0.027   2.637   6.997  1.3373 -1.1793 -1.0399
 2477SOL     OW18892   4.421   3.116   7.593 -0.1358 -0.4588  0.2460
 2477SOL    HW118893   4.382   3.193   7.551 -0.6689  1.2494  3.9312
 2477SOL    HW218894   4.415   3.049   7.524  2.0445 -1.9485  1.4982
 2478SOL     OW18895   2.266   2.690   5.522  0.1545 -0.6554  0.5412
 2478SOL    HW118896   2.335   2.731   5.574 -0.5099  0.8132  0.2677
 2478SOL    HW218897   2.309   2.694   5.437 -2.4741 -0.4586 -0.7795
 2479SOL     OW18898   3.267   1.574  11.849  0.0138  0.1559  0.2199
 2479SOL    HW118899   3.248   1.654  11.799 -1.3238 -1.3657 -1.6935
 2479SOL    HW218900   3.360   1.587  11.870  0.8889 -3.3330 -1.5318
 2480SOL     OW18901   2.670   2.216   5.403  0.0820 -0.1676 -0.1510
 2480SOL    HW118902   2.690   2.192   5.493 -1.8526 -0.5888  0.1648
 2480SOL    HW218903   2.576   2.235   5.410  0.3581  2.1997 -2.5704
 2481SOL     OW18904   2.544   2.496  17.675  0.0614  0.3741 -0.0784
 2481SOL    HW118905   2.568   2.558  17.607 -3.0669  1.7536  0.0886
 2481SOL    HW218906   2.545   2.554   0.048 -1.1334  0.3420 -0.0361
 2482SOL     OW18907   2.596   0.598   1.242 -0.1576  0.4564 -0.6618
 2482SOL    HW118908   2.543   0.670   1.207 -2.3892 -0.0983  1.6028
 2482SOL    HW218909   2.632   0.626   1.326 -1.6004  2.4978 -0.7282
 2483SOL     OW18910   2.725   1.435  14.234  0.4876  0.2964  0.3991
 2483SOL    HW118911   2.674   1.385  14.298 -1.4798 -0.1563 -1.5150
 2483SOL    HW218912   2.678   1.518  14.236 -0.1496 -0.0301 -0.8291
 2484SOL     OW18913   4.199   4.101   2.181 -0.0919  0.0468  0.2600
 2484SOL    HW118914   4.118   4.151   2.171  0.2464  0.4095 -0.6111
 2484SOL    HW218915   4.245   4.107   2.097  1.3788 -1.9388  0.9228
 2485SOL     OW18916   0.863   4.253  11.487  0.3081 -0.8902 -0.2082
 2485SOL    HW118917   0.866   4.286  11.577  2.3237 -0.6167 -0.3871
 2485SOL    HW218918   0.921   4.319  11.449 -0.4349  2.0283  3.7059
 2486SOL     OW18919   4.013   1.958   5.812 -0.1639  0.1727 -0.0371
 2486SOL    HW118920   3.969   1.940   5.895 -0.4415  1.3856  0.0774
 2486SOL    HW218921   4.068   1.879   5.816 -1.2734 -0.5578  0.7772
 2487SOL     OW18922   4.057   1.389  11.263 -0.4490 -0.0984  0.1910
 2487SOL    HW118923   4.114   1.444  11.316 -1.0431  1.7531 -1.0877
 2487SOL    HW218924   4.075   1.309  11.312  0.6134 -0.4026 -0.6837
 2488SOL     OW18925   2.450   1.545   0.674  0.3922  0.0978 -0.3305
 2488SOL    HW118926   2.512   1.566   0.744  0.0004  0.7928 -0.1928
 2488SOL    HW218927   2.370   1.555   0.725  1.1684  0.3691  0.8340
 2489SOL     OW18928   3.113   1.657   2.013 -0.6497  0.1836  0.4843
 2489SOL    HW118929   3.050   1.679   1.944 -0.9153  1.4811  1.1309
 2489SOL    HW218930   3.062   1.681   2.090 -0.3993 -2.4690  1.4718
 2490SOL     OW18931   3.867   1.604  11.261  0.8613 -0.4249  0.2486
 2490SOL    HW118932   3.938   1.540  11.249 -0.0370 -1.1187 -1.3563
 2490SOL    HW218933   3.790   1.575  11.212 -0.8456  1.6668  1.6605
 2491SOL     OW18934   2.510   0.223   4.298 -0.3992 -0.9739 -0.0821
 2491SOL    HW118935   2.481   0.133   4.286  0.5541 -1.0576 -1.7292
 2491SOL    HW218936   2.428   0.272   4.290  0.3230  0.2454 -0.1015
 2492SOL     OW18937   1.290   1.623   8.788  0.0572 -0.3537 -0.4530
 2492SOL    HW118938   1.336   1.620   8.704 -1.8355  0.4598 -1.5052
 2492SOL    HW218939   1.341   1.556   8.834  1.2790  1.6006  1.0450
 2493SOL     OW18940   3.049   2.303   8.161 -0.6274 -0.4765  0.1638
 2493SOL    HW118941   3.111   2.252   8.214  0.4520  2.1847  1.4933
 2493SOL    HW218942   2.968   2.275   8.203 -0.3622 -1.1605  0.2203
 2494SOL     OW18943   3.195   0.659  11.683  0.2696  0.0673  0.2520
 2494SOL    HW118944   3.223   0.573  11.653  1.5586  0.2286  0.9657
 2494SOL    HW218945   3.114   0.634  11.728 -0.0295  0.1346 -0.2413
 2495SOL     OW18946   0.010   4.627   4.875  0.1156 -0.8559 -0.1738
 2495SOL    HW118947   4.698   4.541   4.855 -1.6593 -0.3139  0.8366
 2495SOL    HW218948   0.040   4.627   4.784  0.3647 -0.7017 -0.0916
 2496SOL     OW18949   3.551   0.738   3.090  0.1151 -0.0506  0.6961
 2496SOL    HW118950   3.572   0.774   3.177  1.5239 -1.4095  0.9202
 2496SOL    HW218951   3.461   0.770   3.084  0.3218  0.2664 -0.5928
 2497SOL     OW18952   0.270   3.251  11.338  0.2699  0.2871  0.6576
 2497SOL    HW118953   0.290   3.253  11.432 -0.7103  2.1082  0.8371
 2497SOL    HW218954   0.358   3.238  11.303  0.0446 -3.2183  1.3603
 2498SOL     OW18955   1.044   0.938   2.937  0.3175 -0.7752 -0.6949
 2498SOL    HW118956   1.024   0.852   2.975 -2.7973  0.1592 -0.1746
 2498SOL    HW218957   1.012   0.929   2.848 -1.0547 -0.2593 -0.2574
 2499SOL     OW18958   1.572   1.642   5.032 -0.2369 -0.3545  0.1985
 2499SOL    HW118959   1.581   1.734   5.008  0.0629 -0.2247  0.8205
 2499SOL    HW218960   1.497   1.607   4.983  0.8255  0.0161 -1.7130
 2500SOL     OW18961   4.609   1.072   1.933 -0.5125  0.0625  0.5951
 2500SOL    HW118962   4.551   1.110   1.866  0.5601 -0.3166 -0.5576
 2500SOL    HW218963   4.576   1.122   2.007  0.3961 -0.4307  1.3351
 2501SOL     OW18964   0.421   0.102  10.315  0.5556  0.1905  0.5593
 2501SOL    HW118965   0.438   0.116  10.408 -1.0928  1.8228  0.6343
 2501SOL    HW218966   0.507   0.083  10.278  0.8106 -1.0222  1.7910
 2502SOL     OW18967   0.106   1.987  14.729 -0.5421  0.6328 -0.3564
 2502SOL    HW118968   0.113   2.008  14.636 -1.5724 -0.5381 -0.7065
 2502SOL    HW218969   0.086   1.893  14.728 -1.5737  0.8353  1.0601
 2503SOL     OW18970   2.806   4.564  15.850 -0.2723  0.1879 -0.1675
 2503SOL    HW118971   2.894   4.602  15.855 -0.1324 -0.1414 -0.1177
 2503SOL    HW218972   2.824   4.472  15.868 -0.4797  0.4275  1.2934
 2504SOL     OW18973   0.825   1.443   2.932 -0.4889  0.4954  0.2584
 2504SOL    HW118974   0.827   1.517   2.870  2.4875 -0.6988 -1.0732
 2504SOL    HW218975   0.870   1.472   3.011 -0.5101  0.4672  0.2804
 2505SOL     OW18976   1.977   2.494  10.708 -0.4395 -0.1460  0.3093
 2505SOL    HW118977   1.924   2.452  10.776  0.4310 -0.2446  0.9215
 2505SOL    HW218978   2.063   2.503  10.748  0.7539 -1.5786 -1.9527
 2506SOL     OW18979   1.153   2.934  11.200 -0.0331  0.4618  0.1285
 2506SOL    HW118980   1.159   3.000  11.130  0.1363  1.1965  0.8399
 2506SOL    HW218981   1.230   2.954  11.253 -0.9126  2.6402  0.5903
 2507SOL     OW18982   2.486   4.005   4.511  0.3609 -0.6552  0.1505
 2507SOL    HW118983   2.438   3.948   4.450  0.4179 -1.6264  1.0170
 2507SOL    HW218984   2.580   3.999   4.495  0.5479 -0.3867  1.1708
 2508SOL     OW18985   2.152   3.292   8.900 -0.2203  0.2569 -0.7614
 2508SOL    HW118986   2.140   3.232   8.827 -1.0849  2.0196 -2.0547
 2508SOL    HW218987   2.061   3.302   8.927  0.1232  1.1272  0.0694
 2509SOL     OW18988   1.471   2.474   5.629  0.5585  0.2887  0.0398
 2509SOL    HW118989   1.468   2.419   5.550  0.6317 -0.1467  0.3418
 2509SOL    HW218990   1.546   2.434   5.672  0.0225 -0.0609  0.6646
 2510SOL     OW18991   1.582   1.510   2.285  0.0548  0.4187 -0.6508
 2510SOL    HW118992   1.507   1.569   2.277 -0.4888 -0.6179 -3.2439
 2510SOL    HW218993   1.569   1.453   2.209 -2.9703  0.4238 -0.1163
 2511SOL     OW18994   1.817   2.711   7.255  0.0447  0.5329  0.3551
 2511SOL    HW118995   1.834   2.802   7.232  1.4502  0.5478  1.4939
 2511SOL    HW218996   1.781   2.674   7.174  0.4809 -0.4680  0.6199
 2512SOL     OW18997   0.954   0.352  16.825 -0.3161  0.4772  0.2544
 2512SOL    HW118998   0.868   0.321  16.855 -0.3369  1.0833  0.8291
 2512SOL    HW218999   0.939   0.436  16.783 -1.1949  0.4332  0.4715
 2513SOL     OW19000   4.517   1.819   1.684 -0.2765  0.3888 -0.0292
 2513SOL    HW119001   4.556   1.777   1.608  1.3538  1.4433  0.2310
 2513SOL    HW219002   4.588   1.831   1.747  0.4519 -1.0624 -0.5682
 2514SOL     OW19003   2.178   1.318   4.012 -0.2986 -0.3683  0.0393
 2514SOL    HW119004   2.257   1.298   3.962  0.7773  1.0528  1.1860
 2514SOL    HW219005   2.102   1.297   3.956 -1.2184 -0.1896  1.2221
 2515SOL     OW19006   4.570   0.914   7.642  0.0255 -0.5799  0.5052
 2515SOL    HW119007   4.538   0.935   7.730  1.9815  0.6619  0.9084
 2515SOL    HW219008   4.488   0.924   7.593  0.8627 -0.1554 -0.8110
 2516SOL     OW19009   0.254   4.299  11.062 -0.2664 -0.1384 -0.4452
 2516SOL    HW119010   0.308   4.220  11.056  2.7113  1.9987 -1.7451
 2516SOL    HW219011   0.169   4.267  11.034 -1.0823  0.6532  1.0816
 2517SOL     OW19012   2.772   2.023  17.280  0.4463 -0.0185  0.4057
 2517SOL    HW119013   2.854   1.982  17.252 -0.6451 -2.2733  0.5709
 2517SOL    HW219014   2.705   1.982  17.225  0.6469  0.2697 -0.0546
 2518SOL     OW19015   2.993   4.320   3.662  0.0467 -0.4198 -0.3537
 2518SOL    HW119016   3.034   4.349   3.581 -2.3389 -1.4024 -1.8916
 2518SOL    HW219017   2.903   4.347   3.644  0.5476  1.8300  0.4902
 2519SOL     OW19018   2.900   0.408   0.399 -0.2180 -0.3174 -0.3966
 2519SOL    HW119019   2.941   0.452   0.325  0.6942  0.7646  0.7564
 2519SOL    HW219020   2.899   0.481   0.461 -1.5365 -0.3351 -0.3965
 2520SOL     OW19021   2.280   4.157   9.053  0.0485 -0.7658 -0.1036
 2520SOL    HW119022   2.187   4.179   9.061  0.3612 -0.0569  1.6072
 2520SOL    HW219023   2.288   4.076   9.104  0.7957 -0.4296  0.3025
 2521SOL     OW19024   4.060   1.362   2.931 -0.7052  0.0174 -0.3507
 2521SOL    HW119025   4.079   1.381   2.839 -2.4813 -0.0370 -0.7456
 2521SOL    HW219026   4.131   1.410   2.973 -0.5328  0.8808 -1.6362
 2522SOL     OW19027   3.451   0.583   2.031 -0.0279 -0.2416 -0.7182
 2522SOL    HW119028   3.373   0.577   1.977 -0.6993  2.5738 -0.0921
 2522SOL    HW219029   3.437   0.516   2.097 -0.7329  3.0489  2.4923
 2523SOL     OW19030   1.543   2.668   9.407 -0.1001  0.4529  0.1871
 2523SOL    HW119031   1.520   2.746   9.457  4.4792  2.1572 -0.4139
 2523SOL    HW219032   1.476   2.667   9.338  0.4715  0.7476 -0.3772
 2524SOL     OW19033   3.601   1.488  13.362 -0.6135 -0.5951 -0.2597
 2524SOL    HW119034   3.518   1.486  13.313 -0.3130  1.3876 -0.8445
 2524SOL    HW219035   3.661   1.470  13.289 -0.8905  0.3223 -0.7161
 2525SOL     OW19036   3.318   1.964  15.341  0.7210 -0.2051  0.2575
 2525SOL    HW119037   3.280   2.051  15.328  3.9362  1.2960  0.7141
 2525SOL    HW219038   3.413   1.978  15.339  0.7465 -0.4680 -0.3533
 2526SOL     OW19039   4.081   2.825  11.522  0.3215 -0.3189  0.2975
 2526SOL    HW119040   4.125   2.768  11.459 -0.4574 -0.6318  0.0398
 2526SOL    HW219041   4.143   2.894  11.545  0.9971 -1.8706  3.1171
 2527SOL     OW19042   0.885   4.083   7.152  0.1791  0.3380 -0.0937
 2527SOL    HW119043   0.956   4.096   7.214 -0.1214 -1.1164  0.5612
 2527SOL    HW219044   0.827   4.156   7.172 -0.2121 -0.2366  0.8688
 2528SOL     OW19045   4.704   2.258  16.144  0.4532 -0.3440 -0.1085
 2528SOL    HW119046   4.630   2.311  16.115  0.0356 -1.9387 -1.9596
 2528SOL    HW219047   0.013   2.233  16.059 -2.1769 -1.6786 -0.7776
 2529SOL     OW19048   3.457   1.710   6.118 -0.4845  0.3045 -0.1944
 2529SOL    HW119049   3.361   1.704   6.123 -0.5104 -0.0740 -1.1643
 2529SOL    HW219050   3.464   1.716   6.213 -0.2485 -2.1675 -0.0541
 2530SOL     OW19051   4.706   2.500   6.466 -0.9086 -0.2918 -0.7397
 2530SOL    HW119052   0.008   2.568   6.528  1.1708  1.0851 -3.1783
 2530SOL    HW219053   4.613   2.488   6.489 -1.6990  2.5261 -2.4031
 2531SOL     OW19054   2.219   2.789   0.045 -0.0832  0.3829  0.2102
 2531SOL    HW119055   2.165   2.866   0.064 -1.6801 -0.3402 -1.4434
 2531SOL    HW219056   2.303   2.821   0.013 -1.0516  1.5858 -1.1010
 2532SOL     OW19057   3.324   3.200   5.276 -0.6554  0.4703 -0.0594
 2532SOL    HW119058   3.397   3.250   5.240  0.8205 -3.5844 -2.7435
 2532SOL    HW219059   3.318   3.143   5.199 -2.7164 -1.0866  1.2491
 2533SOL     OW19060   3.640   0.538   6.205 -0.6644 -0.7285  0.2432
 2533SOL    HW119061   3.615   0.454   6.242  0.1114 -1.5554 -1.1181
 2533SOL    HW219062   3.695   0.574   6.275 -2.5416 -0.9960  1.8357
 2534SOL     OW19063   3.089   0.710   1.379  0.4349 -0.1108 -0.4580
 2534SOL    HW119064   3.134   0.778   1.429 -0.8563  0.6752 -0.3964
 2534SOL    HW219065   3.160   0.655   1.345  1.2136  1.0834 -0.7572
 2535SOL     OW19066   2.708   4.008   2.359 -0.1997  0.7451  0.0122
 2535SOL    HW119067   2.748   3.922   2.347  1.2657  1.7976 -2.5415
 2535SOL    HW219068   2.619   3.993   2.327  0.1223 -2.0489  0.3647
 2536SOL     OW19069   4.518   3.285   2.614 -0.2358 -0.2189 -0.4562
 2536SOL    HW119070   4.483   3.197   2.628 -0.2700 -0.0970  0.2657
 2536SOL    HW219071   4.460   3.330   2.553 -0.2202 -0.1050 -0.3868
 2537SOL     OW19072   2.365   0.815   5.186 -0.4791  0.0820  0.2563
 2537SOL    HW119073   2.456   0.813   5.155 -0.8953  0.4901 -0.9837
 2537SOL    HW219074   2.378   0.822   5.280  1.7334  0.5657 -0.0955
 2538SOL     OW19075   4.633   2.378  12.490  0.9737  0.0270  0.8052
 2538SOL    HW119076   4.702   2.313  12.502 -2.0165 -3.3464 -0.2776
 2538SOL    HW219077   4.631   2.380  12.394 -0.9684 -0.7333  0.8466
 2539SOL     OW19078   3.847   1.733   2.366  0.6456 -0.0324 -0.5625
 2539SOL    HW119079   3.845   1.768   2.277  2.3124 -0.4923 -0.7930
 2539SOL    HW219080   3.866   1.813   2.416 -1.0839  0.8532 -1.3254
 2540SOL     OW19081   3.166   1.723  17.138 -0.2881 -0.1045 -0.0300
 2540SOL    HW119082   3.131   1.804  17.175  0.7013 -0.2267  1.1792
 2540SOL    HW219083   3.100   1.664  17.176  1.7701 -3.6883 -2.0455
 2541SOL     OW19084   2.851   1.646   5.212  0.0776  0.4458 -0.6614
 2541SOL    HW119085   2.891   1.722   5.171  0.9755  1.4474  2.0586
 2541SOL    HW219086   2.928   1.592   5.228 -0.7459  0.2205  2.5848
 2542SOL     OW19087   0.898   0.058   6.974  0.1860 -0.0488 -0.2137
 2542SOL    HW119088   0.933   0.054   7.063  0.4622  1.4984 -0.2601
 2542SOL    HW219089   0.836   4.710   6.980  0.3053 -0.0645  0.9385
 2543SOL     OW19090   2.406   1.993   2.704 -0.0495  0.0961  0.0949
 2543SOL    HW119091   2.449   2.020   2.785  2.0321 -1.1292 -0.5911
 2543SOL    HW219092   2.430   1.900   2.701 -0.1349  0.1399 -2.0317
 2544SOL     OW19093   2.647   4.574  10.715 -0.4284 -0.1340  0.3986
 2544SOL    HW119094   2.556   4.580  10.743 -0.6587  1.7666 -0.7405
 2544SOL    HW219095   2.659   4.657  10.669  0.5116  0.7396  2.2369
 2545SOL     OW19096   0.089   2.070   2.051  1.3403 -0.1509 -0.4867
 2545SOL    HW119097   0.102   2.165   2.053 -0.3190  0.0707  0.2052
 2545SOL    HW219098   0.163   2.021   2.086  0.3952 -0.6624  0.7998
 2546SOL     OW19099   1.006   3.845   6.203 -0.1439 -0.3275 -0.5564
 2546SOL    HW119100   1.018   3.912   6.271 -1.1891 -0.3298 -0.3744
 2546SOL    HW219101   0.912   3.850   6.187 -0.3330  0.2685  0.7384
 2547SOL     OW19102   3.300   3.782  10.156  0.2767 -0.1559 -0.2541
 2547SOL    HW119103   3.296   3.738  10.241 -1.1530 -0.6787 -0.5916
 2547SOL    HW219104   3.365   3.849  10.179 -0.2077  0.3837 -0.4611
 2548SOL     OW19105   4.620   3.843   0.667  0.3720  0.3412  0.1086
 2548SOL    HW119106   4.557   3.820   0.598 -0.3885  0.7024  0.6776
 2548SOL    HW219107   4.613   3.767   0.726  2.2436 -0.8049 -1.1549
 2549SOL     OW19108   2.151   0.947   6.590 -0.0313 -0.1045  0.1173
 2549SOL    HW119109   2.218   0.987   6.645 -0.3649 -1.6290  1.6138
 2549SOL    HW219110   2.107   0.890   6.653  0.3922 -0.0031  0.5015
 2550SOL     OW19111   2.438   4.142   0.780 -0.0460 -0.3513 -0.4769
 2550SOL    HW119112   2.509   4.120   0.721  0.0303  0.0028 -0.5155
 2550SOL    HW219113   2.363   4.134   0.721 -0.6578  3.1712 -0.2284
 2551SOL     OW19114   3.113   3.412  11.714 -0.1423 -0.7985 -0.3174
 2551SOL    HW119115   3.030   3.365  11.708  0.5854 -2.1272  0.0166
 2551SOL    HW219116   3.088   3.499  11.681  2.8027  0.1470 -0.1118
 2552SOL     OW19117   1.666   3.435   6.135 -0.7486 -0.6360  0.7549
 2552SOL    HW119118   1.716   3.464   6.060 -1.4990  0.0247  0.5085
 2552SOL    HW219119   1.621   3.353   6.111 -0.9316 -0.0775 -0.7840
 2553SOL     OW19120   1.121   4.363   1.872 -0.0376  0.2787 -0.3170
 2553SOL    HW119121   1.170   4.333   1.796 -0.7851  0.0859 -0.7268
 2553SOL    HW219122   1.086   4.277   1.892 -0.1240  0.5003  0.4870
 2554SOL     OW19123   2.480   2.937   9.443  0.0405  1.3755  0.1288
 2554SOL    HW119124   2.404   2.963   9.495 -0.0271  1.0409  0.1945
 2554SOL    HW219125   2.526   3.017   9.469 -0.0542  1.6358 -0.4910
 2555SOL     OW19126   4.004   0.824   2.247  0.1441  0.0031 -0.2149
 2555SOL    HW119127   3.936   0.795   2.187 -0.2948 -0.1361  0.3480
 2555SOL    HW219128   3.949   0.836   2.324  1.2003 -2.0807  0.8765
 2556SOL     OW19129   2.511   1.679   1.336 -0.0569  0.1483 -0.5074
 2556SOL    HW119130   2.473   1.596   1.308 -0.1299 -0.7611  2.2705
 2556SOL    HW219131   2.581   1.630   1.379  0.6917  0.4182 -1.4118
 2557SOL     OW19132   3.240   4.467   1.782  0.3990  0.6820 -0.3811
 2557SOL    HW119133   3.186   4.461   1.861  0.8625 -0.0381 -0.1134
 2557SOL    HW219134   3.301   4.397   1.806 -1.2561 -0.2091  1.2014
 2558SOL     OW19135   0.466   4.398   5.386 -0.0504  0.4242 -0.4564
 2558SOL    HW119136   0.373   4.418   5.398  0.2065  0.4476  1.4891
 2558SOL    HW219137   0.491   4.384   5.477  0.5675  0.2203 -0.6543
 2559SOL     OW19138   2.784   3.434   4.808 -0.3319 -0.1456 -0.0281
 2559SOL    HW119139   2.847   3.470   4.871  0.5882 -0.1779 -0.9287
 2559SOL    HW219140   2.817   3.345   4.820 -2.0117 -0.7569 -0.0371
 2560SOL     OW19141   0.461   2.982   5.247 -0.3623  0.4079  0.3816
 2560SOL    HW119142   0.500   3.069   5.251  1.4183 -0.4060  0.4993
 2560SOL    HW219143   0.372   3.011   5.227  0.3078  2.9612  1.0642
 2561SOL     OW19144   0.078   3.056   4.635 -0.2795 -0.2454  0.0055
 2561SOL    HW119145   0.002   2.998   4.643 -1.5006  1.2850 -0.3102
 2561SOL    HW219146   0.159   3.007   4.650  0.4026  0.3267 -1.8000
 2562SOL     OW19147   3.145   2.795   1.790 -0.0012 -0.4859 -0.2463
 2562SOL    HW119148   3.138   2.757   1.702 -2.2061  0.2356 -0.3805
 2562SOL    HW219149   3.214   2.749   1.838 -0.5579 -0.1982  0.8269
 2563SOL     OW19150   2.620   1.095   7.214 -0.1133 -0.1004  0.7807
 2563SOL    HW119151   2.559   1.158   7.253  2.1778  2.2123  0.6396
 2563SOL    HW219152   2.597   1.014   7.259 -0.7411  0.4616  1.4573
 2564SOL     OW19153   2.120   4.500   3.245 -0.2391 -0.0289 -0.0029
 2564SOL    HW119154   2.068   4.440   3.191  0.3857  1.0620 -1.8196
 2564SOL    HW219155   2.162   4.555   3.179  0.5729 -0.2363  0.3343
 2565SOL     OW19156   4.346   0.299   8.355  0.9063 -0.4162  0.1170
 2565SOL    HW119157   4.357   0.393   8.339  2.1518 -0.6537 -0.4601
 2565SOL    HW219158   4.295   0.267   8.280 -0.9643 -0.5939  1.4996
 2566SOL     OW19159   1.016   0.219   1.434  0.3639 -0.2097 -0.0437
 2566SOL    HW119160   0.944   0.272   1.466 -0.5745 -1.4481 -0.0841
 2566SOL    HW219161   1.092   0.247   1.486  0.1275 -0.3432  0.3732
 2567SOL     OW19162   0.333   2.803   1.919 -0.0356 -0.4359 -0.3080
 2567SOL    HW119163   0.325   2.831   1.828  1.0774  1.9595  0.3365
 2567SOL    HW219164   0.400   2.865   1.948 -0.3022  0.2039 -1.0509
 2568SOL     OW19165   2.875   3.877  16.934 -0.0275 -0.3481  0.1879
 2568SOL    HW119166   2.844   3.791  16.962  1.4805 -0.2544  2.0491
 2568SOL    HW219167   2.805   3.936  16.964  0.1229  0.3565 -0.8309
 2569SOL     OW19168   0.764   4.339   6.842  0.1554 -0.3163  0.0750
 2569SOL    HW119169   0.813   4.356   6.762 -0.2788  1.0005  0.0819
 2569SOL    HW219170   0.768   4.244   6.847  0.1271 -0.2559  1.2535
 2570SOL     OW19171   0.389   4.414   3.998 -0.9473 -0.1357 -0.0633
 2570SOL    HW119172   0.344   4.483   4.047 -2.2995 -0.3796 -0.9768
 2570SOL    HW219173   0.342   4.337   4.031 -2.1357  0.4806 -0.3424
 2571SOL     OW19174   1.461   1.119   5.807 -0.6692  0.6095 -0.0061
 2571SOL    HW119175   1.411   1.038   5.792 -0.8789  1.0467 -1.6739
 2571SOL    HW219176   1.403   1.178   5.759 -0.8720  0.8029  0.4750
 2572SOL     OW19177   0.715   3.427   9.367 -0.4656 -0.2113 -0.3690
 2572SOL    HW119178   0.732   3.514   9.403  1.1580 -0.6708 -0.0159
 2572SOL    HW219179   0.771   3.372   9.422  2.1114 -0.4782 -3.2670
 2573SOL     OW19180   2.329   4.470   4.673 -0.2065 -0.0021  0.0092
 2573SOL    HW119181   2.383   4.429   4.741 -0.7469  0.9612  1.0124
 2573SOL    HW219182   2.270   4.516   4.733 -1.8284  1.8592 -3.0198
 2574SOL     OW19183   3.984   1.662  14.976 -0.0992 -0.0820 -0.0505
 2574SOL    HW119184   4.052   1.667  15.043 -1.3874  3.8945  0.9552
 2574SOL    HW219185   3.983   1.755  14.953 -1.3787  0.4899  2.3698
 2575SOL     OW19186   3.387   3.592   0.347  0.1324 -0.3095  0.3135
 2575SOL    HW119187   3.382   3.686   0.361 -0.0572 -1.0056  4.7970
 2575SOL    HW219188   3.415   3.554   0.430  2.6700  0.7634 -0.0481
 2576SOL     OW19189   2.200   2.913   4.782  0.4603  0.0795 -0.4019
 2576SOL    HW119190   2.204   2.931   4.876 -0.5931  0.2483 -0.3828
 2576SOL    HW219191   2.277   2.955   4.746  0.9577 -1.0990 -0.7023
 2577SOL     OW19192   2.562   4.606   4.568  0.0288 -0.6256  0.3685
 2577SOL    HW119193   2.526   4.547   4.634  1.2643 -1.0189  0.6934
 2577SOL    HW219194   2.529   4.692   4.596  0.9367 -1.3841  3.7182
 2578SOL     OW19195   2.295   2.608   6.671  0.0047 -0.8818  0.4377
 2578SOL    HW119196   2.355   2.681   6.686 -0.8021 -0.3027  0.8426
 2578SOL    HW219197   2.210   2.646   6.694  1.2850  1.5198  1.1536
 2579SOL     OW19198   1.642   1.879   5.644  0.0250  0.1329 -0.0201
 2579SOL    HW119199   1.612   1.961   5.606 -2.5415 -1.0605 -0.5879
 2579SOL    HW219200   1.556   1.840   5.659  1.3236 -2.5396  0.5016
 2580SOL     OW19201   2.848   3.214  10.703 -0.1054  0.4199 -0.0550
 2580SOL    HW119202   2.904   3.149  10.744  0.5130  1.7134  1.1333
 2580SOL    HW219203   2.765   3.205  10.749 -0.0914  1.7114  0.2250
 2581SOL     OW19204   1.386   3.751  11.520  1.0652  0.0415  0.2455
 2581SOL    HW119205   1.427   3.837  11.521  0.7361  0.1895  0.8506
 2581SOL    HW219206   1.389   3.733  11.426  1.5568 -0.5863  0.3786
 2582SOL     OW19207   0.133   3.840  11.143 -0.1260  0.0383 -0.2837
 2582SOL    HW119208   0.070   3.789  11.092 -1.9166  0.8182  1.1498
 2582SOL    HW219209   0.192   3.768  11.167  0.4147  0.1918 -1.1670
 2583SOL     OW19210   4.177   1.880   2.491 -0.4614  0.0809  0.1592
 2583SOL    HW119211   4.187   1.974   2.478 -0.2600 -0.0543 -0.6890
 2583SOL    HW219212   4.261   1.863   2.533 -0.1485 -0.6984 -0.7767
 2584SOL     OW19213   1.566   4.234   2.899  0.0688 -0.7487 -0.4267
 2584SOL    HW119214   1.537   4.286   2.825  0.2226 -0.6824 -0.4408
 2584SOL    HW219215   1.485   4.187   2.916 -0.9841  0.6955 -1.4789
 2585SOL     OW19216   1.982   3.869   7.552  0.1891 -0.3186 -0.7591
 2585SOL    HW119217   1.924   3.810   7.601 -0.0507  1.7037  1.4041
 2585SOL    HW219218   1.923   3.945   7.551 -0.1129 -0.5235  0.5515
 2586SOL     OW19219   2.593   1.444   2.659  0.1098  0.1821  0.0451
 2586SOL    HW119220   2.641   1.527   2.663  1.6642 -0.6565 -1.4053
 2586SOL    HW219221   2.582   1.425   2.752 -0.5173 -1.4434 -0.3488
 2587SOL     OW19222   3.590   1.879   8.254  0.1687 -0.3162  0.1277
 2587SOL    HW119223   3.680   1.891   8.222 -0.3556  1.2664 -0.7530
 2587SOL    HW219224   3.599   1.912   8.343 -0.8321  0.3232 -0.0107
 2588SOL     OW19225   0.221   4.281   9.184 -0.0021  0.1137 -0.2699
 2588SOL    HW119226   0.288   4.349   9.187 -0.1862  0.3274 -1.0612
 2588SOL    HW219227   0.143   4.333   9.162  0.1396  0.9722  1.2364
 2589SOL     OW19228   1.436   3.948   7.638  0.0531 -0.4973 -0.1241
 2589SOL    HW119229   1.341   3.958   7.643  0.0867 -2.0429  3.3394
 2589SOL    HW219230   1.461   4.001   7.713 -3.5419 -2.6955  2.6275
 2590SOL     OW19231   2.378   1.901   4.433 -0.3849  0.6498 -0.1003
 2590SOL    HW119232   2.457   1.865   4.394  0.8873  2.7846  0.4699
 2590SOL    HW219233   2.411   1.905   4.523  1.5635  1.5527 -0.8601
 2591SOL     OW19234   0.033   1.073   0.505  0.1056  0.0389 -0.0455
 2591SOL    HW119235   4.706   1.124   0.443  0.8663  1.1699  0.2314
 2591SOL    HW219236   0.007   1.115   0.587 -1.4395 -0.9201 -0.0583
 2592SOL     OW19237   3.858   1.642   7.038 -0.3350  0.1580  0.8553
 2592SOL    HW119238   3.768   1.664   7.063  0.2902  0.4760  2.9022
 2592SOL    HW219239   3.895   1.727   7.061  1.5809 -0.0383 -1.5348
 2593SOL     OW19240   2.882   2.830   1.884 -0.2801  0.3253  0.2739
 2593SOL    HW119241   2.976   2.846   1.871 -0.1205  0.1206  1.1690
 2593SOL    HW219242   2.859   2.806   1.794 -0.2632 -0.1007  0.3877
 2594SOL     OW19243   2.189   0.076   6.465 -0.4255 -0.0282  0.7233
 2594SOL    HW119244   2.255   0.064   6.397  0.4299 -1.6692  1.8518
 2594SOL    HW219245   2.246   0.123   6.525 -3.5012  2.1736  1.9116
 2595SOL     OW19246   2.117   3.725   6.520 -0.4315  0.1631 -0.5823
 2595SOL    HW119247   2.149   3.815   6.529 -2.2663  0.5600  1.8774
 2595SOL    HW219248   2.032   3.732   6.564  0.7403  1.1030  1.5121
 2596SOL     OW19249   3.638   4.529   7.453  0.0588  0.1677  0.2827
 2596SOL    HW119250   3.589   4.580   7.389  2.0539 -1.1462 -2.3232
 2596SOL    HW219251   3.582   4.452   7.463  0.7766 -0.3564  0.3293
 2597SOL     OW19252   2.167   0.970  10.059  0.1104  0.5724 -0.0445
 2597SOL    HW119253   2.128   0.923  10.133  2.0143  0.6917  1.0292
 2597SOL    HW219254   2.199   1.045  10.110 -1.9971  0.1367  1.9428
 2598SOL     OW19255   2.107   2.261   5.041  0.2949  0.4418 -0.2354
 2598SOL    HW119256   2.018   2.230   5.024 -0.1408  1.4972  0.1814
 2598SOL    HW219257   2.094   2.315   5.119 -0.9336 -3.8238  2.5254
 2599SOL     OW19258   1.531   3.598   3.448 -0.2158  0.3382  0.1617
 2599SOL    HW119259   1.517   3.668   3.512 -0.6394 -1.0504  1.6019
 2599SOL    HW219260   1.624   3.617   3.450 -0.0834 -0.1466 -1.3130
 2600SOL     OW19261   2.856   0.864   6.161 -0.3216 -0.2991  0.9226
 2600SOL    HW119262   2.808   0.883   6.081  1.4088 -0.1482 -0.0910
 2600SOL    HW219263   2.938   0.913   6.148  0.5150 -1.8161  0.4662
 2601SOL     OW19264   1.259   1.201   2.362 -0.1304 -0.0988  0.2812
 2601SOL    HW119265   1.307   1.176   2.441 -0.0974 -1.2592 -0.0929
 2601SOL    HW219266   1.306   1.150   2.296 -0.9045  1.1888 -1.2459
 2602SOL     OW19267   3.007   0.858   4.546 -0.2721 -0.9782 -0.1566
 2602SOL    HW119268   2.933   0.881   4.601 -0.4290 -2.1210  0.1160
 2602SOL    HW219269   3.080   0.851   4.608 -0.2741 -1.2607 -0.1834
 2603SOL     OW19270   1.838   2.064   8.710  0.1465 -0.3865  0.0389
 2603SOL    HW119271   1.828   2.159   8.725  1.8247 -0.3628  1.0455
 2603SOL    HW219272   1.832   2.034   8.801  0.3927  2.3980  0.9957
 2604SOL     OW19273   4.093   4.289  13.343 -0.2182 -0.4577  0.5061
 2604SOL    HW119274   4.154   4.250  13.405 -0.1552 -0.9717  0.1192
 2604SOL    HW219275   4.155   4.349  13.301  0.9673 -0.8892  1.6496
 2605SOL     OW19276   4.580   0.910   5.993 -0.0823 -0.2316 -0.6308
 2605SOL    HW119277   4.630   0.987   5.966 -1.2913  1.4904  1.9701
 2605SOL    HW219278   4.653   0.851   6.011  0.0578  0.5144  1.2169
 2606SOL     OW19279   2.632   1.456  16.786 -0.7028 -0.2454 -0.6995
 2606SOL    HW119280   2.629   1.366  16.755  0.2708 -0.8271  0.9193
 2606SOL    HW219281   2.608   1.519  16.718 -3.1633 -0.2019  0.1758
 2607SOL     OW19282   4.404   0.396  13.136 -0.0009 -0.5586 -0.2289
 2607SOL    HW119283   4.496   0.373  13.129  0.0026 -1.5178  3.0363
 2607SOL    HW219284   4.370   0.361  13.053 -1.7843  0.3715  0.1049
 2608SOL     OW19285   4.126   2.783   9.156 -0.4130 -0.4338 -0.2696
 2608SOL    HW119286   4.081   2.752   9.078 -0.1609  1.9883 -1.4016
 2608SOL    HW219287   4.204   2.728   9.157 -0.6510 -0.7535  2.1021
 2609SOL     OW19288   4.497   2.304  15.724 -0.1339 -0.2473  0.3471
 2609SOL    HW119289   4.516   2.246  15.798 -0.0613 -0.3358  0.2582
 2609SOL    HW219290   4.403   2.288  15.720 -1.0322  4.2116  2.7279
 2610SOL     OW19291   4.516   1.065   6.931  0.6173  0.1189 -0.0121
 2610SOL    HW119292   4.510   1.136   6.868 -1.5348  1.3274  1.5704
 2610SOL    HW219293   4.494   0.986   6.881 -1.7149 -0.0133  1.2517
 2611SOL     OW19294   2.989   2.766  17.123  0.1649  0.4604  0.4751
 2611SOL    HW119295   2.972   2.725  17.038 -2.6374  0.9860  0.7974
 2611SOL    HW219296   3.074   2.722  17.135  1.2474  3.3748  3.2711
 2612SOL     OW19297   3.101   1.791   2.677  0.5043  0.3040 -0.3744
 2612SOL    HW119298   3.115   1.750   2.592  0.4215 -1.7351  0.5957
 2612SOL    HW219299   3.182   1.837   2.700  0.2036  0.4287  0.4508
 2613SOL     OW19300   3.235   1.746   6.713 -0.6582  0.1379  0.0438
 2613SOL    HW119301   3.175   1.700   6.771 -1.6269  1.6534  0.2587
 2613SOL    HW219302   3.283   1.670   6.680 -0.7320  0.2808 -0.4004
 2614SOL     OW19303   3.760   1.018   2.115 -0.2424  0.3622  0.3617
 2614SOL    HW119304   3.714   1.097   2.086 -1.3050 -0.2584  0.3472
 2614SOL    HW219305   3.841   1.062   2.142 -0.2560 -0.2601  1.4249
 2615SOL     OW19306   1.395   2.335  12.476 -0.3420 -0.3784 -0.4512
 2615SOL    HW119307   1.393   2.291  12.561  0.4161 -0.8374 -0.6771
 2615SOL    HW219308   1.471   2.304  12.428 -1.4258 -1.8294 -1.2003
 2616SOL     OW19309   4.126   2.554   1.574  0.2885  0.3735 -0.8031
 2616SOL    HW119310   4.184   2.567   1.649 -1.0143 -0.4342  0.3310
 2616SOL    HW219311   4.040   2.553   1.616  1.6204 -3.2423  1.8146
 2617SOL     OW19312   1.133   2.325  16.844 -0.3867 -0.2132  0.1087
 2617SOL    HW119313   1.095   2.364  16.766  0.4435 -0.2773 -0.3258
 2617SOL    HW219314   1.058   2.280  16.882 -0.1610 -1.1354 -0.5576
 2618SOL     OW19315   4.124   1.165  13.143  0.0509  0.6141  0.0342
 2618SOL    HW119316   4.030   1.162  13.161 -0.1795  1.5588 -1.0315
 2618SOL    HW219317   4.166   1.114  13.212 -0.2392 -1.0534 -1.0264
 2619SOL     OW19318   3.858   1.858   4.907 -0.0984 -0.4371  0.4960
 2619SOL    HW119319   3.933   1.917   4.911 -0.9693  0.5802  1.7364
 2619SOL    HW219320   3.870   1.793   4.838  0.8144  1.9566 -1.5860
 2620SOL     OW19321   4.080   3.844   9.328  0.2941  0.0942  0.0236
 2620SOL    HW119322   3.997   3.803   9.353 -0.6203  1.1652 -1.2681
 2620SOL    HW219323   4.125   3.770   9.288 -0.4559 -0.2667 -0.1384
 2621SOL     OW19324   3.666   3.960   4.273 -0.5474  0.4658 -0.3407
 2621SOL    HW119325   3.662   3.882   4.218 -1.1894 -1.7887  2.9473
 2621SOL    HW219326   3.618   3.936   4.352 -0.8795  0.1757 -0.6325
 2622SOL     OW19327   1.068   2.904   8.857  0.2018 -0.0096 -0.0245
 2622SOL    HW119328   0.975   2.926   8.853 -0.3673 -2.8321 -3.6487
 2622SOL    HW219329   1.104   2.946   8.779  0.5218 -0.3910 -0.0846
 2623SOL     OW19330   3.101   3.575   7.823 -0.1419 -0.2073  0.7976
 2623SOL    HW119331   3.070   3.640   7.759 -1.9531 -1.1745  0.6822
 2623SOL    HW219332   3.120   3.505   7.760 -2.7627 -1.8787  1.8329
 2624SOL     OW19333   4.532   4.596  17.614  0.0659 -0.3920  0.3244
 2624SOL    HW119334   4.575   4.676  17.585  0.2897 -0.5726  0.1589
 2624SOL    HW219335   4.463   4.582  17.549 -1.4256  0.6466  1.6862
 2625SOL     OW19336   4.442   4.547   6.637 -0.5966  0.2087  0.8269
 2625SOL    HW119337   4.489   4.471   6.671 -1.2943  0.4828  2.3955
 2625SOL    HW219338   4.397   4.503   6.565 -0.5535 -0.9555  1.5088
 2626SOL     OW19339   3.430   2.433  15.983  0.0052 -0.3917 -0.2979
 2626SOL    HW119340   3.505   2.492  15.979 -0.1361 -0.1961  0.0293
 2626SOL    HW219341   3.453   2.367  16.048  1.5387  0.4799  0.0446
 2627SOL     OW19342   3.460   0.316   8.688 -0.3261 -0.1235 -0.0894
 2627SOL    HW119343   3.426   0.391   8.736 -0.2485  1.2099 -2.1173
 2627SOL    HW219344   3.414   0.239   8.720 -3.2290  0.5902 -2.5599
 2628SOL     OW19345   2.882   2.535   5.498 -0.2177  0.8110 -0.3207
 2628SOL    HW119346   2.792   2.565   5.513 -0.4995  1.4411 -3.2492
 2628SOL    HW219347   2.891   2.527   5.403  1.0135  1.8325 -0.2889
 2629SOL     OW19348   0.533   4.081   4.031 -0.2415 -0.3079  0.3938
 2629SOL    HW119349   0.605   4.035   4.074 -1.0910 -0.5810  1.4976
 2629SOL    HW219350   0.586   4.142   3.980  3.0225 -1.8947  1.9126
 2630SOL     OW19351   0.315   2.713   2.654 -0.1700 -0.2750 -0.0443
 2630SOL    HW119352   0.286   2.746   2.569 -0.1866  2.0079  0.8355
 2630SOL    HW219353   0.235   2.688   2.699  0.1952  0.0434  0.7788
 2631SOL     OW19354   0.540   0.089   3.828 -0.0173  0.2569 -0.2336
 2631SOL    HW119355   0.495   0.141   3.894 -0.6650  2.0052 -2.0854
 2631SOL    HW219356   0.477   0.068   3.759  0.1526  0.1305 -0.3497
 2632SOL     OW19357   2.636   3.123  16.441 -0.4347 -0.2498 -0.3044
 2632SOL    HW119358   2.553   3.171  16.442  0.0308  0.5303  0.6687
 2632SOL    HW219359   2.700   3.192  16.422  0.7095 -1.1933  0.1046
 2633SOL     OW19360   1.544   3.416   7.639 -0.3234 -0.1761 -0.3186
 2633SOL    HW119361   1.565   3.503   7.673 -1.6215  0.6707 -1.6437
 2633SOL    HW219362   1.450   3.422   7.621  0.1703  1.7591 -2.2184
 2634SOL     OW19363   1.930   0.498   5.482 -0.1918  0.5579 -0.4350
 2634SOL    HW119364   1.964   0.497   5.393  2.2325 -1.1257  0.5336
 2634SOL    HW219365   1.910   0.592   5.481  2.5993  1.1599 -0.7666
 2635SOL     OW19366   2.924   2.274   3.828 -0.6364 -0.8386 -0.1734
 2635SOL    HW119367   2.891   2.241   3.745  0.2198 -0.2656 -0.7413
 2635SOL    HW219368   2.946   2.190   3.869  0.4991  0.0216  0.9736
 2636SOL     OW19369   2.401   0.606  14.879  0.2510 -0.6540  0.0128
 2636SOL    HW119370   2.420   0.697  14.903 -0.7573 -0.9348  1.9146
 2636SOL    HW219371   2.473   0.557  14.918 -1.1837 -0.8012  2.4656
 2637SOL     OW19372   3.782   3.140   6.476 -0.4085 -0.4081  0.3469
 2637SOL    HW119373   3.732   3.157   6.396 -0.8030 -2.5178  0.1310
 2637SOL    HW219374   3.859   3.195   6.462 -0.7998 -0.0475 -0.4249
 2638SOL     OW19375   0.468   1.833   1.866 -0.3294 -0.4891 -0.0572
 2638SOL    HW119376   0.523   1.760   1.838  0.6224 -0.1846  1.0296
 2638SOL    HW219377   0.391   1.829   1.809 -1.1233 -1.3581  1.0566
 2639SOL     OW19378   0.834   4.638   6.278  0.1366  0.5071  0.4833
 2639SOL    HW119379   0.771   4.571   6.305  1.2552  0.9159  4.0940
 2639SOL    HW219380   0.774   4.708   6.252  1.3599  0.7070 -1.7609
 2640SOL     OW19381   1.283   2.231   8.959  0.1820  0.1986 -0.6016
 2640SOL    HW119382   1.322   2.181   8.887 -0.1235 -0.8540 -0.0332
 2640SOL    HW219383   1.323   2.190   9.035 -2.4634  0.6019  1.0180
 2641SOL     OW19384   1.397   1.935  11.021  0.1545  0.2569 -0.3030
 2641SOL    HW119385   1.418   1.950  11.113 -0.0043 -0.7307 -0.1069
 2641SOL    HW219386   1.343   2.008  10.992 -1.7655 -1.3416 -0.7378
 2642SOL     OW19387   2.804   1.201   8.699 -0.1916 -0.2254  0.1921
 2642SOL    HW119388   2.816   1.163   8.786 -1.6679 -1.7710 -0.2795
 2642SOL    HW219389   2.896   1.222   8.685 -0.3020 -0.2292 -0.5362
 2643SOL     OW19390   2.852   2.995  12.160 -0.1850  0.0166  0.7478
 2643SOL    HW119391   2.776   2.954  12.201  0.0833 -2.3752 -1.1410
 2643SOL    HW219392   2.814   2.995  12.072 -0.1125 -0.7239  0.7210
 2644SOL     OW19393   2.660   0.957  13.226 -0.1369  0.4078  0.7070
 2644SOL    HW119394   2.732   0.898  13.251 -0.9872 -1.0648 -0.3120
 2644SOL    HW219395   2.696   0.993  13.145  1.0306 -1.1927  0.5025
 2645SOL     OW19396   4.075   2.698   7.642  0.4998  0.4544  0.4504
 2645SOL    HW119397   4.088   2.611   7.604 -0.7979  1.3994 -2.1039
 2645SOL    HW219398   4.132   2.753   7.588 -1.5100 -0.7521 -2.8439
 2646SOL     OW19399   1.915   1.916   7.837  0.2622 -0.3616 -0.2750
 2646SOL    HW119400   1.820   1.924   7.833  0.2298 -0.6986 -0.1933
 2646SOL    HW219401   1.922   1.921   7.933  0.3824  0.6073 -0.3418
 2647SOL     OW19402   3.933   0.498   8.174 -0.0064 -0.2611 -0.4560
 2647SOL    HW119403   3.935   0.564   8.105 -1.2512  0.4572  0.1968
 2647SOL    HW219404   3.860   0.447   8.139 -0.5426 -0.1940  0.5665
 2648SOL     OW19405   4.166   0.041   4.002  1.0339 -0.2557 -0.0588
 2648SOL    HW119406   4.223   0.068   4.073  0.2423 -2.3564  1.3754
 2648SOL    HW219407   4.091   0.016   4.056  1.8110 -0.7702  0.7773
 2649SOL     OW19408   1.771   2.700   4.681 -0.5447  0.2364 -0.2722
 2649SOL    HW119409   1.779   2.699   4.776  1.7435 -1.3025 -0.5007
 2649SOL    HW219410   1.819   2.780   4.660 -1.5164  1.2467  1.3615
 2650SOL     OW19411   2.587   3.636   3.553  0.2129 -0.1878 -0.6240
 2650SOL    HW119412   2.614   3.716   3.508  0.5947 -0.7024 -1.3024
 2650SOL    HW219413   2.642   3.625   3.630 -2.3523  2.2027  1.5935
 2651SOL     OW19414   2.279   2.672   3.743 -0.1456 -0.4129 -0.3805
 2651SOL    HW119415   2.282   2.600   3.806  1.7086 -0.3054 -0.3607
 2651SOL    HW219416   2.370   2.670   3.712  0.7208 -0.1449  2.1833
 2652SOL     OW19417   2.413   4.345   9.745 -0.4171  0.2720 -0.1650
 2652SOL    HW119418   2.411   4.331   9.650 -3.2566  2.1765 -0.3644
 2652SOL    HW219419   2.353   4.279   9.779  1.5926 -1.0653  0.8071
 2653SOL     OW19420   2.211   2.986  11.829 -0.1117  0.7452  0.6507
 2653SOL    HW119421   2.134   2.983  11.771  0.3435 -0.6143  0.1123
 2653SOL    HW219422   2.257   3.042  11.765  1.2916 -1.1936 -0.0421
 2654SOL     OW19423   2.810   4.214   6.455  0.2545 -0.2122  0.3204
 2654SOL    HW119424   2.799   4.120   6.442  1.5364 -0.3444  0.1723
 2654SOL    HW219425   2.803   4.216   6.550 -1.3495 -2.4695  0.2512
 2655SOL     OW19426   0.535   3.396   2.557  0.4068 -0.0891  0.5619
 2655SOL    HW119427   0.549   3.459   2.628  1.5916  0.6959 -0.3673
 2655SOL    HW219428   0.498   3.460   2.496 -1.8640 -1.4226  0.5693
 2656SOL     OW19429   1.123   2.846   5.613 -0.3100  0.0049 -0.4830
 2656SOL    HW119430   1.163   2.822   5.529 -0.3289  0.3494 -0.5869
 2656SOL    HW219431   1.064   2.918   5.593  0.5861  0.8703  0.0176
 2657SOL     OW19432   4.049   2.887   2.587  0.7469 -0.1685  0.2246
 2657SOL    HW119433   3.992   2.940   2.643  2.1220 -0.9233  2.3683
 2657SOL    HW219434   4.082   2.959   2.533  1.6326  0.4674  1.6053
 2658SOL     OW19435   0.032   3.381   2.547 -0.0880 -0.0409  0.0415
 2658SOL    HW119436   4.670   3.359   2.581 -0.2733 -1.7811 -1.5257
 2658SOL    HW219437   0.018   3.454   2.487 -0.3684 -0.1419 -0.0175
 2659SOL     OW19438   3.877   4.486   2.188 -0.4530 -0.4536 -0.0029
 2659SOL    HW119439   3.901   4.493   2.096 -0.6137 -0.7849 -0.0678
 2659SOL    HW219440   3.831   4.402   2.193 -0.1822 -0.6629 -1.1063
 2660SOL     OW19441   3.642   3.837   0.277  0.3595  0.4181 -0.1603
 2660SOL    HW119442   3.557   3.834   0.320  0.2830 -1.3734 -0.4363
 2660SOL    HW219443   3.685   3.789   0.348  0.6281 -0.4776 -0.9282
 2661SOL     OW19444   1.894   2.782   6.481  0.3847 -0.3423 -0.1817
 2661SOL    HW119445   1.916   2.873   6.464  0.8591 -0.6581 -1.2566
 2661SOL    HW219446   1.876   2.783   6.575 -0.3866  3.3525 -0.3735
 2662SOL     OW19447   3.511   3.010   7.064 -0.4227 -0.3448  0.0264
 2662SOL    HW119448   3.452   2.937   7.084 -0.8258 -0.2037 -0.6249
 2662SOL    HW219449   3.453   3.077   7.027 -0.7388 -1.4110 -1.4239
 2663SOL     OW19450   1.391   0.556   9.268 -0.1678 -0.4595  0.2632
 2663SOL    HW119451   1.474   0.576   9.311 -0.2066  0.5690 -0.1503
 2663SOL    HW219452   1.325   0.610   9.310  0.5311  0.4936  0.1344
 2664SOL     OW19453   2.663   1.847  14.098  1.0294  0.4505  0.1372
 2664SOL    HW119454   2.610   1.778  14.138  0.6428  0.3449 -0.5596
 2664SOL    HW219455   2.751   1.809  14.097  0.0382 -1.7779 -1.2649
 2665SOL     OW19456   1.850   0.217   5.408  0.1140  0.5702 -0.0559
 2665SOL    HW119457   1.761   0.243   5.387 -0.3684  0.0179  1.2542
 2665SOL    HW219458   1.902   0.297   5.401 -0.1613  0.6908 -0.6605
 2666SOL     OW19459   3.258   4.162   0.897 -0.2502  0.0249 -0.0731
 2666SOL    HW119460   3.195   4.231   0.918 -0.9849 -0.3886 -0.9286
 2666SOL    HW219461   3.203   4.087   0.875  1.2225 -0.2163 -2.8749
 2667SOL     OW19462   1.687   2.572  11.606  0.1429 -0.6132  0.0587
 2667SOL    HW119463   1.771   2.525  11.608  1.3576  1.4305 -1.9041
 2667SOL    HW219464   1.715   2.634  11.673 -1.0497 -0.2820  0.2415
 2668SOL     OW19465   4.464   4.094   2.847  0.1695  0.2134 -0.3021
 2668SOL    HW119466   4.447   4.160   2.780  2.9652  0.4577 -0.7640
 2668SOL    HW219467   4.441   4.011   2.805 -1.7945  1.1763 -1.1225
 2669SOL     OW19468   3.708   4.725   3.069 -0.3585 -0.2852  0.0150
 2669SOL    HW119469   3.700   0.004   3.164 -1.7323  1.2705 -0.1631
 2669SOL    HW219470   3.737   4.635   3.051  2.2185  0.1178  2.1606
 2670SOL     OW19471   0.027   0.657   7.458  0.3837  0.2739 -0.5861
 2670SOL    HW119472   0.074   0.740   7.455  1.1237 -0.0980  0.7874
 2670SOL    HW219473   0.088   0.587   7.434 -0.1546 -0.1954 -0.5790
 2671SOL     OW19474   2.193   4.347   6.852  0.3360 -0.0764  0.1992
 2671SOL    HW119475   2.282   4.325   6.881  0.5733 -0.2559 -0.6534
 2671SOL    HW219476   2.140   4.331   6.931 -0.8928 -1.0230 -0.8158
 2672SOL     OW19477   0.819   4.049   6.820 -0.1458  0.1779 -0.2030
 2672SOL    HW119478   0.770   3.984   6.770  1.4399 -0.2605 -1.1765
 2672SOL    HW219479   0.840   4.008   6.904  0.9441  0.2644 -0.4390
 2673SOL     OW19480   3.636   2.641  17.522  0.0989  0.2763  0.5369
 2673SOL    HW119481   3.636   2.579  17.449 -1.7363  0.7502  0.1452
 2673SOL    HW219482   3.670   2.719  17.479 -0.3672 -0.8677 -1.8951
 2674SOL     OW19483   3.614   3.863   6.850  0.4083 -0.4726 -0.3034
 2674SOL    HW119484   3.686   3.803   6.830 -2.0159 -3.7297  0.8282
 2674SOL    HW219485   3.639   3.935   6.792 -1.4603  1.9670  1.8997
 2675SOL     OW19486   2.622   1.172   6.289  0.0097  0.4045  0.3210
 2675SOL    HW119487   2.561   1.105   6.319  2.5927 -1.7190  0.8298
 2675SOL    HW219488   2.615   1.176   6.193  3.2233  2.4952  0.2057
 2676SOL     OW19489   4.131   1.795   8.191  0.1637  0.1311  0.1738
 2676SOL    HW119490   4.166   1.817   8.277 -0.6532 -0.0894  0.5597
 2676SOL    HW219491   4.200   1.734   8.165 -0.7579 -1.2983  1.1305
 2677SOL     OW19492   2.135   4.548  10.017  0.3092 -0.1834  0.1662
 2677SOL    HW119493   2.174   4.499   9.944 -3.5830 -1.2286 -1.2178
 2677SOL    HW219494   2.139   4.633   9.973 -0.1209  0.0311  0.5414
 2678SOL     OW19495   1.920   2.748   8.008  0.8264 -0.5107 -0.0149
 2678SOL    HW119496   1.849   2.718   8.064  0.2835  2.3153  0.8042
 2678SOL    HW219497   1.985   2.689   8.046 -0.7793 -1.5250  1.1919
 2679SOL     OW19498   2.728   2.527   6.582 -0.2973  0.0742 -0.1239
 2679SOL    HW119499   2.733   2.438   6.548 -0.7772 -1.1684  3.0055
 2679SOL    HW219500   2.670   2.562   6.515 -2.0939 -2.8472 -0.0754
 2680SOL     OW19501   0.602   3.645   7.716  0.2749  0.4264 -0.4667
 2680SOL    HW119502   0.574   3.569   7.664 -0.8109  1.8150 -1.9053
 2680SOL    HW219503   0.698   3.647   7.710  0.3378 -0.6658  0.1639
 2681SOL     OW19504   2.292   1.056   3.404 -0.7947 -0.0412  0.3895
 2681SOL    HW119505   2.262   1.087   3.318 -0.2050 -1.5955 -0.3841
 2681SOL    HW219506   2.380   1.020   3.395 -0.4250  0.4407  2.0635
 2682SOL     OW19507   0.173   0.604  15.452  0.1315 -0.4882 -0.2783
 2682SOL    HW119508   0.129   0.528  15.416 -2.8115  0.3887  1.4459
 2682SOL    HW219509   0.221   0.637  15.376 -0.4289 -1.1632 -0.9170
 2683SOL     OW19510   4.260   3.973  12.467 -0.5595  0.2759  0.4325
 2683SOL    HW119511   4.251   4.035  12.394  0.3280  0.7965  0.7663
 2683SOL    HW219512   4.292   3.900  12.415  0.7453  1.0370  0.1627
 2684SOL     OW19513   0.352   4.474   1.779  0.0128  0.1120 -0.4887
 2684SOL    HW119514   0.266   4.436   1.761 -0.0147 -0.9513  1.8720
 2684SOL    HW219515   0.403   4.394   1.787 -0.8140 -0.5028 -1.3741
 2685SOL     OW19516   0.875   2.137   4.585  0.1130  0.0993 -0.7113
 2685SOL    HW119517   0.883   2.221   4.631  0.8532  0.2233 -1.0644
 2685SOL    HW219518   0.932   2.079   4.636 -0.9034 -1.1002 -0.9490
 2686SOL     OW19519   4.553   4.491   6.969  0.4113  0.1863 -0.2183
 2686SOL    HW119520   4.535   4.551   7.041  0.7752  1.3524 -1.1014
 2686SOL    HW219521   4.633   4.526   6.931 -1.6270  4.0054 -1.0642
 2687SOL     OW19522   0.016   2.607   4.305 -0.1659 -0.0297 -0.3298
 2687SOL    HW119523   0.071   2.629   4.229  0.7992 -0.6278  0.1953
 2687SOL    HW219524   0.056   2.526   4.335  0.4764  0.3672 -0.1185
 2688SOL     OW19525   0.063   2.251   1.605  0.0409 -0.3927  0.8153
 2688SOL    HW119526   0.086   2.337   1.571  0.4374 -0.9241 -0.2559
 2688SOL    HW219527   0.146   2.215   1.636  0.4827 -0.6993 -0.7017
 2689SOL     OW19528   3.389   2.677   3.234 -0.3303 -0.4090 -0.0226
 2689SOL    HW119529   3.396   2.676   3.329  0.0492  0.9846 -0.0334
 2689SOL    HW219530   3.373   2.584   3.217 -0.9337 -0.8816  3.2192
 2690SOL     OW19531   4.094   4.484  10.169 -0.7510 -0.5630  0.9999
 2690SOL    HW119532   4.069   4.576  10.164 -0.4030 -0.4059  1.9850
 2690SOL    HW219533   4.014   4.454  10.214 -0.7437  1.5567  2.4210
 2691SOL     OW19534   0.996   2.225   0.794  0.1525  0.3843  0.2926
 2691SOL    HW119535   0.933   2.173   0.844 -0.7800  0.3216 -0.9496
 2691SOL    HW219536   1.079   2.208   0.839  0.9186  0.7475 -0.9938
 2692SOL     OW19537   3.906   1.195   3.803 -0.0078  0.1397  0.4157
 2692SOL    HW119538   3.885   1.283   3.774 -3.6649 -0.7114  0.4336
 2692SOL    HW219539   3.905   1.202   3.898  1.5187  0.7298  0.3867
 2693SOL     OW19540   3.617   2.942   7.643 -0.1099 -0.8327  0.0399
 2693SOL    HW119541   3.544   2.936   7.705 -0.6662  2.2149 -0.3392
 2693SOL    HW219542   3.673   2.998   7.697 -1.3536 -0.7795  1.2776
 2694SOL     OW19543   2.016   2.115   2.446 -0.9034  0.3777 -0.1276
 2694SOL    HW119544   2.077   2.078   2.510 -1.0506 -1.2009 -0.8876
 2694SOL    HW219545   2.079   2.154   2.385  1.2076 -1.3896  0.9182
 2695SOL     OW19546   0.391   2.276   4.492  0.2742 -0.1183  0.1573
 2695SOL    HW119547   0.462   2.329   4.455  0.2549 -0.4903 -0.4168
 2695SOL    HW219548   0.444   2.220   4.548 -0.2885 -1.7781 -0.9970
 2696SOL     OW19549   0.490   1.790   2.682  0.4830 -0.0716  0.3377
 2696SOL    HW119550   0.514   1.750   2.765  1.7600  0.6474  0.3193
 2696SOL    HW219551   0.504   1.884   2.696  1.7792 -0.1472 -0.3967
 2697SOL     OW19552   1.360   0.341   7.777 -0.0609 -0.3901  0.1638
 2697SOL    HW119553   1.441   0.323   7.730  1.4379 -1.2645  3.0369
 2697SOL    HW219554   1.320   0.404   7.718  0.1827 -0.2420  0.1557
 2698SOL     OW19555   0.176   2.896   4.366 -0.2943 -0.0917  0.4022
 2698SOL    HW119556   0.259   2.912   4.410  1.5646 -1.0373 -2.7208
 2698SOL    HW219557   0.171   2.801   4.356 -1.0946 -0.0936  0.8673
 2699SOL     OW19558   1.033   2.713   6.355 -0.3645 -0.4083  0.2577
 2699SOL    HW119559   1.034   2.795   6.405 -0.5456 -0.7005  0.7450
 2699SOL    HW219560   0.941   2.702   6.333  0.1381  0.4513 -2.2149
 2700SOL     OW19561   1.091   0.919   1.415  0.3960 -0.1405 -0.3548
 2700SOL    HW119562   1.146   0.982   1.369 -0.0449  1.2108  0.9714
 2700SOL    HW219563   1.081   0.968   1.497 -0.6769  1.7758 -1.6326
 2701SOL     OW19564   3.947   4.454   8.819 -0.6016  0.4720 -0.3861
 2701SOL    HW119565   3.975   4.382   8.764 -0.0551  1.2086 -1.0784
 2701SOL    HW219566   3.875   4.483   8.762  1.7534  1.4211 -2.8599
 2702SOL     OW19567   0.840   0.203   5.386 -0.1553 -0.6883 -0.1416
 2702SOL    HW119568   0.915   0.258   5.410 -0.1830 -0.8633  0.3508
 2702SOL    HW219569   0.839   0.136   5.454 -0.4492  2.0023  2.5113
 2703SOL     OW19570   4.373   4.387  10.997 -0.1583 -0.4063 -0.4208
 2703SOL    HW119571   4.338   4.349  10.917  2.7937 -0.2567 -1.7633
 2703SOL    HW219572   4.312   4.458  11.019  0.2670 -0.9369  2.5838
 2704SOL     OW19573   2.536   4.160   1.584 -1.0026  0.6159 -0.4244
 2704SOL    HW119574   2.605   4.206   1.633 -1.1848  0.7617 -0.3036
 2704SOL    HW219575   2.533   4.218   1.509  0.0757  2.1756  0.7373
 2705SOL     OW19576   2.741   1.552   1.439 -0.2625  0.5307 -0.0093
 2705SOL    HW119577   2.770   1.482   1.380  1.8646  0.7161  0.8254
 2705SOL    HW219578   2.753   1.513   1.525 -0.1493  2.5346  0.8843
 2706SOL     OW19579   3.826   4.558   6.996  0.3342 -0.3009 -0.1734
 2706SOL    HW119580   3.763   4.563   7.068  0.9123 -0.1253  0.3210
 2706SOL    HW219581   3.909   4.539   7.038  1.1422 -0.8526 -2.0067
 2707SOL     OW19582   1.987   1.215   2.861  0.4325 -0.0578 -0.0731
 2707SOL    HW119583   2.082   1.225   2.854  0.7988 -1.7541  2.4654
 2707SOL    HW219584   1.947   1.256   2.784  0.6005  0.5168  0.1489
 2708SOL     OW19585   2.736   3.626  10.965  0.1932 -0.0967 -0.3261
 2708SOL    HW119586   2.737   3.701  10.906  0.1415  1.1538  1.2483
 2708SOL    HW219587   2.691   3.557  10.916 -0.1796 -0.7936  0.9932
 2709SOL     OW19588   0.718   2.906   2.873 -0.2882  0.8694  0.2750
 2709SOL    HW119589   0.673   2.848   2.811  0.0362  0.2840  0.5989
 2709SOL    HW219590   0.644   2.894   2.933  0.2290 -0.7511  0.5733
 2710SOL     OW19591   1.787   3.621   8.456  0.1668 -0.2274 -0.5691
 2710SOL    HW119592   1.712   3.679   8.470  1.5198  0.9081  1.9785
 2710SOL    HW219593   1.847   3.672   8.401  0.3318 -2.1738 -2.1940
 2711SOL     OW19594   2.687   3.451   2.470  0.2659 -0.0869 -0.0070
 2711SOL    HW119595   2.644   3.380   2.422  0.5726  0.4108 -1.0219
 2711SOL    HW219596   2.626   3.524   2.456 -1.9273 -2.0407 -0.5837
 2712SOL     OW19597   4.694   3.668   2.140  0.0131 -0.4397  0.2933
 2712SOL    HW119598   4.693   3.711   2.054 -0.9204  1.2769  1.1554
 2712SOL    HW219599   0.052   3.622   2.142 -0.4175 -1.2800 -0.7467
 2713SOL     OW19600   3.164   0.282   3.215 -0.7303  0.2618  0.3658
 2713SOL    HW119601   3.196   0.366   3.182 -0.0178 -0.8685 -1.8227
 2713SOL    HW219602   3.243   0.229   3.209 -0.1587  1.0123  1.2135
 2714SOL     OW19603   2.420   1.815  11.896  0.0466 -0.1601  0.1463
 2714SOL    HW119604   2.400   1.757  11.969 -1.3674 -3.0054 -2.4942
 2714SOL    HW219605   2.330   1.830  11.867  0.5443 -0.0760 -1.3637
 2715SOL     OW19606   1.791   0.764   7.464 -0.4397 -0.4279 -0.1731
 2715SOL    HW119607   1.761   0.850   7.437 -0.4479  0.3967  2.4444
 2715SOL    HW219608   1.753   0.704   7.400  1.0757 -0.6058 -0.9207
 2716SOL     OW19609   4.615   0.462   9.811  0.0843  0.1483  0.6519
 2716SOL    HW119610   4.673   0.539   9.806  0.2974 -0.1936 -2.3336
 2716SOL    HW219611   4.632   0.427   9.898  1.1338  0.5545  0.6098
 2717SOL     OW19612   3.658   3.377   6.791 -0.5222 -0.2491  0.0672
 2717SOL    HW119613   3.693   3.289   6.802  2.2819  1.0793  1.5995
 2717SOL    HW219614   3.587   3.356   6.730 -0.9098 -1.7640  1.0384
 2718SOL     OW19615   4.025   2.263   7.749  0.7384  0.4946 -0.2864
 2718SOL    HW119616   4.033   2.248   7.843  0.5790 -0.8952 -0.4966
 2718SOL    HW219617   4.001   2.356   7.758 -0.9676  0.1375 -1.1692
 2719SOL     OW19618   3.458   2.014   4.848  0.0011 -0.2887 -0.0700
 2719SOL    HW119619   3.394   1.953   4.811 -1.9565  1.6101  0.1544
 2719SOL    HW219620   3.448   2.091   4.791 -1.5305 -0.1297  0.4151
 2720SOL     OW19621   1.395   0.110   5.940 -0.1784 -0.2185 -0.5958
 2720SOL    HW119622   1.427   0.020   5.932  1.4843  0.2482  0.7460
 2720SOL    HW219623   1.467   0.158   5.982 -3.5991  4.2789  0.0775
 2721SOL     OW19624   2.311   0.688   9.546 -0.0050 -0.0321 -0.1225
 2721SOL    HW119625   2.362   0.710   9.468 -0.4883  1.2029 -0.0866
 2721SOL    HW219626   2.324   0.761   9.607 -0.1188  0.8912 -1.1995
 2722SOL     OW19627   0.249   1.845  15.391  0.2974  0.2373 -0.3957
 2722SOL    HW119628   0.271   1.937  15.375  1.1182  0.1153  0.0398
 2722SOL    HW219629   0.221   1.819  15.303 -0.4831 -0.7880  0.1572
 2723SOL     OW19630   0.747   0.498   7.526  0.0371 -0.1866  0.2221
 2723SOL    HW119631   0.691   0.569   7.497  0.7155  0.0555 -0.5075
 2723SOL    HW219632   0.749   0.515   7.620 -1.4421 -1.5601  0.4997
 2724SOL     OW19633   4.422   0.574  10.490  0.2096  0.3119  0.8082
 2724SOL    HW119634   4.450   0.535  10.573 -0.6545 -1.1354  0.4090
 2724SOL    HW219635   4.330   0.561  10.511 -0.0097 -0.8342 -0.9287
 2725SOL     OW19636   2.290   1.139   8.422 -0.3412  0.5150 -0.2127
 2725SOL    HW119637   2.385   1.133   8.412 -0.0485  0.5334  2.5244
 2725SOL    HW219638   2.255   1.151   8.334 -0.1026 -0.1933 -0.4055
 2726SOL     OW19639   0.385   3.541   1.789  0.4026  0.2502 -0.2638
 2726SOL    HW119640   0.432   3.540   1.705 -0.9331  0.8323 -1.0131
 2726SOL    HW219641   0.428   3.459   1.813 -0.0516  0.2565  0.5652
 2727SOL     OW19642   1.380   4.078  12.332  0.6836  0.2881  0.1219
 2727SOL    HW119643   1.381   4.103  12.425 -1.4627  0.7939 -0.0028
 2727SOL    HW219644   1.437   4.145  12.294 -1.8362  1.1663 -2.0751
 2728SOL     OW19645   3.383   3.864   3.753  0.7768 -0.5359 -0.7551
 2728SOL    HW119646   3.370   3.954   3.784  0.2259 -0.0949 -2.2221
 2728SOL    HW219647   3.296   3.842   3.719  0.7456 -1.8595  0.2075
 2729SOL     OW19648   0.195   3.422  14.735 -0.0918  0.3070  0.1629
 2729SOL    HW119649   0.130   3.465  14.679  0.3072  1.8406  0.8908
 2729SOL    HW219650   0.204   3.335  14.695 -0.6247  0.2255  0.2184
 2730SOL     OW19651   1.194   4.122   4.931 -0.3924 -0.4603  0.1534
 2730SOL    HW119652   1.218   4.187   4.866 -0.1890  0.6574  1.3435
 2730SOL    HW219653   1.276   4.072   4.936  0.3028  0.8400  2.1836
 2731SOL     OW19654   3.797   4.389  11.739  0.8864 -0.7914  0.0323
 2731SOL    HW119655   3.740   4.403  11.663  0.3538  0.2643  0.6214
 2731SOL    HW219656   3.761   4.450  11.803  0.4027 -1.0399 -0.0055
 2732SOL     OW19657   1.889   1.499   2.711 -0.3463 -0.4919 -0.2774
 2732SOL    HW119658   1.823   1.550   2.758 -0.7732 -1.8632  0.6285
 2732SOL    HW219659   1.854   1.492   2.622 -1.1057 -2.7988  0.2031
 2733SOL     OW19660   3.789   1.452   9.993 -0.2610 -0.3601  0.0554
 2733SOL    HW119661   3.831   1.375  10.030  1.5964  1.7274  2.3177
 2733SOL    HW219662   3.783   1.502  10.075 -1.5034  1.0285 -0.8810
 2734SOL     OW19663   1.317   1.970   5.331 -0.2893  0.1970 -0.3644
 2734SOL    HW119664   1.394   2.023   5.307  0.3616 -0.4447  0.2900
 2734SOL    HW219665   1.239   2.009   5.292 -0.0341  0.4377 -0.6317
 2735SOL     OW19666   3.273   3.577   9.986 -0.2001  0.2712 -0.7630
 2735SOL    HW119667   3.272   3.644  10.054  1.1720 -0.9319  0.4197
 2735SOL    HW219668   3.346   3.610   9.934  0.6946 -3.1998 -1.6938
 2736SOL     OW19669   2.237   3.030   4.162 -0.4843 -0.0912 -0.5108
 2736SOL    HW119670   2.243   3.115   4.119 -0.1451  0.5405  0.7840
 2736SOL    HW219671   2.279   2.982   4.090  1.1666 -1.2631  1.2223
 2737SOL     OW19672   2.516   2.675   0.167 -0.2004  0.4805  0.1627
 2737SOL    HW119673   2.440   2.705   0.217 -1.0214 -1.8964  0.3739
 2737SOL    HW219674   2.564   2.757   0.158  2.1918 -0.6181  2.7469
 2738SOL     OW19675   2.758   3.591   1.221 -0.5391 -0.4631  0.0223
 2738SOL    HW119676   2.783   3.633   1.303  0.7759 -1.4155  0.1145
 2738SOL    HW219677   2.702   3.655   1.178  2.1244  0.3234 -2.3361
 2739SOL     OW19678   1.161   4.245   2.825 -0.5142  1.1103  0.1483
 2739SOL    HW119679   1.121   4.241   2.738  2.4153  0.0230 -1.1391
 2739SOL    HW219680   1.097   4.197   2.878  0.3491  0.1314  0.3040
 2740SOL     OW19681   2.365   1.513   0.186 -0.0592 -0.0014 -0.2612
 2740SOL    HW119682   2.398   1.599   0.212 -2.0080  0.7008 -0.1420
 2740SOL    HW219683   2.447   1.472   0.159 -0.0977  0.5608 -1.2539
 2741SOL     OW19684   2.018   0.732   3.863  0.0403 -0.4386  0.3856
 2741SOL    HW119685   2.016   0.828   3.863  0.0179 -0.4536 -2.5465
 2741SOL    HW219686   1.959   0.718   3.789  0.4783 -0.9333  0.1301
 2742SOL     OW19687   1.721   4.243   2.270 -0.9341  0.4241 -0.3263
 2742SOL    HW119688   1.748   4.229   2.179  0.0134 -0.7000  0.1435
 2742SOL    HW219689   1.794   4.225   2.330 -1.8869  0.0496  0.7195
 2743SOL     OW19690   0.447   0.638  13.236 -0.0657  0.1132  0.7220
 2743SOL    HW119691   0.452   0.635  13.332  1.6783  0.3581  0.6251
 2743SOL    HW219692   0.380   0.704  13.216  0.2812 -0.2435 -1.5718
 2744SOL     OW19693   1.815   0.405   7.246  0.2591 -0.1041  0.0897
 2744SOL    HW119694   1.855   0.328   7.205  0.1572 -0.1449  0.0681
 2744SOL    HW219695   1.826   0.475   7.180 -0.9719  1.3704  1.4634
 2745SOL     OW19696   0.418   0.315  17.282  0.2488  0.2033 -0.2897
 2745SOL    HW119697   0.418   0.363  17.365  1.1963  2.4078 -1.5554
 2745SOL    HW219698   0.511   0.328  17.265  0.6484 -1.5665  0.6184
 2746SOL     OW19699   4.649   0.025  15.340 -0.0140  0.7844 -0.0671
 2746SOL    HW119700   0.010   0.017  15.298 -0.7046 -0.1269 -1.3059
 2746SOL    HW219701   4.673   0.094  15.402 -0.0617  0.6484  0.1004
 2747SOL     OW19702   4.703   2.151  10.317  0.4238  0.3868  0.1350
 2747SOL    HW119703   4.671   2.241  10.306  0.8106  0.5557  0.4192
 2747SOL    HW219704   0.056   2.145  10.263  0.5405 -0.7931  0.4267
 2748SOL     OW19705   2.967   2.231   2.874  0.8416  0.5309 -0.1922
 2748SOL    HW119706   2.975   2.324   2.850 -1.2414  0.7465 -0.0856
 2748SOL    HW219707   2.958   2.215   2.968  2.7974 -1.9846 -0.4477
 2749SOL     OW19708   2.009   4.282   6.018  0.0253  0.2144  0.7804
 2749SOL    HW119709   2.081   4.321   5.969 -0.6526 -0.2035 -0.5549
 2749SOL    HW219710   1.992   4.197   5.978  2.4748  0.1760 -0.1545
 2750SOL     OW19711   3.571   4.198   9.585  0.0255  0.0539 -0.4902
 2750SOL    HW119712   3.624   4.168   9.658 -0.9980 -0.1184  0.1704
 2750SOL    HW219713   3.565   4.122   9.526  0.5648 -1.4206  1.3568
 2751SOL     OW19714   4.195   2.442  13.893 -0.0562  0.0327 -0.4359
 2751SOL    HW119715   4.261   2.418  13.958  0.5593 -2.1030 -1.8482
 2751SOL    HW219716   4.238   2.396  13.821  2.5757  0.5974  0.7973
 2752SOL     OW19717   1.328   2.818   3.057 -0.0398 -0.0755 -0.2654
 2752SOL    HW119718   1.338   2.764   3.135 -1.3765  2.2954  1.5695
 2752SOL    HW219719   1.241   2.857   3.069  0.2611 -0.1049  2.0743
 2753SOL     OW19720   3.856   3.590   7.443  0.5637  0.2722 -0.7038
 2753SOL    HW119721   3.943   3.552   7.435 -0.1833 -1.1001 -2.5007
 2753SOL    HW219722   3.811   3.508   7.467  0.5943  0.7363  0.8905
 2754SOL     OW19723   4.507   0.147   9.065 -0.6025  0.0635 -0.2950
 2754SOL    HW119724   4.446   0.202   9.017 -0.4843  0.2446 -0.2412
 2754SOL    HW219725   4.441   0.112   9.125  0.0309  0.3312  0.5576
 2755SOL     OW19726   0.469   3.680   7.949 -0.8876 -0.2203 -0.5054
 2755SOL    HW119727   0.511   3.694   7.864  1.2426  1.8675  0.8756
 2755SOL    HW219728   0.511   3.603   7.985  0.9811  1.8776  1.8058
 2756SOL     OW19729   0.978   4.101   0.159 -0.0270 -0.3791 -0.3019
 2756SOL    HW119730   0.928   4.047   0.220 -0.1177 -1.8312 -1.6486
 2756SOL    HW219731   0.989   4.050   0.079  2.2148 -0.8777  0.3349
 2757SOL     OW19732   2.707   1.606   7.102  0.0991  0.1732  0.3831
 2757SOL    HW119733   2.748   1.521   7.115  0.2180  0.2407  0.4517
 2757SOL    HW219734   2.703   1.638   7.192  1.3853 -2.7029  1.4269
 2758SOL     OW19735   2.054   3.304   2.847  0.1371 -0.2962  0.0554
 2758SOL    HW119736   2.037   3.391   2.883 -1.3684 -0.7394  0.4319
 2758SOL    HW219737   2.133   3.290   2.898 -1.3783  0.3670  2.5805
 2759SOL     OW19738   1.727   3.630   7.074 -0.2463 -0.1226 -0.0477
 2759SOL    HW119739   1.642   3.664   7.047 -0.6557  0.2775  1.7261
 2759SOL    HW219740   1.759   3.700   7.131 -0.0088  0.6204 -1.1019
 2760SOL     OW19741   4.092   0.352   8.651 -0.2484  0.6200  0.0122
 2760SOL    HW119742   4.044   0.356   8.569 -3.2466 -0.2934  1.7051
 2760SOL    HW219743   4.174   0.396   8.628  0.2882 -0.4098 -0.0743
 2761SOL     OW19744   4.064   1.101   1.749  0.6977 -0.2355 -0.3366
 2761SOL    HW119745   4.138   1.078   1.805 -0.7356 -0.2804  1.5501
 2761SOL    HW219746   4.077   1.196   1.748 -0.6593 -0.0348  0.1197
 2762SOL     OW19747   4.590   1.860  15.092  0.2221 -0.4197 -0.8618
 2762SOL    HW119748   4.527   1.846  15.021 -0.4266 -0.0447 -0.3561
 2762SOL    HW219749   4.559   1.941  15.132 -2.3266 -2.2628  0.7787
 2763SOL     OW19750   4.089   0.478  15.649  0.2843 -0.1837  0.5222
 2763SOL    HW119751   4.151   0.549  15.631 -0.1042  0.4514  1.6458
 2763SOL    HW219752   4.121   0.398  15.608 -1.8576 -0.4484 -0.6337
 2764SOL     OW19753   0.178   0.993   9.509  0.5968 -0.2286 -0.2271
 2764SOL    HW119754   0.094   0.993   9.462 -0.3078 -1.0887  1.3744
 2764SOL    HW219755   0.215   1.068   9.463  0.7374 -1.7038 -2.5077
 2765SOL     OW19756   3.322   2.951  14.775 -0.0983 -0.0363  0.7272
 2765SOL    HW119757   3.278   2.955  14.859  0.3744 -1.8934  1.0533
 2765SOL    HW219758   3.377   2.874  14.787  0.6125  0.0881 -1.7163
 2766SOL     OW19759   4.643   1.650   3.845  0.7715 -0.1448 -0.3765
 2766SOL    HW119760   4.654   1.573   3.901 -0.5544 -0.6033 -0.7568
 2766SOL    HW219761   4.577   1.690   3.901  1.2877  3.3853 -2.2726
 2767SOL     OW19762   1.980   3.431   9.642  0.2380 -0.6702 -0.0775
 2767SOL    HW119763   1.961   3.422   9.549 -0.2373  0.6217 -0.1060
 2767SOL    HW219764   1.920   3.502   9.665  1.0317 -0.9089  2.8467
 2768SOL     OW19765   3.578   2.334   6.743  0.6610 -0.1051  0.6382
 2768SOL    HW119766   3.595   2.415   6.791 -0.7642  0.4608  0.1878
 2768SOL    HW219767   3.483   2.329   6.759  0.5344  1.4285  0.3561
 2769SOL     OW19768   2.529   1.406  12.451 -0.4599  0.2171 -0.3692
 2769SOL    HW119769   2.616   1.418  12.489 -0.8357 -1.7097  1.0871
 2769SOL    HW219770   2.533   1.330  12.393 -1.1967  0.5856 -0.8997
 2770SOL     OW19771   1.072   4.161  15.890  0.3349 -0.0333 -0.0324
 2770SOL    HW119772   1.073   4.201  15.977  2.2939  0.1426 -0.1539
 2770SOL    HW219773   0.981   4.172  15.861  0.5074  1.5483  0.0185
 2771SOL     OW19774   3.975   2.143   7.054  0.3688  0.0759  0.2164
 2771SOL    HW119775   3.879   2.149   7.052  0.4226  1.1567  0.7352
 2771SOL    HW219776   4.000   2.230   7.086 -0.7882  0.6623 -0.4666
 2772SOL     OW19777   0.709   2.005  12.215  0.1996 -0.1545  0.0773
 2772SOL    HW119778   0.672   2.089  12.240 -0.9017 -1.8744  4.2903
 2772SOL    HW219779   0.753   1.978  12.296  0.5333 -1.3483 -0.4973
 2773SOL     OW19780   3.014   0.328   7.943  0.3619 -0.0015  0.6613
 2773SOL    HW119781   3.003   0.329   8.038  0.8086  0.6474  0.7011
 2773SOL    HW219782   2.925   0.305   7.915  0.1840  1.7263 -0.1743
 2774SOL     OW19783   2.506   0.444   3.498 -0.1942  0.0724  0.1112
 2774SOL    HW119784   2.411   0.439   3.485 -0.0207 -3.6020  0.3867
 2774SOL    HW219785   2.535   0.378   3.436 -1.5505 -1.9102  1.5865
 2775SOL     OW19786   2.839   3.588   4.078  0.2399 -0.5427  0.1648
 2775SOL    HW119787   2.904   3.567   4.012  0.8438 -0.4635  0.7339
 2775SOL    HW219788   2.871   3.545   4.157 -0.6890 -0.6044  0.5060
 2776SOL     OW19789   2.648   1.586  14.793  0.0148  0.1738 -0.4390
 2776SOL    HW119790   2.702   1.570  14.716  0.2240  0.1719 -0.2909
 2776SOL    HW219791   2.702   1.640  14.850 -0.4067  1.0830 -0.8942
 2777SOL     OW19792   3.716   3.642   5.825  0.5992  0.1259 -0.3572
 2777SOL    HW119793   3.630   3.680   5.841  0.1511 -0.3018 -1.7180
 2777SOL    HW219794   3.720   3.614   5.733  1.0176 -1.3795  0.1217
 2778SOL     OW19795   1.173   1.068   8.604 -0.1938  0.2739  0.8650
 2778SOL    HW119796   1.130   1.120   8.672  0.8834  1.4754  0.6442
 2778SOL    HW219797   1.151   0.978   8.626 -0.9743  1.0799  3.3827
 2779SOL     OW19798   2.711   1.943   0.131 -0.6023  0.1352  0.1404
 2779SOL    HW119799   2.695   1.891   0.052  0.7679 -1.6152  1.0077
 2779SOL    HW219800   2.652   2.017   0.118 -1.9648 -0.9065  0.4428
 2780SOL     OW19801   3.867   3.283   7.202  0.0683 -0.2201 -0.2905
 2780SOL    HW119802   3.943   3.334   7.176  1.5140 -1.0747  2.2572
 2780SOL    HW219803   3.848   3.221   7.132 -1.8783 -0.4162  0.4001
 2781SOL     OW19804   4.158   0.569   3.569  0.2611  0.5131  0.0162
 2781SOL    HW119805   4.175   0.590   3.477 -2.1212 -1.1005 -0.8098
 2781SOL    HW219806   4.118   0.649   3.603 -0.4151 -0.8599  2.4625
 2782SOL     OW19807   1.891   3.897  17.019 -0.2776 -0.3251  0.2344
 2782SOL    HW119808   1.939   3.853  16.949 -0.4001 -1.4223  0.8415
 2782SOL    HW219809   1.972   3.924  17.063 -0.4623  0.0735  0.3340
 2783SOL     OW19810   0.845   1.914   2.634 -0.3405 -0.4692  0.1695
 2783SOL    HW119811   0.933   1.951   2.638 -0.4298 -0.3074  0.6041
 2783SOL    HW219812   0.785   1.988   2.642  0.0782 -0.1133 -0.0508
 2784SOL     OW19813   1.613   3.971  16.080  0.8442  0.1246 -0.3596
 2784SOL    HW119814   1.659   3.900  16.123 -1.8505 -0.9540  0.7567
 2784SOL    HW219815   1.562   3.931  16.010 -1.1644 -1.5423  2.0398
 2785SOL     OW19816   1.178   2.458   9.107  0.7990 -0.3260  0.1343
 2785SOL    HW119817   1.226   2.394   9.054  1.4252 -1.4443  2.0859
 2785SOL    HW219818   1.123   2.500   9.041 -0.0007  1.1210  1.7264
 2786SOL     OW19819   2.906   0.486   9.921  0.0274 -0.0455  0.4147
 2786SOL    HW119820   2.868   0.567   9.886  2.1099  1.0306  0.5949
 2786SOL    HW219821   2.823   0.439   9.924  0.0352  0.0087  1.3518
 2787SOL     OW19822   2.434   4.424   6.433 -0.4320  0.4539 -0.1714
 2787SOL    HW119823   2.344   4.434   6.464 -0.6587 -0.3702 -0.5686
 2787SOL    HW219824   2.454   4.332   6.449 -0.8472  0.5186  0.7261
 2788SOL     OW19825   0.602   3.545   2.755 -0.3886 -0.1532 -0.3094
 2788SOL    HW119826   0.595   3.637   2.730 -1.6151 -0.5441 -1.3584
 2788SOL    HW219827   0.542   3.532   2.828 -0.0200  1.0516  0.2121
 2789SOL     OW19828   1.068   2.776  11.713 -0.7433 -0.0810  0.0830
 2789SOL    HW119829   1.123   2.808  11.784 -1.6611  1.6757  0.0009
 2789SOL    HW219830   1.119   2.821  11.646  0.3989  1.3703  1.9436
 2790SOL     OW19831   1.973   2.258   7.210 -0.5656 -0.3550 -0.4266
 2790SOL    HW119832   1.888   2.221   7.234 -1.4041  0.7895 -1.5889
 2790SOL    HW219833   1.970   2.261   7.114  0.7248  2.1756 -0.3859
 2791SOL     OW19834   2.031   0.214   0.516  0.1412  0.7079  0.1262
 2791SOL    HW119835   1.973   0.241   0.588  1.7318  1.7505  1.0041
 2791SOL    HW219836   2.001   0.124   0.505  3.2159 -0.1122 -1.5524
 2792SOL     OW19837   1.584   0.728   8.424 -0.8827 -0.7805 -0.1218
 2792SOL    HW119838   1.679   0.737   8.428 -1.0855  1.3259  0.1918
 2792SOL    HW219839   1.562   0.726   8.331  2.4803 -0.1398 -0.9278
 2793SOL     OW19840   4.145   4.631  13.380 -0.3175  0.5589 -0.2390
 2793SOL    HW119841   4.145   4.722  13.348  1.9498  0.9709  0.9880
 2793SOL    HW219842   4.230   4.633  13.424  0.9540  1.4044 -2.6692
 2794SOL     OW19843   1.919   2.730  10.870  0.0189 -0.5531 -0.2663
 2794SOL    HW119844   1.990   2.698  10.815 -0.6915  0.7059 -1.9321
 2794SOL    HW219845   1.852   2.742  10.802 -1.0542 -2.1239  0.5077
 2795SOL     OW19846   1.672   3.883   0.273 -0.1663 -0.5021  0.1895
 2795SOL    HW119847   1.756   3.875   0.228 -0.1808 -0.2629  0.1202
 2795SOL    HW219848   1.705   3.934   0.348 -1.8583 -1.7598  1.7950
 2796SOL     OW19849   0.990   0.748   4.009  0.8144  0.1859 -0.0558
 2796SOL    HW119850   1.052   0.802   3.960 -0.6640  0.0459 -2.1087
 2796SOL    HW219851   1.039   0.666   4.006 -2.4232 -1.7013 -0.9857
 2797SOL     OW19852   2.906   0.190   2.444  1.0959  0.5141  0.4478
 2797SOL    HW119853   2.908   0.286   2.447  1.2678  0.5973 -2.1761
 2797SOL    HW219854   2.888   0.166   2.535 -0.4162 -1.2863 -0.3355
 2798SOL     OW19855   4.428   2.653   3.100 -0.0473  0.0886 -0.0223
 2798SOL    HW119856   4.410   2.568   3.140  0.6200 -0.1493 -0.2379
 2798SOL    HW219857   4.387   2.715   3.160  1.8796  0.9715  0.3795
 2799SOL     OW19858   1.117   4.008   0.422  0.8002  0.7599  0.0593
 2799SOL    HW119859   1.084   3.942   0.361  0.1063  0.6795  0.5240
 2799SOL    HW219860   1.039   4.015   0.478  0.3475  1.1790 -0.6270
 2800SOL     OW19861   0.748   3.028   6.609  0.1508 -0.4508 -0.4607
 2800SOL    HW119862   0.768   3.104   6.663  1.4958 -1.5743  0.6115
 2800SOL    HW219863   0.708   2.974   6.677 -0.7684  1.1623  0.2743
 2801SOL     OW19864   2.798   2.578   7.864 -0.0960  0.7642 -0.5684
 2801SOL    HW119865   2.878   2.552   7.910 -1.7161 -2.1489  0.5554
 2801SOL    HW219866   2.813   2.670   7.843  2.3770 -0.3009 -3.4064
 2802SOL     OW19867   2.781   1.361   7.724  0.3619 -0.5592 -0.3560
 2802SOL    HW119868   2.768   1.455   7.733 -0.3902 -0.8758  1.9229
 2802SOL    HW219869   2.758   1.340   7.815 -0.5611  3.9514  0.4268
 2803SOL     OW19870   4.692   3.259   6.571  0.3112  0.6110  0.1737
 2803SOL    HW119871   0.015   3.267   6.489  0.9072  0.7549  0.5340
 2803SOL    HW219872   0.033   3.278   6.638  2.3498  1.0557 -1.9667
 2804SOL     OW19873   2.895   0.299   8.219 -0.4525 -0.1668  0.1017
 2804SOL    HW119874   2.808   0.276   8.187 -0.5076 -1.1405  0.9667
 2804SOL    HW219875   2.881   0.378   8.271  1.9698  0.4743 -0.1928
 2805SOL     OW19876   2.757   3.292   3.656 -0.5354 -0.3176  0.2836
 2805SOL    HW119877   2.769   3.263   3.566 -0.5781  3.6625 -1.0195
 2805SOL    HW219878   2.663   3.292   3.673 -0.6388 -0.1800 -0.2861
 2806SOL     OW19879   1.136   0.261   6.459 -0.2036  0.1845 -0.8112
 2806SOL    HW119880   1.062   0.308   6.422 -1.0814  0.3144  1.1136
 2806SOL    HW219881   1.124   0.177   6.415  1.8689 -0.5731  0.0607
 2807SOL     OW19882   1.960   1.250   8.575 -0.4778 -0.1219  0.8460
 2807SOL    HW119883   2.026   1.206   8.628  0.4468  0.1898 -0.0545
 2807SOL    HW219884   2.010   1.318   8.531 -0.8427  0.4076  1.2409
 2808SOL     OW19885   1.740   1.437   4.984 -0.5503 -0.5264  0.2130
 2808SOL    HW119886   1.803   1.471   5.047  1.8798 -3.4349 -0.6507
 2808SOL    HW219887   1.667   1.498   4.994 -0.0368  0.1171  0.0293
 2809SOL     OW19888   3.262   2.833  12.573 -0.0837  0.0535  0.1016
 2809SOL    HW119889   3.199   2.848  12.502 -0.0452  0.1048  0.0781
 2809SOL    HW219890   3.336   2.817  12.514 -2.2732 -2.8551 -1.8501
 2810SOL     OW19891   4.583   0.585   6.891 -0.0057  0.3301  0.0903
 2810SOL    HW119892   4.570   0.628   6.976 -1.8706 -1.6124  0.7680
 2810SOL    HW219893   4.607   0.496   6.914 -0.2811  0.5044  1.0589
 2811SOL     OW19894   0.026   3.972   1.161 -0.5882 -0.5615  0.3168
 2811SOL    HW119895   4.724   3.881   1.173  1.3903 -1.2759 -0.6634
 2811SOL    HW219896   4.668   4.018   1.151 -0.2455  0.1967  0.8409
 2812SOL     OW19897   1.360   0.480   3.358  0.0441 -0.0198  0.2660
 2812SOL    HW119898   1.369   0.385   3.353 -1.5615 -0.2167  1.1027
 2812SOL    HW219899   1.268   0.501   3.339  0.2941  1.1333  0.3167
 2813SOL     OW19900   1.862   1.237   3.497 -0.2613  0.0598  0.5195
 2813SOL    HW119901   1.770   1.222   3.477  0.4851 -0.2002 -2.5846
 2813SOL    HW219902   1.863   1.327   3.531 -0.0331  0.3651 -0.3016
 2814SOL     OW19903   0.114   1.808  15.189 -0.4592 -0.0093  0.2183
 2814SOL    HW119904   0.028   1.825  15.151 -0.1344 -3.0131 -1.8281
 2814SOL    HW219905   0.123   1.743  15.120 -1.3917  2.7690 -2.5091
 2815SOL     OW19906   0.984   3.819  17.515 -0.2692  0.2500  0.3461
 2815SOL    HW119907   1.000   3.906  17.479 -2.0947 -0.2162 -1.6177
 2815SOL    HW219908   1.056   3.804  17.576 -0.7241  1.4801  1.1836
 2816SOL     OW19909   1.136   2.907   9.105 -0.0382 -0.1575 -0.3026
 2816SOL    HW119910   1.200   2.835   9.106  1.5211  1.2112 -0.3092
 2816SOL    HW219911   1.116   2.915   9.012  1.1814 -1.7668 -0.7095
 2817SOL     OW19912   1.302   0.245  13.447  0.2249  0.1643 -0.0510
 2817SOL    HW119913   1.228   0.268  13.503 -0.0772  2.5738 -1.4656
 2817SOL    HW219914   1.252   0.197  13.382  3.2608 -0.0010 -2.2911
 2818SOL     OW19915   2.766   0.528   7.221 -0.4219 -0.2708 -0.3419
 2818SOL    HW119916   2.850   0.542   7.266 -0.7998 -0.5486  0.4599
 2818SOL    HW219917   2.710   0.509   7.296 -1.8507  0.7770 -1.1593
 2819SOL     OW19918   3.164   1.295  17.144  0.8383  0.0210  0.0830
 2819SOL    HW119919   3.220   1.318  17.217 -1.0154  1.7726  0.9699
 2819SOL    HW219920   3.223   1.259  17.077 -2.4953 -2.6012 -1.4423
 2820SOL     OW19921   0.229   1.232  13.794  0.2076 -0.0949  0.3792
 2820SOL    HW119922   0.196   1.321  13.786  0.8018  0.0466 -0.5891
 2820SOL    HW219923   0.307   1.233  13.737 -0.7475 -0.5321 -0.9376
 2821SOL     OW19924   4.192   2.790   8.261  0.1756  0.0867 -0.6298
 2821SOL    HW119925   4.221   2.867   8.211 -0.8660  1.1170  0.3379
 2821SOL    HW219926   4.278   2.748   8.264  0.2802  0.3324 -0.0961
 2822SOL     OW19927   1.843   2.839  14.083  0.0884 -1.2100 -0.2114
 2822SOL    HW119928   1.789   2.791  14.146  1.9116 -1.4481  1.1818
 2822SOL    HW219929   1.782   2.901  14.045 -0.2870 -0.2531  1.9460
 2823SOL     OW19930   2.772   1.679   3.306  0.6571 -0.0961  0.6430
 2823SOL    HW119931   2.775   1.773   3.325 -1.2826 -0.1358  1.1219
 2823SOL    HW219932   2.865   1.679   3.281  0.2234 -0.1674 -1.0005
 2824SOL     OW19933   3.066   2.805  12.057 -0.0132 -0.5467  0.4575
 2824SOL    HW119934   2.973   2.802  12.081 -0.0867  0.7847  0.3457
 2824SOL    HW219935   3.073   2.897  12.033  1.4263 -0.4815  1.1378
 2825SOL     OW19936   1.058   3.662   5.095 -0.1335  0.1666  0.3787
 2825SOL    HW119937   0.986   3.682   5.035 -3.1916  0.0395  4.0760
 2825SOL    HW219938   1.074   3.747   5.135  0.1636  0.1911  0.2144
 2826SOL     OW19939   0.247   0.960  13.608 -0.0750 -0.2830 -0.0597
 2826SOL    HW119940   0.214   1.049  13.596  0.5349  0.0548  0.8124
 2826SOL    HW219941   0.173   0.924  13.656 -0.5197  1.9405  0.8841
 2827SOL     OW19942   3.805   2.143   0.929  0.2851  0.0542 -0.1201
 2827SOL    HW119943   3.799   2.049   0.910 -2.0242  0.2470 -0.3631
 2827SOL    HW219944   3.837   2.162   0.841 -2.0507 -0.8806 -1.1697
 2828SOL     OW19945   2.951   0.059   3.995  0.4989 -0.1884  1.1944
 2828SOL    HW119946   2.907   0.092   3.916  0.1444 -0.3854  1.3065
 2828SOL    HW219947   2.894   4.715   4.029 -0.9269  0.9590  1.1295
 2829SOL     OW19948   4.162   2.515   7.463 -0.3876 -0.3504  0.0052
 2829SOL    HW119949   4.185   2.422   7.456 -1.3152 -0.4829 -1.2908
 2829SOL    HW219950   4.236   2.556   7.419 -0.1915 -0.9732 -0.2543
 2830SOL     OW19951   1.972   0.547   0.240 -0.4230  0.6351  0.3626
 2830SOL    HW119952   1.925   0.578   0.162 -1.8689 -1.1648  0.5026
 2830SOL    HW219953   1.904   0.510   0.297 -1.3802  0.4311 -0.9029
 2831SOL     OW19954   1.155   2.003   6.456  0.3000 -0.3325  0.3249
 2831SOL    HW119955   1.070   1.969   6.427  0.1438 -0.6284  1.1380
 2831SOL    HW219956   1.211   1.933   6.423 -2.7367 -2.8369  0.5309
 2832SOL     OW19957   2.180   2.726   7.567 -0.5759 -0.4632 -0.3203
 2832SOL    HW119958   2.097   2.717   7.520 -0.8632 -1.1664  0.3265
 2832SOL    HW219959   2.223   2.786   7.505 -1.3304  2.3956  1.9133
 2833SOL     OW19960   1.066   1.497  13.467 -0.2927  0.0026  0.0201
 2833SOL    HW119961   1.126   1.432  13.505 -1.0813 -0.1703  0.9592
 2833SOL    HW219962   1.123   1.573  13.478  2.4257 -2.0330  0.1453
 2834SOL     OW19963   0.449   1.031   7.343 -0.1405  0.0515 -0.3820
 2834SOL    HW119964   0.522   1.092   7.348 -0.0522  0.0022 -1.1324
 2834SOL    HW219965   0.479   0.966   7.408  0.7729  0.5552 -0.3003
 2835SOL     OW19966   4.558   2.949   6.366  0.6790 -0.3599  0.5276
 2835SOL    HW119967   4.504   2.872   6.345  0.8317 -0.7568  1.5900
 2835SOL    HW219968   4.485   3.010   6.382 -0.6734 -1.3174 -2.1049
 2836SOL     OW19969   1.455   2.893   1.204 -0.3552  0.1460  0.5600
 2836SOL    HW119970   1.436   2.799   1.207 -1.2532  0.2991 -0.2042
 2836SOL    HW219971   1.371   2.927   1.172 -1.4924 -1.2283  2.1072
 2837SOL     OW19972   4.468   1.884   6.247  0.4179 -0.1266 -0.2008
 2837SOL    HW119973   4.428   1.971   6.258  1.1059  0.5380 -2.9447
 2837SOL    HW219974   4.445   1.854   6.160 -0.6371  0.1082 -0.0067
 2838SOL     OW19975   1.331   2.691   9.173  0.8157  0.0224  0.0333
 2838SOL    HW119976   1.259   2.629   9.181 -0.8532  2.0622  0.9367
 2838SOL    HW219977   1.388   2.645   9.112  0.3516  0.2548 -0.5780
 2839SOL     OW19978   3.352   2.541  14.179  0.3845  0.1474  0.0285
 2839SOL    HW119979   3.323   2.625  14.142  2.1247  0.7198 -0.0270
 2839SOL    HW219980   3.275   2.485  14.174 -0.2789  1.2759 -2.3924
 2840SOL     OW19981   1.017   2.785   9.520 -0.1260 -0.0990  0.0959
 2840SOL    HW119982   1.019   2.739   9.436 -0.2073 -0.0647  0.0761
 2840SOL    HW219983   0.924   2.802   9.534  0.1596  0.9351  0.7310
 2841SOL     OW19984   3.293   3.925   6.094  0.3083 -0.2969  0.4474
 2841SOL    HW119985   3.318   3.996   6.034 -0.9835 -0.1734  0.0682
 2841SOL    HW219986   3.345   3.932   6.174 -0.4553 -0.2424  0.9373
 2842SOL     OW19987   1.560   0.814   1.913 -0.2682  0.1894 -0.0281
 2842SOL    HW119988   1.468   0.826   1.936  0.0918  1.8761  0.5409
 2842SOL    HW219989   1.595   0.752   1.977  1.7616  0.8954 -0.4328
 2843SOL     OW19990   0.916   4.108   4.881  0.3464  0.6631  0.1197
 2843SOL    HW119991   0.857   4.155   4.941  0.5719  0.6608  0.3455
 2843SOL    HW219992   1.004   4.126   4.914  0.1785  1.6471  0.0560
 2844SOL     OW19993   2.534   1.415   8.448 -0.3485 -0.1671 -0.2536
 2844SOL    HW119994   2.523   1.391   8.356  0.4237  0.0953 -0.4150
 2844SOL    HW219995   2.515   1.509   8.448  2.2223  0.3612  2.3810
 2845SOL     OW19996   0.638   3.870   5.891 -0.4568  0.0937 -0.4430
 2845SOL    HW119997   0.566   3.833   5.840 -1.1129 -1.0352  1.3075
 2845SOL    HW219998   0.681   3.790   5.921 -1.1372 -0.4090 -0.8012
 2846SOL     OW19999   0.221   2.848   7.632  0.1335  0.0905 -0.6691
 2846SOL    HW120000   0.298   2.792   7.640  0.3900  0.3104 -1.5685
 2846SOL    HW220001   0.243   2.921   7.690 -0.6119 -1.5241  1.6451
 2847SOL     OW20002   0.538   4.458   8.490  0.6549  0.3434  0.3705
 2847SOL    HW120003   0.473   4.418   8.548 -0.4068  1.4099 -0.0647
 2847SOL    HW220004   0.496   4.436   8.407  0.6376 -0.8849  0.7142
 2848SOL     OW20005   0.312   2.156   8.211  0.2720 -0.3828  0.0863
 2848SOL    HW120006   0.273   2.189   8.130  1.5497 -1.8851 -1.1414
 2848SOL    HW220007   0.388   2.213   8.222 -1.0384  1.2310  0.7124
 2849SOL     OW20008   2.360   0.936  17.066  0.4444  0.0709  0.0028
 2849SOL    HW120009   2.407   0.934  17.150 -0.2249 -0.8663  0.3629
 2849SOL    HW220010   2.373   0.852  17.023  0.7289  0.0436  0.1459
 2850SOL     OW20011   1.306   2.125   3.746  0.1111  0.5209 -0.2894
 2850SOL    HW120012   1.388   2.171   3.765  0.3738 -0.1175  0.1051
 2850SOL    HW220013   1.318   2.033   3.769 -0.1630  0.7411  0.7509
 2851SOL     OW20014   0.673   3.072   9.452  0.0136  0.0478  0.5436
 2851SOL    HW120015   0.739   3.094   9.386 -0.8723 -1.1261 -0.7411
 2851SOL    HW220016   0.687   3.139   9.520  2.2967  0.5457 -0.4145
 2852SOL     OW20017   1.880   1.828  11.008  0.1007  0.2362 -0.7201
 2852SOL    HW120018   1.797   1.873  10.996 -0.3742 -0.3271  0.4495
 2852SOL    HW220019   1.904   1.807  10.918 -0.8501 -1.0295 -0.6818
 2853SOL     OW20020   1.775   3.089   8.764  0.5163 -0.1184 -0.1998
 2853SOL    HW120021   1.707   3.081   8.831  0.4285  1.1820 -0.1282
 2853SOL    HW220022   1.840   3.147   8.805  1.1403  0.8494 -2.5427
 2854SOL     OW20023   4.502   2.488  17.057  0.1043 -0.2541 -0.5060
 2854SOL    HW120024   4.516   2.563  17.115 -0.9600 -0.5570  0.1424
 2854SOL    HW220025   4.557   2.420  17.096 -3.1307 -1.6168  1.6728
 2855SOL     OW20026   2.338   4.621   9.138  0.0725 -0.0338  0.3473
 2855SOL    HW120027   2.415   4.564   9.141  0.1280  0.1021  1.6628
 2855SOL    HW220028   2.268   4.560   9.116  1.3297 -0.3614 -2.8243
 2856SOL     OW20029   1.010   3.508   8.812  0.2158 -0.0061  0.7536
 2856SOL    HW120030   1.082   3.539   8.868  0.5712  1.5642 -0.5616
 2856SOL    HW220031   1.034   3.547   8.727 -0.3681  1.3439  1.2166
 2857SOL     OW20032   1.531   2.897   3.713 -0.0277 -0.4612 -0.4981
 2857SOL    HW120033   1.540   2.930   3.624  1.5187 -0.9519 -0.5401
 2857SOL    HW220034   1.610   2.929   3.758 -1.6721  0.5242  1.6457
 2858SOL     OW20035   2.413   2.185   1.540  0.2283  0.0055 -0.1115
 2858SOL    HW120036   2.446   2.118   1.480  0.0430 -1.2581  1.1812
 2858SOL    HW220037   2.394   2.134   1.619  0.4134  0.1528  0.0276
 2859SOL     OW20038   2.990   1.532  17.202  0.1212 -0.4632  0.3825
 2859SOL    HW120039   3.035   1.456  17.166 -0.0535 -0.4543  0.1519
 2859SOL    HW220040   2.961   1.496  17.286 -2.6580 -0.8974 -0.8036
 2860SOL     OW20041   1.651   3.605   9.088 -0.1913 -0.0968  0.0503
 2860SOL    HW120042   1.713   3.624   9.018 -0.5383 -1.4677 -0.6380
 2860SOL    HW220043   1.707   3.593   9.165  0.9153  0.5354 -0.6540
 2861SOL     OW20044   3.455   4.160  11.044  0.1347  0.1212  0.4905
 2861SOL    HW120045   3.530   4.108  11.015  0.3918  1.1359 -0.6444
 2861SOL    HW220046   3.457   4.244  10.998 -0.2530 -0.6584 -0.9581
 2862SOL     OW20047   4.409   1.202   7.384  0.7845  0.4026  0.3339
 2862SOL    HW120048   4.491   1.203   7.335  1.9551 -2.0880  2.2879
 2862SOL    HW220049   4.348   1.196   7.310  0.8833 -0.3373  0.3115
 2863SOL     OW20050   0.470   4.665   4.993 -0.0293  0.8121 -0.7556
 2863SOL    HW120051   0.534   4.606   5.034 -0.2105  0.1718 -1.4107
 2863SOL    HW220052   0.387   4.622   5.010 -0.7419  2.1120 -0.9165
 2864SOL     OW20053   0.387   1.086   8.067  0.5467 -0.2086 -0.0357
 2864SOL    HW120054   0.383   1.033   8.146 -0.2931  0.7068  0.5360
 2864SOL    HW220055   0.428   1.164   8.103  1.7758 -0.4883 -0.7977
 2865SOL     OW20056   1.613   1.273   0.510 -0.1658 -0.2942  0.2914
 2865SOL    HW120057   1.651   1.281   0.423 -1.9872 -0.1791 -0.5020
 2865SOL    HW220058   1.528   1.231   0.498  0.2521 -1.1707  0.3658
 2866SOL     OW20059   0.781   3.810   7.314  0.6445  0.1003  0.0963
 2866SOL    HW120060   0.749   3.864   7.386  0.6864 -0.2918  0.4085
 2866SOL    HW220061   0.712   3.824   7.248  0.2407 -0.1892  0.4582
 2867SOL     OW20062   4.215   0.186   7.598 -0.4920  0.1507 -0.2044
 2867SOL    HW120063   4.279   0.251   7.568  1.9212 -2.0796  0.0791
 2867SOL    HW220064   4.153   0.248   7.635 -2.7592 -1.2411 -1.6465
 2868SOL     OW20065   2.515   3.074   3.294 -0.1023 -0.2118 -0.2998
 2868SOL    HW120066   2.466   3.023   3.229  0.1515  1.2642 -1.6357
 2868SOL    HW220067   2.457   3.148   3.276 -1.2946 -0.4533  2.5891
 2869SOL     OW20068   2.441   4.075   2.296 -0.3013  0.5259  0.1495
 2869SOL    HW120069   2.399   4.149   2.340 -2.1085  0.0817 -0.8376
 2869SOL    HW220070   2.440   4.101   2.204  2.0221  1.3823  0.3492
 2870SOL     OW20071   3.795   1.036   3.481  0.3737  0.1372  0.0860
 2870SOL    HW120072   3.885   1.016   3.456  0.0006 -1.0655 -0.3362
 2870SOL    HW220073   3.803   1.018   3.574  1.4213 -0.0542 -0.0359
 2871SOL     OW20074   1.193   1.618   8.480 -0.1809 -0.2358  0.4925
 2871SOL    HW120075   1.155   1.686   8.535 -0.2025  1.0425 -1.0842
 2871SOL    HW220076   1.231   1.671   8.409  0.3386 -0.0505  0.9090
 2872SOL     OW20077   3.888   3.408   4.823 -0.0797  0.7817  0.6008
 2872SOL    HW120078   3.956   3.362   4.872 -0.6391 -0.9977 -0.2898
 2872SOL    HW220079   3.924   3.497   4.822  1.0813  0.2869 -2.0803
 2873SOL     OW20080   0.698   2.077   7.678 -0.0655 -0.2547 -0.2032
 2873SOL    HW120081   0.772   2.138   7.681 -0.5419  0.3934 -1.4106
 2873SOL    HW220082   0.630   2.136   7.709  0.0874  0.3079 -0.9443
 2874SOL     OW20083   0.595   1.728  13.028 -0.0337  0.7108 -0.0207
 2874SOL    HW120084   0.544   1.746  13.107 -1.9419 -0.3361 -1.0007
 2874SOL    HW220085   0.669   1.786  13.044  1.6889 -1.4725 -0.1071
 2875SOL     OW20086   0.237   3.634   0.096 -0.0444  0.4857  0.3497
 2875SOL    HW120087   0.306   3.588   0.050 -1.5428  1.9652 -3.3879
 2875SOL    HW220088   0.172   3.614   0.028  0.1438  1.2386 -0.0509
 2876SOL     OW20089   1.053   2.781   8.260 -0.0837  0.0004  0.3837
 2876SOL    HW120090   1.115   2.710   8.277 -1.9859 -1.9357 -0.7640
 2876SOL    HW220091   1.108   2.852   8.228  0.1945  0.1414  1.1607
 2877SOL     OW20092   0.057   1.775   6.088  0.3082  1.0319 -0.0884
 2877SOL    HW120093   0.042   1.741   6.176 -0.6724  0.2117 -0.5696
 2877SOL    HW220094   0.072   1.868   6.105  1.1299  1.2287 -1.8727
 2878SOL     OW20095   1.154   3.466  16.959  0.1013 -0.5344 -0.4836
 2878SOL    HW120096   1.239   3.501  16.932 -0.0969 -0.2800 -0.7861
 2878SOL    HW220097   1.099   3.506  16.891  0.0999  0.4512  0.1020
 2879SOL     OW20098   1.087   0.140   1.968 -0.1818  0.2427  0.2616
 2879SOL    HW120099   1.025   0.213   1.966 -0.5599 -0.1195 -1.7456
 2879SOL    HW220100   1.049   0.077   1.907 -2.7909  1.0108  1.0654
 2880SOL     OW20101   4.584   1.225   3.180 -0.4295  0.0112  0.1784
 2880SOL    HW120102   4.572   1.314   3.211 -1.6319  0.4542 -1.6197
 2880SOL    HW220103   4.577   1.174   3.261 -0.1778  0.8638  0.7318
 2881SOL     OW20104   0.050   2.388   9.616  0.6842  0.0568 -0.1424
 2881SOL    HW120105   4.690   2.412   9.581  0.4028 -1.0282 -0.1881
 2881SOL    HW220106   0.101   2.396   9.535  1.9501  0.8828  0.7332
 2882SOL     OW20107   0.597   0.557   4.102 -0.1789  0.2780 -0.1260
 2882SOL    HW120108   0.605   0.643   4.061  1.5940  0.4986  0.6894
 2882SOL    HW220109   0.671   0.515   4.059 -0.3733  1.2995 -1.4385
 2883SOL     OW20110   0.726   1.494   3.490  0.5646 -0.1628  0.1718
 2883SOL    HW120111   0.756   1.422   3.435  2.2518 -1.2157  2.5133
 2883SOL    HW220112   0.693   1.450   3.567 -0.7281 -2.4908 -1.7152
 2884SOL     OW20113   0.653   3.149  10.577  0.3197 -0.0010 -0.1522
 2884SOL    HW120114   0.661   3.099  10.658 -1.7699  0.3735  0.3000
 2884SOL    HW220115   0.565   3.128  10.545 -0.5041  0.6409  1.6807
 2885SOL     OW20116   3.778   2.799  17.362 -0.1668  0.0392 -0.3847
 2885SOL    HW120117   3.847   2.740  17.331  1.1439  0.9349  0.8716
 2885SOL    HW220118   3.813   2.883  17.334 -1.3381  0.8201  0.5145
 2886SOL     OW20119   0.443   0.219   3.456  0.1296  0.2806  0.4225
 2886SOL    HW120120   0.535   0.201   3.438 -0.6886 -1.5685 -1.8509
 2886SOL    HW220121   0.426   0.175   3.540 -0.1760 -1.8970 -0.7772
 2887SOL     OW20122   3.781   2.853  11.456  0.6129 -0.1683 -0.3787
 2887SOL    HW120123   3.826   2.864  11.372 -1.8663  0.6595 -1.5992
 2887SOL    HW220124   3.713   2.791  11.430 -2.7625  2.5409  1.9821
 2888SOL     OW20125   2.581   3.535  11.672 -0.3145 -0.1945 -0.0966
 2888SOL    HW120126   2.603   3.590  11.596 -0.0426 -0.3590 -0.1346
 2888SOL    HW220127   2.642   3.463  11.658 -2.6949 -2.5406  1.5649
 2889SOL     OW20128   4.148   0.118   7.989  0.1192 -0.0927  1.0246
 2889SOL    HW120129   4.139   0.201   8.036  3.0534  0.5317  0.4546
 2889SOL    HW220130   4.066   0.118   7.940  1.0075  3.0800 -0.4534
 2890SOL     OW20131   1.067   1.456   4.177 -0.3504 -0.2815  0.1651
 2890SOL    HW120132   1.162   1.450   4.165 -0.4757 -0.8272 -0.5486
 2890SOL    HW220133   1.050   1.548   4.158  1.3306  0.2953  1.3969
 2891SOL     OW20134   4.712   3.661   7.481 -0.0808  0.2102 -0.3759
 2891SOL    HW120135   4.688   3.640   7.572 -0.5092  3.3213  0.2510
 2891SOL    HW220136   4.624   3.656   7.444 -0.9803 -0.8787  1.8776
 2892SOL     OW20137   2.439   2.190   5.763  0.6751 -0.2950 -0.3175
 2892SOL    HW120138   2.518   2.200   5.710 -0.6163 -1.6298 -2.4583
 2892SOL    HW220139   2.448   2.108   5.811  1.6548  0.6243  1.1036
 2893SOL     OW20140   2.324   3.725   3.263 -0.2611  0.0999 -0.7972
 2893SOL    HW120141   2.293   3.719   3.354  0.1202 -0.7054 -0.7237
 2893SOL    HW220142   2.271   3.795   3.226  1.3891  2.3598  1.1500
 2894SOL     OW20143   3.439   1.051   3.472  0.3254  0.3300 -0.2954
 2894SOL    HW120144   3.384   1.084   3.402  1.5910  1.2436 -0.8437
 2894SOL    HW220145   3.517   1.039   3.417  0.5855 -0.9102  0.3368
 2895SOL     OW20146   0.088   0.979   3.746 -0.3279 -0.3812 -0.2196
 2895SOL    HW120147   0.085   1.063   3.699 -2.3153  0.3665  1.2374
 2895SOL    HW220148   0.029   0.924   3.695  0.1832 -1.5278  0.4331
 2896SOL     OW20149   0.098   3.788   7.121 -0.4819 -0.2693  0.0386
 2896SOL    HW120150   0.172   3.771   7.178 -1.1324 -0.8605  0.7032
 2896SOL    HW220151   0.082   3.701   7.085 -0.3407 -0.5448  0.6397
 2897SOL     OW20152   3.223   1.705   4.302 -0.2186 -0.7872 -0.7609
 2897SOL    HW120153   3.291   1.649   4.263 -0.4055 -1.4906 -0.0741
 2897SOL    HW220154   3.157   1.642   4.328  2.1725 -3.2809 -0.6745
 2898SOL     OW20155   4.628   2.869  12.522  0.3308  0.6949 -0.4651
 2898SOL    HW120156   4.676   2.858  12.440 -1.1585 -1.1061 -1.0933
 2898SOL    HW220157   4.581   2.787  12.535  0.3662  0.8824  0.8664
 2899SOL     OW20158   2.816   3.573   6.506 -0.2045 -0.0201 -0.4020
 2899SOL    HW120159   2.842   3.547   6.594  0.3129  2.5863  0.2181
 2899SOL    HW220160   2.893   3.622   6.479 -2.7212  3.1157 -1.9212
 2900SOL     OW20161   2.771   2.562   0.349 -0.0799 -0.3385  0.0514
 2900SOL    HW120162   2.725   2.616   0.413  1.1857 -1.2749  1.7420
 2900SOL    HW220163   2.705   2.541   0.282  0.9091 -1.4949 -0.5814
 2901SOL     OW20164   1.142   3.493  17.224 -0.1530  0.4334 -0.1172
 2901SOL    HW120165   1.153   3.588  17.217 -3.0152  0.8418  0.7372
 2901SOL    HW220166   1.139   3.475  17.131 -1.2776  0.0763 -0.0096
 2902SOL     OW20167   3.364   2.135  12.574  0.3806  0.5283  0.3874
 2902SOL    HW120168   3.289   2.129  12.515 -0.0243 -1.1527  1.0787
 2902SOL    HW220169   3.346   2.061  12.632  1.3443  0.0866  0.1160
 2903SOL     OW20170   2.508   2.687   8.372 -0.3903  0.1461  0.1575
 2903SOL    HW120171   2.502   2.753   8.302 -1.3044  0.5111  0.5725
 2903SOL    HW220172   2.587   2.725   8.409 -0.5446 -0.3717  1.0136
 2904SOL     OW20173   1.554   2.823  11.872 -0.4822 -0.1729  0.0423
 2904SOL    HW120174   1.600   2.905  11.891  0.7002 -0.7063 -0.4886
 2904SOL    HW220175   1.613   2.749  11.888 -0.2345 -0.4608 -2.2068
 2905SOL     OW20176   4.162   2.185   4.123 -0.5267  0.2320 -0.0845
 2905SOL    HW120177   4.103   2.234   4.181 -0.6867 -2.1899  1.8235
 2905SOL    HW220178   4.239   2.241   4.111 -0.9547 -0.3109 -5.0691
 2906SOL     OW20179   3.397   3.621   5.148 -0.2256  0.2661  0.1651
 2906SOL    HW120180   3.431   3.669   5.223  0.4430  0.8524 -0.5060
 2906SOL    HW220181   3.421   3.677   5.074  1.2736  0.7568  1.0108
 2907SOL     OW20182   1.292   1.631  13.218 -0.1905 -0.2789  0.7381
 2907SOL    HW120183   1.384   1.627  13.246  0.0455 -0.7268 -0.1020
 2907SOL    HW220184   1.255   1.650  13.305  0.8393 -3.4180  1.8761
 2908SOL     OW20185   2.459   0.571   5.703  0.1238  0.3355 -0.0318
 2908SOL    HW120186   2.379   0.544   5.658 -1.7600  0.1090  3.4295
 2908SOL    HW220187   2.469   0.496   5.761  1.6965  2.0334  1.8902
 2909SOL     OW20188   2.638   2.533   1.746 -0.3872 -0.2118 -0.1593
 2909SOL    HW120189   2.701   2.480   1.796 -0.0371 -1.0286 -1.4496
 2909SOL    HW220190   2.685   2.558   1.667  0.0991  0.8928  0.4739
 2910SOL     OW20191   0.436   0.170  10.581 -0.0805 -0.2485 -0.0798
 2910SOL    HW120192   0.454   0.263  10.594  2.9545 -1.1133  1.8474
 2910SOL    HW220193   0.397   0.148  10.666  0.2278 -0.8282 -0.0902
 2911SOL     OW20194   2.637   1.700   9.848 -0.0392  0.5645  0.0467
 2911SOL    HW120195   2.724   1.703   9.808  0.5099 -1.2132  1.1400
 2911SOL    HW220196   2.603   1.787   9.828  1.0289  0.8702 -0.4527
 2912SOL     OW20197   4.648   0.161   0.178 -0.3683  0.1202 -0.1441
 2912SOL    HW120198   4.563   0.119   0.192 -0.2956 -0.5410 -1.7771
 2912SOL    HW220199   4.660   0.205   0.263  0.4083 -0.8576  0.2538
 2913SOL     OW20200   2.096   0.253   6.068 -0.2094  0.2560 -0.2255
 2913SOL    HW120201   2.044   0.208   6.001  1.8868 -1.4750 -0.6855
 2913SOL    HW220202   2.170   0.287   6.018 -0.6689 -1.0621 -1.8022
 2914SOL     OW20203   3.831   2.681  13.559 -0.8473  0.2303  0.3457
 2914SOL    HW120204   3.749   2.679  13.609 -1.0225  1.5113  0.1191
 2914SOL    HW220205   3.902   2.696  13.621 -1.5036 -1.0014  1.4048
 2915SOL     OW20206   2.677   0.842   0.542 -1.0001 -0.7117 -0.1969
 2915SOL    HW120207   2.688   0.789   0.463 -0.6271 -0.8458 -0.0556
 2915SOL    HW220208   2.594   0.806   0.572 -1.2105  0.8903  1.1600
 2916SOL     OW20209   2.595   3.338   7.547  0.3108  0.4015 -0.4628
 2916SOL    HW120210   2.628   3.300   7.466  1.4379  2.1805 -0.8373
 2916SOL    HW220211   2.643   3.421   7.545 -2.1678  1.9549  3.6420
 2917SOL     OW20212   0.172   0.727  11.778  0.8981  0.6448  0.1114
 2917SOL    HW120213   0.218   0.693  11.855  2.5297 -0.3498 -1.2763
 2917SOL    HW220214   0.108   0.657  11.767  1.5993 -0.1018  0.7634
 2918SOL     OW20215   1.366   1.528   9.188  0.4468  0.5156 -0.4555
 2918SOL    HW120216   1.346   1.437   9.165 -1.5112  1.0724 -0.9247
 2918SOL    HW220217   1.369   1.510   9.282 -3.0729  0.1212 -0.4106
 2919SOL     OW20218   0.435   4.677   2.740  0.0837 -0.3174 -0.2190
 2919SOL    HW120219   0.391   4.647   2.660 -3.3389 -1.6328  2.1239
 2919SOL    HW220220   0.455   4.593   2.782 -0.3265 -0.7311 -0.8467
 2920SOL     OW20221   2.306   0.335   4.618 -0.2183  0.2534 -0.1044
 2920SOL    HW120222   2.262   0.386   4.550 -0.0307 -1.1397 -1.2545
 2920SOL    HW220223   2.236   0.275   4.642 -1.2246  1.6337  0.4455
 2921SOL     OW20224   3.137   1.219  15.322  0.1067 -0.3172  0.2820
 2921SOL    HW120225   3.206   1.214  15.389 -0.7137  0.9804  1.2254
 2921SOL    HW220226   3.154   1.134  15.280  0.0659 -0.2348  0.1013
 2922SOL     OW20227   1.553   4.595   2.313  0.3957  0.2650 -0.2144
 2922SOL    HW120228   1.645   4.569   2.322 -0.3166 -1.4984  1.7862
 2922SOL    HW220229   1.516   4.576   2.399 -2.4163  2.1948 -0.9731
 2923SOL     OW20230   4.426   1.571   5.750  0.3706 -0.0432 -0.0760
 2923SOL    HW120231   4.490   1.548   5.683  0.0688  1.7134 -0.9723
 2923SOL    HW220232   4.356   1.510   5.727  1.6103 -1.2053 -0.7960
 2924SOL     OW20233   3.404   2.528   4.012 -0.0133  0.5153  0.0322
 2924SOL    HW120234   3.363   2.613   3.998 -0.9960  0.1267  0.5312
 2924SOL    HW220235   3.343   2.462   3.978  1.4879 -1.9604  2.1083
 2925SOL     OW20236   4.195   4.063  14.556  0.2229  0.2597 -0.3349
 2925SOL    HW120237   4.148   4.076  14.474 -0.2353 -0.0225 -0.1173
 2925SOL    HW220238   4.175   4.143  14.604 -0.1602  0.5348 -0.9497
 2926SOL     OW20239   0.446   3.170   2.440 -0.0577 -0.1698 -0.1200
 2926SOL    HW120240   0.358   3.164   2.479 -0.3258  1.0366 -0.5352
 2926SOL    HW220241   0.472   3.242   2.497 -0.5945 -1.5132  1.8484
 2927SOL     OW20242   3.010   2.846   8.085 -0.5896 -0.0827  0.1503
 2927SOL    HW120243   2.951   2.829   8.159  0.5369 -1.7733  0.6408
 2927SOL    HW220244   3.091   2.878   8.125 -0.6065  0.5925 -0.3615
 2928SOL     OW20245   2.360   0.043   6.262 -0.6627  0.2788  0.2432
 2928SOL    HW120246   2.325   4.684   6.232  0.3364 -0.1200  0.1893
 2928SOL    HW220247   2.349   0.085   6.176  0.6562  0.2160  0.0526
 2929SOL     OW20248   2.694   0.900  17.579 -0.2933 -0.8324 -0.2592
 2929SOL    HW120249   2.731   0.944  17.503  0.5051 -0.4411  0.3529
 2929SOL    HW220250   2.720   0.956  17.652  0.4871 -1.3082 -0.1730
 2930SOL     OW20251   1.230   0.502   8.998  0.2790 -0.0973 -0.3777
 2930SOL    HW120252   1.142   0.535   8.978  1.6303  2.2187 -2.5093
 2930SOL    HW220253   1.215   0.450   9.076  1.0275 -0.4957 -0.4951
 2931SOL     OW20254   3.414   3.924   8.802  0.4454  0.3842  0.0607
 2931SOL    HW120255   3.500   3.903   8.765  0.0557  0.0324 -0.6299
 2931SOL    HW220256   3.358   3.908   8.727 -0.4389  0.5000  0.6929
 2932SOL     OW20257   0.773   3.555  15.368  0.5010 -0.5480  0.0340
 2932SOL    HW120258   0.769   3.459  15.370 -0.4886 -0.5068 -0.0063
 2932SOL    HW220259   0.853   3.572  15.417  0.9116 -0.7984 -0.5493
 2933SOL     OW20260   0.798   1.853   6.955 -0.1370 -0.2133  0.7305
 2933SOL    HW120261   0.855   1.779   6.935 -1.6138 -0.3236 -3.0595
 2933SOL    HW220262   0.849   1.922   6.914 -2.3899  0.2981 -1.1914
 2934SOL     OW20263   2.754   3.823   4.872 -0.2362 -0.4620  0.3811
 2934SOL    HW120264   2.822   3.854   4.932  0.0886 -0.4439  0.0028
 2934SOL    HW220265   2.714   3.750   4.921 -0.1781 -1.8981 -1.7117
 2935SOL     OW20266   0.091   2.249   5.381 -0.0783 -0.2053  0.2359
 2935SOL    HW120267   0.141   2.185   5.431 -0.2301 -0.8144 -0.3990
 2935SOL    HW220268   0.153   2.273   5.312 -2.4063 -1.6399 -2.3706
 2936SOL     OW20269   3.752   2.970   7.170  0.3924 -0.0710  0.1735
 2936SOL    HW120270   3.675   2.981   7.115  0.0566 -0.7659  0.5039
 2936SOL    HW220271   3.822   2.963   7.105 -1.1872 -3.0373 -1.1684
 2937SOL     OW20272   2.345   4.222   4.018 -0.0805  0.5585 -0.1624
 2937SOL    HW120273   2.286   4.284   3.975  0.3738 -1.1737 -3.2881
 2937SOL    HW220274   2.270   4.174   4.050  0.0362 -0.9031 -2.0813
 2938SOL     OW20275   1.485   0.851   0.492 -0.1336  0.3176  0.3895
 2938SOL    HW120276   1.566   0.872   0.445 -0.1209 -2.3415 -0.8122
 2938SOL    HW220277   1.515   0.774   0.542  2.4965  0.3054 -1.2093
 2939SOL     OW20278   2.132   2.397   7.960  0.6908  0.7036  0.1103
 2939SOL    HW120279   2.160   2.436   8.043  1.8115 -0.2034  0.1702
 2939SOL    HW220280   2.063   2.347   8.003  1.8014  1.4778  2.7534
 2940SOL     OW20281   0.582   3.146   8.466  0.1604  0.0643  0.0137
 2940SOL    HW120282   0.540   3.148   8.380 -1.2848 -1.3908  0.6986
 2940SOL    HW220283   0.584   3.238   8.494  0.7236  0.1169 -0.1960
 2941SOL     OW20284   2.386   3.501   2.906  0.0365 -0.0938 -0.1947
 2941SOL    HW120285   2.435   3.492   2.825  0.0967  1.8244 -0.3729
 2941SOL    HW220286   2.329   3.424   2.903 -0.2717 -0.0875  4.5323
 2942SOL     OW20287   0.875   1.842   8.839  0.6840 -0.1163  0.3879
 2942SOL    HW120288   0.950   1.792   8.872  0.4636 -0.0366  1.0009
 2942SOL    HW220289   0.879   1.918   8.897 -2.4459  2.0526 -2.2018
 2943SOL     OW20290   1.553   1.918   0.871  0.2750 -0.1098  0.4229
 2943SOL    HW120291   1.622   1.900   0.806 -0.6891 -0.9570 -0.3793
 2943SOL    HW220292   1.584   2.004   0.900  0.7443 -0.5208  1.1414
 2944SOL     OW20293   0.760   1.503   7.525 -0.0974  0.4796 -0.6795
 2944SOL    HW120294   0.789   1.515   7.616 -1.9774 -1.0020  0.1087
 2944SOL    HW220295   0.680   1.556   7.531  0.0891  0.6009  0.9209
 2945SOL     OW20296   3.022   0.102   6.622  0.1858  0.6787  0.3706
 2945SOL    HW120297   2.980   0.024   6.586  1.2634  0.0315  0.4954
 2945SOL    HW220298   2.959   0.154   6.671 -0.2943  0.3080  0.1397
 2946SOL     OW20299   2.970   4.303   4.194 -0.1993  0.7168  0.0014
 2946SOL    HW120300   3.060   4.327   4.219 -0.1813  0.7662 -0.1081
 2946SOL    HW220301   2.919   4.309   4.275 -0.0249 -1.4683  0.2717
 2947SOL     OW20302   3.116   4.525  12.456 -0.8606 -0.0104 -0.0212
 2947SOL    HW120303   3.102   4.585  12.530  0.0574  1.2176 -0.8365
 2947SOL    HW220304   3.142   4.596  12.397  1.1812  0.3234  1.2332
 2948SOL     OW20305   4.702   1.367   7.535  0.2773  0.1135 -0.1362
 2948SOL    HW120306   4.676   1.399   7.622  1.4573 -2.2014  1.0464
 2948SOL    HW220307   4.623   1.317   7.516  0.1476 -0.9466  3.1287
 2949SOL     OW20308   3.434   1.471  14.082  0.3157 -0.2436 -0.1053
 2949SOL    HW120309   3.467   1.513  14.162  1.0045  0.5288 -0.7837
 2949SOL    HW220310   3.379   1.544  14.051 -0.5790 -1.2520 -0.8725
 2950SOL     OW20311   0.827   1.720   7.929 -0.2624 -0.1901  0.5231
 2950SOL    HW120312   0.873   1.641   7.901 -1.7736 -0.0468 -2.3419
 2950SOL    HW220313   0.880   1.791   7.892  1.2094 -1.1736  0.7163
 2951SOL     OW20314   3.959   2.934   3.305 -0.2911 -0.4036  0.0715
 2951SOL    HW120315   3.891   2.939   3.372 -2.7097 -2.3031 -2.2643
 2951SOL    HW220316   4.002   3.019   3.319  1.1106 -1.1022  0.0846
 2952SOL     OW20317   2.521   4.582   9.840 -0.5959  0.3332 -0.1246
 2952SOL    HW120318   2.567   4.610   9.760  1.0381 -1.0506  0.3375
 2952SOL    HW220319   2.473   4.504   9.813 -0.2674  0.1082 -0.0473
 2953SOL     OW20320   0.947   4.555   8.919  0.4976 -0.0755 -0.1128
 2953SOL    HW120321   0.902   4.473   8.940  0.8588 -0.2839 -0.1535
 2953SOL    HW220322   1.018   4.531   8.859 -0.4417  0.5555 -1.4654
 2954SOL     OW20323   3.913   4.182  14.111 -0.4799 -0.4875 -0.9523
 2954SOL    HW120324   3.936   4.110  14.052 -1.7515 -0.0405 -1.9970
 2954SOL    HW220325   3.902   4.246  14.041  0.9229  0.7333 -0.0515
 2955SOL     OW20326   0.450   2.579   2.956 -0.3782 -0.2369  0.4106
 2955SOL    HW120327   0.364   2.606   2.924 -0.7025 -1.8951 -0.1168
 2955SOL    HW220328   0.504   2.653   2.929 -1.8998  0.6647 -0.1685
 2956SOL     OW20329   2.609   3.697   3.977  0.2828 -0.1193 -0.1435
 2956SOL    HW120330   2.697   3.676   4.006  0.4057  1.9704  0.9840
 2956SOL    HW220331   2.636   3.714   3.887 -0.4537 -0.1430 -0.3695
 2957SOL     OW20332   2.361   2.160  11.088 -0.3549  0.8631 -0.8323
 2957SOL    HW120333   2.386   2.081  11.040  0.3009  1.1353 -0.9298
 2957SOL    HW220334   2.379   2.223  11.019  1.5065  1.1897 -0.0544
 2958SOL     OW20335   1.526   3.238   6.001 -0.0221  0.0715  0.3026
 2958SOL    HW120336   1.469   3.172   5.961 -0.1553  0.9498 -0.9590
 2958SOL    HW220337   1.559   3.285   5.924  2.4667 -0.9238  0.7510
 2959SOL     OW20338   4.697   2.076   5.736 -0.0374  0.0761  0.3998
 2959SOL    HW120339   0.038   2.106   5.674 -0.0420  1.7358  1.1863
 2959SOL    HW220340   4.672   2.159   5.777 -4.9640 -1.8058  1.2537
 2960SOL     OW20341   1.896   4.001  16.231  0.2428  0.5885  0.4338
 2960SOL    HW120342   1.924   4.092  16.220 -0.4191  0.7372  0.0135
 2960SOL    HW220343   1.926   3.971  16.146  0.5840  0.5407  0.5715
 2961SOL     OW20344   1.534   0.918   8.634 -0.2134 -0.3794 -0.4000
 2961SOL    HW120345   1.617   0.964   8.618 -0.2767 -0.6366 -1.4293
 2961SOL    HW220346   1.505   0.903   8.544  0.5317 -0.7266 -0.5804
 2962SOL     OW20347   3.534   4.257   8.053  0.1802  0.7947 -0.6081
 2962SOL    HW120348   3.552   4.325   7.987  1.3386  0.1985 -0.9072
 2962SOL    HW220349   3.593   4.189   8.020  0.3935  0.9511 -0.5531
 2963SOL     OW20350   1.810   1.914   1.523  0.7536 -0.5338  0.5407
 2963SOL    HW120351   1.786   1.868   1.603  2.8657 -2.6680 -0.0131
 2963SOL    HW220352   1.852   1.996   1.546 -0.4427 -0.6969  3.1905
 2964SOL     OW20353   2.063   3.785   8.019 -0.0282  0.2936 -1.2147
 2964SOL    HW120354   2.129   3.851   8.001 -1.4646  1.6812 -1.3711
 2964SOL    HW220355   2.115   3.715   7.978 -0.5864 -0.2858 -0.9402
 2965SOL     OW20356   2.412   1.401   1.272  0.5873  0.2776 -0.5706
 2965SOL    HW120357   2.346   1.331   1.274  2.6970 -1.6754  0.1278
 2965SOL    HW220358   2.484   1.356   1.317  0.1984  1.3003  1.0939
 2966SOL     OW20359   2.230   0.883   7.051 -0.0998  0.2348 -0.0514
 2966SOL    HW120360   2.231   0.971   7.089  0.4768  0.1011  0.2502
 2966SOL    HW220361   2.192   0.823   7.115  0.4480  1.1324  1.1306
 2967SOL     OW20362   2.923   1.747  14.131  0.2443 -0.0871  0.3955
 2967SOL    HW120363   3.017   1.741  14.145  0.3452  1.4163  0.3499
 2967SOL    HW220364   2.917   1.743  14.036 -0.7039 -1.4639  0.5121
 2968SOL     OW20365   2.854   0.129  12.641  0.3269  0.2801  0.3884
 2968SOL    HW120366   2.827   0.199  12.700 -1.0351 -0.5200  0.7277
 2968SOL    HW220367   2.866   0.186  12.565 -0.5158 -2.1862 -1.5954
 2969SOL     OW20368   2.968   1.438  17.474  0.1074 -0.1068 -0.1888
 2969SOL    HW120369   2.965   1.465  17.566  0.0229  0.1600 -0.2688
 2969SOL    HW220370   3.063   1.426  17.469  0.4571  1.4240  2.6993
 2970SOL     OW20371   2.956   1.559   8.296  0.1890 -0.3492  0.4932
 2970SOL    HW120372   3.008   1.529   8.222 -0.8885 -0.8067 -0.0720
 2970SOL    HW220373   2.919   1.474   8.318 -1.9052 -0.0389 -1.9343
 2971SOL     OW20374   4.459   0.803   2.663 -0.0029  0.1779  0.0333
 2971SOL    HW120375   4.375   0.828   2.624 -0.2109  1.2006  1.1472
 2971SOL    HW220376   4.527   0.827   2.601 -0.3786 -1.2580 -0.9417
 2972SOL     OW20377   2.891   0.134   3.703  0.6012 -0.2906 -0.5768
 2972SOL    HW120378   2.860   0.044   3.704 -2.9727  0.9692 -0.0058
 2972SOL    HW220379   2.940   0.150   3.622 -0.0902  0.4923 -0.8424
 2973SOL     OW20380   1.500   1.300   0.955 -0.1242  0.3183  0.5390
 2973SOL    HW120381   1.452   1.261   0.883  0.3048  0.9513 -0.0957
 2973SOL    HW220382   1.557   1.356   0.902  0.1356  0.1719  0.6605
 2974SOL     OW20383   4.391   3.865   3.462 -0.6077 -0.3066 -0.1446
 2974SOL    HW120384   4.371   3.780   3.425  1.4178 -1.0405  0.4222
 2974SOL    HW220385   4.465   3.847   3.521 -0.7618  2.7071  0.9900
 2975SOL     OW20386   0.179   0.067  16.863  0.4270 -0.0131  0.6910
 2975SOL    HW120387   0.201   0.037  16.951  1.0073  0.1642  0.6034
 2975SOL    HW220388   0.159   0.159  16.874 -1.2216 -0.1050 -1.4606
 2976SOL     OW20389   3.904   3.540   5.991  0.4146 -0.6800 -0.3155
 2976SOL    HW120390   3.912   3.633   5.972  1.0814 -0.8040 -0.6450
 2976SOL    HW220391   3.814   3.526   5.960 -0.9634 -0.7307  3.7149
 2977SOL     OW20392   1.894   3.811   3.287 -0.7419  0.0133  0.3647
 2977SOL    HW120393   1.806   3.847   3.298 -1.1132 -0.0968 -2.0865
 2977SOL    HW220394   1.890   3.811   3.191  0.5238  0.1187  0.3103
 2978SOL     OW20395   1.989   3.057   4.397 -0.6274  0.1162  0.3321
 2978SOL    HW120396   1.965   3.008   4.475  0.7132 -1.2558 -0.1299
 2978SOL    HW220397   2.084   3.049   4.404 -0.6317 -0.2465 -0.0233
 2979SOL     OW20398   3.074   0.353   1.499  0.3486  0.2066  0.9551
 2979SOL    HW120399   2.982   0.369   1.477  0.7939  0.7636 -0.4904
 2979SOL    HW220400   3.070   0.269   1.546 -1.7020 -0.0221  0.3653
 2980SOL     OW20401   1.097   4.056  17.388 -0.2254  0.2217  0.3617
 2980SOL    HW120402   1.183   4.099  17.392 -1.1531  1.9454  1.9287
 2980SOL    HW220403   1.032   4.127  17.381  0.8664  1.0599 -1.3630
 2981SOL     OW20404   4.394   1.914   8.619  0.0224 -0.6198  0.3843
 2981SOL    HW120405   4.347   1.970   8.682 -0.9324 -0.0137 -0.8780
 2981SOL    HW220406   4.482   1.909   8.657  0.6117  2.0502 -0.6089
 2982SOL     OW20407   0.910   3.949   3.448  0.1349 -0.2170 -0.1267
 2982SOL    HW120408   0.866   3.869   3.420 -0.7656 -0.2771  1.4748
 2982SOL    HW220409   0.932   3.933   3.540 -0.4989 -0.7324 -0.0703
 2983SOL     OW20410   4.219   1.635   3.894  0.4549 -0.3157 -0.4294
 2983SOL    HW120411   4.210   1.540   3.905  2.0057 -0.4406 -0.1788
 2983SOL    HW220412   4.285   1.655   3.960 -0.2861 -0.0927  0.2440
 2984SOL     OW20413   4.474   0.368  15.599 -0.0545  0.5567 -0.2472
 2984SOL    HW120414   4.472   0.295  15.660 -0.6433  0.5491 -0.2731
 2984SOL    HW220415   4.546   0.421  15.634 -0.4883  1.2355 -0.3717
 2985SOL     OW20416   1.401   2.068   4.579  0.0634 -0.2846  0.6253
 2985SOL    HW120417   1.398   1.974   4.564  1.1976 -0.3734  0.9263
 2985SOL    HW220418   1.477   2.090   4.524  0.0887  3.4143  2.1043
 2986SOL     OW20419   2.114   4.657   2.357 -0.1228 -0.9315  0.9987
 2986SOL    HW120420   2.072   4.639   2.441 -0.0363 -1.5530  0.9124
 2986SOL    HW220421   2.135   4.567   2.331 -1.6383 -0.9890 -0.0088
 2987SOL     OW20422   3.335   4.496  14.333 -0.0035  0.2860  0.0146
 2987SOL    HW120423   3.349   4.558  14.261 -0.3013  1.6779  1.1779
 2987SOL    HW220424   3.373   4.546  14.405 -1.1765  0.4008  0.5524
 2988SOL     OW20425   3.711   3.529   6.481 -0.5547  0.1807  0.4010
 2988SOL    HW120426   3.675   3.536   6.393 -0.6204  2.4507  0.6213
 2988SOL    HW220427   3.685   3.439   6.499  1.0322 -0.0541  1.5213
 2989SOL     OW20428   2.790   1.961  10.027 -0.1752  0.6329  0.0778
 2989SOL    HW120429   2.737   2.016   9.970 -1.3443  0.5956  1.1444
 2989SOL    HW220430   2.756   1.994  10.109  0.0579  1.5438 -0.1883
 2990SOL     OW20431   0.200   3.123   6.040  0.7449 -0.2790  0.2487
 2990SOL    HW120432   0.281   3.159   6.003  1.7035 -0.2847  2.3592
 2990SOL    HW220433   0.232   3.050   6.093  0.6774 -1.7791 -1.7305
 2991SOL     OW20434   4.093   0.245  12.577 -0.1184  0.2142  0.4284
 2991SOL    HW120435   4.101   0.333  12.541 -0.2845  0.4159  0.8776
 2991SOL    HW220436   4.177   0.234  12.622  0.7493  2.5822 -0.6301
 2992SOL     OW20437   1.973   1.008   3.894  0.7384  0.2784  0.4632
 2992SOL    HW120438   1.965   1.095   3.933 -3.9858 -0.3753  0.8920
 2992SOL    HW220439   2.003   1.030   3.805  1.3148  0.4056  0.6911
 2993SOL     OW20440   1.317   1.782   0.750 -0.5280 -0.7445  0.4854
 2993SOL    HW120441   1.358   1.761   0.666 -1.9298  0.9603 -0.6267
 2993SOL    HW220442   1.231   1.740   0.740 -0.3074 -0.4797 -2.6367
 2994SOL     OW20443   3.651   3.068   5.487 -0.3367 -0.2380  0.2203
 2994SOL    HW120444   3.746   3.078   5.484 -0.4481  0.4889 -0.9954
 2994SOL    HW220445   3.630   3.106   5.402 -1.2423 -0.1320  0.4900
 2995SOL     OW20446   2.988   0.577   7.391  0.3369  0.5902  0.0396
 2995SOL    HW120447   2.991   0.639   7.463 -0.6091  1.1535 -0.3996
 2995SOL    HW220448   3.049   0.512   7.425  0.7608  0.7541 -0.4062
 2996SOL     OW20449   1.523   4.668   2.683  0.0659 -0.0830 -0.0434
 2996SOL    HW120450   1.555   4.590   2.638  0.6607 -1.4368  2.7405
 2996SOL    HW220451   1.436   4.677   2.644  0.2116  0.3178 -0.2762
 2997SOL     OW20452   1.685   2.692  14.307  0.2194 -0.7302  0.1487
 2997SOL    HW120453   1.605   2.743  14.315  0.5375 -0.3805  1.1561
 2997SOL    HW220454   1.714   2.704  14.397  1.8905  2.2864 -0.8011
 2998SOL     OW20455   0.012   1.635   4.911  0.2388  0.1754 -0.0191
 2998SOL    HW120456   0.096   1.680   4.918 -0.4225  1.4863 -0.4934
 2998SOL    HW220457   0.038   1.546   4.887 -1.8470 -0.8931  1.6597
 2999SOL     OW20458   4.483   4.707   2.580 -0.5009  0.4152  0.6297
 2999SOL    HW120459   4.403   4.655   2.568  0.4629 -0.9771  0.3236
 2999SOL    HW220460   4.461   0.054   2.521 -0.5888  0.4224  0.6707
 3000SOL     OW20461   4.341   2.144  10.814  0.2480 -0.2767  0.2180
 3000SOL    HW120462   4.378   2.090  10.884 -0.0780 -0.9828 -0.1535
 3000SOL    HW220463   4.401   2.136  10.739 -0.9310  0.3867 -0.7999
 3001SOL     OW20464   3.623   2.654  11.328 -0.1138 -0.4514 -0.0365
 3001SOL    HW120465   3.552   2.635  11.267 -0.7605  0.2358  0.4957
 3001SOL    HW220466   3.630   2.571  11.375 -4.0069 -0.1797  1.0784
 3002SOL     OW20467   2.088   0.068   5.150 -0.0430 -0.6308  0.1637
 3002SOL    HW120468   2.000   0.051   5.184 -0.6523  0.4088 -0.9051
 3002SOL    HW220469   2.072   0.135   5.084  1.5559 -0.6824 -0.2492
 3003SOL     OW20470   3.048   1.936   3.515 -0.4312 -0.3876 -0.1141
 3003SOL    HW120471   3.120   1.996   3.534  0.6443 -2.1448  1.2605
 3003SOL    HW220472   3.102   1.866   3.478 -1.0245 -1.0599  0.2930
 3004SOL     OW20473   3.564   2.463   0.387  0.5908 -0.2803  0.0996
 3004SOL    HW120474   3.516   2.380   0.390 -2.7762  1.6924 -0.0235
 3004SOL    HW220475   3.518   2.510   0.318 -0.0050  0.3920  0.9506
 3005SOL     OW20476   1.931   4.236   0.479 -0.4940  0.2772  0.3630
 3005SOL    HW120477   1.928   4.240   0.383 -1.4057 -0.5626  0.3486
 3005SOL    HW220478   2.025   4.250   0.488 -0.7937  1.2124  1.9487
 3006SOL     OW20479   4.381   1.850   8.358 -0.4238 -0.8065  0.3984
 3006SOL    HW120480   4.352   1.889   8.441 -0.5350 -2.6558  1.2276
 3006SOL    HW220481   4.461   1.801   8.378 -0.5359 -0.4645  1.6865
 3007SOL     OW20482   2.938   2.662  12.520 -0.1255  0.3015 -0.6076
 3007SOL    HW120483   2.934   2.645  12.425 -2.4014 -1.0601 -0.2759
 3007SOL    HW220484   2.858   2.711  12.540 -0.6996 -1.6131  1.8094
 3008SOL     OW20485   2.245   2.350   4.190  0.2049  0.3979 -0.5085
 3008SOL    HW120486   2.217   2.331   4.280 -1.0606 -0.9055 -1.1828
 3008SOL    HW220487   2.337   2.327   4.204  0.3640  0.8541 -0.8226
 3009SOL     OW20488   1.624   4.428   6.101 -0.2745  0.2873 -0.5571
 3009SOL    HW120489   1.625   4.446   6.195  0.0681 -0.0582 -0.4986
 3009SOL    HW220490   1.653   4.337   6.094 -2.5912 -0.5118  0.1539
 3010SOL     OW20491   2.867   0.244   6.866 -0.2415 -0.1584 -0.5556
 3010SOL    HW120492   2.828   0.165   6.903 -1.1808  1.1836  1.2777
 3010SOL    HW220493   2.789   0.300   6.868 -0.5940 -0.7633  1.5395
 3011SOL     OW20494   2.130   2.460   7.356  0.2272  0.2602  0.2921
 3011SOL    HW120495   2.056   2.502   7.399 -0.3941 -0.3945 -0.1358
 3011SOL    HW220496   2.078   2.396   7.307  1.1932  0.8640 -1.5227
 3012SOL     OW20497   1.175   3.973   7.711 -0.0262 -0.2694 -0.6868
 3012SOL    HW120498   1.115   4.009   7.777 -0.5690 -0.3501 -1.1351
 3012SOL    HW220499   1.119   3.951   7.637 -0.5149  0.8054 -0.6419
 3013SOL     OW20500   1.685   4.572   3.840 -0.1000 -0.0597 -0.2752
 3013SOL    HW120501   1.625   4.600   3.771  0.9179  0.5432 -0.9214
 3013SOL    HW220502   1.770   4.604   3.810  0.8146 -0.3954  1.9248
 3014SOL     OW20503   3.234   3.816   4.467 -0.0070 -0.2366 -0.3568
 3014SOL    HW120504   3.174   3.815   4.393 -1.3974  1.7533  0.7497
 3014SOL    HW220505   3.271   3.904   4.477  1.5784 -0.9132 -0.2365
 3015SOL     OW20506   2.874   3.575  12.190 -0.0461  0.3039  0.3572
 3015SOL    HW120507   2.860   3.537  12.103 -1.0338  1.2194  0.1151
 3015SOL    HW220508   2.968   3.588  12.187  0.0657 -0.5558  0.0966
 3016SOL     OW20509   0.533   3.084   4.269 -0.3769  0.3598  0.0746
 3016SOL    HW120510   0.513   3.041   4.352 -0.2785  0.4062  0.1219
 3016SOL    HW220511   0.614   3.037   4.248 -0.5830  0.7648 -1.6253
 3017SOL     OW20512   1.696   3.180   7.095 -0.3547 -0.4060  0.1588
 3017SOL    HW120513   1.609   3.149   7.070  0.4535 -1.8014 -0.9646
 3017SOL    HW220514   1.670   3.261   7.139  0.5002  0.2025 -0.4519
 3018SOL     OW20515   1.462   4.195  17.060 -0.1969 -0.0386  0.1128
 3018SOL    HW120516   1.527   4.136  17.022  0.6874  1.7881 -1.2020
 3018SOL    HW220517   1.400   4.187  16.988 -0.3930 -1.3923  0.4283
 3019SOL     OW20518   3.071   3.029  14.696  0.6272  0.5367 -0.3911
 3019SOL    HW120519   3.158   2.989  14.696 -0.2993 -1.4889  0.7013
 3019SOL    HW220520   3.093   3.110  14.651 -2.3270  0.1406 -2.5916
 3020SOL     OW20521   3.903   2.533  12.011  0.2030  0.2605  0.4189
 3020SOL    HW120522   3.882   2.530  11.918  2.7000  1.9486 -0.2184
 3020SOL    HW220523   3.916   2.626  12.029  2.2902 -0.0448  0.6093
 3021SOL     OW20524   2.321   0.961   3.737  0.1017  0.3691  0.3144
 3021SOL    HW120525   2.410   0.989   3.718  0.2068  0.4792  0.9731
 3021SOL    HW220526   2.332   0.868   3.718  0.5777 -0.1353  2.9728
 3022SOL     OW20527   2.474   3.289   3.653 -0.1689  0.0546 -0.1884
 3022SOL    HW120528   2.458   3.371   3.607 -0.8400 -0.4528 -0.8828
 3022SOL    HW220529   2.430   3.321   3.732  0.4652  1.0612 -0.2549
 3023SOL     OW20530   2.683   2.679   5.281  0.4279  0.3483 -0.1373
 3023SOL    HW120531   2.684   2.770   5.249  1.0511 -0.3014 -1.9620
 3023SOL    HW220532   2.732   2.627   5.217  0.3571  0.9346 -0.6720
 3024SOL     OW20533   2.455   3.553   1.080  0.1391 -0.8680 -0.3969
 3024SOL    HW120534   2.411   3.471   1.059 -1.4956  0.1335 -0.9085
 3024SOL    HW220535   2.523   3.539   1.014  0.0594  0.8994 -0.8586
 3025SOL     OW20536   3.649   4.080   8.438 -0.0116  0.2846 -0.3709
 3025SOL    HW120537   3.590   4.147   8.402 -0.7540 -1.0826 -1.7013
 3025SOL    HW220538   3.677   4.044   8.354  0.7224 -0.3474  0.1480
 3026SOL     OW20539   3.446   2.066   3.705 -0.1785  0.7873  0.0644
 3026SOL    HW120540   3.505   2.131   3.745 -1.7937  1.1636  1.8378
 3026SOL    HW220541   3.509   2.045   3.636 -1.0676 -1.2843 -0.0998
 3027SOL     OW20542   1.258   4.085   4.336 -0.2394 -0.1204  0.3487
 3027SOL    HW120543   1.336   4.139   4.349  0.3677 -0.7983 -0.4467
 3027SOL    HW220544   1.203   4.141   4.280 -1.3487 -1.1413  0.4201
 3028SOL     OW20545   0.683   3.242   1.516  0.2511  0.5394 -0.3175
 3028SOL    HW120546   0.675   3.319   1.460 -1.0421 -0.9592 -2.2027
 3028SOL    HW220547   0.699   3.284   1.601 -0.8938  0.4480 -0.0582
 3029SOL     OW20548   1.916   2.495   6.141 -0.1609 -0.1921 -0.2126
 3029SOL    HW120549   1.849   2.562   6.127  0.6287  0.5517 -0.4634
 3029SOL    HW220550   1.980   2.524   6.075 -1.2112  0.1862 -1.0747
 3030SOL     OW20551   3.144   1.362   7.802  0.3050 -0.1668 -0.9120
 3030SOL    HW120552   3.238   1.377   7.803  0.5538 -1.6996  0.0078
 3030SOL    HW220553   3.101   1.435   7.758 -0.3175 -0.0788 -0.1676
 3031SOL     OW20554   4.208   1.356   3.896  0.3394 -0.1103 -0.2974
 3031SOL    HW120555   4.176   1.334   3.983  1.3910 -1.0640 -0.1477
 3031SOL    HW220556   4.301   1.338   3.915 -0.0230 -2.0838 -0.4010
 3032SOL     OW20557   2.956   2.533   8.316 -0.4618 -0.1445 -0.0365
 3032SOL    HW120558   3.044   2.496   8.316 -0.2418  0.3276  3.0361
 3032SOL    HW220559   2.966   2.627   8.303 -0.4103 -0.1991 -0.3821
 3033SOL     OW20560   3.698   3.708  14.947  0.0004  0.1357 -0.5875
 3033SOL    HW120561   3.746   3.779  14.904  1.1126 -0.0299  0.3508
 3033SOL    HW220562   3.644   3.765  15.001  2.1975  0.2078  1.5528
 3034SOL     OW20563   0.257   2.512   1.179  0.5031  0.1166  0.0402
 3034SOL    HW120564   0.312   2.434   1.188 -0.9230 -0.9547 -0.3878
 3034SOL    HW220565   0.222   2.483   1.094  0.7414 -0.8480  0.2655
 3035SOL     OW20566   4.377   4.036   8.471  0.2811 -0.2558 -0.4410
 3035SOL    HW120567   4.334   3.989   8.542  1.3781  0.5743  0.7820
 3035SOL    HW220568   4.438   4.098   8.512 -1.9695  2.2836 -0.9056
 3036SOL     OW20569   1.185   3.793   0.029  0.6141  0.3509  0.3012
 3036SOL    HW120570   1.271   3.813   0.065  1.5581  1.0634 -2.3385
 3036SOL    HW220571   1.172   3.704   0.062  1.0509 -0.1662 -0.9044
 3037SOL     OW20572   0.649   0.350   4.938 -0.3619  0.2820  0.5039
 3037SOL    HW120573   0.656   0.302   5.021  0.7511  0.3071  0.4248
 3037SOL    HW220574   0.561   0.329   4.907 -0.8080 -0.0120  1.9792
 3038SOL     OW20575   2.601   0.582   9.630 -0.1159 -0.0041  0.2947
 3038SOL    HW120576   2.604   0.501   9.580 -0.9080 -0.3416  0.7849
 3038SOL    HW220577   2.533   0.562   9.694  0.6350  0.1938  1.1508
 3039SOL     OW20578   1.882   1.265   6.874 -0.7103 -0.4811  0.6034
 3039SOL    HW120579   1.974   1.269   6.848 -1.3119 -1.2248 -1.6336
 3039SOL    HW220580   1.837   1.333   6.822 -0.3803  0.3509  1.4012
 3040SOL     OW20581   1.408   0.934   2.409 -0.9346  0.2634  0.0257
 3040SOL    HW120582   1.337   0.929   2.472 -1.3556  1.1643 -0.3788
 3040SOL    HW220583   1.356   0.928   2.329  0.4098  1.0772 -0.9261
 3041SOL     OW20584   0.913   4.550  14.841 -0.3681 -0.4977 -0.1885
 3041SOL    HW120585   0.920   4.483  14.773 -0.6354 -0.6174 -0.0951
 3041SOL    HW220586   1.004   4.562  14.868 -0.6187  0.2118  0.3304
 3042SOL     OW20587   3.738   0.915   4.324 -0.5507 -0.6935 -0.3912
 3042SOL    HW120588   3.676   0.954   4.263  1.8611  0.8830 -1.8478
 3042SOL    HW220589   3.741   0.982   4.393  2.0559 -1.9492  0.7225
 3043SOL     OW20590   0.168   3.500   2.210 -0.0774  0.3912 -0.6288
 3043SOL    HW120591   0.263   3.489   2.201  0.2027  0.7231  1.8159
 3043SOL    HW220592   0.138   3.416   2.176 -1.0443  1.2106 -1.7715
 3044SOL     OW20593   0.324   2.618   3.349  0.4749  0.0786 -0.0765
 3044SOL    HW120594   0.262   2.607   3.277  0.7261 -1.0450 -0.1253
 3044SOL    HW220595   0.403   2.635   3.298  1.0996  0.3447  0.9984
 3045SOL     OW20596   3.630   2.076   2.325  0.3447  0.4128 -0.1354
 3045SOL    HW120597   3.645   2.079   2.230  0.2450 -0.7852 -0.1972
 3045SOL    HW220598   3.721   2.089   2.351 -0.0151 -0.1990  1.4263
 3046SOL     OW20599   1.936   3.971  15.611 -0.2923 -0.5642 -0.0120
 3046SOL    HW120600   1.882   3.893  15.627  0.9963 -1.7407 -1.5157
 3046SOL    HW220601   1.903   4.023  15.685  1.6540  0.2087  0.3067
 3047SOL     OW20602   2.280   3.618   0.520  0.7280 -0.0812 -0.2610
 3047SOL    HW120603   2.185   3.605   0.520  0.9713 -1.9089  0.9414
 3047SOL    HW220604   2.291   3.645   0.611  1.3810 -2.0419  0.2357
 3048SOL     OW20605   2.247   0.038  12.673  0.0116  0.1459 -0.5165
 3048SOL    HW120606   2.177   0.103  12.665 -0.3876 -0.0385  1.4174
 3048SOL    HW220607   2.319   0.093  12.704 -1.2216  1.8491 -0.6472
 3049SOL     OW20608   2.602   0.753  14.688  0.5232 -0.2492  0.0744
 3049SOL    HW120609   2.578   0.673  14.734  1.7791  0.3371  1.7156
 3049SOL    HW220610   2.638   0.719  14.606 -0.5614 -0.1113 -0.4662
 3050SOL     OW20611   1.275   4.023   1.219 -0.3220  0.3382 -0.2056
 3050SOL    HW120612   1.315   3.961   1.157  0.0829  0.6286 -0.2321
 3050SOL    HW220613   1.238   4.087   1.158 -0.0003  0.1348 -0.6127
 3051SOL     OW20614   3.011   3.749  10.144 -0.8273  0.4683  0.2526
 3051SOL    HW120615   3.101   3.759  10.175 -0.6606 -2.8457  0.8413
 3051SOL    HW220616   2.984   3.814  10.209 -2.3663 -1.1177  1.1856
 3052SOL     OW20617   3.617   4.630   6.259  0.9262  0.0268  0.0035
 3052SOL    HW120618   3.638   4.624   6.166 -1.2079 -1.6003 -0.3504
 3052SOL    HW220619   3.529   4.594   6.266  1.6742 -1.8513 -0.3614
 3053SOL     OW20620   1.994   4.602   6.440  0.0582 -0.4240 -0.3999
 3053SOL    HW120621   2.021   4.557   6.359  0.5461  0.1530 -0.5597
 3053SOL    HW220622   2.068   4.658   6.462  0.5417 -1.2125 -0.0427
 3054SOL     OW20623   0.107   1.850   0.610 -0.4109  0.3628 -0.0763
 3054SOL    HW120624   0.091   1.885   0.522  0.9915 -1.1077 -0.9294
 3054SOL    HW220625   0.163   1.913   0.655 -0.6984  0.2310  0.4655
 3055SOL     OW20626   1.982   1.209   1.622 -0.0633 -0.2312  0.2513
 3055SOL    HW120627   2.076   1.214   1.603 -0.0297 -1.0786  0.2071
 3055SOL    HW220628   1.998   1.190   1.714  1.6303  0.6276  0.1503
 3056SOL     OW20629   3.356   0.616   4.949  0.1257 -0.4334 -0.1008
 3056SOL    HW120630   3.284   0.655   4.900  2.3359  1.5000 -1.8195
 3056SOL    HW220631   3.374   0.688   5.009  0.5078 -1.0104  0.4831
 3057SOL     OW20632   2.150   3.168   6.235  0.3051 -0.8403  0.0427
 3057SOL    HW120633   2.206   3.227   6.185 -2.0976 -1.2677 -3.2018
 3057SOL    HW220634   2.200   3.087   6.241  2.8735  0.7989  0.5093
 3058SOL     OW20635   0.684   2.074   2.103 -0.1925  0.0491 -0.0338
 3058SOL    HW120636   0.684   2.101   2.195  3.7624 -0.3096  0.0852
 3058SOL    HW220637   0.776   2.086   2.078  0.6357 -0.3206  2.7953
 3059SOL     OW20638   3.665   0.309   9.609  0.0143  0.0853 -0.1595
 3059SOL    HW120639   3.604   0.288   9.680 -0.1434  0.6306 -0.1333
 3059SOL    HW220640   3.612   0.285   9.533  0.5565  0.1013 -0.5413
 3060SOL     OW20641   3.955   0.691   5.294 -0.0139 -0.1676  0.4500
 3060SOL    HW120642   3.903   0.641   5.357 -2.3718  1.2131 -0.3866
 3060SOL    HW220643   4.048   0.676   5.311  0.2120  1.1214  0.3497
 3061SOL     OW20644   2.976   0.906   9.506  0.3916 -0.0449 -0.8084
 3061SOL    HW120645   2.881   0.913   9.515  0.3180  0.1059 -1.7117
 3061SOL    HW220646   2.979   0.815   9.475 -0.3101  0.3446 -2.0263
 3062SOL     OW20647   1.730   4.147   9.229 -0.4743 -0.6632 -0.0855
 3062SOL    HW120648   1.696   4.059   9.212  3.8110 -2.2260 -0.7719
 3062SOL    HW220649   1.667   4.193   9.173  1.7693  1.1740 -1.1119
 3063SOL     OW20650   3.423   0.456  14.692 -0.0405  0.2727 -0.5009
 3063SOL    HW120651   3.514   0.439  14.668  0.1352  0.5532 -0.0159
 3063SOL    HW220652   3.404   0.513  14.618  1.4996 -1.6138 -2.3765
 3064SOL     OW20653   2.173   0.338   3.011  0.6022  0.0956 -0.1249
 3064SOL    HW120654   2.140   0.258   2.971 -0.8053 -0.4539  2.1072
 3064SOL    HW220655   2.122   0.354   3.091  1.1624 -2.1036  0.6508
 3065SOL     OW20656   1.111   3.683   8.307  0.2822  0.0194  0.0401
 3065SOL    HW120657   1.144   3.625   8.239 -0.0796  0.6892 -0.7099
 3065SOL    HW220658   1.073   3.756   8.258  1.2520  1.1409  0.9347
 3066SOL     OW20659   1.616   4.342   3.262  0.7909  0.2931 -0.0602
 3066SOL    HW120660   1.565   4.271   3.222 -0.0240  0.8358  0.0092
 3066SOL    HW220661   1.602   4.318   3.353  2.1662 -2.6418 -0.6321
 3067SOL     OW20662   3.060   2.714   0.912  0.6824 -0.0393 -0.2915
 3067SOL    HW120663   3.138   2.668   0.942  0.5959 -0.3621 -0.5606
 3067SOL    HW220664   3.044   2.786   0.973 -1.7109 -0.6614 -0.1657
 3068SOL     OW20665   4.630   1.471   2.332 -0.4990  0.1433  0.0768
 3068SOL    HW120666   4.647   1.376   2.335 -1.0017  0.0744  0.7675
 3068SOL    HW220667   4.583   1.492   2.413 -1.4330  1.9793 -0.9514
 3069SOL     OW20668   2.211   4.244   1.782 -0.2014 -0.4785  0.0566
 3069SOL    HW120669   2.159   4.323   1.796  0.2307  0.3523 -2.8699
 3069SOL    HW220670   2.290   4.273   1.736 -0.5681  2.1385  1.0838
 3070SOL     OW20671   1.817   0.174   5.019  0.1803 -0.1350  0.0362
 3070SOL    HW120672   1.750   0.130   5.072 -1.4579 -1.4153 -3.1173
 3070SOL    HW220673   1.819   0.262   5.056 -2.9592 -0.4512  0.9183
 3071SOL     OW20674   0.228   0.581  14.591 -0.0029  0.5101 -0.4344
 3071SOL    HW120675   0.241   0.666  14.549 -0.7966  0.6058 -0.4935
 3071SOL    HW220676   0.283   0.518  14.543 -1.4736  0.1912 -1.7052
 3072SOL     OW20677   3.192   4.105   3.958  0.1805  0.4340  0.0581
 3072SOL    HW120678   3.245   4.027   3.975  0.0219  0.4046  0.4351
 3072SOL    HW220679   3.250   4.168   4.000  0.0680 -0.3914  1.4771
 3073SOL     OW20680   2.417   4.109  10.222  0.4889  0.4534 -0.7204
 3073SOL    HW120681   2.356   4.167  10.266  0.2395  0.1164 -0.6241
 3073SOL    HW220682   2.445   4.155  10.143  1.3273  0.6667 -0.3041
 3074SOL     OW20683   2.826   2.709  17.656 -0.1821 -0.6067  0.1337
 3074SOL    HW120684   2.914   2.694  17.623  0.6149 -1.1966  2.4862
 3074SOL    HW220685   2.854   2.719   0.045 -0.5839 -1.9871  0.4248
 3075SOL     OW20686   3.505   4.275   3.580  0.1331 -0.0988 -0.0069
 3075SOL    HW120687   3.469   4.324   3.654  0.5862  0.5696 -0.2292
 3075SOL    HW220688   3.422   4.237   3.553 -0.2028  1.7846 -1.5777
 3076SOL     OW20689   1.840   2.442  13.625  0.0272  0.3729  0.6057
 3076SOL    HW120690   1.929   2.409  13.615 -0.1676 -0.1265  0.5460
 3076SOL    HW220691   1.796   2.372  13.576  1.3932 -0.2492  0.2704
 3077SOL     OW20692   1.805   2.367  15.951  0.0208  0.3313 -0.3836
 3077SOL    HW120693   1.830   2.437  16.012  0.2956 -0.5644  0.5302
 3077SOL    HW220694   1.753   2.313  16.010 -0.5662 -1.6380 -2.6922
 3078SOL     OW20695   3.338   4.587   2.716  0.8856  0.2930 -0.1173
 3078SOL    HW120696   3.422   4.603   2.760 -0.0468  3.9647  0.3610
 3078SOL    HW220697   3.308   4.514   2.770 -1.4075 -0.6407 -2.6866
 3079SOL     OW20698   3.411   2.230   0.373  0.3912 -0.0400 -0.2387
 3079SOL    HW120699   3.452   2.180   0.303 -1.9117 -0.5053 -1.2390
 3079SOL    HW220700   3.320   2.226   0.344 -0.2299  0.8311  1.5801
 3080SOL     OW20701   0.534   3.982   8.508  0.0436  0.2724 -0.0827
 3080SOL    HW120702   0.498   4.028   8.432 -0.9491  0.8070  0.7137
 3080SOL    HW220703   0.467   4.010   8.570  0.9755  1.3600  0.4415
 3081SOL     OW20704   4.435   0.934   2.915 -0.2715 -0.0112  0.4629
 3081SOL    HW120705   4.530   0.926   2.924 -0.2030 -1.4158 -1.4084
 3081SOL    HW220706   4.437   0.900   2.826  0.4422 -0.0480  0.4922
 3082SOL     OW20707   3.691   0.459   2.519  0.3721 -0.5936 -0.1305
 3082SOL    HW120708   3.676   0.365   2.527  0.2868 -0.8516 -3.3296
 3082SOL    HW220709   3.754   0.476   2.589  0.8545 -1.9153 -0.2398
 3083SOL     OW20710   4.617   0.852  11.542  0.1520 -0.1767 -0.5656
 3083SOL    HW120711   4.639   0.940  11.513 -0.5598 -0.5879 -2.3224
 3083SOL    HW220712   4.527   0.855  11.575  0.0686  2.0986 -1.0293
 3084SOL     OW20713   0.642   4.712   7.300 -0.3082  0.1706 -0.8585
 3084SOL    HW120714   0.673   0.049   7.366 -2.2072  1.5089 -1.2254
 3084SOL    HW220715   0.575   0.042   7.259 -1.5755 -1.4741 -1.0149
 3085SOL     OW20716   3.195   3.242  13.959  0.3340 -0.8846  0.6877
 3085SOL    HW120717   3.142   3.216  14.035  0.1259  0.0371  0.8572
 3085SOL    HW220718   3.191   3.337  13.971  2.1495 -0.6483 -0.6661
 3086SOL     OW20719   4.607   2.061   6.603 -0.3340 -0.0214 -0.3503
 3086SOL    HW120720   4.556   2.061   6.522 -0.2605  0.3697 -0.3955
 3086SOL    HW220721   4.547   2.061   6.677  0.1047 -0.1199  0.0090
 3087SOL     OW20722   2.735   4.511   7.670  0.4721 -0.3659 -0.2623
 3087SOL    HW120723   2.782   4.466   7.600  0.9801 -2.5723  1.4885
 3087SOL    HW220724   2.648   4.525   7.633  0.5134  0.8325  0.0901
 3088SOL     OW20725   0.200   2.942   5.715  0.6248  0.0418 -0.0765
 3088SOL    HW120726   0.165   3.006   5.777  1.3287 -0.0982  0.4677
 3088SOL    HW220727   0.138   2.871   5.727 -0.2260  0.8231  0.1392
 3089SOL     OW20728   0.557   2.161   3.322  0.1882  0.5833 -0.0990
 3089SOL    HW120729   0.500   2.237   3.334 -0.0726  0.4041 -0.2134
 3089SOL    HW220730   0.579   2.149   3.415  0.4528 -1.4732 -0.4381
 3090SOL     OW20731   3.508   1.081  15.233 -0.2520 -0.8995  0.1753
 3090SOL    HW120732   3.448   1.131  15.176  0.8711  0.4268  0.1761
 3090SOL    HW220733   3.553   1.030  15.166 -2.6216 -0.8911 -1.4662
 3091SOL     OW20734   2.578   1.737   0.005 -0.0323 -0.3020  0.1070
 3091SOL    HW120735   2.523   1.784  17.645  1.8355 -1.2758 -2.2874
 3091SOL    HW220736   2.589   1.653  17.661 -1.3131  0.1970 -1.1145
 3092SOL     OW20737   1.585   1.108   8.860 -0.7115 -0.5554  0.4163
 3092SOL    HW120738   1.565   1.047   8.788 -2.5552  1.4055 -0.7526
 3092SOL    HW220739   1.520   1.072   8.920  0.5157  0.5642  2.3843
 3093SOL     OW20740   1.743   1.310  13.093 -0.0080 -0.0681  0.2903
 3093SOL    HW120741   1.774   1.231  13.049 -1.9478  0.2383 -1.6710
 3093SOL    HW220742   1.804   1.321  13.165  0.4954  0.0170 -0.1482
 3094SOL     OW20743   1.801   0.075  13.418 -0.3266 -0.1853  0.2481
 3094SOL    HW120744   1.757   0.084  13.333 -1.6306 -0.4333  0.8983
 3094SOL    HW220745   1.773   4.714  13.449 -1.6523 -0.1936 -0.9663
 3095SOL     OW20746   1.123   4.695   5.165  0.6182  0.4141  0.4996
 3095SOL    HW120747   1.172   4.622   5.125 -3.3347 -1.8035 -0.2836
 3095SOL    HW220748   1.044   4.642   5.179  1.7352 -0.7682  2.3736
 3096SOL     OW20749   0.950   2.150  16.970 -0.3787 -0.1289 -0.2524
 3096SOL    HW120750   0.871   2.188  17.008 -0.4517  1.2407 -1.7813
 3096SOL    HW220751   0.909   2.069  16.941  0.2678 -1.0163  1.2831
 3097SOL     OW20752   1.217   4.091   0.835  0.0380  0.1671  0.0169
 3097SOL    HW120753   1.261   4.122   0.914  0.5298 -1.6636  0.4595
 3097SOL    HW220754   1.127   4.119   0.851 -0.4838 -0.8251 -1.0996
 3098SOL     OW20755   3.167   2.499   4.217  0.5066  0.4803  0.2604
 3098SOL    HW120756   3.202   2.557   4.150  0.6607 -2.2832 -2.0643
 3098SOL    HW220757   3.139   2.426   4.162 -1.9031 -0.0081  2.0878
 3099SOL     OW20758   3.174   0.386   7.388  0.5730 -0.4466 -0.2726
 3099SOL    HW120759   3.187   0.291   7.391  0.9290 -0.4321 -1.3776
 3099SOL    HW220760   3.172   0.409   7.295 -2.2072  0.1092 -0.0774
 3100SOL     OW20761   2.569   1.818   5.796  0.2042 -0.0716  0.4343
 3100SOL    HW120762   2.511   1.879   5.840 -0.4068 -0.8360  0.6908
 3100SOL    HW220763   2.584   1.750   5.862  2.4213 -0.0762 -0.0699
 3101SOL     OW20764   0.598   4.579   1.668 -0.4774  0.1582 -0.0884
 3101SOL    HW120765   0.578   4.558   1.577  0.4433 -0.8550 -0.0695
 3101SOL    HW220766   0.529   4.535   1.718 -0.9916 -0.1034 -1.0240
 3102SOL     OW20767   2.529   0.928   3.315 -0.3732  0.0060  0.5897
 3102SOL    HW120768   2.530   0.843   3.272 -1.5620 -0.1392  0.8636
 3102SOL    HW220769   2.600   0.971   3.266 -1.3772  0.3090 -0.5986
 3103SOL     OW20770   1.582   4.451   1.124 -0.1580 -0.1281  0.1443
 3103SOL    HW120771   1.612   4.369   1.164 -1.6474 -1.4126 -1.3875
 3103SOL    HW220772   1.592   4.431   1.031 -0.1768 -1.0353  0.3406
 3104SOL     OW20773   3.311   3.577   7.578 -0.3019 -0.6934 -0.2660
 3104SOL    HW120774   3.361   3.589   7.659 -2.9196  1.5634  1.0205
 3104SOL    HW220775   3.379   3.539   7.523  0.0180  0.4933 -0.6938
 3105SOL     OW20776   4.040   3.412   0.280  0.0350 -0.0606 -0.5375
 3105SOL    HW120777   4.041   3.507   0.272 -0.7447 -0.2592 -2.8104
 3105SOL    HW220778   3.957   3.378   0.248 -1.1401  3.1440 -0.9082
 3106SOL     OW20779   3.248   2.398   3.119  0.4804 -0.0801  0.1870
 3106SOL    HW120780   3.256   2.467   3.053  0.9751 -0.2171  0.1039
 3106SOL    HW220781   3.181   2.442   3.172  0.1266 -1.6588  1.0257
 3107SOL     OW20782   1.363   2.292   7.884 -0.3281 -0.4878 -0.1862
 3107SOL    HW120783   1.454   2.269   7.905  0.0641  0.7108 -0.5811
 3107SOL    HW220784   1.359   2.386   7.903  0.3696 -1.0189  2.5987
 3108SOL     OW20785   3.219   3.434   0.587  0.0204 -0.7004 -0.1000
 3108SOL    HW120786   3.311   3.408   0.592  0.2096 -0.0187  0.0927
 3108SOL    HW220787   3.217   3.513   0.642  2.5735  0.1968 -1.2923
 3109SOL     OW20788   2.145   2.545   0.550  0.1775 -0.1711 -0.5602
 3109SOL    HW120789   2.199   2.470   0.573  1.5161 -0.0638 -3.2845
 3109SOL    HW220790   2.126   2.578   0.638 -0.5144 -0.5306 -0.5752
 3110SOL     OW20791   0.384   3.664   6.890  0.3668  0.3858  0.0675
 3110SOL    HW120792   0.394   3.620   6.805  0.8358 -1.2301  0.9559
 3110SOL    HW220793   0.315   3.727   6.870  1.6195  2.0339  0.9872
 3111SOL     OW20794   0.838   3.358   5.263  0.1769  0.0659  0.3353
 3111SOL    HW120795   0.751   3.395   5.249  0.6097  1.1610  0.5939
 3111SOL    HW220796   0.875   3.423   5.323 -1.5505  0.5579  0.8717
 3112SOL     OW20797   2.668   0.095  10.581 -0.5490 -0.4006  0.6822
 3112SOL    HW120798   2.756   0.118  10.609 -1.0257 -0.2887  2.0827
 3112SOL    HW220799   2.663   0.130  10.491 -1.4561  0.9997  1.2691
 3113SOL     OW20800   2.410   3.317   4.770 -0.0313  0.1953 -0.2129
 3113SOL    HW120801   2.465   3.358   4.703  0.5314  1.4569  1.0122
 3113SOL    HW220802   2.455   3.232   4.767  0.4047  0.4894 -2.1465
 3114SOL     OW20803   0.333   0.672   4.562  0.6971 -0.5589 -0.2121
 3114SOL    HW120804   0.244   0.675   4.526  0.7382  1.0376 -0.1669
 3114SOL    HW220805   0.383   0.697   4.484  2.3313  0.3142  1.1140
 3115SOL     OW20806   1.282   1.891   3.217  0.1113  0.4132  0.1202
 3115SOL    HW120807   1.334   1.865   3.141  0.7771  2.6050 -0.1907
 3115SOL    HW220808   1.257   1.979   3.188 -1.4761 -0.5296 -1.3264
 3116SOL     OW20809   3.293   0.925   5.618  0.2324 -0.1521 -0.2382
 3116SOL    HW120810   3.286   0.942   5.712 -2.7614  0.6237 -0.6114
 3116SOL    HW220811   3.350   1.001   5.604 -2.1155  1.6864  0.3355
 3117SOL     OW20812   3.821   2.093   2.977 -0.7993 -0.3040  0.2181
 3117SOL    HW120813   3.854   2.142   3.052  1.6767 -2.9896  0.9207
 3117SOL    HW220814   3.727   2.111   2.987 -0.6650  1.0064 -1.0222
 3118SOL     OW20815   2.963   3.527   9.975  0.1102  0.0952  0.0365
 3118SOL    HW120816   2.984   3.602  10.029  1.6301 -0.9360  0.8798
 3118SOL    HW220817   2.871   3.543   9.952 -0.4838 -1.5927  1.2665
 3119SOL     OW20818   2.968   3.562  10.376  0.3717  0.5711 -0.4594
 3119SOL    HW120819   2.929   3.608  10.450 -0.1364  0.3490 -0.5926
 3119SOL    HW220820   2.906   3.489  10.380  2.1420 -0.8398  1.1418
 3120SOL     OW20821   3.451   3.312   7.710  0.5270  0.4096 -0.6069
 3120SOL    HW120822   3.490   3.374   7.648  0.4955  1.1205  0.0841
 3120SOL    HW220823   3.403   3.249   7.657 -0.6947 -2.5306  3.9786
 3121SOL     OW20824   3.593   1.144   1.890 -0.3337  0.4226  0.5681
 3121SOL    HW120825   3.671   1.112   1.846  0.0403 -0.2885  1.7506
 3121SOL    HW220826   3.531   1.071   1.887  2.1507 -1.6044 -0.5870
 3122SOL     OW20827   2.270   2.073   3.641 -0.3732  0.1413 -0.4266
 3122SOL    HW120828   2.275   2.150   3.584  0.0502  0.7897  0.5017
 3122SOL    HW220829   2.231   2.110   3.720 -2.8080 -3.9359  0.2906
 3123SOL     OW20830   2.717   1.530   3.692  0.2677  0.1203  0.5490
 3123SOL    HW120831   2.805   1.564   3.682  0.7811 -0.5273  2.8245
 3123SOL    HW220832   2.711   1.518   3.597  1.5676  0.9148  0.3661
 3124SOL     OW20833   2.843   0.657   0.100  0.1095 -0.8809  0.2421
 3124SOL    HW120834   2.923   0.614   0.131 -1.4330 -3.1154  1.0645
 3124SOL    HW220835   2.897   0.710   0.040  0.1197  0.5448  1.5047
 3125SOL     OW20836   3.819   0.189   7.659 -0.0113 -0.0461  0.3097
 3125SOL    HW120837   3.787   0.104   7.689 -0.5258  0.2036  0.4591
 3125SOL    HW220838   3.792   0.187   7.568  0.4672  0.1252  0.1610
 3126SOL     OW20839   2.395   4.044   1.276  0.3872 -0.2809  0.0670
 3126SOL    HW120840   2.460   4.114   1.270  0.8452 -0.6895  0.2250
 3126SOL    HW220841   2.415   4.007   1.362 -1.5269  0.2806  0.7426
 3127SOL     OW20842   2.061   2.997   7.732 -0.5951 -0.0440 -0.5468
 3127SOL    HW120843   2.054   3.046   7.814 -2.0523  0.4741 -0.9693
 3127SOL    HW220844   2.147   2.957   7.736 -1.5996 -2.0046  1.3703
 3128SOL     OW20845   0.991   3.446   7.550  0.2364 -0.0176 -0.1533
 3128SOL    HW120846   0.999   3.539   7.567 -0.5586  0.1392 -0.6320
 3128SOL    HW220847   0.985   3.450   7.455 -0.9920 -0.6347 -0.1016
 3129SOL     OW20848   4.324   2.594  13.603  0.1072 -0.0141 -0.2355
 3129SOL    HW120849   4.390   2.618  13.667  0.1901 -0.6413 -0.0855
 3129SOL    HW220850   4.381   2.607  13.527  2.2782  0.1122  1.4467
 3130SOL     OW20851   4.024   1.846   7.099 -0.0561  0.3730 -0.3552
 3130SOL    HW120852   4.017   1.941   7.107 -2.7455  0.3942 -2.9165
 3130SOL    HW220853   4.119   1.835   7.096 -0.0777  0.1058 -0.0174
 3131SOL     OW20854   4.284   3.954   8.706  0.1350 -0.4197 -0.2276
 3131SOL    HW120855   4.207   4.011   8.700  0.0175 -0.7291 -1.6683
 3131SOL    HW220856   4.248   3.884   8.760 -1.2784 -1.0573 -1.9836
 3132SOL     OW20857   4.696   3.186   5.858 -0.0034  0.0992  0.0984
 3132SOL    HW120858   0.045   3.179   5.919 -1.4951 -1.8285  1.6621
 3132SOL    HW220859   4.654   3.101   5.864 -1.5412  0.9381  1.1598
 3133SOL     OW20860   1.351   0.285  12.369  0.5158  0.6328  0.2772
 3133SOL    HW120861   1.369   0.321  12.282  2.7324  1.4893  1.0932
 3133SOL    HW220862   1.401   0.348  12.421  0.6112  0.1698  0.7371
 3134SOL     OW20863   1.335   0.130   1.328 -0.1141 -0.3312 -0.1182
 3134SOL    HW120864   1.291   0.177   1.399  2.0173  0.1709  0.8763
 3134SOL    HW220865   1.423   0.144   1.364 -1.0323 -0.4970  2.1561
 3135SOL     OW20866   2.495   3.645  14.431 -0.0348 -0.6124 -0.1268
 3135SOL    HW120867   2.409   3.648  14.472  0.7658  1.7447  1.3983
 3135SOL    HW220868   2.558   3.653  14.502 -0.0853 -1.0828 -0.0284
 3136SOL     OW20869   1.049   1.400   5.864  0.2913 -0.2635  0.6669
 3136SOL    HW120870   0.971   1.441   5.827 -1.0975 -0.1454  3.7274
 3136SOL    HW220871   1.014   1.362   5.945  2.1606 -2.6078  0.3809
 3137SOL     OW20872   3.405   0.424   5.591  0.1578  0.3181 -0.1314
 3137SOL    HW120873   3.479   0.465   5.637 -0.0683 -0.3168  0.7913
 3137SOL    HW220874   3.344   0.494   5.565 -0.3703  0.3707  1.2764
 3138SOL     OW20875   3.441   1.342   7.670  0.0336 -0.2241  0.2736
 3138SOL    HW120876   3.464   1.399   7.743 -1.3625  0.6567  0.0145
 3138SOL    HW220877   3.525   1.332   7.625  0.2883 -1.6999  1.0728
 3139SOL     OW20878   2.194   0.722   1.430  0.4815  0.2514  0.0447
 3139SOL    HW120879   2.103   0.715   1.459  0.2643 -2.1139 -1.2075
 3139SOL    HW220880   2.182   0.769   1.348  1.4785  1.7457  0.7737
 3140SOL     OW20881   2.966   4.524   6.677 -0.3372  0.2584 -0.2331
 3140SOL    HW120882   3.004   4.443   6.644 -0.6848 -0.5086  1.2503
 3140SOL    HW220883   3.027   4.533   6.750 -0.8126  0.4136  0.1519
 3141SOL     OW20884   3.323   3.592  11.062  0.1982 -0.2987 -0.2652
 3141SOL    HW120885   3.257   3.592  11.131  0.1342  0.7799 -0.3328
 3141SOL    HW220886   3.271   3.601  10.982 -0.1134 -0.0154 -0.0306
 3142SOL     OW20887   2.436   0.776   8.121 -0.2140 -0.4211  0.0650
 3142SOL    HW120888   2.359   0.721   8.127 -0.4070  0.1525  2.8616
 3142SOL    HW220889   2.439   0.818   8.208 -2.3506 -2.5457  1.1561
 3143SOL     OW20890   0.911   0.496   4.283 -0.0925  0.0395  0.3641
 3143SOL    HW120891   0.842   0.443   4.244 -0.3367  1.7477 -1.5369
 3143SOL    HW220892   0.880   0.586   4.287 -1.5137 -0.3826 -1.4237
 3144SOL     OW20893   1.873   2.177   1.898 -0.1486  0.4665 -0.1538
 3144SOL    HW120894   1.920   2.106   1.856  0.9007  0.5056  0.9567
 3144SOL    HW220895   1.785   2.178   1.861  0.8264  0.3626 -2.4911
 3145SOL     OW20896   2.403   1.966   7.775 -0.7288  0.1548  0.1902
 3145SOL    HW120897   2.309   1.980   7.765 -0.2676  2.5064 -0.7486
 3145SOL    HW220898   2.412   1.885   7.826  1.0725  1.3051  1.7238
 3146SOL     OW20899   2.485   1.381  10.263  0.2784 -0.3532 -0.1577
 3146SOL    HW120900   2.434   1.455  10.295 -0.9617 -0.9507 -0.7519
 3146SOL    HW220901   2.461   1.387  10.170 -0.3066 -0.9847 -0.0434
 3147SOL     OW20902   2.731   0.761   9.481 -0.5199 -0.3122  0.1790
 3147SOL    HW120903   2.709   0.688   9.424 -0.4838  0.4606 -0.8237
 3147SOL    HW220904   2.694   0.731   9.564 -0.4819 -1.2582 -0.1507
 3148SOL     OW20905   2.080   1.474   8.447 -0.6189 -0.0282 -0.0503
 3148SOL    HW120906   2.007   1.534   8.463 -0.1372  1.0042 -1.7563
 3148SOL    HW220907   2.152   1.508   8.499 -0.6688 -1.1426  0.7537
 3149SOL     OW20908   1.254   0.341  12.722 -0.1104 -0.7237  0.0129
 3149SOL    HW120909   1.180   0.364  12.665  0.1217  1.6114  0.6650
 3149SOL    HW220910   1.310   0.418  12.732  0.0131 -0.8003 -0.0882
 3150SOL     OW20911   1.674   1.884   1.934  0.1096 -0.3169 -0.4953
 3150SOL    HW120912   1.651   1.885   2.027  2.1793  0.4284  0.0186
 3150SOL    HW220913   1.768   1.901   1.943 -0.0711  1.1123 -1.2702
 3151SOL     OW20914   3.006   1.765   4.106 -0.6889  0.6407 -0.4974
 3151SOL    HW120915   3.080   1.728   4.154 -0.7577  2.0806  0.6951
 3151SOL    HW220916   2.971   1.687   4.062  0.6590 -0.1089 -0.2507
 3152SOL     OW20917   2.862   0.407   3.211 -0.2820  0.4908  0.2038
 3152SOL    HW120918   2.790   0.405   3.148  0.3215  0.3416 -0.4707
 3152SOL    HW220919   2.864   0.501   3.228  1.4807  0.5345 -0.2218
 3153SOL     OW20920   1.206   4.403  12.770  0.2494  0.3986  0.6444
 3153SOL    HW120921   1.179   4.428  12.858 -1.2284 -1.2252  0.6460
 3153SOL    HW220922   1.223   4.480  12.715  0.8797 -0.4643 -0.3652
 3154SOL     OW20923   3.545   0.904   5.978  0.2895  0.2766 -0.3625
 3154SOL    HW120924   3.521   0.811   5.975  2.3213 -0.2746  0.4203
 3154SOL    HW220925   3.638   0.895   5.960  0.4017  3.5167 -1.4083
 3155SOL     OW20926   3.651   2.990   3.057  0.5719  0.4501 -0.3273
 3155SOL    HW120927   3.653   3.085   3.052  1.0923  0.4832  0.5518
 3155SOL    HW220928   3.556   2.985   3.057  0.6328 -0.9071 -0.1886
 3156SOL     OW20929   3.620   1.221   6.831  0.6440 -0.2246 -0.5914
 3156SOL    HW120930   3.704   1.263   6.815  0.5403  0.1890 -0.0510
 3156SOL    HW220931   3.581   1.262   6.908 -1.0053  0.0348 -1.5537
 3157SOL     OW20932   3.420   2.410  14.775 -0.1921 -0.0479  0.3376
 3157SOL    HW120933   3.480   2.358  14.723 -1.2842 -0.9923  0.0329
 3157SOL    HW220934   3.343   2.353  14.780 -0.7705  0.5521 -1.6219
 3158SOL     OW20935   2.918   0.967   1.571 -0.0382  0.3741 -0.0371
 3158SOL    HW120936   2.995   1.000   1.617  0.0451  0.6473 -0.3734
 3158SOL    HW220937   2.887   0.903   1.636 -0.3815 -0.9892 -1.5510
 3159SOL     OW20938   1.844   1.045  11.777 -0.0833 -0.0167  0.2335
 3159SOL    HW120939   1.804   1.015  11.695 -0.7469 -0.2633  0.6426
 3159SOL    HW220940   1.916   0.984  11.793  0.6140  1.1668  1.5826
 3160SOL     OW20941   3.249   3.635   5.572 -0.2493 -0.4988  0.2662
 3160SOL    HW120942   3.310   3.588   5.629  0.1728 -1.2810 -0.8448
 3160SOL    HW220943   3.296   3.714   5.549  0.0331 -0.2297  1.7902
 3161SOL     OW20944   2.282   2.805   1.756 -0.1311  0.5438  0.3940
 3161SOL    HW120945   2.310   2.721   1.793  0.9595  0.7427  0.0283
 3161SOL    HW220946   2.359   2.825   1.702  0.7110 -2.0052  0.6349
 3162SOL     OW20947   0.906   2.617  13.633  0.3685  0.3890 -0.4920
 3162SOL    HW120948   0.898   2.528  13.667 -0.4809 -0.1838 -2.2356
 3162SOL    HW220949   0.954   2.659  13.705  0.0866  1.0586 -0.6902
 3163SOL     OW20950   1.604   0.366  13.220 -0.0119  0.3337  0.2853
 3163SOL    HW120951   1.617   0.272  13.236 -0.9858  0.6763  3.0221
 3163SOL    HW220952   1.690   0.392  13.186 -0.3790 -0.1288 -0.9804
 3164SOL     OW20953   2.220   0.601   8.463 -0.4525  0.1558  0.3515
 3164SOL    HW120954   2.220   0.550   8.382  0.4639  0.2961  0.2565
 3164SOL    HW220955   2.141   0.570   8.506 -0.7486  1.2161  0.5816
 3165SOL     OW20956   1.096   2.734   4.885 -0.1713 -0.3620  1.0781
 3165SOL    HW120957   1.155   2.808   4.902  1.7698 -1.4609 -0.8175
 3165SOL    HW220958   1.021   2.776   4.842 -0.4373 -1.0711  0.8507
 3166SOL     OW20959   3.304   4.432   5.460 -0.1761  0.1082  0.0210
 3166SOL    HW120960   3.397   4.408   5.460 -0.3397 -0.4687 -3.1491
 3166SOL    HW220961   3.319   4.508   5.403  0.3447 -0.0025  0.0100
 3167SOL     OW20962   1.409   3.868  14.752  0.4312  0.4478 -0.3310
 3167SOL    HW120963   1.414   3.890  14.845  1.7448 -3.7202  0.6101
 3167SOL    HW220964   1.340   3.802  14.750  0.5994  0.2130  1.7174
 3168SOL     OW20965   0.443   4.115  12.814 -0.3469 -0.3057  0.0370
 3168SOL    HW120966   0.369   4.056  12.828 -1.7669  1.3517 -0.5438
 3168SOL    HW220967   0.411   4.188  12.761 -1.3247 -1.0505 -0.4018
 3169SOL     OW20968   1.349   2.968   5.407  0.5019  0.7128  0.3652
 3169SOL    HW120969   1.424   3.004   5.359  0.4689  3.3308  2.2719
 3169SOL    HW220970   1.388   2.886   5.438  1.4771  2.8204  4.6641
 3170SOL     OW20971   0.415   0.595   7.451 -0.4523  0.3177 -0.2618
 3170SOL    HW120972   0.477   0.668   7.438 -1.5697  1.1305 -0.9772
 3170SOL    HW220973   0.377   0.604   7.539 -0.3501  2.0624 -0.3980
 3171SOL     OW20974   4.658   0.141   3.337  0.1224 -0.8248 -0.8559
 3171SOL    HW120975   0.008   0.112   3.389 -1.0610 -0.5244  1.0160
 3171SOL    HW220976   4.694   0.226   3.311  1.1456 -0.7806  0.6698
 3172SOL     OW20977   0.002   3.774  17.630 -0.1665 -0.2446 -0.5579
 3172SOL    HW120978   0.038   3.860  17.608  1.1891 -0.9938 -1.2739
 3172SOL    HW220979   4.711   3.774   0.023 -3.4754  2.8283 -1.1065
 3173SOL     OW20980   2.609   4.507   6.220  0.0243 -0.6211  1.1684
 3173SOL    HW120981   2.545   4.494   6.289 -2.1385  0.8858 -0.5523
 3173SOL    HW220982   2.592   4.433   6.161 -0.5691  0.6073 -0.1960
 3174SOL     OW20983   3.316   0.879   2.596  0.1044  0.1057  0.5927
 3174SOL    HW120984   3.313   0.890   2.501  2.3788 -1.8052  0.3076
 3174SOL    HW220985   3.373   0.802   2.601 -0.5183 -0.3359  0.8515
 3175SOL     OW20986   4.654   2.596  16.631 -0.3307  0.3789  0.2084
 3175SOL    HW120987   4.618   2.652  16.562  0.6910  0.4247 -0.2899
 3175SOL    HW220988   4.571   2.570  16.670 -0.5568 -0.9805 -1.1885
 3176SOL     OW20989   4.539   1.489   1.768 -0.0746 -0.5800 -0.1992
 3176SOL    HW120990   4.602   1.503   1.839  1.3238 -0.5711 -1.4234
 3176SOL    HW220991   4.603   1.525   1.706  0.1139 -2.4971 -1.1214
 3177SOL     OW20992   0.073   0.965   8.843  0.2847  0.5809 -0.2908
 3177SOL    HW120993   0.036   0.922   8.766 -2.5404  1.0988  0.7670
 3177SOL    HW220994   0.136   1.017   8.794  2.5041 -2.5450 -0.7770
 3178SOL     OW20995   1.538   1.207   6.867  0.3115 -0.1663 -0.3474
 3178SOL    HW120996   1.536   1.284   6.810  0.9763  0.8387  0.9585
 3178SOL    HW220997   1.451   1.203   6.907  0.1477 -0.1157 -0.7036
 3179SOL     OW20998   1.555   4.263   8.249  0.4555  0.1306  0.1787
 3179SOL    HW120999   1.616   4.209   8.198 -0.3002 -0.4490 -0.0995
 3179SOL    HW221000   1.480   4.204   8.243 -0.6087  1.2253  3.0585
 3180SOL     OW21001   1.626   1.624   6.667  0.5556 -0.2204 -0.2383
 3180SOL    HW121002   1.713   1.584   6.658  1.0229  1.1987 -2.0190
 3180SOL    HW221003   1.563   1.560   6.700  0.7671 -1.1289 -1.5834
 3181SOL     OW21004   1.482   0.836   7.682  0.1980 -0.2416  0.0710
 3181SOL    HW121005   1.431   0.914   7.661 -1.8761 -1.9739 -1.2611
 3181SOL    HW221006   1.467   0.791   7.599 -2.5221  0.9854 -0.1037
 3182SOL     OW21007   4.696   1.879   7.171 -0.0975 -0.1483  0.0036
 3182SOL    HW121008   4.646   1.954   7.204  0.5554 -0.8100  2.5505
 3182SOL    HW221009   0.001   1.832   7.249 -1.0300 -0.7828 -0.0172
 3183SOL     OW21010   1.575   4.348   3.927 -0.2212  0.4649  0.1842
 3183SOL    HW121011   1.633   4.417   3.894 -0.9047  1.4167  0.9686
 3183SOL    HW221012   1.624   4.328   4.007  0.2896 -0.1094 -0.2711
 3184SOL     OW21013   1.189   3.828   4.324  0.3993  0.2132 -0.5686
 3184SOL    HW121014   1.201   3.918   4.354 -1.2946 -0.0341  0.9220
 3184SOL    HW221015   1.267   3.781   4.354 -0.0629 -0.4043 -0.3344
 3185SOL     OW21016   2.086   3.558   3.757  0.3847 -0.0480 -0.5845
 3185SOL    HW121017   2.066   3.623   3.824  1.1566  0.9482 -1.3219
 3185SOL    HW221018   2.120   3.482   3.803 -0.5343 -0.6406 -0.8855
 3186SOL     OW21019   4.461   4.475   9.179  0.3530  0.5367  0.5920
 3186SOL    HW121020   4.377   4.435   9.202 -0.2278  1.4981  0.1435
 3186SOL    HW221021   4.444   4.537   9.109  0.2619 -0.0686  0.0799
 3187SOL     OW21022   3.660   2.936  11.152  0.2725 -0.0027 -0.1235
 3187SOL    HW121023   3.742   2.889  11.137  0.0530 -0.4541  0.0856
 3187SOL    HW221024   3.597   2.865  11.135 -2.0730  1.9803  0.2956
 3188SOL     OW21025   0.169   3.206   7.044 -0.4222 -0.3033  0.0590
 3188SOL    HW121026   0.254   3.170   7.070 -0.5807 -1.7868 -1.4788
 3188SOL    HW221027   0.122   3.125   7.063 -1.9063  1.2158  2.7753
 3189SOL     OW21028   3.532   3.079   2.600  0.4411  0.5954  0.4021
 3189SOL    HW121029   3.609   3.081   2.544 -0.2364  0.9320 -0.5184
 3189SOL    HW221030   3.553   3.013   2.667  2.1359  0.1196 -0.5929
 3190SOL     OW21031   0.438   3.129   7.010  0.4924 -0.4759 -0.2196
 3190SOL    HW121032   0.518   3.182   7.013 -0.8272  1.4266  1.5219
 3190SOL    HW221033   0.430   3.120   6.915  0.8138 -1.2018 -0.1749
 3191SOL     OW21034   1.993   0.720   4.725  0.0464 -0.3017  0.1061
 3191SOL    HW121035   1.913   0.772   4.736 -0.4725 -1.3301  1.2314
 3191SOL    HW221036   2.002   0.725   4.630  2.0000  1.2597  0.3912
 3192SOL     OW21037   1.554   1.252   2.767  0.0556  0.1613  0.2916
 3192SOL    HW121038   1.530   1.198   2.692 -0.6203  0.4084  0.3217
 3192SOL    HW221039   1.474   1.301   2.789  1.4466  1.7340  1.8850
 3193SOL     OW21040   0.006   3.515  17.554  0.5365  0.2203 -0.1000
 3193SOL    HW121041   0.027   3.527  17.462 -0.0573 -0.6056 -0.3376
 3193SOL    HW221042   0.000   3.609  17.570 -0.1073  0.2934 -0.7679
 3194SOL     OW21043   0.496   3.241  11.570 -0.1497 -0.2973  0.4851
 3194SOL    HW121044   0.409   3.265  11.603  0.7175  3.0208  0.3248
 3194SOL    HW221045   0.530   3.177  11.633 -1.4854  0.0372  1.5455
 3195SOL     OW21046   2.528   2.120   0.043 -0.2709  0.2062 -0.8271
 3195SOL    HW121047   2.521   2.215   0.056  0.6485  0.1304  0.1905
 3195SOL    HW221048   2.459   2.124  17.679 -0.6571 -0.1711 -0.4436
 3196SOL     OW21049   3.539   3.982   0.579 -0.7936  0.2202 -0.2932
 3196SOL    HW121050   3.481   3.941   0.514  0.3686 -0.0103 -1.1974
 3196SOL    HW221051   3.590   4.038   0.520 -0.4577 -0.3671 -0.5588
 3197SOL     OW21052   3.214   3.106  15.808  0.1430  0.3180 -0.4630
 3197SOL    HW121053   3.267   3.167  15.859 -1.2829  0.3806  0.9325
 3197SOL    HW221054   3.130   3.096  15.853 -0.3993 -0.5272 -1.6716
 3198SOL     OW21055   1.149   4.282   0.218 -0.4370  0.2707  0.7131
 3198SOL    HW121056   1.155   4.326   0.133 -0.8339  0.0629  0.5756
 3198SOL    HW221057   1.098   4.205   0.193 -0.0451  0.5763 -1.0102
 3199SOL     OW21058   3.283   2.775   4.083  0.4337 -0.6767  0.2406
 3199SOL    HW121059   3.201   2.825   4.075  0.9971  0.3167  0.7232
 3199SOL    HW221060   3.348   2.842   4.106 -0.1752 -0.0541  0.1790
 3200SOL     OW21061   2.001   1.738  13.468 -0.2171 -0.2114  0.5648
 3200SOL    HW121062   1.992   1.643  13.471  0.6305 -0.3166 -0.1276
 3200SOL    HW221063   2.084   1.751  13.514  0.8035 -0.6916 -1.1288
 3201SOL     OW21064   1.467   2.522  16.314 -0.1488  0.0207 -0.3651
 3201SOL    HW121065   1.458   2.427  16.320  0.7888 -0.1402 -1.4035
 3201SOL    HW221066   1.426   2.554  16.394 -0.0125  1.0386 -0.6980
 3202SOL     OW21067   3.955   1.763   1.183 -0.2596 -0.2327  0.1177
 3202SOL    HW121068   4.045   1.780   1.157 -0.3267  1.2748  0.9017
 3202SOL    HW221069   3.927   1.826   1.249  1.5395  2.5842 -1.8216
 3203SOL     OW21070   1.999   3.410   6.078  0.3819  0.4752  0.1423
 3203SOL    HW121071   2.009   3.491   6.129 -1.0862  0.8593 -0.1946
 3203SOL    HW221072   2.050   3.353   6.135 -1.7485 -0.0028  1.5523
 3204SOL     OW21073   1.591   1.912  16.577 -0.2030 -0.3563 -0.2055
 3204SOL    HW121074   1.677   1.953  16.587 -0.2584 -0.4616  0.6516
 3204SOL    HW221075   1.541   1.992  16.558 -1.8105 -1.2604  0.1586
 3205SOL     OW21076   3.879   2.591   3.559 -0.6073  0.0544  0.4690
 3205SOL    HW121077   3.925   2.630   3.633 -0.3483  1.4317 -0.4261
 3205SOL    HW221078   3.796   2.639   3.564 -1.2468 -0.7620 -2.2527
 3206SOL     OW21079   3.804   0.352   3.170 -0.8431  0.2216 -0.1293
 3206SOL    HW121080   3.714   0.380   3.183 -0.3424  1.6872  0.1977
 3206SOL    HW221081   3.796   0.290   3.097 -0.5520  1.0430 -0.8587
 3207SOL     OW21082   3.198   3.946   0.021 -0.2644  0.3681 -0.0631
 3207SOL    HW121083   3.257   3.944   0.096  1.2833  0.8774 -1.2489
 3207SOL    HW221084   3.262   3.912  17.659 -2.1886 -0.2865 -1.6509
 3208SOL     OW21085   1.908   4.703   8.910 -0.1394  0.1993  0.3997
 3208SOL    HW121086   1.881   4.614   8.932 -0.9143 -0.0995 -1.6870
 3208SOL    HW221087   1.961   4.678   8.834  0.4065  0.9629  0.5337
 3209SOL     OW21088   1.727   3.172  14.153 -0.4747  0.4090  0.1107
 3209SOL    HW121089   1.816   3.174  14.189  0.0536 -0.6303 -1.1452
 3209SOL    HW221090   1.675   3.218  14.219 -1.2224  0.5648 -0.5811
 3210SOL     OW21091   1.886   1.226   2.602 -0.0069  0.7208  0.0794
 3210SOL    HW121092   1.819   1.285   2.566 -2.9850 -1.6418  1.7446
 3210SOL    HW221093   1.820   1.175   2.649 -1.7008  1.8749 -1.0638
 3211SOL     OW21094   1.480   0.362   6.764 -0.3022  0.3982  0.2351
 3211SOL    HW121095   1.501   0.272   6.788  2.4881  1.3215  1.3039
 3211SOL    HW221096   1.561   0.370   6.713  0.5491  2.8069  1.9579
 3212SOL     OW21097   1.037   2.426   8.249  0.0942 -0.5582 -0.4482
 3212SOL    HW121098   1.095   2.423   8.325 -0.6572  1.9870  0.2408
 3212SOL    HW221099   1.023   2.332   8.237 -1.2610 -0.2944 -1.0465
 3213SOL     OW21100   0.692   1.290  16.623  0.1933 -0.0319 -0.0061
 3213SOL    HW121101   0.652   1.271  16.707 -0.4242  1.3281  0.0107
 3213SOL    HW221102   0.623   1.265  16.562  0.2674 -1.9380  0.6910
 3214SOL     OW21103   3.240   4.552  10.190 -0.2210 -0.2312 -0.0683
 3214SOL    HW121104   3.200   4.568  10.275 -2.0424  0.2518 -1.0179
 3214SOL    HW221105   3.178   4.598  10.133  0.5422  1.7583  0.7108
 3215SOL     OW21106   1.997   0.862   7.654 -0.1793 -0.2220  0.8365
 3215SOL    HW121107   1.944   0.805   7.599  3.3489 -0.5555 -2.2218
 3215SOL    HW221108   2.034   0.909   7.579 -1.4668  3.4937  2.5255
 3216SOL     OW21109   4.292   2.675   9.482  0.4386  0.2295 -0.1286
 3216SOL    HW121110   4.351   2.652   9.410  1.0634 -2.7093  1.3337
 3216SOL    HW221111   4.215   2.629   9.449 -0.0882  0.4757  0.7580
 3217SOL     OW21112   2.557   2.414  11.044 -0.0252 -0.3779  0.1739
 3217SOL    HW121113   2.647   2.430  11.017 -1.0122  2.2128 -1.6252
 3217SOL    HW221114   2.514   2.407  10.958 -1.0341 -0.0247  0.6522
 3218SOL     OW21115   1.672   1.940   3.205  0.0466 -0.0242  0.1244
 3218SOL    HW121116   1.647   1.848   3.199 -2.1837  0.6226 -0.4945
 3218SOL    HW221117   1.603   1.980   3.152  0.6890  0.8060 -0.0920
 3219SOL     OW21118   3.303   2.347  13.094  0.3594  0.0120  0.4459
 3219SOL    HW121119   3.341   2.360  13.007  0.3215 -1.2981  0.2398
 3219SOL    HW221120   3.211   2.359  13.073  0.5196  0.6331  0.0858
 3220SOL     OW21121   3.647   0.045  15.000  0.1958  0.8672  0.0111
 3220SOL    HW121122   3.690   0.042  15.086  0.4976 -1.2533 -0.2081
 3220SOL    HW221123   3.568   4.720  15.018  1.7374 -1.6736 -0.2158
 3221SOL     OW21124   3.744   1.792  16.786  0.2532  0.0507 -0.2955
 3221SOL    HW121125   3.659   1.750  16.796  0.3186  0.7421  3.0832
 3221SOL    HW221126   3.802   1.717  16.777  1.1908  0.8725 -1.1115
 3222SOL     OW21127   4.477   4.088   0.161 -0.7718 -0.0707 -0.9067
 3222SOL    HW121128   4.417   4.013   0.165 -0.2886 -0.2018  3.8553
 3222SOL    HW221129   4.483   4.121   0.072 -0.9457 -0.9587 -1.2459
 3223SOL     OW21130   2.005   0.538   7.854  0.0130 -0.1803  0.0167
 3223SOL    HW121131   1.955   0.459   7.876  0.8718 -0.9559 -0.8193
 3223SOL    HW221132   1.961   0.574   7.776  1.2351  0.4337 -0.3819
 3224SOL     OW21133   4.126   2.568   8.080  0.4683  0.1716 -0.6410
 3224SOL    HW121134   4.206   2.544   8.126 -1.7940 -3.3302  1.4799
 3224SOL    HW221135   4.075   2.607   8.151  0.5902 -2.2495  0.8059
 3225SOL     OW21136   2.259   1.729  10.928  0.3786 -0.2322  0.0335
 3225SOL    HW121137   2.215   1.747  10.845  0.0209 -0.2578  0.2207
 3225SOL    HW221138   2.215   1.793  10.983 -0.0372 -0.4416 -0.0576
 3226SOL     OW21139   1.318   3.540  15.996 -0.4436 -0.3525 -0.0646
 3226SOL    HW121140   1.314   3.449  16.025 -2.1710 -0.2188  0.1575
 3226SOL    HW221141   1.375   3.579  16.062 -0.1144 -0.0671 -0.5208
 3227SOL     OW21142   4.508   4.236   2.412  0.3988  0.2382  0.3158
 3227SOL    HW121143   4.584   4.179   2.410 -1.0310 -1.5581 -2.3203
 3227SOL    HW221144   4.535   4.316   2.368 -4.9948  1.7599 -0.2612
 3228SOL     OW21145   2.462   0.012   8.223 -0.0093  0.1596 -0.1792
 3228SOL    HW121146   2.399   4.683   8.271  0.6793  0.6994  1.3572
 3228SOL    HW221147   2.516   4.672   8.180  0.7721  0.5716  0.1764
 3229SOL     OW21148   0.845   3.493   6.923 -0.3939  0.4215  0.9769
 3229SOL    HW121149   0.845   3.584   6.952 -0.9606  0.9207 -0.5799
 3229SOL    HW221150   0.881   3.449   7.000 -1.8167  0.6891  1.7991
 3230SOL     OW21151   2.607   1.667  12.160 -0.0638 -0.1453  0.1116
 3230SOL    HW121152   2.630   1.575  12.156 -1.8469 -0.5014 -2.2231
 3230SOL    HW221153   2.692   1.699  12.192  0.8337 -1.1692 -1.2446
 3231SOL     OW21154   1.659   0.315   8.140 -0.3170  0.2667  0.4944
 3231SOL    HW121155   1.741   0.270   8.122 -0.2995  0.4275  0.1694
 3231SOL    HW221156   1.668   0.396   8.089  2.4027  1.2143  2.4560
 3232SOL     OW21157   1.852   1.643   2.157 -0.1081  0.4125 -0.3270
 3232SOL    HW121158   1.848   1.699   2.234  0.7737 -1.3822  1.0534
 3232SOL    HW221159   1.911   1.575   2.191 -0.0676  0.3912 -0.4415
 3233SOL     OW21160   0.145   2.395   7.898  0.4752 -0.1523  0.4793
 3233SOL    HW121161   0.075   2.444   7.855  1.3603  1.2088  0.6033
 3233SOL    HW221162   0.142   2.434   7.986  1.1925 -1.3916  1.0509
 3234SOL     OW21163   3.517   3.808   5.934  0.3287  0.6023  0.5496
 3234SOL    HW121164   3.430   3.813   5.973  0.6114 -1.1836  1.3981
 3234SOL    HW221165   3.510   3.892   5.887 -2.4639  0.3101  0.4557
 3235SOL     OW21166   0.696   0.208   3.321  0.1310 -0.5256  0.7224
 3235SOL    HW121167   0.673   0.288   3.273 -1.6970  0.2471  2.8679
 3235SOL    HW221168   0.788   0.230   3.339  0.3863 -1.3779  0.4637
 3236SOL     OW21169   3.475   1.402   6.005 -0.3724  0.2071 -0.2212
 3236SOL    HW121170   3.475   1.496   6.022  0.3016  0.1558  0.0704
 3236SOL    HW221171   3.564   1.387   5.972 -0.9512 -0.5083 -1.4671
 3237SOL     OW21172   3.675   1.169  11.885 -0.0650  0.4330 -0.2422
 3237SOL    HW121173   3.690   1.081  11.920 -0.3107  1.2173  1.8011
 3237SOL    HW221174   3.579   1.175  11.887 -0.1180 -0.5243  0.3051
 3238SOL     OW21175   4.377   4.141   6.345 -0.3105 -0.2877  0.3859
 3238SOL    HW121176   4.439   4.151   6.417  0.1733  1.1480 -0.2171
 3238SOL    HW221177   4.435   4.109   6.275  1.5724  0.0158  1.8181
 3239SOL     OW21178   3.252   4.101  17.142  0.8514 -0.2285  0.2741
 3239SOL    HW121179   3.321   4.068  17.085 -0.4661  1.3027 -2.2219
 3239SOL    HW221180   3.300   4.126  17.221 -0.6830  1.1132  0.7888
 3240SOL     OW21181   3.594   0.258   1.390  0.5738  0.0923 -0.2079
 3240SOL    HW121182   3.501   0.279   1.379  0.5341 -0.6434 -1.3133
 3240SOL    HW221183   3.576   0.171   1.425  0.9777 -0.1079 -0.4952
 3241SOL     OW21184   2.776   2.658   0.970 -0.7356 -0.3134  0.3086
 3241SOL    HW121185   2.785   2.600   1.045 -0.2919 -0.3810  0.2006
 3241SOL    HW221186   2.868   2.675   0.950 -1.3626  0.7154 -1.7713
 3242SOL     OW21187   3.604   1.401  13.861  0.4870 -0.3262  0.1024
 3242SOL    HW121188   3.550   1.432  13.934  0.9655 -1.8280  1.1076
 3242SOL    HW221189   3.552   1.326  13.833  0.2638 -0.1528  0.0508
 3243SOL     OW21190   2.281   2.181  10.675 -0.2807 -0.1597 -0.2950
 3243SOL    HW121191   2.187   2.167  10.677 -0.3797  0.6247  0.3181
 3243SOL    HW221192   2.291   2.215  10.586 -2.1528  1.2602  0.0595
 3244SOL     OW21193   0.178   1.301   6.831 -0.1649 -0.0161  0.2167
 3244SOL    HW121194   0.125   1.330   6.905  1.8866  4.3408 -0.0154
 3244SOL    HW221195   0.119   1.306   6.755  1.3265  0.6234 -0.9058
 3245SOL     OW21196   3.739   0.268   8.145  0.6666 -0.6169 -0.4180
 3245SOL    HW121197   3.680   0.332   8.106  1.7268  0.2129 -0.6484
 3245SOL    HW221198   3.782   0.231   8.068  0.3272  0.5432 -1.1707
 3246SOL     OW21199   1.027   3.613   8.561  0.2789 -0.2034  0.6550
 3246SOL    HW121200   1.070   3.629   8.477  0.2487 -0.2321  0.6340
 3246SOL    HW221201   1.033   3.706   8.583  2.5200  0.4162 -2.6019
 3247SOL     OW21202   2.693   3.381   9.462  0.3665  0.1821 -0.1907
 3247SOL    HW121203   2.607   3.347   9.438  0.4823 -0.8582  0.8720
 3247SOL    HW221204   2.685   3.475   9.445  0.1473  0.7094  2.7081
 3248SOL     OW21205   0.107   0.210   4.512  0.5592  0.1037  0.5792
 3248SOL    HW121206   0.078   0.232   4.600  1.5044  0.8859  0.6983
 3248SOL    HW221207   0.078   0.279   4.452  1.9574  0.1341 -0.0790
 3249SOL     OW21208   0.809   0.817   2.739  0.1231 -0.3313  0.2946
 3249SOL    HW121209   0.817   0.872   2.661  0.3630  0.6537  1.0259
 3249SOL    HW221210   0.808   0.738   2.685 -0.6881  0.0218 -0.2066
 3250SOL     OW21211   1.024   3.160   6.232  0.0277  0.2473 -0.3544
 3250SOL    HW121212   0.959   3.114   6.179 -0.7998  1.1441 -0.1322
 3250SOL    HW221213   1.014   3.253   6.211  1.8067  0.5217 -0.0407
 3251SOL     OW21214   1.355   4.007   4.616  0.1440  0.1398 -0.0182
 3251SOL    HW121215   1.412   3.986   4.542  1.3929  0.6924  0.8115
 3251SOL    HW221216   1.308   3.926   4.638 -1.2771  0.5650 -1.4253
 3252SOL     OW21217   1.466   2.027   6.767 -0.2220 -0.5405 -0.2172
 3252SOL    HW121218   1.531   1.975   6.720  0.8024 -0.3598  1.0034
 3252SOL    HW221219   1.512   2.040   6.850  0.0967  1.4518 -0.7239
 3253SOL     OW21220   4.304   2.041   2.740  0.0633 -0.0609  0.0683
 3253SOL    HW121221   4.370   2.014   2.675 -0.5574 -0.4490 -0.3973
 3253SOL    HW221222   4.319   2.135   2.750  0.1601 -0.0538 -0.1358
 3254SOL     OW21223   0.774   0.241   9.635 -0.3306  0.4380 -0.3417
 3254SOL    HW121224   0.693   0.255   9.585 -0.9968 -1.1113  0.3135
 3254SOL    HW221225   0.752   0.190   9.713  1.6458 -0.4866 -0.3837
 3255SOL     OW21226   0.063   1.394   8.776  0.5944  0.3440  0.2595
 3255SOL    HW121227   0.128   1.439   8.722 -1.3250  0.6336 -1.8076
 3255SOL    HW221228   0.098   1.415   8.863 -1.0470  2.0374  0.5205
 3256SOL     OW21229   1.827   0.987   6.050 -0.1038 -0.3835 -0.6669
 3256SOL    HW121230   1.878   1.044   6.107  0.1892 -0.7865 -0.5275
 3256SOL    HW221231   1.745   1.036   6.061 -0.4596 -0.9030 -1.0191
 3257SOL     OW21232   3.883   2.546   1.697  0.1611 -0.2368 -0.1308
 3257SOL    HW121233   3.893   2.576   1.787  1.3890  2.3676 -1.1167
 3257SOL    HW221234   3.801   2.590   1.673 -0.6838 -0.9185  1.5132
 3258SOL     OW21235   1.981   1.272   3.264  0.3108  0.1306  0.2723
 3258SOL    HW121236   2.028   1.195   3.232  0.1556 -0.5976  1.7920
 3258SOL    HW221237   1.940   1.240   3.345  0.4434  0.4756  0.4732
 3259SOL     OW21238   2.803   3.852   7.945  0.5794 -0.0735 -0.7096
 3259SOL    HW121239   2.826   3.770   7.989  0.8998  0.0394 -0.6719
 3259SOL    HW221240   2.881   3.905   7.959  0.8837 -0.7039 -0.0506
 3260SOL     OW21241   2.567   2.924   3.790  0.2524 -0.1252 -0.5844
 3260SOL    HW121242   2.627   2.867   3.742 -0.2646  0.8683 -2.4094
 3260SOL    HW221243   2.526   2.957   3.710  1.9288  1.4886 -0.7891
 3261SOL     OW21244   0.036   4.685   5.857  0.3222 -0.0534  0.9670
 3261SOL    HW121245   4.672   4.661   5.881 -0.1714  0.3897 -0.4384
 3261SOL    HW221246   0.034   0.052   5.883  0.5469  0.3157 -0.3283
 3262SOL     OW21247   4.356   4.339   5.891 -0.0803 -0.1677  0.8456
 3262SOL    HW121248   4.415   4.272   5.856  0.7739  0.8431  0.3703
 3262SOL    HW221249   4.290   4.291   5.941  0.4499 -1.6845  0.1092
 3263SOL     OW21250   0.939   0.217   8.886  0.5231  0.1201 -0.4953
 3263SOL    HW121251   0.850   0.213   8.920  0.9197 -1.6026  0.3814
 3263SOL    HW221252   0.972   0.161   8.957  1.2965  0.8566 -0.2753
 3264SOL     OW21253   3.952   3.081   7.000 -0.2061 -0.2534  0.4897
 3264SOL    HW121254   4.038   3.082   7.041 -0.1027 -1.0064  0.2877
 3264SOL    HW221255   3.961   3.124   6.915 -1.4342 -0.4942  0.2302
 3265SOL     OW21256   0.362   1.204  12.149 -0.5033 -0.0973 -0.1542
 3265SOL    HW121257   0.357   1.223  12.055  0.2406 -2.4391 -0.6828
 3265SOL    HW221258   0.321   1.118  12.144 -1.8649  0.6894 -2.5224
 3266SOL     OW21259   1.637   0.094  15.486  0.4398 -0.0113 -0.3451
 3266SOL    HW121260   1.645   0.053  15.572  2.0581  0.2061 -0.3914
 3266SOL    HW221261   1.722   0.065  15.453  0.4728  0.7759 -0.9645
 3267SOL     OW21262   1.541   3.422   0.326  0.4563 -0.6461  0.1954
 3267SOL    HW121263   1.585   3.353   0.277 -0.6632 -0.3967 -1.1771
 3267SOL    HW221264   1.504   3.378   0.403 -0.1329  0.4252  0.5204
 3268SOL     OW21265   3.242   3.156   6.967  0.8391 -0.0994 -0.4545
 3268SOL    HW121266   3.290   3.187   7.043 -0.7182  0.3236  0.3475
 3268SOL    HW221267   3.153   3.140   6.999  0.4547  0.6370 -1.1195
 3269SOL     OW21268   3.844   1.178  11.658  0.0942  0.1564  0.4454
 3269SOL    HW121269   3.787   1.202  11.731 -0.8676  0.1674 -0.2985
 3269SOL    HW221270   3.786   1.166  11.583 -0.1834  1.8948  0.3878
 3270SOL     OW21271   3.671   1.454   8.265  0.4112  0.2277 -0.5634
 3270SOL    HW121272   3.651   1.453   8.358  1.0315  0.3775 -0.4322
 3270SOL    HW221273   3.761   1.421   8.263  0.5959  0.7504 -0.8635
 3271SOL     OW21274   3.621   1.678   0.096 -0.4576  0.2150 -0.3775
 3271SOL    HW121275   3.640   1.586   0.115  1.6858  0.7113 -0.1000
 3271SOL    HW221276   3.708   1.713   0.115 -0.2266 -1.1386  1.0518
 3272SOL     OW21277   3.445   3.903   9.062 -0.0475  0.0649 -0.8729
 3272SOL    HW121278   3.530   3.947   9.061  0.7755 -1.4471  2.1417
 3272SOL    HW221279   3.419   3.904   8.970 -1.7234 -0.3362 -0.4109
 3273SOL     OW21280   0.895   0.268   4.820  0.3956 -0.2926 -0.0761
 3273SOL    HW121281   0.882   0.177   4.848 -2.1379 -0.1194 -0.7469
 3273SOL    HW221282   0.812   0.307   4.846  0.9842  0.2582  0.9594
 3274SOL     OW21283   4.450   4.010  11.881  0.1355  0.2244  0.5433
 3274SOL    HW121284   4.478   4.099  11.859  0.5951  0.3902  1.7581
 3274SOL    HW221285   4.385   3.987  11.815 -0.2851 -1.0221  1.3932
 3275SOL     OW21286   2.478   2.420   1.048  0.1895 -0.5213  0.3645
 3275SOL    HW121287   2.467   2.340   0.997  0.9999 -0.3424 -0.0891
 3275SOL    HW221288   2.398   2.464   1.020  0.6830  0.1259 -0.0083
 3276SOL     OW21289   3.048   2.609   4.672  0.2268 -0.2657  0.2532
 3276SOL    HW121290   2.983   2.617   4.601 -1.0326 -1.5141  1.2558
 3276SOL    HW221291   3.127   2.620   4.619  0.2047 -0.6621  0.1356
 3277SOL     OW21292   3.459   4.415   6.499  0.8944  0.4661  0.4584
 3277SOL    HW121293   3.384   4.444   6.447  2.1919  0.8990 -1.1684
 3277SOL    HW221294   3.509   4.355   6.444  0.3477 -0.1603  0.6480
 3278SOL     OW21295   0.632   2.168  11.693  0.0459 -0.0728 -0.6431
 3278SOL    HW121296   0.696   2.223  11.738  0.3715 -2.1549  1.4449
 3278SOL    HW221297   0.674   2.119  11.622 -1.8176 -0.1357 -1.7117
 3279SOL     OW21298   3.082   4.654   8.582 -0.0641  0.6635  0.5549
 3279SOL    HW121299   3.153   4.702   8.624  1.3373 -0.7241 -0.2316
 3279SOL    HW221300   3.056   4.709   8.508 -0.2491 -0.6995 -0.3879
 3280SOL     OW21301   4.262   0.341   5.452 -0.2514  0.0803  0.4108
 3280SOL    HW121302   4.180   0.391   5.445 -1.0613 -1.1761  1.0127
 3280SOL    HW221303   4.234   0.267   5.506 -0.5207 -0.7819 -0.8833
 3281SOL     OW21304   2.058   3.738   9.561 -0.4798  0.0754 -0.7895
 3281SOL    HW121305   1.998   3.778   9.498 -1.6479 -0.0272  0.2411
 3281SOL    HW221306   2.035   3.784   9.641 -0.7526  0.4992 -1.1090
 3282SOL     OW21307   0.241   1.181  16.629 -0.0279 -0.2885 -0.4290
 3282SOL    HW121308   0.287   1.229  16.699  0.9151  1.1017 -1.9904
 3282SOL    HW221309   0.158   1.164  16.673 -1.5499 -0.1130 -3.2494
 3283SOL     OW21310   2.562   3.922  10.368 -0.2844  0.0851  0.5395
 3283SOL    HW121311   2.497   3.981  10.330 -0.9659 -1.3540 -0.5517
 3283SOL    HW221312   2.613   3.984  10.419 -1.6212  0.8220  0.9694
 3284SOL     OW21313   1.088   4.642  11.707  0.0715 -0.4642 -0.3396
 3284SOL    HW121314   1.033   4.606  11.638 -0.2359 -1.3090  0.3413
 3284SOL    HW221315   1.052   0.005  11.720 -0.1434 -0.7612  1.0586
 3285SOL     OW21316   4.342   2.747   6.929  0.2217  0.3746  0.0774
 3285SOL    HW121317   4.400   2.686   6.883 -0.7194 -0.1629 -0.3886
 3285SOL    HW221318   4.407   2.814   6.947  0.8877 -0.0485 -0.7463
 3286SOL     OW21319   4.230   2.974  17.349  0.4462 -0.1863 -0.3368
 3286SOL    HW121320   4.151   3.004  17.302  0.2470 -0.1887 -0.0015
 3286SOL    HW221321   4.240   2.881  17.330  0.7939 -0.1596 -0.2776
 3287SOL     OW21322   0.640   1.907  12.635  0.0416  0.2430  0.4267
 3287SOL    HW121323   0.669   1.823  12.600 -3.2048 -1.3497  1.5957
 3287SOL    HW221324   0.703   1.971  12.601  1.8858 -1.8819 -0.1291
 3288SOL     OW21325   0.933   1.171  14.813  0.5488  0.4913 -0.6931
 3288SOL    HW121326   0.963   1.261  14.824  2.0141  0.0052 -0.7375
 3288SOL    HW221327   0.998   1.125  14.759  0.8638  3.5823 -2.9246
 3289SOL     OW21328   2.125   3.981   4.478  0.0333 -0.0050  0.2986
 3289SOL    HW121329   2.120   3.960   4.385 -0.1327  2.0345 -0.1491
 3289SOL    HW221330   2.128   3.894   4.518 -0.7938  0.9550  2.4169
 3290SOL     OW21331   0.435   1.096  16.190 -0.4237 -0.1679  0.6155
 3290SOL    HW121332   0.527   1.086  16.214 -0.2274 -2.1327 -1.0156
 3290SOL    HW221333   0.430   1.189  16.168  0.7088 -0.4185 -0.6853
 3291SOL     OW21334   1.392   1.352   8.885 -0.0859  0.2049 -0.6054
 3291SOL    HW121335   1.463   1.366   8.947 -1.2782  1.3145  0.4982
 3291SOL    HW221336   1.413   1.270   8.839  3.0881  1.5471 -1.4738
 3292SOL     OW21337   1.918   1.456   1.949 -0.0922  0.4201 -0.8212
 3292SOL    HW121338   1.891   1.514   2.020  0.8091 -1.8404  1.3710
 3292SOL    HW221339   1.869   1.374   1.961  1.4794 -0.3849  0.0279
 3293SOL     OW21340   2.121   2.508  11.333 -0.8067  0.1227 -0.8828
 3293SOL    HW121341   2.049   2.477  11.279 -2.2466  4.7656 -1.5798
 3293SOL    HW221342   2.187   2.443  11.307 -1.3845 -0.1455 -1.6528
 3294SOL     OW21343   2.492   3.627   7.091 -0.4864 -0.3497  0.1531
 3294SOL    HW121344   2.489   3.565   7.165 -0.5596 -0.8742 -0.2871
 3294SOL    HW221345   2.428   3.693   7.116 -0.4650  0.1745 -1.2065
 3295SOL     OW21346   3.196   1.179   8.293 -0.2791 -0.3061  0.1536
 3295SOL    HW121347   3.162   1.260   8.331  0.2964  0.6946 -1.4729
 3295SOL    HW221348   3.263   1.206   8.231 -0.9392  0.6296 -0.1391
 3296SOL     OW21349   0.754   0.691   1.689 -0.3273 -0.3170 -0.0973
 3296SOL    HW121350   0.831   0.709   1.636 -0.9928 -1.6393 -1.5440
 3296SOL    HW221351   0.757   0.751   1.763  1.6714 -0.8451  0.2529
 3297SOL     OW21352   2.803   2.363   3.395  0.5619 -0.0379 -0.3075
 3297SOL    HW121353   2.769   2.288   3.445  0.3014  0.3734  0.1249
 3297SOL    HW221354   2.886   2.332   3.357 -0.4486 -2.3630 -0.6227
 3298SOL     OW21355   2.928   1.847   7.032  0.2211 -0.1573  0.5192
 3298SOL    HW121356   2.873   1.826   6.956  3.0746 -1.2310 -1.2715
 3298SOL    HW221357   2.939   1.763   7.075 -0.0748 -0.2341  0.4455
 3299SOL     OW21358   0.739   1.833   7.600  0.1949  0.2825  1.0178
 3299SOL    HW121359   0.715   1.923   7.622  0.7165  0.5373  0.5592
 3299SOL    HW221360   0.826   1.863   7.625  1.1574 -0.0279 -1.9304
 3300SOL     OW21361   3.367   1.142   7.486 -0.5080 -0.4321  0.1251
 3300SOL    HW121362   3.277   1.160   7.459 -0.4488  1.5013  1.2453
 3300SOL    HW221363   3.370   1.190   7.568  0.5431  0.9759 -0.7369
 3301SOL     OW21364   0.503   2.084  12.409  0.3808  0.1371  0.6414
 3301SOL    HW121365   0.444   2.119  12.476 -0.4774  0.6893 -0.4106
 3301SOL    HW221366   0.591   2.115  12.433  0.5129 -0.0821  0.4343
 3302SOL     OW21367   3.898   3.919   2.815  0.2708  0.5997 -0.4458
 3302SOL    HW121368   3.832   3.898   2.750  1.5196  1.3487 -1.9427
 3302SOL    HW221369   3.906   4.013   2.801  1.0150  0.6284  0.1494
 3303SOL     OW21370   1.973   0.852   1.734  0.4773 -0.5197  0.8938
 3303SOL    HW121371   1.885   0.886   1.744  0.4967 -0.9365  2.4775
 3303SOL    HW221372   1.958   0.787   1.666  0.3724  1.0060 -0.5236
 3304SOL     OW21373   1.528   0.310   8.679  0.1233 -0.3430  0.4258
 3304SOL    HW121374   1.483   0.284   8.759  0.4976 -1.4089  0.2793
 3304SOL    HW221375   1.576   0.382   8.720 -1.6416  0.4633  1.0734
 3305SOL     OW21376   2.718   0.999  10.021  0.2312  0.0258 -0.0914
 3305SOL    HW121377   2.767   0.999   9.939  1.4743 -1.1853  0.6534
 3305SOL    HW221378   2.639   0.957   9.986  1.4391 -1.3177 -1.1930
 3306SOL     OW21379   2.926   0.663  10.481 -0.1567 -0.1331 -0.6228
 3306SOL    HW121380   2.991   0.635  10.416  0.0617  0.3195 -0.5976
 3306SOL    HW221381   2.896   0.576  10.509  1.1519 -0.6453 -0.8106
 3307SOL     OW21382   0.370   4.071   2.661  0.3790  0.1513  0.2373
 3307SOL    HW121383   0.449   4.050   2.611  1.6424  3.1995  0.9075
 3307SOL    HW221384   0.316   4.108   2.592  1.7147 -0.1406 -0.9571
 3308SOL     OW21385   0.978   4.146   8.494 -0.3606 -0.1602  0.0300
 3308SOL    HW121386   0.936   4.148   8.408 -2.3383 -1.4405  0.9587
 3308SOL    HW221387   0.911   4.092   8.537 -1.6204  0.7939 -0.7286
 3309SOL     OW21388   3.490   3.978  10.227  0.4037  0.1907  0.3966
 3309SOL    HW121389   3.514   4.067  10.254  1.7264  0.0876 -0.4629
 3309SOL    HW221390   3.463   3.938  10.310  1.3920 -1.9824 -0.3539
 3310SOL     OW21391   1.746   0.254   9.452 -0.1491  0.7112  0.2660
 3310SOL    HW121392   1.778   0.321   9.392  0.0648  1.3620  1.1062
 3310SOL    HW221393   1.822   0.239   9.509  0.0196 -0.6643 -0.3316
 3311SOL     OW21394   4.344   2.535   5.102  0.3618  0.0406 -0.1336
 3311SOL    HW121395   4.313   2.559   5.190 -1.7613  0.6580 -1.0411
 3311SOL    HW221396   4.438   2.536   5.121  0.4375  1.7533 -0.6034
 3312SOL     OW21397   2.858   3.288   7.881  0.1023 -0.0142  0.3461
 3312SOL    HW121398   2.943   3.255   7.853  0.3170 -1.0419  2.2245
 3312SOL    HW221399   2.850   3.239   7.963 -1.1455 -3.4156 -1.8263
 3313SOL     OW21400   2.757   3.049   6.901  0.2869  0.0106  0.3640
 3313SOL    HW121401   2.739   3.097   6.820  0.7836 -2.1586 -1.0388
 3313SOL    HW221402   2.833   2.999   6.870 -0.1030  1.9630 -3.7839
 3314SOL     OW21403   1.235   1.914  12.330  0.1932  0.1957 -0.2714
 3314SOL    HW121404   1.316   1.876  12.296  1.8849  2.2634  1.5543
 3314SOL    HW221405   1.273   1.964  12.402  1.1623 -0.7189 -0.1447
 3315SOL     OW21406   1.775   1.487   2.480  0.3353  0.6278 -0.1728
 3315SOL    HW121407   1.699   1.461   2.428 -1.6195  0.5135  2.7053
 3315SOL    HW221408   1.790   1.570   2.434  0.4934  0.4773 -0.3948
 3316SOL     OW21409   0.398   3.762   5.766  0.4446 -0.1326 -0.2743
 3316SOL    HW121410   0.381   3.767   5.672  0.4656 -1.0086 -0.3212
 3316SOL    HW221411   0.336   3.692   5.784  0.6530 -0.4625 -0.8291
 3317SOL     OW21412   3.196   1.097   1.638 -0.3849 -0.4795  0.1635
 3317SOL    HW121413   3.241   1.128   1.716 -1.3612 -0.6438  0.7835
 3317SOL    HW221414   3.183   1.182   1.596  0.9561 -0.1595  0.3895
 3318SOL     OW21415   2.773   0.644   1.551  0.1437 -0.3358  1.2224
 3318SOL    HW121416   2.835   0.700   1.597 -0.4002 -0.1364  1.7060
 3318SOL    HW221417   2.687   0.681   1.572  0.6804  0.5410  1.8447
 3319SOL     OW21418   4.092   4.073  16.217  0.3789  0.0982 -0.0421
 3319SOL    HW121419   4.043   4.105  16.293  2.5949  0.0734  1.4032
 3319SOL    HW221420   4.112   4.156  16.172 -0.6319  1.4503  2.0193
 3320SOL     OW21421   4.645   0.004   2.821  0.4661  0.4448 -0.5874
 3320SOL    HW121422   4.658   0.096   2.841  0.8177  0.1551  0.5248
 3320SOL    HW221423   4.590   4.721   2.743 -0.4023 -1.6337  0.2245
 3321SOL     OW21424   2.875   2.930   6.398  0.3578 -0.2195 -0.8509
 3321SOL    HW121425   2.797   2.948   6.450  1.3811  2.1652 -0.1382
 3321SOL    HW221426   2.929   2.895   6.468  0.2036 -0.0379 -0.6422
 3322SOL     OW21427   4.583   3.711   2.870  0.5163 -0.4201 -0.2766
 3322SOL    HW121428   4.530   3.745   2.942  2.0492  2.2536 -0.4063
 3322SOL    HW221429   4.614   3.793   2.832  3.9605 -2.5054 -1.9692
 3323SOL     OW21430   0.040   2.731  12.267  0.1667 -0.3494  0.0983
 3323SOL    HW121431   0.030   2.637  12.278 -2.2026  0.0850  1.5834
 3323SOL    HW221432   4.703   2.745  12.195  0.5935  1.0608 -0.0148
 3324SOL     OW21433   2.787   4.379   7.186  0.0210 -0.1402  0.6373
 3324SOL    HW121434   2.764   4.287   7.187 -1.5906  0.2468 -2.2686
 3324SOL    HW221435   2.721   4.417   7.128  0.4773 -1.0796 -0.4825
 3325SOL     OW21436   2.716   0.190  15.543  0.1786  0.3887 -0.1642
 3325SOL    HW121437   2.779   0.119  15.547 -1.2211 -0.8550 -0.1536
 3325SOL    HW221438   2.635   0.154  15.507  1.6766 -0.4493 -2.6902
 3326SOL     OW21439   4.035   3.958   7.915  0.5322  0.0176 -0.4986
 3326SOL    HW121440   4.077   3.986   7.833 -0.0868 -0.4104 -0.9701
 3326SOL    HW221441   4.009   4.044   7.949  0.4827 -0.6017  1.0048
 3327SOL     OW21442   4.093   0.966   2.942 -0.2938 -0.4814  0.1297
 3327SOL    HW121443   4.086   1.051   2.986  0.1154 -1.2815  1.7421
 3327SOL    HW221444   4.129   0.996   2.859  0.5834 -1.6348  0.0880
 3328SOL     OW21445   1.433   3.821   0.870  0.2241  0.1828 -0.2721
 3328SOL    HW121446   1.439   3.896   0.929  0.6693  0.9228 -1.2507
 3328SOL    HW221447   1.345   3.784   0.874  0.4641 -0.4277 -0.6870
 3329SOL     OW21448   0.850   1.041   0.243  0.2933  0.7882 -0.3696
 3329SOL    HW121449   0.779   1.006   0.190  0.6637 -0.3140 -0.1522
 3329SOL    HW221450   0.799   1.019   0.321 -0.1191  0.4147 -0.7458
 3330SOL     OW21451   0.199   4.475   5.486  0.0646 -0.0106  0.1818
 3330SOL    HW121452   0.153   4.434   5.559 -0.6173 -0.7511 -0.6640
 3330SOL    HW221453   0.156   4.560   5.481 -1.5595 -0.9567 -1.8990
 3331SOL     OW21454   0.670   3.459   1.357  0.7574  0.3347 -0.2430
 3331SOL    HW121455   0.662   3.499   1.270 -1.5557 -1.8955 -1.0420
 3331SOL    HW221456   0.762   3.477   1.377  1.6503 -2.6009 -1.7731
 3332SOL     OW21457   2.806   0.714   3.295 -0.0680  0.6302  0.3891
 3332SOL    HW121458   2.717   0.707   3.262  0.9535 -1.0147 -2.0125
 3332SOL    HW221459   2.804   0.693   3.389  1.9383 -1.7009 -0.0854
 3333SOL     OW21460   2.508   2.932  13.962  0.4665 -0.0707 -0.3783
 3333SOL    HW121461   2.420   2.925  13.926 -0.2993  0.9149  1.3651
 3333SOL    HW221462   2.523   2.847  14.003 -0.2303 -1.7068 -3.4806
 3334SOL     OW21463   1.829   0.754   3.227  0.2379  0.5566  0.4623
 3334SOL    HW121464   1.788   0.841   3.223 -0.4642  0.2691  1.6154
 3334SOL    HW221465   1.884   0.760   3.305 -1.2982 -1.8829  1.6882
 3335SOL     OW21466   3.469   2.562  15.371  0.2268 -0.8210 -0.2744
 3335SOL    HW121467   3.506   2.651  15.373  1.4275 -1.3121 -0.7258
 3335SOL    HW221468   3.438   2.552  15.461 -0.8971 -1.7518 -0.7678
 3336SOL     OW21469   1.370   0.722   8.715  0.2165  0.7459  0.2318
 3336SOL    HW121470   1.428   0.792   8.687  3.6858 -1.6573  1.3885
 3336SOL    HW221471   1.398   0.713   8.806  0.5511  1.9162  0.2410
 3337SOL     OW21472   4.009   4.362   8.334 -0.6322 -0.5557 -0.4367
 3337SOL    HW121473   4.014   4.276   8.292 -2.0185 -0.2062 -1.3061
 3337SOL    HW221474   4.017   4.420   8.258 -1.6823 -0.9579 -0.8526
 3338SOL     OW21475   3.456   0.541   9.931  0.0720 -0.5189  0.6965
 3338SOL    HW121476   3.435   0.610   9.993  0.7131 -0.3196  0.6911
 3338SOL    HW221477   3.551   0.542   9.943  0.1466 -0.0295  0.0626
 3339SOL     OW21478   0.632   2.114   5.296 -0.0736 -0.0070  0.3569
 3339SOL    HW121479   0.683   2.034   5.307  0.3911 -0.0974 -2.4849
 3339SOL    HW221480   0.548   2.072   5.316 -0.5767  0.4887 -0.7051
 3340SOL     OW21481   0.727   0.888   5.462  0.2099 -0.5887 -0.3545
 3340SOL    HW121482   0.692   0.817   5.407 -0.5698 -0.0248 -0.5881
 3340SOL    HW221483   0.786   0.839   5.519  1.3226  0.4596 -0.6203
 3341SOL     OW21484   0.486   1.451  12.590  0.7742 -0.6805 -0.8089
 3341SOL    HW121485   0.408   1.481  12.638  0.6849  1.4563 -2.2862
 3341SOL    HW221486   0.446   1.403  12.518 -1.7388  1.5570 -0.9239
 3342SOL     OW21487   1.225   3.928  15.264  0.3756 -0.1290  0.2379
 3342SOL    HW121488   1.219   3.957  15.173 -1.1312 -1.0128  0.0489
 3342SOL    HW221489   1.235   4.007  15.316 -0.9420 -1.5305  2.6236
 3343SOL     OW21490   3.925   0.497   8.445  1.0629  0.2368 -0.1260
 3343SOL    HW121491   3.924   0.488   8.350 -0.1008  0.6535 -0.1544
 3343SOL    HW221492   3.840   0.468   8.476  1.8178 -0.9290  0.8634
 3344SOL     OW21493   4.606   2.318   5.815  0.4188 -0.1945  0.2473
 3344SOL    HW121494   4.607   2.369   5.896  0.6748 -2.5032  1.6885
 3344SOL    HW221495   4.680   2.351   5.765 -0.0948 -0.4873 -0.7100
 3345SOL     OW21496   1.196   2.863   3.895 -0.1018  0.0393  0.6174
 3345SOL    HW121497   1.175   2.901   3.809 -0.4250  0.9539  1.0984
 3345SOL    HW221498   1.247   2.942   3.911  0.7634 -0.1177 -1.3244
 3346SOL     OW21499   0.596   0.041  15.013 -0.1596 -0.4307  0.2706
 3346SOL    HW121500   0.531   0.039  14.943 -2.9469  0.0813  2.8482
 3346SOL    HW221501   0.606   4.673  15.033  2.3052 -0.3669 -0.7369
 3347SOL     OW21502   3.766   2.709   7.792 -0.1210 -0.3086  0.5033
 3347SOL    HW121503   3.763   2.778   7.726  0.7890  0.5330  1.3499
 3347SOL    HW221504   3.697   2.729   7.855 -0.5235 -0.4382  0.1045
 3348SOL     OW21505   0.713   1.516  16.331 -0.0599  0.0467 -0.2773
 3348SOL    HW121506   0.674   1.602  16.312 -0.9363 -0.6520 -1.6285
 3348SOL    HW221507   0.701   1.473  16.246 -0.9406  0.2242 -0.2402
 3349SOL     OW21508   0.950   3.875   0.777 -0.0403  0.0447 -0.6058
 3349SOL    HW121509   0.915   3.940   0.838  2.0943  1.3797 -0.8212
 3349SOL    HW221510   0.946   3.927   0.697  1.0793 -1.6312 -1.7605
 3350SOL     OW21511   3.403   0.117  10.654 -0.0978 -0.2788 -0.1180
 3350SOL    HW121512   3.429   0.209  10.663 -0.1078 -0.2614 -0.2658
 3350SOL    HW221513   3.308   0.125  10.655 -0.0933  0.2294 -3.4916
 3351SOL     OW21514   0.830   3.019   6.058 -0.5879 -0.3250  0.5553
 3351SOL    HW121515   0.751   2.967   6.068 -2.0651  1.3749 -2.2450
 3351SOL    HW221516   0.887   2.948   6.028 -0.0541 -0.2864  1.4652
 3352SOL     OW21517   2.766   1.696   7.353 -0.2450  0.0852 -0.1723
 3352SOL    HW121518   2.719   1.754   7.413 -0.1568 -1.5594  1.4815
 3352SOL    HW221519   2.799   1.628   7.412 -1.6521 -0.5828 -0.1624
 3353SOL     OW21520   2.661   3.670  11.431 -0.0231 -0.1118  0.7203
 3353SOL    HW121521   2.729   3.697  11.492 -0.3971  1.1530  0.5773
 3353SOL    HW221522   2.695   3.690  11.344  2.7041 -1.3901  1.4840
 3354SOL     OW21523   3.439   1.886  10.623  0.8492  0.6867  0.4154
 3354SOL    HW121524   3.391   1.806  10.604  0.8294 -0.2658  4.4747
 3354SOL    HW221525   3.524   1.879  10.579 -0.9291  1.1713 -3.0459
 3355SOL     OW21526   4.346   0.491  14.478  0.1399 -0.1271 -0.2939
 3355SOL    HW121527   4.391   0.558  14.529 -1.7876 -0.1847  1.5311
 3355SOL    HW221528   4.366   0.510  14.387  0.6188  0.1068 -0.1368
 3356SOL     OW21529   2.607   2.925  10.304  0.6248  0.1891 -0.0873
 3356SOL    HW121530   2.557   3.004  10.284 -0.9570 -0.7568  0.1059
 3356SOL    HW221531   2.580   2.909  10.394 -1.1228 -0.2299 -0.6890
 3357SOL     OW21532   3.867   0.950   0.956 -0.7445  0.2254  0.2213
 3357SOL    HW121533   3.783   0.970   0.914  1.3840 -2.0288 -5.0892
 3357SOL    HW221534   3.900   1.031   0.995  1.1013 -0.3464 -0.1415
 3358SOL     OW21535   2.514   2.602  14.308  0.0128 -0.6236 -0.1875
 3358SOL    HW121536   2.579   2.535  14.331 -0.0902 -0.5447  0.3187
 3358SOL    HW221537   2.534   2.633  14.219 -2.3810  1.9790  0.2121
 3359SOL     OW21538   0.273   0.467   6.099  0.2563  0.0047 -0.1910
 3359SOL    HW121539   0.261   0.426   6.185  1.9940 -0.6152 -0.2477
 3359SOL    HW221540   0.292   0.386   6.053  0.8481 -0.2978  0.5757
 3360SOL     OW21541   4.293   4.196   9.196 -0.7633 -0.3039 -0.7347
 3360SOL    HW121542   4.250   4.272   9.156  1.5754  1.2966 -0.2126
 3360SOL    HW221543   4.250   4.184   9.281 -0.3862 -0.1660 -0.5241
 3361SOL     OW21544   4.016   4.522   6.065 -0.3830 -0.2359  0.1753
 3361SOL    HW121545   3.934   4.561   6.034 -0.5139 -1.5102 -1.0950
 3361SOL    HW221546   3.980   4.482   6.144 -0.1784 -0.7866 -0.0037
 3362SOL     OW21547   3.330   3.899  15.227  0.2684 -0.2910 -0.3257
 3362SOL    HW121548   3.241   3.895  15.262  0.9822 -0.4573  1.4493
 3362SOL    HW221549   3.339   3.993  15.239 -2.1972 -0.0230 -0.4323
 3363SOL     OW21550   3.444   4.631  16.142 -0.7662 -0.0548 -0.1794
 3363SOL    HW121551   3.511   4.675  16.089 -1.6023  0.2553 -0.9791
 3363SOL    HW221552   3.496   4.571  16.195  0.1470 -0.8769 -2.0129
 3364SOL     OW21553   0.398   0.448  12.970 -0.1925 -0.0420 -0.1120
 3364SOL    HW121554   0.370   0.457  13.061  0.1321 -1.8094  0.1544
 3364SOL    HW221555   0.361   0.533  12.943 -2.3535 -1.2529 -0.9581
 3365SOL     OW21556   1.707   0.985  16.528 -0.4111 -0.3449 -0.1169
 3365SOL    HW121557   1.730   1.059  16.471 -0.6281  0.2598  0.5764
 3365SOL    HW221558   1.630   1.017  16.575  0.0660 -1.8758  1.7171
 3366SOL     OW21559   4.455   1.733  15.710 -0.2811  0.0648 -0.2080
 3366SOL    HW121560   4.422   1.741  15.800 -0.1452  2.1928 -0.3554
 3366SOL    HW221561   4.420   1.810  15.666 -1.6701 -0.2555  0.3298
 3367SOL     OW21562   4.462   0.660   5.711 -0.0607  0.0082  0.5308
 3367SOL    HW121563   4.400   0.715   5.663 -0.6524  1.0516  2.5060
 3367SOL    HW221564   4.528   0.640   5.644 -1.3620  0.5583 -0.9085
 3368SOL     OW21565   2.479   1.897   9.731  0.0557  0.7806 -0.2308
 3368SOL    HW121566   2.488   1.887   9.636 -0.3778  1.6985 -0.3637
 3368SOL    HW221567   2.543   1.967   9.745  0.9573  0.0786 -0.8162
 3369SOL     OW21568   3.460   4.633  12.872  0.5495 -0.1091 -0.3975
 3369SOL    HW121569   3.433   4.684  12.949  2.1828  1.1444 -0.6648
 3369SOL    HW221570   3.489   4.702  12.813  1.2128 -0.5009 -0.5273
 3370SOL     OW21571   1.689   2.909  14.861 -0.2100  0.0404  0.2748
 3370SOL    HW121572   1.731   2.830  14.896  1.8680  1.0554  0.0716
 3370SOL    HW221573   1.770   2.952  14.832  0.7990 -1.8891  0.1720
 3371SOL     OW21574   0.138   2.584   5.234 -0.1025 -0.4430 -0.0030
 3371SOL    HW121575   0.165   2.616   5.147  0.6131 -1.6450 -0.2230
 3371SOL    HW221576   0.194   2.631   5.296 -1.7833 -1.0176  1.9250
 3372SOL     OW21577   3.984   2.307   5.808  0.2808  0.4241 -0.3375
 3372SOL    HW121578   3.933   2.228   5.789  2.6463 -0.9967 -0.7068
 3372SOL    HW221579   4.070   2.269   5.828 -0.1456  0.0458  0.7519
 3373SOL     OW21580   3.499   4.277   3.102  0.5904  0.4249  0.1479
 3373SOL    HW121581   3.553   4.284   3.181  2.6252 -1.9711 -1.0149
 3373SOL    HW221582   3.543   4.210   3.050 -1.2050 -0.7973  0.2238
 3374SOL     OW21583   0.317   3.376   5.713  0.1259  0.3593  0.1937
 3374SOL    HW121584   0.408   3.384   5.740  0.9451 -3.5526 -1.4799
 3374SOL    HW221585   0.281   3.443   5.770  0.8040 -0.2887  1.3746
 3375SOL     OW21586   0.486   0.738   4.330 -0.4564 -0.5641 -0.3571
 3375SOL    HW121587   0.548   0.672   4.300 -1.3862 -0.9028 -1.5575
 3375SOL    HW221588   0.407   0.717   4.278 -2.7488  2.2977  1.9617
 3376SOL     OW21589   3.492   0.344  11.927 -0.1333  0.0957  0.3281
 3376SOL    HW121590   3.554   0.415  11.942 -1.6113  1.1331  1.5909
 3376SOL    HW221591   3.410   0.394  11.923 -0.4240 -0.3882  0.2278
 3377SOL     OW21592   0.040   2.725   5.698  0.0075  0.0670  0.2904
 3377SOL    HW121593   4.684   2.682   5.725  0.7433 -0.5606  1.5240
 3377SOL    HW221594   0.026   2.710   5.604 -0.3929  1.4076  0.1435
 3378SOL     OW21595   4.308   2.367   0.857  0.2973  0.2497  0.6916
 3378SOL    HW121596   4.269   2.426   0.792  0.5458 -1.0869 -0.6698
 3378SOL    HW221597   4.397   2.395   0.837 -0.3596  2.2481  0.5460
 3379SOL     OW21598   3.835   2.860  15.892  0.0425 -0.3719  0.4785
 3379SOL    HW121599   3.866   2.783  15.845  0.3459  0.2333 -0.3233
 3379SOL    HW221600   3.899   2.922  15.856  0.5669 -2.3026 -1.8894
 3380SOL     OW21601   0.393   3.260   3.066 -0.3326 -0.3091 -0.1355
 3380SOL    HW121602   0.324   3.262   3.001  0.9490  0.7257 -1.4669
 3380SOL    HW221603   0.425   3.350   3.063 -1.7081  0.2082  0.5564
 3381SOL     OW21604   4.454   2.090   4.407 -0.1242 -0.1419  0.1791
 3381SOL    HW121605   4.437   2.075   4.500  0.0305  2.2349  0.5838
 3381SOL    HW221606   4.421   2.179   4.393  0.0782 -0.2476 -1.0014
 3382SOL     OW21607   0.761   4.410   8.298  0.0127  0.7262 -0.1779
 3382SOL    HW121608   0.724   4.453   8.220  0.4209 -1.1346 -1.3874
 3382SOL    HW221609   0.690   4.435   8.357 -0.1904 -0.9237  0.2609
 3383SOL     OW21610   0.998   2.625   7.569 -0.2774  0.1816  0.3525
 3383SOL    HW121611   0.936   2.606   7.639 -0.4815  1.7862  0.6220
 3383SOL    HW221612   1.074   2.590   7.615  0.2345  1.9429  0.8730
 3384SOL     OW21613   2.407   2.064   8.748  0.4646  0.3182 -0.3848
 3384SOL    HW121614   2.461   1.998   8.705 -1.4452 -0.4317 -1.6090
 3384SOL    HW221615   2.442   2.139   8.700 -2.5037  1.7099 -0.3680
 3385SOL     OW21616   4.100   1.886  13.657 -0.2292 -0.2764  0.3758
 3385SOL    HW121617   4.152   1.876  13.737  1.8230  0.6352 -0.8468
 3385SOL    HW221618   4.032   1.945  13.687  0.1194  0.4524 -0.2821
 3386SOL     OW21619   4.235   4.633   2.569 -0.5915  0.2155  0.0564
 3386SOL    HW121620   4.171   4.700   2.593  0.6657  1.3971  0.0794
 3386SOL    HW221621   4.177   4.578   2.515 -2.3548  2.0159  0.1307
 3387SOL     OW21622   1.730   0.507   4.573  0.1776  0.4880 -0.5338
 3387SOL    HW121623   1.706   0.585   4.622  2.9438  2.6292 -2.6071
 3387SOL    HW221624   1.776   0.537   4.495 -0.8437  2.0538 -0.5346
 3388SOL     OW21625   2.044   0.313   4.176  0.0403 -0.0769 -0.1442
 3388SOL    HW121626   1.976   0.247   4.182  0.7970 -0.7645  0.9467
 3388SOL    HW221627   2.107   0.259   4.225 -2.5956 -1.3550  1.8506
 3389SOL     OW21628   3.686   1.824   3.227 -0.0634  0.5282  0.0662
 3389SOL    HW121629   3.761   1.833   3.169  0.0807 -0.9762  0.0071
 3389SOL    HW221630   3.708   1.739   3.266  3.5257  2.2354  1.8163
 3390SOL     OW21631   4.012   0.902   3.402  0.6693 -0.0362  0.2343
 3390SOL    HW121632   4.014   0.856   3.486  0.3369 -1.8815 -0.7686
 3390SOL    HW221633   4.108   0.910   3.397  0.7527 -0.7346  0.8403
 3391SOL     OW21634   1.653   1.610   7.853  0.8099  0.5318  0.1784
 3391SOL    HW121635   1.645   1.525   7.896 -0.1014  0.1681 -0.7276
 3391SOL    HW221636   1.747   1.627   7.847  0.6234  0.7588 -1.9279
 3392SOL     OW21637   1.552   0.611   0.635  0.4214 -0.4431  0.1734
 3392SOL    HW121638   1.540   0.517   0.643 -0.2302 -0.2500  1.3979
 3392SOL    HW221639   1.524   0.647   0.719 -2.8717 -2.1203 -0.2107
 3393SOL     OW21640   2.373   4.543   8.646 -0.5642  0.0847  0.0701
 3393SOL    HW121641   2.350   4.487   8.573 -0.2783  0.4829 -0.3280
 3393SOL    HW221642   2.445   4.488   8.677  0.2372  0.6507 -0.7706
 3394SOL     OW21643   3.786   4.014   5.201  0.6636  0.2172 -0.7033
 3394SOL    HW121644   3.851   4.048   5.139  1.6193 -0.3654 -0.0166
 3394SOL    HW221645   3.712   3.986   5.146 -0.0707 -0.0896  0.4330
 3395SOL     OW21646   0.665   2.736  13.036 -0.4622  0.4894  0.3306
 3395SOL    HW121647   0.709   2.785  12.966  0.8712 -1.5256 -0.2566
 3395SOL    HW221648   0.665   2.802  13.105  0.2628  1.7350 -0.8555
 3396SOL     OW21649   2.656   1.829   9.094 -0.2239  0.1027  0.3648
 3396SOL    HW121650   2.667   1.902   9.033 -1.1898  0.9801  1.2342
 3396SOL    HW221651   2.570   1.796   9.068 -0.0661  0.4609 -0.6149
 3397SOL     OW21652   1.958   3.098  10.896 -0.4013  0.4452 -0.3141
 3397SOL    HW121653   2.027   3.035  10.875 -0.1267  0.7246 -0.2512
 3397SOL    HW221654   1.957   3.071  10.988 -1.4613 -2.2872 -1.1037
 3398SOL     OW21655   2.115   1.482  13.710 -0.3134  0.0321  0.2234
 3398SOL    HW121656   2.160   1.566  13.700 -0.4447  0.0452 -0.2485
 3398SOL    HW221657   2.084   1.474  13.620  1.2299  0.9767 -0.3927
 3399SOL     OW21658   2.838   0.945   4.740 -0.6741 -0.1940  0.1893
 3399SOL    HW121659   2.787   0.883   4.792 -1.0656  1.2175  1.4982
 3399SOL    HW221660   2.847   1.023   4.795 -1.3528 -1.1281  1.6236
 3400SOL     OW21661   1.387   2.346  13.788  0.6179  0.2127  0.2046
 3400SOL    HW121662   1.452   2.402  13.746  2.6255  0.1379  3.1839
 3400SOL    HW221663   1.343   2.402  13.853 -1.5157  0.5129 -1.5222
 3401SOL     OW21664   3.318   0.401  11.668 -0.0301 -0.3403 -0.1302
 3401SOL    HW121665   3.354   0.313  11.659 -1.9959 -0.6951 -4.2583
 3401SOL    HW221666   3.394   0.455  11.645 -1.2347  1.9271  1.3042
 3402SOL     OW21667   0.193   3.016   5.260  0.3346 -0.2592 -0.0603
 3402SOL    HW121668   0.189   2.928   5.297  1.0104 -0.2012  0.1512
 3402SOL    HW221669   0.162   2.995   5.171  0.3798  1.2761 -0.4401
 3403SOL     OW21670   0.623   1.284   8.968  0.3333 -0.2516  0.3995
 3403SOL    HW121671   0.620   1.379   8.979 -0.1950 -0.0017 -1.8841
 3403SOL    HW221672   0.706   1.264   9.011  0.2800 -0.4165  0.4230
 3404SOL     OW21673   2.764   2.095   6.191  0.3505 -0.3694 -0.9685
 3404SOL    HW121674   2.846   2.142   6.176 -0.4277  1.5234  0.6782
 3404SOL    HW221675   2.802   2.016   6.229  0.4149  0.8875  1.6251
 3405SOL     OW21676   3.783   3.538   8.094 -0.0940 -0.2093 -0.8372
 3405SOL    HW121677   3.773   3.588   8.014  1.7219 -1.5370 -1.8712
 3405SOL    HW221678   3.693   3.505   8.102  1.1218 -3.1937  0.4712
 3406SOL     OW21679   4.194   2.233   3.602 -0.1492 -0.3025  0.3939
 3406SOL    HW121680   4.129   2.301   3.581  1.5660  0.6494 -1.9450
 3406SOL    HW221681   4.151   2.152   3.576  0.9958 -0.6977 -0.2790
 3407SOL     OW21682   0.426   2.127   4.215 -0.8151 -0.1663 -0.0676
 3407SOL    HW121683   0.357   2.086   4.268 -0.1499 -2.0444 -0.6465
 3407SOL    HW221684   0.487   2.152   4.284  0.4571 -2.0581 -0.5079
 3408SOL     OW21685   1.877   1.372  16.079 -0.0972  0.0525  0.4890
 3408SOL    HW121686   1.915   1.425  16.149 -0.0292  1.3725 -0.5365
 3408SOL    HW221687   1.823   1.445  16.045  0.3717  0.1910  0.0489
 3409SOL     OW21688   2.276   3.085   5.450  0.0584 -0.0618  0.0022
 3409SOL    HW121689   2.274   3.018   5.382  0.9374  1.4771 -1.5489
 3409SOL    HW221690   2.236   3.166   5.418 -1.1043 -0.3112  0.8253
 3410SOL     OW21691   1.997   0.279   9.620  0.1120  0.2511 -0.0955
 3410SOL    HW121692   2.028   0.356   9.573 -0.4402  1.9511  2.3705
 3410SOL    HW221693   2.074   0.223   9.609 -1.0717 -1.1033 -1.4720
 3411SOL     OW21694   0.465   0.553  14.162 -0.1105  0.9396  0.4745
 3411SOL    HW121695   0.502   0.467  14.146 -1.0933  0.8197 -1.1274
 3411SOL    HW221696   0.376   0.549  14.127  0.9169 -0.6973 -1.9087
 3412SOL     OW21697   3.846   2.073   7.690  0.0845  0.5673 -0.0574
 3412SOL    HW121698   3.902   2.018   7.635 -0.0811 -3.9136  4.3032
 3412SOL    HW221699   3.910   2.143   7.706 -1.2505  1.8774 -0.5035
 3413SOL     OW21700   0.398   2.097  17.164  0.2229  0.6745 -0.5495
 3413SOL    HW121701   0.378   2.190  17.165  0.6229  0.7549 -0.1140
 3413SOL    HW221702   0.355   2.074  17.082 -2.3200  1.4342  0.5584
 3414SOL     OW21703   3.699   0.237   7.103 -0.0670  0.1208  0.4076
 3414SOL    HW121704   3.626   0.180   7.078  0.7456 -0.1495 -1.3379
 3414SOL    HW221705   3.656   0.315   7.139  0.2134  0.5714 -0.2203
 3415SOL     OW21706   3.245   2.183   5.711  0.1158 -0.6223  0.0461
 3415SOL    HW121707   3.264   2.237   5.635  1.6419 -0.5538  0.4724
 3415SOL    HW221708   3.296   2.236   5.772 -0.0357 -1.3525  0.8100
 3416SOL     OW21709   2.108   3.625   7.768  0.3733  0.0722 -0.1685
 3416SOL    HW121710   2.023   3.614   7.726  0.3493  3.3453 -0.9491
 3416SOL    HW221711   2.139   3.697   7.712 -1.4925 -0.0460 -1.3545
 3417SOL     OW21712   1.405   0.736   4.007  0.8559  0.0445 -0.2064
 3417SOL    HW121713   1.366   0.784   4.079 -1.4949 -0.5411 -1.0838
 3417SOL    HW221714   1.497   0.729   4.032  0.8410 -0.8169 -0.3847
 3418SOL     OW21715   4.096   3.964   4.855 -0.4726  0.0511 -0.1771
 3418SOL    HW121716   4.183   3.935   4.830 -0.8110 -0.8876 -0.2721
 3418SOL    HW221717   4.063   3.995   4.770  0.9870  0.7661 -0.4680
 3419SOL     OW21718   0.912   3.214   5.784 -0.1357 -0.5115  0.2257
 3419SOL    HW121719   0.947   3.173   5.706 -1.1186  0.2992 -0.6462
 3419SOL    HW221720   0.971   3.176   5.849  0.5083  1.1707  0.6268
 3420SOL     OW21721   1.599   3.173   5.032  0.0473 -0.3682  0.0338
 3420SOL    HW121722   1.509   3.206   5.037 -0.2731 -1.4060  1.2601
 3420SOL    HW221723   1.644   3.246   4.989  1.3410 -1.9746 -1.3054
 3421SOL     OW21724   2.531   4.265   2.643  0.9026  0.2350 -0.1318
 3421SOL    HW121725   2.532   4.331   2.712 -0.1426  1.0453 -0.9009
 3421SOL    HW221726   2.535   4.322   2.566 -1.5003 -0.0804 -0.4770
 3422SOL     OW21727   1.316   3.716   2.049  0.1844  0.1910  0.5155
 3422SOL    HW121728   1.267   3.764   2.115 -0.8750 -0.3786  0.1389
 3422SOL    HW221729   1.335   3.632   2.091 -0.5683 -0.4380 -0.4118
 3423SOL     OW21730   2.204   2.875   7.347  0.5829 -0.2087 -0.0973
 3423SOL    HW121731   2.155   2.956   7.358  1.7300  0.5539 -0.6970
 3423SOL    HW221732   2.201   2.858   7.253  3.4418  1.7651 -0.5066
 3424SOL     OW21733   2.214   1.827  10.648 -0.3097 -0.2223  0.7210
 3424SOL    HW121734   2.273   1.901  10.660 -2.1493  1.0826  1.8433
 3424SOL    HW221735   2.274   1.769  10.602  0.7801  0.3853  1.3767
 3425SOL     OW21736   1.245   4.431   5.343 -0.1274 -0.4595 -0.3201
 3425SOL    HW121737   1.279   4.457   5.257  0.4476 -0.0113  0.0423
 3425SOL    HW221738   1.217   4.341   5.326  0.7256 -0.8312  0.2834
 3426SOL     OW21739   0.789   3.932   8.637  0.4160 -0.0274  0.1677
 3426SOL    HW121740   0.790   3.836   8.636 -0.7890 -0.0467  1.0719
 3426SOL    HW221741   0.695   3.942   8.627  0.3788 -0.6258 -0.0719
 3427SOL     OW21742   3.636   0.073  15.944  0.0491 -0.6557  0.2336
 3427SOL    HW121743   3.682   0.045  15.865  0.6444 -0.9047  0.6684
 3427SOL    HW221744   3.698   0.082  16.016  0.2400 -1.5193  0.1716
 3428SOL     OW21745   0.411   0.766   4.853  0.0514 -0.0236  0.2121
 3428SOL    HW121746   0.420   0.671   4.844  0.9533 -0.0393  1.3391
 3428SOL    HW221747   0.378   0.802   4.770  0.3285 -0.6578 -0.1730
 3429SOL     OW21748   3.953   4.238   2.029  0.3467 -0.1465 -0.1742
 3429SOL    HW121749   4.001   4.257   1.948 -1.1366 -1.4262 -1.3391
 3429SOL    HW221750   3.882   4.180   2.001 -1.8130  1.0943  2.7640
 3430SOL     OW21751   2.663   2.456   8.141 -1.1276  0.7315  0.0124
 3430SOL    HW121752   2.716   2.510   8.083 -1.9663 -0.6722 -2.0501
 3430SOL    HW221753   2.592   2.430   8.083  0.3932  0.9491 -1.9059
 3431SOL     OW21754   1.733   1.075  11.427 -0.0192  0.0066  0.2616
 3431SOL    HW121755   1.720   1.169  11.433  1.0287 -0.0542  3.6807
 3431SOL    HW221756   1.728   1.058  11.332 -1.5001  1.7135  0.0415
 3432SOL     OW21757   3.087   3.019   7.362  0.3409  0.2001 -0.4136
 3432SOL    HW121758   3.016   2.996   7.422  0.6258 -0.1615 -0.2116
 3432SOL    HW221759   3.060   2.987   7.276 -0.9943 -2.3059  0.9413
 3433SOL     OW21760   2.935   3.558   8.299  0.4081 -0.0472 -0.1067
 3433SOL    HW121761   2.929   3.564   8.204 -0.8503  1.3305  0.0641
 3433SOL    HW221762   2.891   3.474   8.312  0.4463  0.1673  1.3458
 3434SOL     OW21763   3.270   1.936   0.643  0.6920  0.1685 -0.3494
 3434SOL    HW121764   3.242   2.027   0.631 -3.1992 -0.6057  2.8290
 3434SOL    HW221765   3.181   1.899   0.642  1.4235 -1.5541 -0.9271
 3435SOL     OW21766   0.329   2.337   9.680 -0.1384  0.2149 -0.3715
 3435SOL    HW121767   0.253   2.365   9.731 -0.2598  0.4979 -0.7094
 3435SOL    HW221768   0.385   2.311   9.754 -0.6795  0.5854  0.1736
 3436SOL     OW21769   1.705   1.565  15.983  0.5482  0.4738 -0.3615
 3436SOL    HW121770   1.650   1.642  15.968 -1.6510 -0.7513  1.2298
 3436SOL    HW221771   1.674   1.530  16.067  1.3987 -2.0525 -1.1026
 3437SOL     OW21772   2.524   4.398  15.822  0.3379  0.0172 -0.4361
 3437SOL    HW121773   2.527   4.469  15.885 -0.3136  0.5033 -0.9657
 3437SOL    HW221774   2.562   4.450  15.751  1.4608  0.2045  0.3014
 3438SOL     OW21775   4.464   0.683   3.423  0.8653  0.0255 -0.0535
 3438SOL    HW121776   4.372   0.677   3.399  1.0983  0.1453 -0.9847
 3438SOL    HW221777   4.496   0.718   3.339  2.0691 -1.7666 -0.3355
 3439SOL     OW21778   3.819   4.722   8.206 -0.0249 -0.0146  0.3944
 3439SOL    HW121779   3.768   4.723   8.126 -0.8880 -0.8976  0.9355
 3439SOL    HW221780   3.748   0.023   8.264 -0.4228 -0.0899 -0.0624
 3440SOL     OW21781   4.662   0.421   9.356 -0.4284 -0.1081  0.1068
 3440SOL    HW121782   0.009   0.437   9.417 -1.1818  0.1661  0.9204
 3440SOL    HW221783   4.600   0.380   9.416  0.1032  1.5818  1.8179
 3441SOL     OW21784   4.106   1.619   4.681 -0.1591  0.4296  0.2350
 3441SOL    HW121785   4.125   1.584   4.594 -1.5266  1.1593 -0.3702
 3441SOL    HW221786   4.025   1.667   4.662 -0.0913  0.9839  1.3460
 3442SOL     OW21787   1.835   1.896  10.698 -0.0723  0.0503  0.4428
 3442SOL    HW121788   1.772   1.931  10.761  1.1169  2.3685  0.3499
 3442SOL    HW221789   1.777   1.887  10.623 -2.7149  0.8141  2.3890
 3443SOL     OW21790   4.638   3.318   3.851  0.3755  0.3109 -0.4913
 3443SOL    HW121791   4.664   3.229   3.827 -0.9892 -0.2283  0.0085
 3443SOL    HW221792   4.568   3.315   3.787  1.4683 -2.1832 -1.5561
 3444SOL     OW21793   3.059   1.769   0.105 -0.5794  0.9105 -0.6558
 3444SOL    HW121794   3.116   1.844   0.121 -0.4060  1.2786 -3.0750
 3444SOL    HW221795   3.012   1.816   0.036 -0.8312  0.6782 -0.6399
 3445SOL     OW21796   3.875   2.206  12.340 -0.2360  0.3486 -0.0620
 3445SOL    HW121797   3.861   2.112  12.357 -0.7039 -0.2585 -3.6948
 3445SOL    HW221798   3.955   2.216  12.390  0.2001 -0.2496 -0.6342
 3446SOL     OW21799   0.442   0.953   2.607  0.0654  0.2014  0.2038
 3446SOL    HW121800   0.463   1.033   2.559  0.7298 -0.7542 -1.1321
 3446SOL    HW221801   0.348   0.969   2.619  0.1976  0.1161  1.2814
 3447SOL     OW21802   3.800   4.408  16.320  0.5683 -0.0961  0.4206
 3447SOL    HW121803   3.737   4.342  16.290  0.0308  0.8262 -0.4706
 3447SOL    HW221804   3.735   4.476  16.339  1.3892  0.5013  1.0277
 3448SOL     OW21805   3.959   0.590   3.254 -0.0724  0.0665  0.8781
 3448SOL    HW121806   3.931   0.519   3.196  0.7415  1.1515 -0.8545
 3448SOL    HW221807   3.904   0.582   3.332 -1.1053 -0.5125  0.0916
 3449SOL     OW21808   2.932   3.748   1.850 -0.6732  0.6218 -0.3280
 3449SOL    HW121809   2.969   3.689   1.784 -2.9909 -0.7382 -0.4229
 3449SOL    HW221810   2.865   3.691   1.888  1.2451 -1.4510 -0.0011
 3450SOL     OW21811   2.932   2.826   0.200  0.1845  0.3401  1.3111
 3450SOL    HW121812   2.977   2.813   0.284  0.6578 -1.4021  0.8000
 3450SOL    HW221813   2.848   2.858   0.234 -0.6217 -0.7009  0.3275
 3451SOL     OW21814   2.270   0.665   3.974 -0.9218  0.1386  0.0043
 3451SOL    HW121815   2.189   0.704   3.939 -0.3091  1.2514 -0.1731
 3451SOL    HW221816   2.275   0.580   3.929  1.0986 -1.8942  4.1242
 3452SOL     OW21817   2.014   4.324   9.776 -0.3849  0.1426  0.9193
 3452SOL    HW121818   1.985   4.248   9.724 -2.1611  0.4582  1.4573
 3452SOL    HW221819   2.087   4.285   9.825  0.0175 -1.5961 -1.0429
 3453SOL     OW21820   2.715   0.820   6.388 -0.1831  0.8304 -0.2264
 3453SOL    HW121821   2.732   0.887   6.454  1.4145 -0.9446  1.1607
 3453SOL    HW221822   2.772   0.849   6.317 -1.2973  1.9727 -0.6602
 3454SOL     OW21823   1.638   4.522   9.300 -0.5892  0.6480  0.0702
 3454SOL    HW121824   1.728   4.547   9.278 -0.5738  1.3432  0.9011
 3454SOL    HW221825   1.584   4.598   9.276  0.3853  1.0028 -0.9953
 3455SOL     OW21826   0.085   0.150   4.154  0.8047 -0.0152 -0.4120
 3455SOL    HW121827   0.083   0.246   4.150 -2.4932 -0.0210  0.8869
 3455SOL    HW221828   0.004   0.126   4.110 -0.0265  0.4543  0.8648
 3456SOL     OW21829   4.245   1.751   5.489 -0.3168  0.2371  0.2702
 3456SOL    HW121830   4.324   1.789   5.529  0.5090  0.2795 -1.3672
 3456SOL    HW221831   4.188   1.828   5.498 -1.7030 -0.6685 -0.9650
 3457SOL     OW21832   3.130   2.113   7.331  0.5683 -0.4364  0.3793
 3457SOL    HW121833   3.042   2.084   7.307 -0.2072  2.5181 -0.3927
 3457SOL    HW221834   3.120   2.161   7.413  1.7051 -2.2576  1.5684
 3458SOL     OW21835   3.377   3.018   2.933 -0.3103  0.5660  0.3437
 3458SOL    HW121836   3.389   2.923   2.941 -0.0716  0.6970  1.5480
 3458SOL    HW221837   3.316   3.032   2.861  0.2307  2.2811  0.2351
 3459SOL     OW21838   3.999   1.985  15.715 -0.3987 -0.4451  0.4044
 3459SOL    HW121839   4.075   2.040  15.694 -2.4937  2.3474  0.1168
 3459SOL    HW221840   3.943   2.053  15.754 -0.1034 -1.2688  2.2907
 3460SOL     OW21841   2.332   3.542   0.779  0.2084  0.6262 -0.7471
 3460SOL    HW121842   2.364   3.458   0.810 -1.4837  0.7613  1.3649
 3460SOL    HW221843   2.238   3.530   0.796  0.8919 -0.3002  2.2860
 3461SOL     OW21844   2.733   3.779  14.562 -0.1789  0.2534 -0.0599
 3461SOL    HW121845   2.807   3.831  14.529 -0.3026  0.8454  0.5802
 3461SOL    HW221846   2.664   3.839  14.534 -1.9017 -2.0835 -0.7088
 3462SOL     OW21847   4.709   0.519   7.699 -0.2750  0.5611 -0.1641
 3462SOL    HW121848   4.637   0.457   7.708 -0.6558  1.3603  2.1547
 3462SOL    HW221849   4.692   0.560   7.614  1.6812  1.4866 -0.1032
 3463SOL     OW21850   3.668   0.434   8.544 -0.2028 -0.0762 -0.1756
 3463SOL    HW121851   3.580   0.454   8.514 -0.1277 -0.0903 -0.4124
 3463SOL    HW221852   3.648   0.383   8.622 -2.2936  3.1929  1.3991
 3464SOL     OW21853   1.329   0.041   2.045 -0.4150  0.6112 -0.0768
 3464SOL    HW121854   1.292   4.679   2.057 -2.1649  1.5513  1.3383
 3464SOL    HW221855   1.251   0.081   2.008 -2.0964  0.5761  3.4199
 3465SOL     OW21856   2.560   1.268  17.306  0.7048  0.3556 -0.1652
 3465SOL    HW121857   2.601   1.331  17.247  1.2551  0.5317  0.4020
 3465SOL    HW221858   2.644   1.242  17.345  0.5668 -0.1565 -0.2127
 3466SOL     OW21859   1.366   3.329   3.861  0.5136  0.4114  0.0514
 3466SOL    HW121860   1.366   3.333   3.765  0.3482  1.3233  0.0907
 3466SOL    HW221861   1.460   3.333   3.881  0.8098 -3.1518 -0.4865
 3467SOL     OW21862   4.225   0.979   6.470 -0.2230 -0.0203  0.3325
 3467SOL    HW121863   4.289   0.929   6.520  0.1520  0.2682  0.1426
 3467SOL    HW221864   4.187   0.911   6.414 -0.9081  0.2480  0.4723
 3468SOL     OW21865   2.984   3.562  11.482 -0.0374 -0.0412  0.3526
 3468SOL    HW121866   2.919   3.616  11.528  0.2922  0.8691 -0.2572
 3468SOL    HW221867   2.959   3.475  11.515 -0.1981 -0.2238 -0.2514
 3469SOL     OW21868   2.023   1.105   9.372  0.4627 -0.2131 -0.0323
 3469SOL    HW121869   1.951   1.164   9.353  1.1118  0.3625 -0.7021
 3469SOL    HW221870   2.037   1.111   9.466  0.8924  1.8628 -0.2282
 3470SOL     OW21871   1.156   2.525  10.278 -0.5729  0.0673 -0.3163
 3470SOL    HW121872   1.157   2.563  10.366 -1.9821  0.1880 -0.3531
 3470SOL    HW221873   1.082   2.465  10.285 -0.1716 -0.4539 -0.5586
 3471SOL     OW21874   2.157   4.638   4.812  0.2849  0.2852 -0.5647
 3471SOL    HW121875   2.062   4.631   4.826  0.4514  0.9324  0.8594
 3471SOL    HW221876   2.167   0.005   4.834  0.1090  0.5730 -1.6831
 3472SOL     OW21877   2.985   2.396  16.749  0.2739  0.1350 -0.1641
 3472SOL    HW121878   2.955   2.341  16.821 -1.4634  1.4165  0.0991
 3472SOL    HW221879   2.960   2.345  16.673  0.1218  0.5964 -0.4240
 3473SOL     OW21880   3.243   4.136   3.503  0.6496 -0.0903  0.3892
 3473SOL    HW121881   3.180   4.200   3.471 -0.3405 -2.5991 -2.7128
 3473SOL    HW221882   3.197   4.132   3.586  1.0483  0.9997  0.6628
 3474SOL     OW21883   1.414   4.498   7.941 -0.0868 -0.3239  0.1414
 3474SOL    HW121884   1.465   4.544   8.007  0.1124 -0.3978  0.0390
 3474SOL    HW221885   1.329   4.540   7.954 -0.7294 -1.6501  0.3214
 3475SOL     OW21886   1.949   3.385  14.025 -0.3711 -0.4138  0.2992
 3475SOL    HW121887   1.962   3.439  14.102  0.2183 -1.5033  0.9590
 3475SOL    HW221888   1.886   3.443  13.981  0.5141  1.3061  1.3034
 3476SOL     OW21889   2.045   1.805   2.562  0.2716  0.5740  0.3195
 3476SOL    HW121890   2.123   1.749   2.559  1.6071  2.3793  1.4740
 3476SOL    HW221891   2.051   1.836   2.652 -0.3107  2.7810 -0.4018
 3477SOL     OW21892   0.204   3.588   4.041 -0.1197  0.8678 -0.0085
 3477SOL    HW121893   0.142   3.532   4.088  1.3751 -1.8685 -1.2802
 3477SOL    HW221894   0.269   3.522   4.017 -0.8070  1.0494 -2.3339
 3478SOL     OW21895   2.575   2.510   7.632 -0.0239 -0.0758  0.1672
 3478SOL    HW121896   2.487   2.515   7.669 -0.6793 -3.1992 -0.9531
 3478SOL    HW221897   2.570   2.577   7.564 -2.1014  0.3840  0.7709
 3479SOL     OW21898   3.800   2.222  11.958  0.0712  0.7735  0.2309
 3479SOL    HW121899   3.729   2.161  11.978  0.1301 -0.0855 -2.2415
 3479SOL    HW221900   3.870   2.165  11.987 -0.8001 -0.4214  0.0044
 3480SOL     OW21901   2.061   3.164   7.196 -0.2353 -0.1043  0.1216
 3480SOL    HW121902   2.048   3.255   7.221  0.2859 -0.3089  1.1340
 3480SOL    HW221903   2.023   3.121   7.274  0.2466  1.1287  1.0340
 3481SOL     OW21904   1.924   0.845   8.520  0.3341 -0.3106 -0.6445
 3481SOL    HW121905   1.915   0.848   8.424 -1.2504 -0.0008 -0.4874
 3481SOL    HW221906   1.852   0.907   8.535  0.3829 -0.1532 -1.0472
 3482SOL     OW21907   1.607   1.733   1.642  0.6716  0.6854  0.4931
 3482SOL    HW121908   1.616   1.639   1.626  0.2848  0.9063 -1.0900
 3482SOL    HW221909   1.512   1.735   1.659  0.6558 -0.2876  0.4758
 3483SOL     OW21910   2.454   4.352   4.940  0.6533  0.4076 -0.4242
 3483SOL    HW121911   2.530   4.359   4.997 -0.5087  2.4648  0.8817
 3483SOL    HW221912   2.478   4.289   4.873  1.6447  0.0123  0.3060
 3484SOL     OW21913   4.297   3.267   1.061 -0.2355 -0.0875  1.0665
 3484SOL    HW121914   4.228   3.201   1.055  0.4139 -0.8397  1.7174
 3484SOL    HW221915   4.251   3.350   1.062  1.1288  0.6851  0.2901
 3485SOL     OW21916   3.771   1.983   6.450 -0.0734 -0.5605  0.1556
 3485SOL    HW121917   3.765   2.067   6.494 -2.8038 -0.3807 -0.5676
 3485SOL    HW221918   3.795   2.002   6.359 -3.2383 -1.1626 -0.8102
 3486SOL     OW21919   4.402   4.278  15.601  0.6346  0.4501  0.2563
 3486SOL    HW121920   4.441   4.364  15.618  0.9394  0.7050 -1.7075
 3486SOL    HW221921   4.447   4.217  15.660  3.4674  0.4738 -1.8438
 3487SOL     OW21922   2.704   0.136  12.971  0.4660 -0.1610  0.5680
 3487SOL    HW121923   2.707   0.203  12.903 -0.2367  1.6796  2.3230
 3487SOL    HW221924   2.702   0.056  12.918  0.2786  0.2026  0.0316
 3488SOL     OW21925   3.401   1.421   8.158  0.3803  0.0207 -0.1476
 3488SOL    HW121926   3.399   1.510   8.193  1.0465  1.2277 -3.1855
 3488SOL    HW221927   3.482   1.383   8.192  0.3934  1.5111  1.5053
 3489SOL     OW21928   4.309   0.300   5.967  0.4802  0.1119 -0.1568
 3489SOL    HW121929   4.264   0.367   6.019 -1.4201 -0.9004 -0.4732
 3489SOL    HW221930   4.403   0.308   5.982  0.8357 -0.2580 -2.1913
 3490SOL     OW21931   1.660   0.646   6.409  0.2014 -0.6215 -0.1987
 3490SOL    HW121932   1.699   0.562   6.385  3.7095  1.4412 -1.7457
 3490SOL    HW221933   1.609   0.616   6.484  0.7644 -0.7419  0.1377
 3491SOL     OW21934   1.007   0.467  17.056 -0.1262 -0.0787  0.3599
 3491SOL    HW121935   1.052   0.541  17.014  1.2957 -1.7017 -0.9677
 3491SOL    HW221936   0.989   0.412  16.980 -0.4698  0.4419  0.0600
 3492SOL     OW21937   4.332   0.533   7.172 -0.1636  0.3601 -0.1028
 3492SOL    HW121938   4.259   0.592   7.191  0.4983  0.3044  2.6454
 3492SOL    HW221939   4.407   0.571   7.218 -1.4983  2.6092  0.2517
 3493SOL     OW21940   1.617   4.052   8.535  0.2331 -0.2757 -0.4532
 3493SOL    HW121941   1.701   4.094   8.550 -0.3675  1.2439 -1.2748
 3493SOL    HW221942   1.605   4.069   8.441  0.1241 -0.1424 -0.4154
 3494SOL     OW21943   3.747   2.652   5.104  0.0598  0.1646  0.3324
 3494SOL    HW121944   3.749   2.573   5.158 -1.4091  0.9040  1.4326
 3494SOL    HW221945   3.702   2.712   5.164 -0.1802 -0.0631  0.3814
 3495SOL     OW21946   3.776   0.464   1.345 -0.3943 -0.0195  0.3905
 3495SOL    HW121947   3.706   0.528   1.358  0.4183  0.8800  0.3867
 3495SOL    HW221948   3.727   0.382   1.344  0.0997 -0.3374  1.5684
 3496SOL     OW21949   2.752   1.464   2.114 -0.1012 -0.4339 -0.1140
 3496SOL    HW121950   2.727   1.381   2.156 -0.9706  0.1365  0.4887
 3496SOL    HW221951   2.699   1.526   2.164  3.9689  2.7587  0.2383
 3497SOL     OW21952   3.480   1.730  13.132  0.2702  0.1397  0.6185
 3497SOL    HW121953   3.520   1.643  13.141  0.4627 -0.0641 -2.2537
 3497SOL    HW221954   3.424   1.716  13.209 -0.1767 -0.5861  0.1647
 3498SOL     OW21955   0.390   3.796   3.007 -0.0518 -0.5277  0.1726
 3498SOL    HW121956   0.454   3.842   3.061 -2.3781  0.2095  2.3014
 3498SOL    HW221957   0.310   3.831   3.046  0.6434  1.4103 -0.1108
 3499SOL     OW21958   0.674   2.971   1.493 -0.0058  0.2890  0.1847
 3499SOL    HW121959   0.672   3.067   1.500 -2.4794  0.1616  1.1579
 3499SOL    HW221960   0.767   2.951   1.491  0.0969  0.6913  0.8946
 3500SOL     OW21961   1.714   2.366  14.448 -0.1370  0.2966  0.4094
 3500SOL    HW121962   1.667   2.378  14.366  1.0186  1.0977 -0.1275
 3500SOL    HW221963   1.643   2.391  14.507  1.8350  1.8559  2.1107
 3501SOL     OW21964   3.164   2.748   6.799 -0.3992  0.0011  0.3861
 3501SOL    HW121965   3.256   2.771   6.788  0.3174 -3.0081  0.1009
 3501SOL    HW221966   3.177   2.705   6.883 -1.1276 -1.0634 -0.0562
 3502SOL     OW21967   3.119   3.194   7.795  0.3316 -0.3751  0.0799
 3502SOL    HW121968   3.156   3.170   7.880  3.5727  2.7317 -0.4373
 3502SOL    HW221969   3.188   3.165   7.736 -0.8571 -0.3651 -1.3263
 3503SOL     OW21970   2.792   4.705   9.264  0.1732 -0.0405 -0.6490
 3503SOL    HW121971   2.710   4.697   9.215  0.3855 -0.0798 -0.9983
 3503SOL    HW221972   2.755   0.010   9.347  2.1974  0.9165 -0.1001
 3504SOL     OW21973   3.110   2.357  12.839  0.0647  0.7388  0.2838
 3504SOL    HW121974   3.097   2.448  12.814  0.3823  1.2418  1.9544
 3504SOL    HW221975   3.205   2.350  12.827  0.1672  1.5245  0.6759
 3505SOL     OW21976   3.792   2.295   0.508 -0.5033 -0.3408  0.0203
 3505SOL    HW121977   3.850   2.234   0.463  1.3871  1.8257 -0.4663
 3505SOL    HW221978   3.708   2.250   0.509 -2.1115  2.6194  0.7104
 3506SOL     OW21979   1.285   3.535   8.904  0.6294 -0.3935  0.0703
 3506SOL    HW121980   1.331   3.564   8.983  0.5293 -0.2043  0.0597
 3506SOL    HW221981   1.354   3.489   8.856 -0.0751  1.4241 -2.6561
 3507SOL     OW21982   2.226   3.221  11.105 -0.1434  0.6382  0.3841
 3507SOL    HW121983   2.159   3.291  11.105 -0.5206  0.2883  1.3275
 3507SOL    HW221984   2.182   3.162  11.166  0.0664 -0.4508 -0.5337
 3508SOL     OW21985   1.458   3.802   3.894 -0.0840 -0.2152 -0.3692
 3508SOL    HW121986   1.447   3.748   3.973  0.9061  0.1111 -0.0013
 3508SOL    HW221987   1.540   3.846   3.915  0.5473 -1.4339 -0.2678
 3509SOL     OW21988   4.588   4.587   6.295 -0.7415  0.6874 -0.2905
 3509SOL    HW121989   4.584   4.503   6.248  1.2564  0.5077 -0.1336
 3509SOL    HW221990   4.683   4.600   6.299 -0.1312 -3.9598  1.2919
 3510SOL     OW21991   1.582   4.616   1.339  0.3069 -0.3282 -0.3658
 3510SOL    HW121992   1.675   4.637   1.343  0.0948  0.4881  0.4829
 3510SOL    HW221993   1.580   4.572   1.255  0.2470 -0.0315 -0.5218
 3511SOL     OW21994   3.001   3.345   8.765 -0.3593 -0.2037 -0.1912
 3511SOL    HW121995   3.048   3.287   8.824  1.1092  2.6498  1.4515
 3511SOL    HW221996   2.982   3.422   8.818 -0.3213 -0.7231  0.5789
 3512SOL     OW21997   0.190   2.250   2.735 -0.4140 -0.1804  0.3971
 3512SOL    HW121998   0.108   2.202   2.744 -0.0040 -0.7581  1.0240
 3512SOL    HW221999   0.198   2.240   2.640 -0.6867  2.1556  0.1225
 3513SOL     OW22000   2.821   0.569   1.039 -0.6318 -0.1696  0.3288
 3513SOL    HW122001   2.828   0.612   0.953  4.2206 -0.2292  0.6574
 3513SOL    HW222002   2.743   0.612   1.074 -0.6371  0.2590 -0.2108
 3514SOL     OW22003   2.383   1.062  17.487 -0.2105  0.0583  0.0286
 3514SOL    HW122004   2.441   1.123  17.441 -1.0868  0.1847 -0.9040
 3514SOL    HW222005   2.409   0.978  17.451  0.9691  0.0634  0.8681
 3515SOL     OW22006   4.408   3.963   9.614 -0.6201  0.0152 -0.0749
 3515SOL    HW122007   4.437   3.885   9.567 -2.7385 -2.2058  2.3639
 3515SOL    HW222008   4.335   3.993   9.561 -2.0434 -0.6681  1.5086
 3516SOL     OW22009   1.620   1.411   0.736 -0.1804 -0.3428 -0.2062
 3516SOL    HW122010   1.588   1.492   0.695  1.4252 -0.1670 -1.0828
 3516SOL    HW222011   1.609   1.356   0.658  0.0666  1.8053 -1.7484
 3517SOL     OW22012   1.030   1.184  16.095  0.3369  0.7437 -0.1164
 3517SOL    HW122013   1.071   1.183  16.009 -0.9063  0.7502 -0.7050
 3517SOL    HW222014   1.031   1.278  16.116 -0.3988  0.5976  0.5608
 3518SOL     OW22015   2.155   4.046   5.522  0.8992 -0.2090 -0.0360
 3518SOL    HW122016   2.142   4.055   5.428  1.7449 -1.1713 -0.2409
 3518SOL    HW222017   2.244   4.083   5.519  0.7615  0.2668  1.4500
 3519SOL     OW22018   2.156   1.978   6.796  0.0484  0.0608  0.1700
 3519SOL    HW122019   2.169   2.057   6.848 -0.2388 -0.1547  0.5745
 3519SOL    HW222020   2.223   1.979   6.728 -0.8739  2.6458 -0.6791
 3520SOL     OW22021   2.017   2.520   2.855 -0.0607 -0.0937 -0.3147
 3520SOL    HW122022   2.083   2.484   2.795  0.4760 -0.7420  0.6587
 3520SOL    HW222023   1.947   2.465   2.820 -0.0915  0.9803 -1.9394
 3521SOL     OW22024   0.827   0.593   6.644  0.2383 -0.0842 -0.7613
 3521SOL    HW122025   0.823   0.503   6.676 -0.2393  0.2124 -0.0168
 3521SOL    HW222026   0.755   0.633   6.692 -0.0174 -1.3956 -0.0714
 3522SOL     OW22027   3.122   4.393   3.429 -0.3805 -0.1795 -0.1161
 3522SOL    HW122028   3.182   4.443   3.484 -1.5520  2.1008 -0.8938
 3522SOL    HW222029   3.164   4.413   3.345  0.4087 -0.5104  0.2026
 3523SOL     OW22030   1.912   1.924   8.464 -0.4644  0.3361 -0.1966
 3523SOL    HW122031   1.825   1.914   8.425  0.3085 -2.0787 -1.3108
 3523SOL    HW222032   1.898   1.976   8.543 -1.7574  1.2909 -1.0547
 3524SOL     OW22033   3.350   2.650   1.859 -0.2069 -0.1729  0.0836
 3524SOL    HW122034   3.347   2.664   1.954  1.7379  0.2020  0.1005
 3524SOL    HW222035   3.439   2.671   1.830  0.9369 -0.9877  3.0059
 3525SOL     OW22036   0.304   3.353   7.258  0.1154  0.0152  0.0689
 3525SOL    HW122037   0.364   3.407   7.207 -1.3926  1.1092 -0.5180
 3525SOL    HW222038   0.249   3.315   7.189 -0.3886  0.9347 -0.0320
 3526SOL     OW22039   2.320   1.413   8.627 -0.3892 -0.3306 -0.1793
 3526SOL    HW122040   2.299   1.328   8.665  0.6882 -0.1586  0.8131
 3526SOL    HW222041   2.395   1.389   8.573  0.2198  0.5894  0.2569
 3527SOL     OW22042   3.804   1.303   7.190  0.3844  0.0160 -0.4119
 3527SOL    HW122043   3.790   1.213   7.162  0.5078 -0.3651  0.7842
 3527SOL    HW222044   3.722   1.340   7.157  1.0045 -0.6662 -2.7173
 3528SOL     OW22045   4.596   0.124  12.710  0.4833  0.2733  0.2042
 3528SOL    HW122046   4.630   0.124  12.620  0.1739  0.2694  0.0881
 3528SOL    HW222047   4.507   0.156  12.703  0.1451 -0.7300 -0.0978
 3529SOL     OW22048   1.678   1.846   8.385  0.1447  0.0016  0.3695
 3529SOL    HW122049   1.670   1.770   8.443 -2.0031  1.2134  1.6676
 3529SOL    HW222050   1.631   1.824   8.305  0.6267  2.5239 -0.6064
 3530SOL     OW22051   1.249   1.581   7.438  0.0007  0.2466  0.6560
 3530SOL    HW122052   1.195   1.597   7.515  1.7079  2.1388  1.4649
 3530SOL    HW222053   1.335   1.558   7.474  0.0283 -2.1164 -0.8614
 3531SOL     OW22054   2.440   1.540  10.954 -0.0659 -0.4034 -0.7295
 3531SOL    HW122055   2.375   1.609  10.942 -1.9951 -1.9252  0.9576
 3531SOL    HW222056   2.396   1.494  11.026  0.1792 -0.7982 -0.8302
 3532SOL     OW22057   0.386   1.208   8.917 -0.0145  0.0080 -0.3864
 3532SOL    HW122058   0.480   1.217   8.933 -0.2865 -1.1685  1.8549
 3532SOL    HW222059   0.357   1.299   8.929 -0.4495 -0.5133  2.3343
 3533SOL     OW22060   0.969   1.000   4.976  0.4136 -0.1639 -0.1527
 3533SOL    HW122061   0.950   0.918   5.021 -1.6060  1.2842  1.5941
 3533SOL    HW222062   0.974   1.062   5.049 -0.4667 -0.0733 -0.1629
 3534SOL     OW22063   2.073   2.737   6.742  0.4881 -0.0486 -0.0829
 3534SOL    HW122064   2.030   2.821   6.759  1.9536  0.8759 -0.8717
 3534SOL    HW222065   2.034   2.688   6.814  0.4250 -1.1546 -0.8638
 3535SOL     OW22066   4.202   0.667   3.298  0.0087  0.5827  0.5145
 3535SOL    HW122067   4.241   0.684   3.213  0.0798  0.0261  0.4390
 3535SOL    HW222068   4.109   0.650   3.283  0.1545  0.1157  0.1656
 3536SOL     OW22069   2.425   1.183   7.386 -0.2255  0.5933 -0.2833
 3536SOL    HW122070   2.484   1.225   7.449 -0.1362  0.6242 -0.3869
 3536SOL    HW222071   2.401   1.255   7.327  1.4423  0.8612 -0.6290
 3537SOL     OW22072   1.911   4.461   1.062 -0.3632  0.2400  0.2909
 3537SOL    HW122073   1.863   4.379   1.048 -2.5514  1.5318  0.0957
 3537SOL    HW222074   1.972   4.443   1.133  0.8976  0.3261 -0.7775
 3538SOL     OW22075   3.399   4.531   5.802 -1.1638  0.0641  0.0236
 3538SOL    HW122076   3.388   4.624   5.781 -1.0300  0.4104  1.4884
 3538SOL    HW222077   3.475   4.508   5.748 -1.8184  0.5782 -1.1130
 3539SOL     OW22078   1.907   4.706   4.845  0.1824 -0.4591 -0.4835
 3539SOL    HW122079   1.883   0.044   4.777 -1.9113  0.1200  0.7966
 3539SOL    HW222080   1.867   0.028   4.918  1.5577  1.7555 -1.1443
 3540SOL     OW22081   2.600   4.370   3.329  0.1642  0.0235 -0.4886
 3540SOL    HW122082   2.572   4.376   3.238 -2.1754 -0.4487  0.2128
 3540SOL    HW222083   2.677   4.314   3.321  1.0117  1.5397 -2.8949
 3541SOL     OW22084   3.868   0.481   4.333  0.1982 -0.3521  0.5150
 3541SOL    HW122085   3.807   0.479   4.260  0.9417  2.2608 -0.1689
 3541SOL    HW222086   3.803   0.436   4.387 -1.5835  0.8852 -0.6110
 3542SOL     OW22087   0.819   3.410   8.033  0.4198 -0.1770 -0.4039
 3542SOL    HW122088   0.885   3.478   8.019  0.2192  0.1353  0.1724
 3542SOL    HW222089   0.825   3.379   7.943  0.1601 -1.3461 -0.0143
 3543SOL     OW22090   3.835   4.112  13.658 -0.4227 -0.6508  0.4559
 3543SOL    HW122091   3.925   4.119  13.624 -0.1913  0.2489  1.2377
 3543SOL    HW222092   3.790   4.081  13.580  0.1466 -0.7513  0.1656
 3544SOL     OW22093   2.719   3.884  10.836  0.0029 -0.0880 -0.1450
 3544SOL    HW122094   2.710   3.975  10.865  4.5922  0.7122 -1.1949
 3544SOL    HW222095   2.696   3.908  10.746 -1.8919  0.4748  0.4844
 3545SOL     OW22096   1.398   1.282   7.340  0.0505 -0.9194 -0.2059
 3545SOL    HW122097   1.354   1.227   7.275  1.1237 -1.5270 -0.4270
 3545SOL    HW222098   1.329   1.279   7.407  1.8113 -0.8117  1.6030
 3546SOL     OW22099   2.921   0.896   2.754  0.2935 -0.1465 -0.3666
 3546SOL    HW122100   2.981   0.822   2.761  1.7379  1.0877  0.2860
 3546SOL    HW222101   2.971   0.966   2.797  0.9366 -1.0594  0.3649
 3547SOL     OW22102   0.685   2.637   3.444 -0.4292 -0.2739  0.7171
 3547SOL    HW122103   0.690   2.573   3.373 -0.4208  0.8449 -0.2955
 3547SOL    HW222104   0.775   2.667   3.462 -0.1233 -1.9724  1.9669
 3548SOL     OW22105   3.644   1.963   5.476  0.1066  0.1246  0.0690
 3548SOL    HW122106   3.733   1.963   5.441 -0.3277 -0.5763 -1.0105
 3548SOL    HW222107   3.604   1.955   5.390  1.0515 -1.2106 -0.2543
 3549SOL     OW22108   3.889   2.251  15.766  0.0315 -0.0936  0.1123
 3549SOL    HW122109   3.806   2.291  15.739  0.8513 -0.1893 -2.6145
 3549SOL    HW222110   3.902   2.283  15.855  1.9081  0.2408 -0.2807
 3550SOL     OW22111   1.893   3.317   5.690  0.1131  0.2955  0.2256
 3550SOL    HW122112   1.903   3.252   5.760 -0.5554 -0.8691 -0.7588
 3550SOL    HW222113   1.979   3.296   5.653  0.9228  1.7668  1.2686
 3551SOL     OW22114   2.584   1.222   7.854 -0.1732 -0.2238  0.0872
 3551SOL    HW122115   2.600   1.239   7.761 -1.3168 -0.5747 -0.1723
 3551SOL    HW222116   2.493   1.192   7.853 -0.3616  0.3634 -0.5636
 3552SOL     OW22117   0.210   3.317   6.773  0.2413  0.0991  0.3948
 3552SOL    HW122118   0.197   3.295   6.865 -1.9970 -1.1129 -0.2005
 3552SOL    HW222119   0.289   3.269   6.746 -1.4126 -0.2787 -3.7818
 3553SOL     OW22120   0.495   1.567   6.484 -0.4498  0.1808  0.0111
 3553SOL    HW122121   0.530   1.637   6.540 -0.2786  0.5214 -0.5164
 3553SOL    HW222122   0.412   1.545   6.526  0.0244 -0.8040  0.4316
 3554SOL     OW22123   0.273   2.028   0.749  0.2129  0.2858  0.4767
 3554SOL    HW122124   0.350   2.043   0.804  1.4430 -0.0710 -1.1355
 3554SOL    HW222125   0.199   2.030   0.810 -2.2258 -0.0504 -2.4627
 3555SOL     OW22126   2.607   2.298   6.111 -0.0524 -0.4003  0.1211
 3555SOL    HW122127   2.537   2.250   6.156  2.1392 -1.9131  1.8989
 3555SOL    HW222128   2.677   2.232   6.116  0.7041  0.5989  2.7857
 3556SOL     OW22129   3.212   2.648   1.220 -0.2059 -0.3216  0.4915
 3556SOL    HW122130   3.242   2.714   1.158 -0.6315 -0.1013  0.5255
 3556SOL    HW222131   3.300   2.623   1.251  0.5338  0.8786 -0.6538
 3557SOL     OW22132   0.383   4.230   7.026  0.6570 -0.4424  0.1972
 3557SOL    HW122133   0.307   4.201   7.076  0.4403 -0.6910 -0.2817
 3557SOL    HW222134   0.415   4.306   7.076  2.2432 -0.7948 -0.2625
 3558SOL     OW22135   1.065   4.085   1.928  0.0266  0.1929 -0.1503
 3558SOL    HW122136   1.102   4.001   1.901  1.6722  1.0359 -0.5157
 3558SOL    HW222137   1.100   4.089   2.017 -1.4454  0.3927  0.4186
 3559SOL     OW22138   1.230   2.811   9.706  0.3855 -0.1380  0.0222
 3559SOL    HW122139   1.157   2.796   9.645 -0.3835 -0.0584  0.9199
 3559SOL    HW222140   1.179   2.803   9.786 -3.9404 -0.5970 -2.7528
 3560SOL     OW22141   4.411   4.355   3.819  0.1195  0.1267  0.4190
 3560SOL    HW122142   4.447   4.296   3.753 -0.9819 -0.9074  0.7543
 3560SOL    HW222143   4.404   4.302   3.899 -2.8372 -1.8671 -1.1670
 3561SOL     OW22144   0.922   2.406   5.294 -0.1362  0.2291  0.5946
 3561SOL    HW122145   0.984   2.408   5.220 -3.2251  0.0153 -2.0090
 3561SOL    HW222146   0.882   2.493   5.287  3.2807  1.6747 -1.0333
 3562SOL     OW22147   1.083   2.564   5.114 -0.5455 -0.1676  0.6230
 3562SOL    HW122148   1.060   2.615   5.036 -1.7991 -1.7381 -0.0470
 3562SOL    HW222149   1.095   2.483   5.064  3.0529 -0.2841  1.7196
 3563SOL     OW22150   4.220   2.716   2.714  0.3600  0.1514  0.0799
 3563SOL    HW122151   4.212   2.646   2.650  2.9019 -0.4155  0.4117
 3563SOL    HW222152   4.157   2.782   2.685 -1.8241 -1.1912  1.7510
 3564SOL     OW22153   1.376   2.640  12.608  0.1366  0.2113  0.1598
 3564SOL    HW122154   1.384   2.544  12.611 -0.0831  0.2236  1.1573
 3564SOL    HW222155   1.444   2.658  12.542 -1.3861 -1.2043 -1.7972
 3565SOL     OW22156   4.004   1.014   4.557 -0.4871 -0.2293 -0.1482
 3565SOL    HW122157   4.040   1.055   4.636 -2.5955 -0.3481  0.8658
 3565SOL    HW222158   4.033   0.923   4.567  2.0779  0.5186 -0.6322
 3566SOL     OW22159   2.078   1.207   5.149  0.6553  0.5716 -0.2390
 3566SOL    HW122160   2.062   1.262   5.072 -0.9120  1.1500  0.4970
 3566SOL    HW222161   2.021   1.253   5.211 -2.0962 -0.2784 -2.1107
 3567SOL     OW22162   2.233   2.933   8.175  0.0517 -0.1211 -0.3097
 3567SOL    HW122163   2.222   2.998   8.105  1.9271  0.9219  0.3670
 3567SOL    HW222164   2.225   2.993   8.249 -1.3839 -0.5744 -0.0952
 3568SOL     OW22165   1.184   4.543  10.490 -0.6244  0.6676 -0.1342
 3568SOL    HW122166   1.208   4.496  10.570  2.1615  0.5470 -1.0224
 3568SOL    HW222167   1.162   4.633  10.512 -1.8120  0.1659  0.7215
 3569SOL     OW22168   2.283   1.956   9.011 -0.2962 -0.5544 -0.1878
 3569SOL    HW122169   2.326   1.931   8.929 -0.6050 -0.0768 -0.4947
 3569SOL    HW222170   2.316   1.885   9.066 -0.8891 -1.3133 -0.8099
 3570SOL     OW22171   3.532   1.245   3.664 -0.0665  0.2813 -0.4609
 3570SOL    HW122172   3.591   1.299   3.611  0.0651 -0.3037 -0.9003
 3570SOL    HW222173   3.485   1.197   3.596  1.6852 -3.5557  1.0267
 3571SOL     OW22174   4.101   4.107   8.894 -0.3577  0.6236  0.0577
 3571SOL    HW122175   4.075   4.055   8.817  0.8722  0.7127 -0.4153
 3571SOL    HW222176   4.050   4.079   8.969 -0.0652 -0.5996 -0.1950
 3572SOL     OW22177   3.803   2.837  15.575  0.3938 -0.3947 -0.0653
 3572SOL    HW122178   3.763   2.823  15.489 -0.4849  1.9672 -0.0470
 3572SOL    HW222179   3.768   2.922  15.601  0.4410 -0.4520  0.1877
 3573SOL     OW22180   0.721   1.985   8.211  0.6537 -0.7439 -0.4950
 3573SOL    HW122181   0.751   2.025   8.129 -0.9733  1.1188 -0.1608
 3573SOL    HW222182   0.740   2.046   8.282  1.8598 -0.2506 -1.2303
 3574SOL     OW22183   2.312   3.532   8.095  0.2453  0.4697 -0.1237
 3574SOL    HW122184   2.313   3.606   8.156 -2.0322  0.9238 -0.6319
 3574SOL    HW222185   2.398   3.494   8.113  1.2827  1.5396 -2.8380
 3575SOL     OW22186   3.068   2.991   9.268 -0.0114  0.8580  0.6059
 3575SOL    HW122187   3.156   3.024   9.247  0.6797 -0.8666  0.7273
 3575SOL    HW222188   3.089   2.935   9.343  0.4939  0.8318  0.4477
 3576SOL     OW22189   0.008   2.115   8.179 -1.1272 -0.0470  0.2598
 3576SOL    HW122190   4.702   2.205   8.179 -2.8482 -0.6348 -2.4514
 3576SOL    HW222191   0.030   2.104   8.086 -3.3314  0.9968 -0.3806
 3577SOL     OW22192   3.138   0.920   1.922  0.3898  0.1387 -0.1414
 3577SOL    HW122193   3.112   1.007   1.952 -0.7577 -0.5796  0.9447
 3577SOL    HW222194   3.150   0.870   2.003 -0.4540  2.7034  1.5525
 3578SOL     OW22195   4.627   1.713  15.479  0.1238 -0.2305  0.2909
 3578SOL    HW122196   4.693   1.643  15.487  0.4590 -0.1762 -1.9995
 3578SOL    HW222197   4.583   1.703  15.563 -0.8393 -2.4824 -0.4766
 3579SOL     OW22198   0.800   2.133   8.462  0.1676 -0.4044  0.5930
 3579SOL    HW122199   0.852   2.106   8.538  2.2260 -0.5398 -0.8575
 3579SOL    HW222200   0.715   2.114   8.502 -0.4558  1.6771  0.2544
 3580SOL     OW22201   0.151   3.367   8.665 -0.0865  0.2199  0.6647
 3580SOL    HW122202   0.131   3.276   8.643 -1.8644 -0.0342  3.4160
 3580SOL    HW222203   0.074   3.399   8.619  0.8316  1.9804  0.3580
 3581SOL     OW22204   2.677   0.177   4.030  0.4574  0.0584 -1.4032
 3581SOL    HW122205   2.723   0.260   4.046  0.2623  0.1162 -1.1357
 3581SOL    HW222206   2.607   0.183   4.095  1.7449 -1.3071  0.1225
 3582SOL     OW22207   0.500   4.714   3.098  0.1241 -0.4352 -0.3019
 3582SOL    HW122208   0.428   4.659   3.066  0.0331  0.6260 -1.9287
 3582SOL    HW222209   0.477   4.714   3.191  0.5535  1.0233 -0.1963
 3583SOL     OW22210   2.479   2.715   4.090  0.0528  0.3814  0.1799
 3583SOL    HW122211   2.452   2.626   4.066  2.3982 -0.0327 -0.9122
 3583SOL    HW222212   2.430   2.762   4.023 -0.3930 -0.5592 -0.1576
 3584SOL     OW22213   4.414   3.287   3.719 -0.0788  0.5523 -0.0005
 3584SOL    HW122214   4.385   3.228   3.649 -0.6786  0.6893  0.1302
 3584SOL    HW222215   4.408   3.367   3.668 -1.2321  1.7298  2.0024
 3585SOL     OW22216   1.435   3.719   1.185  0.2286  0.4381  0.7090
 3585SOL    HW122217   1.445   3.632   1.224  0.6023  0.8194  1.4608
 3585SOL    HW222218   1.518   3.759   1.211  0.3185 -0.4525  1.8139
 3586SOL     OW22219   1.768   0.886   6.375  0.0056  0.3813 -0.1756
 3586SOL    HW122220   1.762   0.897   6.280 -0.3278 -2.0924 -0.4453
 3586SOL    HW222221   1.753   0.792   6.387  2.4981  0.0164  0.0270
 3587SOL     OW22222   2.295   4.361   3.412 -0.4456  0.2059 -0.0987
 3587SOL    HW122223   2.244   4.414   3.350  0.7716  2.5812  0.9086
 3587SOL    HW222224   2.375   4.362   3.360  0.1052 -2.1720  0.7282
 3588SOL     OW22225   4.399   2.305   3.754  0.6224 -0.2089 -0.3749
 3588SOL    HW122226   4.323   2.276   3.703  0.5669 -0.3483 -0.2110
 3588SOL    HW222227   4.398   2.398   3.731  1.2975 -0.4300 -1.3112
 3589SOL     OW22228   1.375   1.068   7.614 -0.0279 -0.2530 -0.2996
 3589SOL    HW122229   1.282   1.072   7.592 -0.1520  0.6961  0.3827
 3589SOL    HW222230   1.410   1.155   7.638  0.5477 -0.8683  1.1151
 3590SOL     OW22231   0.366   3.787   3.368 -0.3148 -0.6343  0.2787
 3590SOL    HW122232   0.330   3.804   3.455  0.7402 -0.6522  0.7214
 3590SOL    HW222233   0.299   3.731   3.329  0.0539 -0.5868 -0.4130
 3591SOL     OW22234   3.626   2.366   8.648 -0.4410  0.5638 -0.3975
 3591SOL    HW122235   3.668   2.370   8.734  0.6890  2.0583 -1.0231
 3591SOL    HW222236   3.690   2.302   8.614  1.2419  2.4572 -0.7818
 3592SOL     OW22237   0.701   4.486  15.011  0.0138  0.0732 -0.5254
 3592SOL    HW122238   0.704   4.391  15.012 -3.8444 -0.0111  0.6658
 3592SOL    HW222239   0.770   4.505  14.947  0.5842 -0.5453 -0.0956
 3593SOL     OW22240   4.712   1.391   9.343 -0.5082 -0.0540  0.2484
 3593SOL    HW122241   4.652   1.327   9.305 -2.2924  0.8822  1.4783
 3593SOL    HW222242   4.665   1.471   9.320  0.8333  1.2323  1.9844
 3594SOL     OW22243   2.855   2.401   4.082  0.3679 -0.0705  0.3398
 3594SOL    HW122244   2.919   2.471   4.071  0.7363 -0.0983  2.3102
 3594SOL    HW222245   2.883   2.340   4.014  1.4405  0.3127  0.4371
 3595SOL     OW22246   2.901   2.840   8.341 -0.0992 -0.1243 -0.0230
 3595SOL    HW122247   2.849   2.910   8.380 -0.3044 -0.1899 -0.1790
 3595SOL    HW222248   2.982   2.874   8.379  0.0892 -0.5125 -0.0806
 3596SOL     OW22249   3.145   1.593   4.901 -0.4668 -0.1975  0.2379
 3596SOL    HW122250   3.118   1.502   4.893  0.0667 -0.3159 -0.1577
 3596SOL    HW222251   3.099   1.629   4.825 -0.3216  0.2589  0.3652
 3597SOL     OW22252   0.635   1.867   4.443 -0.2308  0.4743 -0.0629
 3597SOL    HW122253   0.557   1.825   4.406 -1.2841  0.3434  2.3087
 3597SOL    HW222254   0.627   1.837   4.534  1.4777  1.7076  0.4812
 3598SOL     OW22255   0.845   2.373   5.952 -0.1835  0.3120  0.4563
 3598SOL    HW122256   0.865   2.307   5.886 -2.4532 -0.3777  0.4713
 3598SOL    HW222257   0.754   2.394   5.930  0.4841  0.8637 -1.7546
 3599SOL     OW22258   0.030   4.161   5.429 -0.1456 -0.4356  0.0704
 3599SOL    HW122259   0.039   4.091   5.364 -0.2245 -2.5857  2.3697
 3599SOL    HW222260   0.044   4.105   5.505 -0.7089  1.2960  1.4412
 3600SOL     OW22261   3.728   0.190   7.392  0.1656 -0.0191  0.1225
 3600SOL    HW122262   3.817   0.172   7.361  0.3913  0.6864  0.3726
 3600SOL    HW222263   3.692   0.199   7.304 -1.3223 -2.9381  0.4196
 3601SOL     OW22264   2.381   2.244   5.004 -0.5457  0.1620  0.0759
 3601SOL    HW122265   2.448   2.181   4.977  0.1400 -0.0545  2.2916
 3601SOL    HW222266   2.297   2.200   5.002 -0.3765 -0.1007 -1.5791
 3602SOL     OW22267   1.232   3.813   9.606 -0.3003  0.2442 -0.1352
 3602SOL    HW122268   1.256   3.744   9.544  0.9889 -0.6407  1.3517
 3602SOL    HW222269   1.138   3.798   9.613 -0.4157  1.9376  1.8249
 3603SOL     OW22270   1.090   4.242   7.301  0.1582  0.0788 -0.0808
 3603SOL    HW122271   1.130   4.238   7.214  2.3045  1.1759  0.8285
 3603SOL    HW222272   1.104   4.333   7.329  3.2485  0.1363 -1.7746
 3604SOL     OW22273   1.404   2.578   2.935 -0.3884 -0.2347 -0.1234
 3604SOL    HW122274   1.333   2.539   2.986  0.3527 -0.2051  0.9175
 3604SOL    HW222275   1.405   2.666   2.972  1.5601  0.4776 -1.8170
 3605SOL     OW22276   0.385   2.043   7.895  0.5200  0.0305 -0.6299
 3605SOL    HW122277   0.436   1.966   7.869  1.1245 -0.1376  1.0944
 3605SOL    HW222278   0.457   2.106   7.905  0.8680 -0.6587  1.1838
 3606SOL     OW22279   0.422   3.068  10.433  0.4181  0.5853 -0.2259
 3606SOL    HW122280   0.391   3.156  10.453 -2.0931  0.0250 -1.6136
 3606SOL    HW222281   0.453   3.075  10.343  0.7727 -0.2446 -0.1708
 3607SOL     OW22282   1.026   3.335  13.630 -0.3945  0.1953  0.4877
 3607SOL    HW122283   0.941   3.300  13.605  0.8023 -2.4671  0.1886
 3607SOL    HW222284   1.022   3.420  13.585 -4.2174 -0.0867  0.3102
 3608SOL     OW22285   3.440   2.650   3.559 -0.4262 -0.6046  0.3905
 3608SOL    HW122286   3.357   2.653   3.607  0.5427 -0.1242  2.0468
 3608SOL    HW222287   3.500   2.637   3.633 -1.6488  0.9140  1.6476
 3609SOL     OW22288   1.275   2.549  11.466  0.0027  0.4394 -0.2517
 3609SOL    HW122289   1.307   2.460  11.451  2.6066  1.3961 -0.3662
 3609SOL    HW222290   1.309   2.577  11.551 -2.9172  0.9265  0.7728
 3610SOL     OW22291   1.699   0.718   6.075 -0.5685 -0.4660  0.3722
 3610SOL    HW122292   1.717   0.682   5.987 -1.1038 -0.1659  0.1383
 3610SOL    HW222293   1.782   0.707   6.121 -0.6387 -2.1766  0.1016
 3611SOL     OW22294   2.588   2.389   4.168  0.4319  0.5786  0.2287
 3611SOL    HW122295   2.661   2.394   4.107  0.6644 -2.4732  0.2937
 3611SOL    HW222296   2.629   2.424   4.248 -0.5833 -0.6850  1.2914
 3612SOL     OW22297   3.457   2.847  12.383 -0.2512  0.3198 -1.1313
 3612SOL    HW122298   3.504   2.928  12.402  1.0170 -0.7332  0.2046
 3612SOL    HW222299   3.419   2.873  12.299 -2.9679  1.2792  0.4067
 3613SOL     OW22300   2.724   0.526  10.164  0.0871 -1.0916 -0.2520
 3613SOL    HW122301   2.736   0.484  10.078  0.1616  1.1993 -1.3688
 3613SOL    HW222302   2.737   0.447  10.216 -1.7642 -1.4432 -0.3477
 3614SOL     OW22303   2.947   0.527   4.616  0.0966 -0.5963  0.1093
 3614SOL    HW122304   2.887   0.577   4.560 -0.0059  0.2431  0.9763
 3614SOL    HW222305   2.906   0.441   4.625 -0.6231 -0.3669 -0.8818
 3615SOL     OW22306   3.430   0.917   5.021 -0.4956 -0.5564  0.0525
 3615SOL    HW122307   3.468   0.956   5.099 -1.7502  0.6973  0.0435
 3615SOL    HW222308   3.510   0.872   4.994  1.3227  1.2860  2.3804
 3616SOL     OW22309   0.807   2.823  11.683  0.4134 -0.5678 -0.2777
 3616SOL    HW122310   0.767   2.742  11.651 -0.3159 -0.1174 -0.4984
 3616SOL    HW222311   0.896   2.798  11.705  0.4372  2.4952  3.0925
 3617SOL     OW22312   3.186   2.169   1.439  0.3449  0.0950 -0.1249
 3617SOL    HW122313   3.271   2.199   1.406  0.4204  1.7961  1.6313
 3617SOL    HW222314   3.169   2.230   1.511 -2.3897 -0.9811  0.1160
 3618SOL     OW22315   3.393   1.583  17.105 -0.2417  0.1262 -0.0830
 3618SOL    HW122316   3.381   1.516  17.037 -2.0334  1.3596 -0.9580
 3618SOL    HW222317   3.311   1.631  17.101 -0.3092 -0.1567 -2.0453
 3619SOL     OW22318   2.447   3.548  12.099 -0.2062  0.1239 -0.4497
 3619SOL    HW122319   2.427   3.482  12.032  0.7007  1.2821 -1.8737
 3619SOL    HW222320   2.359   3.573  12.129 -0.7366 -1.0207 -1.0600
 3620SOL     OW22321   4.662   1.878   7.686  0.4307  0.3895  0.3810
 3620SOL    HW122322   0.021   1.833   7.680 -0.0876 -0.5976  0.6476
 3620SOL    HW222323   4.689   1.965   7.716 -0.8254  1.1858 -0.8175
 3621SOL     OW22324   1.342   1.252  15.657  0.4969  0.5258 -0.1722
 3621SOL    HW122325   1.274   1.282  15.596 -0.7136 -1.1847  0.3560
 3621SOL    HW222326   1.419   1.239  15.602  0.9991 -0.6988  0.8402
 3622SOL     OW22327   1.316   1.507   2.583 -0.6140 -0.6062  0.4061
 3622SOL    HW122328   1.382   1.524   2.651 -0.9503 -2.7316  1.2438
 3622SOL    HW222329   1.325   1.412   2.572  1.0507 -0.4254  0.1552
 3623SOL     OW22330   2.828   0.330   1.130 -0.1050 -0.3380 -0.3587
 3623SOL    HW122331   2.879   0.356   1.207  3.6673  0.1035 -2.9662
 3623SOL    HW222332   2.832   0.408   1.075 -2.3679  2.0346  2.8678
 3624SOL     OW22333   0.621   4.246   4.999  0.7466  0.3827  0.1425
 3624SOL    HW122334   0.560   4.286   4.938 -1.1451  0.4489  2.0753
 3624SOL    HW222335   0.575   4.162   5.005  0.5669  0.4354 -0.5241
 3625SOL     OW22336   2.862   1.071  13.092  0.0599  0.3025 -0.5961
 3625SOL    HW122337   2.899   1.072  13.004 -1.7862 -0.5295 -1.3840
 3625SOL    HW222338   2.936   1.039  13.144  0.0192  0.1650 -0.6226
 3626SOL     OW22339   0.592   1.974  17.630 -0.5099 -0.2549 -0.8640
 3626SOL    HW122340   0.669   2.029  17.643 -0.2787 -1.0664  1.2725
 3626SOL    HW222341   0.545   2.020  17.561  0.4708  0.9779 -0.7085
 3627SOL     OW22342   0.636   0.010  14.654 -0.1752 -0.6289  0.4191
 3627SOL    HW122343   0.609   4.681  14.729  1.3585 -0.3468  1.1635
 3627SOL    HW222344   0.703   4.678  14.619  0.9865 -0.7697  2.8797
 3628SOL     OW22345   1.911   3.016  17.589  0.1840 -0.1227 -0.3362
 3628SOL    HW122346   1.883   2.927  17.566 -0.3029  0.1941 -0.9531
 3628SOL    HW222347   1.831   3.063  17.567  0.2272  0.3772  0.5998
 3629SOL     OW22348   1.935   4.159   5.589  0.1383 -0.0748 -0.1286
 3629SOL    HW122349   1.910   4.101   5.661 -0.1114  1.6838  1.2173
 3629SOL    HW222350   2.026   4.132   5.572  0.8611  1.8861  0.5484
 3630SOL     OW22351   4.132   0.777  17.635 -0.0924  0.2711 -0.3190
 3630SOL    HW122352   4.106   0.713   0.000  2.5344  1.4849  1.8580
 3630SOL    HW222353   4.067   0.763  17.567 -1.3081 -0.4324  0.9708
 3631SOL     OW22354   2.042   0.128   3.247  0.1817 -0.0754 -0.0435
 3631SOL    HW122355   2.117   0.088   3.203 -1.9629  1.7187 -5.3082
 3631SOL    HW222356   1.972   0.086   3.197 -2.0455  0.0769  2.9287
 3632SOL     OW22357   2.827   2.579   4.432 -0.3135 -0.3579  0.5333
 3632SOL    HW122358   2.758   2.589   4.498  0.0341 -0.6820  0.9491
 3632SOL    HW222359   2.843   2.486   4.418  2.8203  0.4351 -1.0163
 3633SOL     OW22360   3.261   0.594  12.449  0.9146  0.1220  0.2750
 3633SOL    HW122361   3.225   0.517  12.405  1.2501 -0.6977  1.4262
 3633SOL    HW222362   3.183   0.621  12.496  0.6893  0.5806 -0.3732
 3634SOL     OW22363   0.491   1.024   5.880  0.0623  0.2753  0.5211
 3634SOL    HW122364   0.420   0.961   5.868  0.7779 -0.2355 -0.9515
 3634SOL    HW222365   0.560   0.993   5.822  0.0956 -0.4946  0.9823
 3635SOL     OW22366   0.605   2.500  17.411  0.3077  0.0884  0.3388
 3635SOL    HW122367   0.511   2.493  17.431  0.3130 -0.5075  0.1538
 3635SOL    HW222368   0.599   2.540  17.325 -2.6983 -0.0103  0.5119
 3636SOL     OW22369   3.599   0.279   6.283  0.4290 -0.7270  0.2592
 3636SOL    HW122370   3.557   0.242   6.205 -1.5275  0.5156  0.7287
 3636SOL    HW222371   3.670   0.215   6.294  2.2908  1.4679  0.9039
 3637SOL     OW22372   2.535   0.683   6.549 -0.5985  0.1303  0.0857
 3637SOL    HW122373   2.603   0.723   6.494  0.3117  0.7648  1.6510
 3637SOL    HW222374   2.476   0.755   6.570 -3.1043 -1.1715 -2.5370
 3638SOL     OW22375   0.346   3.074   9.019 -0.8772  0.3024  0.2419
 3638SOL    HW122376   0.371   3.137   8.951 -0.2221 -0.3112 -0.0841
 3638SOL    HW222377   0.366   3.136   9.089  0.5841  0.9550 -0.7546
 3639SOL     OW22378   3.682   2.058   7.902  0.0429  0.1904 -0.4626
 3639SOL    HW122379   3.616   1.991   7.885  0.9983 -1.1293  1.0568
 3639SOL    HW222380   3.747   2.038   7.833 -0.2488  0.2094 -0.7416
 3640SOL     OW22381   1.784   1.477   8.237 -0.3416 -0.1536  0.2477
 3640SOL    HW122382   1.704   1.529   8.234 -0.5819 -0.5251  0.2491
 3640SOL    HW222383   1.821   1.526   8.311 -0.9175  1.2665 -0.3884
 3641SOL     OW22384   2.387   1.897   7.468  0.1661 -0.7219 -0.1142
 3641SOL    HW122385   2.347   1.956   7.533  1.8917 -0.7371  0.9559
 3641SOL    HW222386   2.413   1.957   7.398  0.2352 -0.7827 -0.1410
 3642SOL     OW22387   0.452   2.588   3.603  0.1369  0.4277  0.0707
 3642SOL    HW122388   0.388   2.642   3.555 -0.3985 -1.0335 -0.8465
 3642SOL    HW222389   0.531   2.619   3.558  0.3846  1.2779  1.0835
 3643SOL     OW22390   1.888   2.166   4.963 -0.5338  0.1838  0.2548
 3643SOL    HW122391   1.833   2.244   4.957  0.2784  0.7702  0.4062
 3643SOL    HW222392   1.908   2.158   4.870 -2.2374 -2.9056  0.1465
 3644SOL     OW22393   1.942   1.401  15.704 -0.3729 -0.6222 -0.1362
 3644SOL    HW122394   1.984   1.357  15.631  0.5196 -1.7499  1.0557
 3644SOL    HW222395   1.982   1.487  15.695 -1.1445 -0.1588  0.8236
 3645SOL     OW22396   3.790   0.181   5.122 -0.5348  0.0607  0.1067
 3645SOL    HW122397   3.747   0.192   5.037 -0.9069 -2.3055 -0.0148
 3645SOL    HW222398   3.883   0.185   5.100 -0.5066  0.8187  0.3525
 3646SOL     OW22399   4.330   4.087   1.954  0.3471  0.7220 -0.0953
 3646SOL    HW122400   4.299   4.019   1.893 -0.6778  0.1323  1.0870
 3646SOL    HW222401   4.424   4.074   1.966 -0.0436 -3.0413 -1.1778
 3647SOL     OW22402   1.036   4.330  13.902  0.5212 -0.4686 -0.3408
 3647SOL    HW122403   1.074   4.258  13.851 -0.7071 -0.8018 -0.7883
 3647SOL    HW222404   1.095   4.322  13.977 -1.6358  1.8502  1.5836
 3648SOL     OW22405   3.715   2.204   7.130  0.4663 -0.2402  0.2199
 3648SOL    HW122406   3.623   2.215   7.109  0.1552  0.0980  1.7145
 3648SOL    HW222407   3.718   2.259   7.208  0.6936  2.6424 -1.8525
 3649SOL     OW22408   0.604   3.366   3.790 -0.4963  0.3844  0.0056
 3649SOL    HW122409   0.527   3.311   3.804 -1.4244  1.8584  0.7531
 3649SOL    HW222410   0.597   3.375   3.695 -2.7004 -1.9787 -0.0686
 3650SOL     OW22411   4.698   4.431  13.933 -0.3123  0.3533 -0.1622
 3650SOL    HW122412   0.066   4.412  13.922 -0.7122  0.5048 -3.6295
 3650SOL    HW222413   4.696   4.522  13.964  0.3243  0.2773  0.1030
 3651SOL     OW22414   2.271   2.653   7.946  0.5619  0.4756  0.1071
 3651SOL    HW122415   2.193   2.624   7.995  1.1984 -1.5474 -0.0928
 3651SOL    HW222416   2.311   2.709   8.012  0.0316  1.4622 -0.4022
 3652SOL     OW22417   3.359   3.107  17.114 -0.3175 -0.6464 -0.0145
 3652SOL    HW122418   3.445   3.134  17.081 -0.2090  0.3169  1.0565
 3652SOL    HW222419   3.306   3.185  17.096  0.6496 -0.2408 -1.0980
 3653SOL     OW22420   2.755   0.822   9.168  0.3057  0.4409  0.1074
 3653SOL    HW122421   2.771   0.912   9.142  0.2195  0.3608 -0.2218
 3653SOL    HW222422   2.720   0.836   9.256  0.0851  1.9072 -0.2100
 3654SOL     OW22423   4.076   3.488   7.243 -0.0752 -0.3331 -0.3010
 3654SOL    HW122424   4.144   3.467   7.308 -2.3843 -1.2894  1.8034
 3654SOL    HW222425   4.083   3.583   7.238 -1.8955 -0.1598  0.5976
 3655SOL     OW22426   4.412   2.770  12.269  0.1454 -0.2998  0.2123
 3655SOL    HW122427   4.491   2.762  12.217 -0.5490  1.7939 -1.1860
 3655SOL    HW222428   4.339   2.784  12.208 -0.8050 -2.5959  0.8164
 3656SOL     OW22429   0.076   2.363   3.068 -0.3749 -0.1846  0.4356
 3656SOL    HW122430   0.119   2.445   3.092 -2.0501  0.4819  1.1202
 3656SOL    HW222431   0.147   2.299   3.071  0.2444  0.4127 -1.5446
 3657SOL     OW22432   0.164   3.849   9.953  0.3755 -0.2730  0.3396
 3657SOL    HW122433   0.184   3.921  10.013 -0.9080 -0.2515  0.7268
 3657SOL    HW222434   0.092   3.891   9.906  0.4385 -2.2907 -1.5455
 3658SOL     OW22435   1.467   1.517   8.581  0.1537  0.1684 -0.2088
 3658SOL    HW122436   1.459   1.540   8.488  0.3645 -0.8670 -0.4862
 3658SOL    HW222437   1.464   1.421   8.580  3.1506  0.0582  1.0419
 3659SOL     OW22438   2.529   1.360  11.897 -0.3562 -0.0161 -0.8158
 3659SOL    HW122439   2.577   1.320  11.824  1.5991 -0.8428  0.9152
 3659SOL    HW222440   2.523   1.281  11.950  0.2636  1.0533  0.8353
 3660SOL     OW22441   3.390   1.065   4.788 -0.2600  0.3264  0.0938
 3660SOL    HW122442   3.396   1.001   4.858  0.1561 -0.3424 -0.5462
 3660SOL    HW222443   3.435   1.144   4.818 -1.3063  0.4007  1.4472
 3661SOL     OW22444   4.519   2.490   9.546 -0.4498  0.1105  0.2514
 3661SOL    HW122445   4.484   2.403   9.563  0.5175 -0.4523 -0.6451
 3661SOL    HW222446   4.482   2.516   9.461 -0.0911  0.9093  0.3426
 3662SOL     OW22447   1.872   0.073   4.255  0.4373  0.4545  0.2527
 3662SOL    HW122448   1.803   0.023   4.212 -1.8495  3.2769  0.7029
 3662SOL    HW222449   1.944   0.011   4.240  0.1585  0.6395 -1.9101
 3663SOL     OW22450   2.507   2.195   7.689 -0.2596 -0.0420 -0.2642
 3663SOL    HW122451   2.432   2.235   7.645 -0.5420 -0.6434 -0.3288
 3663SOL    HW222452   2.483   2.104   7.701  0.5103 -0.5071 -2.1158
 3664SOL     OW22453   1.066   1.500   1.991 -0.3912 -0.0730 -0.0380
 3664SOL    HW122454   1.143   1.487   2.047 -1.6394  1.8943  2.1128
 3664SOL    HW222455   1.005   1.544   2.050 -1.1150 -0.9085 -0.1701
 3665SOL     OW22456   2.497   2.131   9.073 -0.4072  0.1050 -0.2704
 3665SOL    HW122457   2.535   2.213   9.042 -3.5775  1.4935 -0.4928
 3665SOL    HW222458   2.461   2.094   8.992 -2.0681  0.3534  0.3508
 3666SOL     OW22459   0.591   3.015  11.714 -0.0647  0.2876 -0.1854
 3666SOL    HW122460   0.651   2.942  11.694  1.1603  0.9479  1.0757
 3666SOL    HW222461   0.628   3.038  11.799  0.2932 -0.0356 -0.2500
 3667SOL     OW22462   3.615   2.520   8.048  0.1086  0.9335 -0.1025
 3667SOL    HW122463   3.637   2.511   7.956 -1.7987  2.6327 -0.7276
 3667SOL    HW222464   3.629   2.428   8.067  0.2329  1.3777  1.9999
 3668SOL     OW22465   3.590   3.680   0.058  0.0790 -0.6699 -0.6974
 3668SOL    HW122466   3.677   3.647   0.035  0.4114 -0.4261  0.2227
 3668SOL    HW222467   3.611   3.735   0.133 -2.8949 -0.7181  0.1486
 3669SOL     OW22468   0.267   2.259   9.239 -0.2260  0.2160  0.0920
 3669SOL    HW122469   0.328   2.187   9.255 -0.2302 -0.4148 -2.6664
 3669SOL    HW222470   0.311   2.325   9.292  0.1963 -1.6411  2.0579
 3670SOL     OW22471   3.326   0.477   4.262  0.3323 -0.2162  0.5107
 3670SOL    HW122472   3.366   0.483   4.176 -0.3587  2.4712  0.4013
 3670SOL    HW222473   3.253   0.536   4.276  0.9010  0.8161 -0.9184
 3671SOL     OW22474   3.946   1.808   3.465  0.2632  0.2474 -0.3429
 3671SOL    HW122475   3.994   1.740   3.417  0.1516  1.1284 -1.6988
 3671SOL    HW222476   4.006   1.815   3.539  0.8191 -3.4830 -0.4149
 3672SOL     OW22477   3.114   0.632   3.323 -0.2763  0.5825 -0.0301
 3672SOL    HW122478   3.094   0.697   3.257 -2.5912  0.3359  0.4310
 3672SOL    HW222479   3.156   0.573   3.260 -1.4846 -1.0845  0.7498
 3673SOL     OW22480   0.046   2.726   6.616 -0.0260 -0.3441  0.2892
 3673SOL    HW122481   0.023   2.730   6.709 -4.1096 -0.4985 -0.7093
 3673SOL    HW222482   0.049   2.819   6.592  0.5794 -0.1273  1.2404
 3674SOL     OW22483   4.269   0.058   5.857  0.5447 -0.4344  0.5210
 3674SOL    HW122484   4.292   4.723   5.927 -0.3239 -2.0904 -0.6398
 3674SOL    HW222485   4.292   0.142   5.898 -1.4892  0.5322 -0.3265
 3675SOL     OW22486   4.018   0.052   2.678  0.2046  0.3490  0.2716
 3675SOL    HW122487   4.027   0.042   2.773  0.1923  1.3242  0.3765
 3675SOL    HW222488   3.926   0.027   2.683 -0.9553  4.5357  0.4385
 3676SOL     OW22489   1.299   4.240   9.817 -0.5035  0.1815  0.0751
 3676SOL    HW122490   1.393   4.233   9.801 -0.5553  1.6371 -0.9108
 3676SOL    HW222491   1.286   4.333   9.836  0.0121  0.5285 -1.2878
 3677SOL     OW22492   3.737   2.519   7.577 -0.0461  0.3476 -0.3775
 3677SOL    HW122493   3.707   2.580   7.510  1.6702  0.4283 -1.0883
 3677SOL    HW222494   3.734   2.569   7.659 -1.2504 -0.4326  0.0535
 3678SOL     OW22495   2.720   2.858   4.174 -0.4323 -0.1919  0.3517
 3678SOL    HW122496   2.628   2.831   4.174 -0.5392  0.1448 -0.5903
 3678SOL    HW222497   2.746   2.826   4.087  0.5469  1.2069  0.1390
 3679SOL     OW22498   0.694   4.617   6.893  0.4248  0.2034  0.3405
 3679SOL    HW122499   0.725   4.654   6.810 -0.6227  1.8986  0.7144
 3679SOL    HW222500   0.728   4.529   6.877 -0.3799  0.4877 -2.9584
 3680SOL     OW22501   3.356   1.613   5.446 -0.4695  0.4716 -0.3731
 3680SOL    HW122502   3.362   1.538   5.386  2.6590  1.8180 -1.7629
 3680SOL    HW222503   3.265   1.641   5.436 -1.1752 -2.0052 -1.0111
 3681SOL     OW22504   4.146   2.748   6.085 -0.0084  0.0480  0.0870
 3681SOL    HW122505   4.055   2.775   6.094 -0.1807 -0.4341 -0.1807
 3681SOL    HW222506   4.166   2.805   6.010 -2.7405  0.3785 -0.3911
 3682SOL     OW22507   1.451   2.129   8.756 -0.2079 -0.0821  0.0240
 3682SOL    HW122508   1.531   2.164   8.795 -1.3864  0.1929  2.1936
 3682SOL    HW222509   1.471   2.036   8.766  0.5864  0.1289  0.3714
 3683SOL     OW22510   2.969   4.234  11.571 -0.8259 -0.0076  0.1462
 3683SOL    HW122511   2.982   4.283  11.652  0.5853  1.3860 -0.8933
 3683SOL    HW222512   3.034   4.164  11.581 -2.4919 -1.7112 -0.9713
 3684SOL     OW22513   4.477   4.701   5.641 -0.2132 -0.5941 -0.5124
 3684SOL    HW122514   4.390   0.006   5.667  0.3842 -0.4415  1.3705
 3684SOL    HW222515   4.507   4.648   5.715  2.6033 -0.1823 -1.3612
 3685SOL     OW22516   2.484   4.683   2.984 -0.4115  0.1505 -0.9156
 3685SOL    HW122517   2.503   0.032   2.925  0.4116  0.3048 -0.4555
 3685SOL    HW222518   2.538   4.709   3.059  0.7313 -3.3165 -0.5571
 3686SOL     OW22519   1.418   1.369  12.642  0.1540 -0.1992  0.2432
 3686SOL    HW122520   1.347   1.305  12.634 -0.9697  1.2128 -1.0143
 3686SOL    HW222521   1.439   1.358  12.735  0.2956 -1.9285  0.0049
 3687SOL     OW22522   3.329   0.164   3.671  0.3513  0.7606  0.3117
 3687SOL    HW122523   3.242   0.201   3.686 -0.5454 -1.8135  1.4590
 3687SOL    HW222524   3.351   0.191   3.582 -0.7500  0.4033 -0.0617
 3688SOL     OW22525   2.556   0.512   5.121  1.0987 -0.1828 -0.3177
 3688SOL    HW122526   2.646   0.545   5.114  0.4640  1.7088  0.6386
 3688SOL    HW222527   2.535   0.468   5.038 -1.9142 -0.9892  0.8607
 3689SOL     OW22528   4.362   2.336   2.439  0.1050  0.3623  0.0996
 3689SOL    HW122529   4.449   2.343   2.478  0.3418  2.0050 -0.7358
 3689SOL    HW222530   4.384   2.329   2.346  1.5834 -1.0768  0.5497
 3690SOL     OW22531   0.243   4.221  17.447 -0.1375 -0.4476 -0.1910
 3690SOL    HW122532   0.159   4.267  17.450 -0.3077 -0.8447  1.0511
 3690SOL    HW222533   0.313   4.284  17.435  0.8318 -1.9864 -2.6023
 3691SOL     OW22534   1.781   2.579   8.537 -0.4634  0.4547 -0.1215
 3691SOL    HW122535   1.874   2.567   8.519 -0.0067 -0.1299  2.6534
 3691SOL    HW222536   1.756   2.487   8.539 -0.3870  0.4395  0.1572
 3692SOL     OW22537   4.312   1.073   4.560  0.1840  0.8477  0.3837
 3692SOL    HW122538   4.401   1.042   4.579 -0.8104 -0.7788  2.3896
 3692SOL    HW222539   4.296   1.105   4.648  0.0954 -2.5270  1.5943
 3693SOL     OW22540   1.328   0.282   4.235 -0.2105  0.0047 -0.1045
 3693SOL    HW122541   1.344   0.241   4.321 -1.8913  1.5695  0.9397
 3693SOL    HW222542   1.419   0.304   4.216 -0.6114  0.7662 -1.0791
 3694SOL     OW22543   0.219   3.027   7.348 -0.3953 -0.1525 -0.6605
 3694SOL    HW122544   0.159   2.958   7.378 -0.8025  0.0700 -0.9694
 3694SOL    HW222545   0.187   3.049   7.261  0.7999 -2.0819 -1.5908
 3695SOL     OW22546   3.614   4.336   2.686  0.3959 -0.2151  0.1649
 3695SOL    HW122547   3.528   4.296   2.677  0.7413 -0.8254 -0.4820
 3695SOL    HW222548   3.607   4.385   2.604  0.0161 -2.6398 -1.2771
 3696SOL     OW22549   3.924   0.508   5.010  0.5616 -0.2846 -0.1231
 3696SOL    HW122550   3.933   0.517   4.916  2.6319  1.0017  0.1979
 3696SOL    HW222551   3.998   0.450   5.026  1.4575  0.8446 -0.1632
 3697SOL     OW22552   4.194   1.517   5.359 -0.2622 -0.0992  0.1820
 3697SOL    HW122553   4.186   1.578   5.432 -1.5958 -1.3971  1.1221
 3697SOL    HW222554   4.244   1.573   5.299 -2.9355  0.4115 -1.5472
 3698SOL     OW22555   4.406   0.056   0.267  0.1884  0.1442 -0.3123
 3698SOL    HW122556   4.328   0.067   0.322 -0.1097  1.4653 -1.0053
 3698SOL    HW222557   4.382   4.702   0.219  4.5049 -0.8268 -0.8683
 3699SOL     OW22558   1.053   3.209   6.781  0.1840  0.1310  0.2185
 3699SOL    HW122559   1.057   3.303   6.799 -1.5069  0.0084  1.2991
 3699SOL    HW222560   0.988   3.174   6.842  0.8558 -0.0448  0.8203
 3700SOL     OW22561   2.224   0.577   8.123 -0.5682 -0.1814 -0.5570
 3700SOL    HW122562   2.144   0.554   8.170 -1.1782 -0.0066 -1.5038
 3700SOL    HW222563   2.190   0.572   8.033  1.4396 -0.4470 -1.3097
 3701SOL     OW22564   2.089   1.039   3.642  0.6259  0.5461 -0.0453
 3701SOL    HW122565   2.099   1.034   3.547  1.7422 -1.2139  0.1725
 3701SOL    HW222566   2.177   1.012   3.671  0.3199 -3.4060 -2.8192
 3702SOL     OW22567   2.077   2.753  13.939  0.0907 -0.0337  0.3916
 3702SOL    HW122568   2.125   2.833  13.914 -3.3771  2.3727  1.4560
 3702SOL    HW222569   2.005   2.792  13.989  0.9255  0.4741  1.2104
 3703SOL     OW22570   2.143   3.996   1.722  0.7498 -0.1044  0.1188
 3703SOL    HW122571   2.108   3.953   1.801 -1.1322 -1.5013 -1.4780
 3703SOL    HW222572   2.154   4.088   1.746  2.8837 -0.4374  0.4553
 3704SOL     OW22573   4.658   0.853  14.596  0.3967 -0.4086  0.0714
 3704SOL    HW122574   0.017   0.854  14.549 -1.0254  2.8656 -2.4131
 3704SOL    HW222575   4.675   0.912  14.671 -2.5840  0.6717 -0.1170
 3705SOL     OW22576   2.678   2.143  10.206  0.2504  0.5838 -0.5064
 3705SOL    HW122577   2.726   2.225  10.198 -0.7195  0.9517 -2.5343
 3705SOL    HW222578   2.649   2.131  10.296  2.8443 -1.0071  0.1198
 3706SOL     OW22579   4.575   3.775  11.210  0.4996  0.0435  0.0471
 3706SOL    HW122580   4.561   3.842  11.276 -0.6091 -1.0586  0.9407
 3706SOL    HW222581   4.500   3.721  11.235  1.4580 -1.9768 -1.4722
 3707SOL     OW22582   1.395   1.339   8.027  0.3310  0.2700 -0.4628
 3707SOL    HW122583   1.408   1.256   8.072 -0.2648  0.2417 -0.3488
 3707SOL    HW222584   1.488   1.362   8.024  0.2979  0.5795  0.9205
 3708SOL     OW22585   0.571   3.955   2.488  0.0428  0.1595 -0.4807
 3708SOL    HW122586   0.644   3.984   2.543 -1.8662 -0.7689  2.5607
 3708SOL    HW222587   0.613   3.973   2.404  0.9345  0.5527  0.0502
 3709SOL     OW22588   3.262   0.515   3.064 -0.1111 -0.8399 -0.1308
 3709SOL    HW122589   3.267   0.487   2.973  1.8517  2.2165 -0.9858
 3709SOL    HW222590   3.297   0.602   3.043  0.4395 -0.3487  2.7882
 3710SOL     OW22591   3.675   0.912  16.993 -0.5547  0.8270 -0.4335
 3710SOL    HW122592   3.691   0.865  16.911 -0.0861  0.5668 -0.1976
 3710SOL    HW222593   3.635   0.842  17.044 -1.4894  1.1644 -0.7131
 3711SOL     OW22594   4.539   0.917   5.414  0.1080 -0.1240 -0.6407
 3711SOL    HW122595   4.491   0.853   5.362 -0.4047 -0.4765  0.2682
 3711SOL    HW222596   4.487   0.907   5.494  1.2221  3.6558  0.5537
 3712SOL     OW22597   3.850   2.602   7.146  0.3339 -0.1866 -0.0021
 3712SOL    HW122598   3.853   2.507   7.152 -1.5573 -0.2688 -0.5689
 3712SOL    HW222599   3.925   2.631   7.200 -0.9881  1.6468  0.8807
 3713SOL     OW22600   1.265   3.047   6.645  0.4240  0.1701  0.1121
 3713SOL    HW122601   1.212   3.096   6.708 -0.1685 -0.0906 -0.1855
 3713SOL    HW222602   1.205   3.046   6.571  0.0917 -2.1126  0.3924
 3714SOL     OW22603   4.330   4.397   5.571  0.2681  0.5541 -0.1264
 3714SOL    HW122604   4.314   4.448   5.650  1.4823  1.1876 -0.2862
 3714SOL    HW222605   4.423   4.377   5.580 -0.0633 -0.3386  1.3166
 3715SOL     OW22606   2.266   1.741   3.356  0.1421  0.1098  0.5234
 3715SOL    HW122607   2.194   1.678   3.352 -0.5092  0.9591 -1.4414
 3715SOL    HW222608   2.345   1.687   3.346 -0.6894 -0.6328 -2.0630
 3716SOL     OW22609   1.865   3.610   4.184 -0.3969 -0.5634 -0.0067
 3716SOL    HW122610   1.903   3.674   4.244  0.0646 -1.6472  0.8506
 3716SOL    HW222611   1.942   3.606   4.128 -0.8706  0.3107 -0.7373
 3717SOL     OW22612   3.431   1.956   5.672  0.0786 -0.3383 -0.0629
 3717SOL    HW122613   3.489   1.975   5.598  0.0832  1.5284  0.4071
 3717SOL    HW222614   3.379   2.036   5.682 -1.6167 -1.4926  0.3273
 3718SOL     OW22615   2.062   0.999   9.011 -0.3417  0.6358 -0.0524
 3718SOL    HW122616   2.024   0.911   9.021  0.7275  0.0119 -1.5292
 3718SOL    HW222617   1.981   1.049   9.001  0.0019  0.8977 -1.4943
 3719SOL     OW22618   3.234   3.995   5.716 -0.4742  0.2306 -1.2040
 3719SOL    HW122619   3.217   4.066   5.778  0.4174  0.3151 -1.0559
 3719SOL    HW222620   3.192   3.920   5.758  0.0616 -0.6841 -2.3106
 3720SOL     OW22621   3.868   0.160   9.999  0.2219 -0.0943 -0.2999
 3720SOL    HW122622   3.777   0.132  10.002 -0.1503  1.0565 -0.9337
 3720SOL    HW222623   3.859   0.224   9.929 -2.7541  0.4075  0.5344
 3721SOL     OW22624   2.480   4.395   1.897  0.4384 -0.0355 -0.0165
 3721SOL    HW122625   2.535   4.350   1.832  1.2214  3.4095 -1.7295
 3721SOL    HW222626   2.418   4.427   1.832 -0.8234  0.3235  1.3745
 3722SOL     OW22627   1.383   0.538   8.456  0.3219  0.3924 -0.0469
 3722SOL    HW122628   1.397   0.493   8.539  1.9291  1.5498  0.3191
 3722SOL    HW222629   1.459   0.594   8.441  0.2350  0.7240  0.7710
 3723SOL     OW22630   4.009   4.113   5.081  0.4043 -0.2837 -0.4256
 3723SOL    HW122631   4.067   4.075   5.147  1.9881  2.0760 -0.4856
 3723SOL    HW222632   4.030   4.053   5.009  1.2943 -0.4714  0.0012
 3724SOL     OW22633   0.739   2.729   6.331  0.2294  0.5987 -0.2100
 3724SOL    HW122634   0.718   2.665   6.263 -0.5500  0.8933 -0.2467
 3724SOL    HW222635   0.696   2.798   6.281  1.4446  0.2888 -1.6859
 3725SOL     OW22636   1.280   4.426  11.129  0.4486 -0.1765  0.1971
 3725SOL    HW122637   1.350   4.474  11.086 -0.4272 -0.7111 -1.8397
 3725SOL    HW222638   1.269   4.490  11.199  1.6831  0.0882  0.1396
 3726SOL     OW22639   3.491   3.713   4.676  0.3268  0.1183  0.0697
 3726SOL    HW122640   3.515   3.785   4.619  2.0762 -1.0610 -0.7091
 3726SOL    HW222641   3.578   3.705   4.716  1.5175  1.6145 -2.2409
 3727SOL     OW22642   3.172   1.329  11.872 -0.7086  0.0796  0.1145
 3727SOL    HW122643   3.224   1.409  11.864  1.4064 -1.4330 -1.3538
 3727SOL    HW222644   3.156   1.330  11.966  0.4115 -1.0140  0.3182
 3728SOL     OW22645   1.261   2.592   3.964  1.2191 -0.7103 -0.3729
 3728SOL    HW122646   1.353   2.590   3.937  1.4235  3.0148 -0.0100
 3728SOL    HW222647   1.244   2.682   3.936 -0.1466  0.0520  2.8840
 3729SOL     OW22648   0.753   0.598   8.962 -0.5040 -0.4202  0.2348
 3729SOL    HW122649   0.785   0.555   9.041 -2.0702 -0.5812  0.7697
 3729SOL    HW222650   0.704   0.673   8.994  0.3371 -0.2208  1.0412
 3730SOL     OW22651   1.418   4.469  17.092  0.2070 -0.0925 -0.4839
 3730SOL    HW122652   1.437   4.376  17.083  1.8248  0.0728  1.2112
 3730SOL    HW222653   1.331   4.468  17.054  0.3185  0.0803 -0.7407
 3731SOL     OW22654   0.231   1.439   4.942  0.2818 -0.2518  0.1907
 3731SOL    HW122655   0.318   1.398   4.937  1.3397  2.0086 -0.2337
 3731SOL    HW222656   0.244   1.499   5.016 -1.7847  1.2763 -0.6881
 3732SOL     OW22657   1.998   2.680   5.457 -0.2510  0.2426  0.0492
 3732SOL    HW122658   2.084   2.715   5.477 -0.8958  0.3109  2.6265
 3732SOL    HW222659   2.031   2.614   5.395  0.6060  0.0634  0.7108
 3733SOL     OW22660   1.491   0.486   7.007 -0.2941  0.0901 -0.2844
 3733SOL    HW122661   1.456   0.463   6.921 -1.9228 -0.2620  0.4693
 3733SOL    HW222662   1.515   0.404   7.051 -1.2978 -0.4868 -0.8144
 3734SOL     OW22663   1.086   1.307   3.497  0.4831  0.0442 -0.0521
 3734SOL    HW122664   1.093   1.212   3.496 -0.5956 -0.0364  0.5875
 3734SOL    HW222665   1.067   1.328   3.405  2.6742  0.4625 -0.4063
 3735SOL     OW22666   2.796   1.582   1.879 -0.6999 -0.0730  0.4970
 3735SOL    HW122667   2.807   1.540   1.964 -2.0260  0.6605  1.0407
 3735SOL    HW222668   2.735   1.655   1.892 -0.7610 -0.4889  2.4925
 3736SOL     OW22669   0.686   3.607   9.627  0.0402 -0.3922  0.6968
 3736SOL    HW122670   0.638   3.647   9.700 -0.0515 -1.6623  1.3213
 3736SOL    HW222671   0.775   3.612   9.663 -0.6275 -0.2798  2.3633
 3737SOL     OW22672   1.359   0.640  13.293 -0.6137  0.0841 -0.1844
 3737SOL    HW122673   1.276   0.623  13.336 -0.1346 -0.3847  0.5402
 3737SOL    HW222674   1.326   0.651  13.203 -0.1952 -2.0860 -0.5876
 3738SOL     OW22675   0.421   2.182   2.864  0.3015 -0.2225  0.0497
 3738SOL    HW122676   0.373   2.185   2.946 -0.9804  1.7743 -0.7662
 3738SOL    HW222677   0.352   2.207   2.802  0.9750  0.0077 -0.6136
 3739SOL     OW22678   4.054   3.043   7.499  0.1881  0.6272 -0.2424
 3739SOL    HW122679   4.037   2.959   7.455 -1.7785  0.7560  0.2477
 3739SOL    HW222680   4.120   3.084   7.444  0.1869  0.4500 -0.3764
 3740SOL     OW22681   4.036   2.451  15.581 -0.0032 -0.2864 -0.0939
 3740SOL    HW122682   4.115   2.430  15.531 -0.5426  1.9701 -1.8306
 3740SOL    HW222683   3.970   2.416  15.521  1.0505  2.3409 -2.7555
 3741SOL     OW22684   1.579   1.881   6.072  0.0039 -0.2894  0.0212
 3741SOL    HW122685   1.526   1.917   6.142 -0.9467  0.6195 -1.1676
 3741SOL    HW222686   1.527   1.801   6.059  1.3919 -1.0267 -1.0176
 3742SOL     OW22687   2.619   1.703   2.192  0.3870  0.5870 -0.7714
 3742SOL    HW122688   2.688   1.730   2.253 -2.2589  0.3783  2.3294
 3742SOL    HW222689   2.637   1.766   2.122  3.1074  0.1644 -0.4398
 3743SOL     OW22690   1.237   1.108   7.204  0.3737 -0.6728 -0.7067
 3743SOL    HW122691   1.148   1.084   7.228  0.9464 -2.8990 -0.8205
 3743SOL    HW222692   1.240   1.102   7.108 -0.3575 -0.5423 -0.7328
 3744SOL     OW22693   0.062   1.393   5.795  0.1201 -0.5076  0.0490
 3744SOL    HW122694   0.122   1.443   5.851  0.2494 -0.6012 -0.0056
 3744SOL    HW222695   4.708   1.391   5.849  0.5356  1.7276  0.7356
 3745SOL     OW22696   0.195   1.224   2.308 -0.3633  0.5502  0.2745
 3745SOL    HW122697   0.274   1.260   2.267 -0.1934 -0.2395 -0.0997
 3745SOL    HW222698   0.140   1.231   2.230 -1.1480 -0.6387  0.7253
 3746SOL     OW22699   4.590   1.311   0.836 -0.4451 -0.3833  0.1586
 3746SOL    HW122700   4.678   1.332   0.805 -0.4080  0.2928  0.7373
 3746SOL    HW222701   4.544   1.391   0.812 -1.9522 -1.0154  0.9524
 3747SOL     OW22702   0.264   2.970   2.858  0.3145  0.1045  0.5673
 3747SOL    HW122703   0.234   3.061   2.849 -2.8185 -1.1252 -1.3348
 3747SOL    HW222704   0.252   2.922   2.776 -0.6333  2.1455 -0.4895
 3748SOL     OW22705   4.661   3.906   8.303  0.1770 -0.7900 -0.0700
 3748SOL    HW122706   4.593   3.842   8.324 -2.0048  1.2157 -0.9673
 3748SOL    HW222707   4.702   3.919   8.388 -0.1001  2.3983 -0.4326
 3749SOL     OW22708   0.391   0.243   4.970  0.1396 -0.3617  0.2077
 3749SOL    HW122709   0.400   0.149   4.982  0.8376 -0.3653 -0.3823
 3749SOL    HW222710   0.404   0.273   5.060 -1.6196  0.6699  0.1127
 3750SOL     OW22711   2.313   4.441   6.097 -0.6769  0.1635  0.5000
 3750SOL    HW122712   2.285   4.443   6.006  0.5149 -0.5111  0.1134
 3750SOL    HW222713   2.380   4.372   6.096 -1.1214 -0.2520 -0.0365
 3751SOL     OW22714   1.345   2.237   6.929 -0.2187 -0.6098 -0.3253
 3751SOL    HW122715   1.299   2.184   6.864 -0.9171  1.3600 -1.4388
 3751SOL    HW222716   1.269   2.291   6.953  1.1573  1.5658 -0.9274
 3752SOL     OW22717   0.629   4.476   7.466  0.3504  0.3032 -0.0907
 3752SOL    HW122718   0.568   4.509   7.532  0.4343 -0.4342  0.3570
 3752SOL    HW222719   0.644   4.555   7.415 -0.2525 -1.0517 -2.3289
 3753SOL     OW22720   3.404   1.385  17.283 -0.0642 -0.3443 -0.2798
 3753SOL    HW122721   3.498   1.365  17.292 -0.3748 -1.7148 -0.0381
 3753SOL    HW222722   3.415   1.461  17.226 -0.7353 -0.0224  0.0286
 3754SOL     OW22723   1.064   4.002   7.443 -0.4751  0.4883 -0.1834
 3754SOL    HW122724   0.981   3.994   7.489  0.2658  0.3222  1.1061
 3754SOL    HW222725   1.056   4.095   7.425  1.1265  0.4100 -1.3136
 3755SOL     OW22726   1.131   1.379  16.374  0.5953 -0.5170 -0.0969
 3755SOL    HW122727   1.190   1.306  16.397  0.6246  0.0719  1.7228
 3755SOL    HW222728   1.082   1.384  16.457 -0.4522 -1.8251 -0.6318
 3756SOL     OW22729   4.467   4.666  16.610 -0.3860 -0.0403  0.3610
 3756SOL    HW122730   4.519   4.707  16.541 -0.8412 -0.9629 -0.5367
 3756SOL    HW222731   4.383   4.712  16.607 -1.3221 -1.7092  0.9594
 3757SOL     OW22732   3.460   3.711  15.395  0.7044 -0.3540  0.0332
 3757SOL    HW122733   3.431   3.792  15.353 -0.0149  0.6198  2.4473
 3757SOL    HW222734   3.467   3.655  15.318 -0.5090  1.1909 -1.2069
 3758SOL     OW22735   3.598   0.544   5.767 -0.5218  0.1276 -0.0977
 3758SOL    HW122736   3.560   0.563   5.853  2.0940 -1.0576  1.3423
 3758SOL    HW222737   3.593   0.622   5.712  3.5951  0.4757  0.0788
 3759SOL     OW22738   2.029   4.428   2.125  1.0686  0.2949  0.3741
 3759SOL    HW122739   2.071   4.343   2.115  1.0358  0.4549 -1.0305
 3759SOL    HW222740   2.094   4.492   2.096 -0.2776  1.1103 -0.8397
 3760SOL     OW22741   2.853   3.269   2.147  0.0821  0.4168 -0.0833
 3760SOL    HW122742   2.808   3.198   2.100  1.8871 -0.9879  0.2916
 3760SOL    HW222743   2.927   3.215   2.175 -0.4782 -0.2165  0.1796
 3761SOL     OW22744   3.012   0.612   8.722  0.0891 -0.1541 -0.5994
 3761SOL    HW122745   3.023   0.606   8.817  0.3240 -0.2194 -0.6306
 3761SOL    HW222746   2.933   0.559   8.715  1.0159 -1.9112  2.3490
 3762SOL     OW22747   1.428   3.984   4.953  0.2632  0.2292  0.0323
 3762SOL    HW122748   1.482   3.949   5.024  0.1331  0.1737  0.1054
 3762SOL    HW222749   1.473   4.065   4.929  1.0242 -0.1793  0.0832
 3763SOL     OW22750   1.074   1.542   5.486  0.0933  0.2743  0.0027
 3763SOL    HW122751   1.143   1.604   5.461  0.3685  0.1769  0.5331
 3763SOL    HW222752   1.085   1.463   5.432  0.3606 -0.1404  0.6735
 3764SOL     OW22753   0.652   0.931   6.817 -0.0703 -0.0768  0.1474
 3764SOL    HW122754   0.660   0.930   6.912  0.5492 -0.5092  0.0898
 3764SOL    HW222755   0.587   1.001   6.810  1.5397  1.3822 -0.4411
 3765SOL     OW22756   2.268   1.020   0.544 -0.6617 -0.0802 -0.3238
 3765SOL    HW122757   2.320   1.060   0.614 -1.1216  1.1001 -0.6511
 3765SOL    HW222758   2.243   0.937   0.585  1.2132 -0.8297 -0.7085
 3766SOL     OW22759   3.947   0.568  11.352  1.1929  0.2507 -0.6471
 3766SOL    HW122760   3.888   0.501  11.387  3.1302 -0.6924  0.8137
 3766SOL    HW222761   3.878   0.628  11.325  0.5325  0.2428  0.9888
 3767SOL     OW22762   0.715   0.307   2.964  0.2441  0.5324  0.0112
 3767SOL    HW122763   0.810   0.305   2.951  0.6633  2.9888  2.8669
 3767SOL    HW222764   0.682   0.307   2.874  0.3624 -0.9430 -0.0417
 3768SOL     OW22765   0.539   0.442   5.804 -0.0440  0.3928  0.5373
 3768SOL    HW122766   0.471   0.404   5.748 -1.2977 -0.0924  2.3692
 3768SOL    HW222767   0.535   0.533   5.778 -0.1890 -0.3204 -1.8724
 3769SOL     OW22768   1.816   2.803  11.135 -0.1106 -0.0406 -0.3011
 3769SOL    HW122769   1.850   2.786  11.048 -1.8898  0.9824 -1.1993
 3769SOL    HW222770   1.874   2.754  11.193  0.8043  1.0208 -0.3203
 3770SOL     OW22771   2.961   1.465   2.747  0.3205  0.2125 -0.4898
 3770SOL    HW122772   3.021   1.426   2.684  1.5732  0.0394  0.8094
 3770SOL    HW222773   3.019   1.493   2.818 -1.3612  1.6809  0.3074
 3771SOL     OW22774   1.245   1.126  11.306 -0.5585  0.2701  0.0977
 3771SOL    HW122775   1.180   1.062  11.335  0.4888 -0.6692  0.4091
 3771SOL    HW222776   1.320   1.067  11.292  0.3888  1.8176 -1.2767
 3772SOL     OW22777   0.368   2.176   6.422  0.4146 -0.5676  0.7509
 3772SOL    HW122778   0.278   2.197   6.445  0.0675 -2.6429  1.2575
 3772SOL    HW222779   0.360   2.103   6.362  0.1197 -0.0558  0.1774
 3773SOL     OW22780   4.379   4.563   4.523 -0.0924  0.2104  0.2791
 3773SOL    HW122781   4.386   4.469   4.536 -2.0966 -0.0557 -0.4552
 3773SOL    HW222782   4.473   4.578   4.518  0.0987 -0.9977  0.2238
 3774SOL     OW22783   1.011   2.584   6.016 -0.2073  0.0991 -0.5441
 3774SOL    HW122784   0.938   2.522   6.007 -0.0376  0.1979 -2.4793
 3774SOL    HW222785   1.085   2.538   5.978 -0.5685  0.9314 -2.2666
 3775SOL     OW22786   3.330   2.812   2.290 -0.4731  0.1110 -0.2536
 3775SOL    HW122787   3.347   2.906   2.300  0.5965  0.0613 -1.6123
 3775SOL    HW222788   3.287   2.781   2.370  0.9475 -0.4140  0.3068
 3776SOL     OW22789   1.424   3.819   9.295  0.8920  0.6300 -0.0289
 3776SOL    HW122790   1.366   3.883   9.254  0.1083  0.9895  1.6198
 3776SOL    HW222791   1.479   3.885   9.338 -0.0551  0.7990  0.9345
 3777SOL     OW22792   2.196   1.171   8.804  0.0933  0.1838 -0.4547
 3777SOL    HW122793   2.155   1.122   8.875  1.8225  2.7580  2.3602
 3777SOL    HW222794   2.217   1.105   8.738  0.0967  0.3087 -0.5783
 3778SOL     OW22795   0.883   3.251   4.999 -0.0632  0.9028  0.8128
 3778SOL    HW122796   0.925   3.333   4.974  0.3945  0.3295 -0.3009
 3778SOL    HW222797   0.845   3.267   5.085 -0.8396 -1.5328  0.9220
 3779SOL     OW22798   2.910   1.459   2.416  0.5137 -0.8187 -0.1360
 3779SOL    HW122799   2.942   1.423   2.333 -1.5486 -0.3291 -1.1525
 3779SOL    HW222800   2.996   1.461   2.458  0.6404  0.6210 -0.4646
 3780SOL     OW22801   3.316   1.058   4.502  0.0381  0.4823 -0.0434
 3780SOL    HW122802   3.373   1.065   4.579  0.1080 -0.2227 -0.0319
 3780SOL    HW222803   3.363   1.107   4.435  1.6453 -1.3750 -0.2848
 3781SOL     OW22804   1.177   0.550   7.606  0.1339 -0.5837 -0.0738
 3781SOL    HW122805   1.111   0.547   7.538  0.8839  0.4064 -0.8548
 3781SOL    HW222806   1.247   0.601   7.564 -2.0863  0.3398 -2.6097
 3782SOL     OW22807   2.539   1.340  14.854  0.0305  0.2335  0.2178
 3782SOL    HW122808   2.539   1.432  14.826  1.5566 -0.6944 -2.8311
 3782SOL    HW222809   2.630   1.322  14.876  0.5416  0.4509 -1.7367
 3783SOL     OW22810   1.108   4.234  12.338 -0.3052 -0.0019 -0.3630
 3783SOL    HW122811   1.172   4.225  12.268  0.7290  1.0487  0.4514
 3783SOL    HW222812   1.081   4.143  12.350 -0.1490  0.2376  1.8868
 3784SOL     OW22813   3.570   2.495   0.715  0.2267 -0.1178  0.1764
 3784SOL    HW122814   3.593   2.431   0.782  1.1796 -0.6907 -0.6962
 3784SOL    HW222815   3.496   2.449   0.675  0.2606  0.5189 -0.6290
 3785SOL     OW22816   4.066   2.998  15.755 -0.2515 -0.0170 -0.1940
 3785SOL    HW122817   4.069   2.939  15.679 -0.4750 -0.3538  0.0584
 3785SOL    HW222818   4.027   3.073  15.710 -0.7741 -0.9241 -1.2736
 3786SOL     OW22819   2.131   1.416   0.717  0.5930  0.0018 -0.3000
 3786SOL    HW122820   2.127   1.468   0.637  0.1104  2.1912  1.1506
 3786SOL    HW222821   2.075   1.342   0.694 -0.9979  0.6301  1.4824
 3787SOL     OW22822   2.565   1.999   0.413  0.7604  0.4515  0.2436
 3787SOL    HW122823   2.581   2.094   0.413  1.1281  0.3815 -1.3828
 3787SOL    HW222824   2.514   1.997   0.494  1.9882  0.9847  1.0517
 3788SOL     OW22825   4.664   1.317   8.089  0.4563 -0.1739  0.3415
 3788SOL    HW122826   0.011   1.370   8.124 -0.8867 -0.5195  3.5570
 3788SOL    HW222827   4.602   1.347   8.155  1.0992 -0.6545  1.1680
 3789SOL     OW22828   3.285   2.775   7.586 -0.7791 -0.5226 -0.2573
 3789SOL    HW122829   3.287   2.786   7.681  0.7969  0.5614 -0.4180
 3789SOL    HW222830   3.218   2.839   7.565  0.2376  0.1679 -1.4425
 3790SOL     OW22831   3.010   1.151   5.614  0.3854  0.0485 -0.1927
 3790SOL    HW122832   2.986   1.202   5.692 -0.3869  0.7734 -0.9019
 3790SOL    HW222833   2.980   1.064   5.639 -2.2523  0.2735 -2.5964
 3791SOL     OW22834   2.923   2.725   8.841  0.2874 -0.4659  0.3973
 3791SOL    HW122835   2.933   2.796   8.905  1.7588 -0.4281  0.1297
 3791SOL    HW222836   2.828   2.716   8.852  0.2491 -0.1419  0.3332
 3792SOL     OW22837   2.361   2.560   2.908  0.0771 -0.1601 -0.3863
 3792SOL    HW122838   2.318   2.636   2.946 -0.5917 -0.8868  0.3028
 3792SOL    HW222839   2.382   2.522   2.993 -0.3439 -1.8905 -1.0696
 3793SOL     OW22840   2.738   2.885  13.023 -0.7108  0.2183 -0.1960
 3793SOL    HW122841   2.818   2.924  13.057 -1.1714  0.0280  1.0868
 3793SOL    HW222842   2.682   2.962  13.014 -1.9088 -0.9081 -2.5698
 3794SOL     OW22843   3.467   0.731  11.274 -0.4487 -0.6840 -0.0132
 3794SOL    HW122844   3.408   0.786  11.222  0.4178  0.2313 -0.0271
 3794SOL    HW222845   3.526   0.711  11.201  0.3983  1.6750  0.0426
 3795SOL     OW22846   0.886   4.308   6.166 -0.2394 -0.0237 -0.1228
 3795SOL    HW122847   0.898   4.374   6.098  0.0757 -1.2891 -1.2980
 3795SOL    HW222848   0.797   4.278   6.145  0.5127 -0.9485 -1.9632
 3796SOL     OW22849   0.070   4.089   0.546  0.0328  0.2729  0.2640
 3796SOL    HW122850   0.073   4.179   0.511  1.0681 -0.2068 -0.8727
 3796SOL    HW222851   4.715   4.062   0.501 -1.2180  3.1856  0.7472
 3797SOL     OW22852   1.798   2.228   7.690 -0.1472  0.2090 -0.4037
 3797SOL    HW122853   1.842   2.204   7.608 -0.3730 -0.7341 -0.2385
 3797SOL    HW222854   1.859   2.296   7.719  0.1233 -0.8751  1.5035
 3798SOL     OW22855   1.539   2.504   4.829  0.0742  0.1723 -0.6295
 3798SOL    HW122856   1.490   2.479   4.752  1.0834 -0.9342 -0.9140
 3798SOL    HW222857   1.499   2.588   4.851  1.1983  0.6354 -0.3219
 3799SOL     OW22858   1.892   4.284   7.904  0.0583  0.3016 -0.3527
 3799SOL    HW122859   1.894   4.370   7.946  3.1898  0.8140 -1.5353
 3799SOL    HW222860   1.924   4.305   7.816  1.1621  0.5784  0.1161
 3800SOL     OW22861   1.915   1.327   0.144 -0.0748 -0.7439  0.0127
 3800SOL    HW122862   2.002   1.299   0.171  0.2072  0.6781  0.6121
 3800SOL    HW222863   1.912   1.299   0.053 -1.8311 -0.0073 -0.1623
 3801SOL     OW22864   1.452   1.242   8.597  0.3729  0.2576 -0.3574
 3801SOL    HW122865   1.359   1.218   8.600  0.0620  1.1506 -3.4511
 3801SOL    HW222866   1.481   1.206   8.514  0.7511 -2.7250  1.0785
 3802SOL     OW22867   0.196   2.637   4.065  0.7465 -0.0899 -0.0812
 3802SOL    HW122868   0.115   2.623   4.017  1.1594  3.2194 -1.8006
 3802SOL    HW222869   0.265   2.619   4.001  0.4648  0.7390 -0.6204
 3803SOL     OW22870   0.559   2.827  15.459 -0.5769 -0.0004 -0.5878
 3803SOL    HW122871   0.637   2.845  15.510 -1.7482  1.7534  0.5712
 3803SOL    HW222872   0.591   2.775  15.385  1.6282 -0.5948  0.8040
 3804SOL     OW22873   0.982   1.402   1.022  0.5615 -0.1295 -0.4406
 3804SOL    HW122874   1.017   1.385   1.109 -0.6460  0.2344  0.1193
 3804SOL    HW222875   0.924   1.472   1.051  2.3344  1.7033 -1.3010
 3805SOL     OW22876   2.715   1.996   8.862 -0.0426 -0.3517  0.4984
 3805SOL    HW122877   2.693   1.981   8.771  2.4097 -0.3757 -0.0842
 3805SOL    HW222878   2.798   2.042   8.854 -0.6546  0.5800 -0.3955
 3806SOL     OW22879   3.675   0.250   2.013 -0.1253  0.2751  0.1454
 3806SOL    HW122880   3.692   0.195   1.936  1.9324  0.4342  0.4764
 3806SOL    HW222881   3.685   0.333   1.966  0.9195 -1.7003 -3.1627
 3807SOL     OW22882   2.441   3.052   9.064  0.2874 -0.2932 -0.1282
 3807SOL    HW122883   2.478   3.136   9.092 -0.2426  0.1371 -0.7293
 3807SOL    HW222884   2.360   3.049   9.114  0.4401  0.0263  0.1388
 3808SOL     OW22885   2.032   0.551   6.726 -0.3961  0.9020  0.0838
 3808SOL    HW122886   2.077   0.630   6.756  0.8623  0.7237 -1.3546
 3808SOL    HW222887   1.971   0.531   6.797  0.9442 -0.5160  0.8426
 3809SOL     OW22888   0.016   2.181   2.373 -0.0131 -0.8459 -0.2455
 3809SOL    HW122889   4.690   2.114   2.327  1.0296 -1.7207 -0.1071
 3809SOL    HW222890   0.065   2.126   2.434  0.0944 -0.2101  0.2450
 3810SOL     OW22891   1.234   1.431  16.023  0.4426  0.2953  0.3145
 3810SOL    HW122892   1.142   1.457  16.036  0.9101  1.2121  1.7848
 3810SOL    HW222893   1.234   1.391  15.936 -0.0843  1.5589 -0.2816
 3811SOL     OW22894   1.563   0.280   3.823 -0.0595 -0.1754 -0.4359
 3811SOL    HW122895   1.638   0.335   3.801 -0.2311 -0.0496 -0.7028
 3811SOL    HW222896   1.508   0.305   3.749 -0.7600 -0.9112 -0.1634
 3812SOL     OW22897   3.307   4.404   2.916  0.2656 -0.1854  0.0414
 3812SOL    HW122898   3.366   4.381   2.987  0.3252 -1.1134 -0.3203
 3812SOL    HW222899   3.219   4.391   2.951  0.6363 -2.2381  0.2031
 3813SOL     OW22900   2.702   2.046  13.869  0.5419 -0.4227 -0.2406
 3813SOL    HW122901   2.774   1.984  13.877 -0.5159 -1.4423  1.3752
 3813SOL    HW222902   2.671   2.053  13.960 -1.5299  1.1067 -1.0551
 3814SOL     OW22903   2.229   4.706   3.092  0.3251 -0.3045 -0.6187
 3814SOL    HW122904   2.322   0.003   3.084  0.4439 -1.2554 -1.9131
 3814SOL    HW222905   2.189   0.026   3.018  0.8928 -1.2097 -1.4808
 3815SOL     OW22906   2.623   4.097  16.767 -0.4936  0.3734 -0.3441
 3815SOL    HW122907   2.660   4.185  16.768 -0.3659  0.3017  0.9417
 3815SOL    HW222908   2.583   4.094  16.854  2.0556 -0.2273  0.8172
 3816SOL     OW22909   2.426   1.403   8.903  0.3645 -0.4890  0.0999
 3816SOL    HW122910   2.350   1.360   8.865 -0.0505 -0.9836  1.4842
 3816SOL    HW222911   2.473   1.443   8.829 -0.2462  0.4404  0.2097
 3817SOL     OW22912   0.952   3.894   3.752  0.3267 -0.2125 -0.1944
 3817SOL    HW122913   1.044   3.919   3.752  0.9986 -2.7317 -0.0931
 3817SOL    HW222914   0.952   3.803   3.781 -0.0920 -0.0981  0.1637
 3818SOL     OW22915   0.673   2.109   7.112 -0.0128  0.0997 -0.2637
 3818SOL    HW122916   0.690   2.156   7.194  0.9251  0.4460 -0.6677
 3818SOL    HW222917   0.717   2.025   7.127 -0.8823 -0.5204 -1.1938
 3819SOL     OW22918   0.531   3.794   3.990  0.1727  0.3540 -0.8918
 3819SOL    HW122919   0.599   3.847   4.032  0.7045 -3.2538  2.7212
 3819SOL    HW222920   0.444   3.819   4.024 -0.5954 -1.8323 -1.2778
 3820SOL     OW22921   2.401   1.394   6.949 -0.4871 -0.2914  0.2284
 3820SOL    HW122922   2.401   1.402   7.045  0.4169 -0.6517  0.2513
 3820SOL    HW222923   2.445   1.478   6.935 -1.3480 -0.2527 -2.2507
 3821SOL     OW22924   1.023   3.040   6.501 -0.4037  0.2424  0.3390
 3821SOL    HW122925   0.995   3.060   6.412 -0.3326 -0.8682  0.0682
 3821SOL    HW222926   0.936   3.043   6.541 -0.4484 -1.2500  0.3515
 3822SOL     OW22927   1.366   4.281   2.098  0.7535  0.2165  0.0662
 3822SOL    HW122928   1.454   4.309   2.072  0.1313  2.9069  0.8239
 3822SOL    HW222929   1.353   4.190   2.072 -3.7282  1.7282 -3.1026
 3823SOL     OW22930   3.556   0.810   3.598  0.1128  0.9147 -0.0442
 3823SOL    HW122931   3.574   0.816   3.691 -0.1104  0.6742  0.0140
 3823SOL    HW222932   3.547   0.905   3.589  0.1937  1.1805  2.6836
 3824SOL     OW22933   2.850   2.180   0.414 -0.1197 -0.0591  0.1358
 3824SOL    HW122934   2.850   2.200   0.321 -0.9129 -0.7396 -0.0036
 3824SOL    HW222935   2.777   2.236   0.438 -1.4706 -0.2170 -3.6754
 3825SOL     OW22936   0.692   0.503  16.565  0.1160  0.4405 -0.5187
 3825SOL    HW122937   0.655   0.537  16.647 -2.0051 -1.5577 -0.6350
 3825SOL    HW222938   0.695   0.409  16.586 -2.4732  0.7641  1.3269
 3826SOL     OW22939   1.505   1.748  15.931  0.2012  0.5769 -0.1827
 3826SOL    HW122940   1.505   1.814  15.861 -1.4610  0.6332 -0.1194
 3826SOL    HW222941   1.410   1.756  15.942  0.2650 -0.0425  0.8181
 3827SOL     OW22942   4.130   1.007   7.113  0.2643  0.0727 -0.0199
 3827SOL    HW122943   4.087   1.031   7.031 -0.1056 -1.9930 -0.4287
 3827SOL    HW222944   4.170   1.090   7.139  0.6825 -0.0938 -0.1302
 3828SOL     OW22945   4.685   1.699  10.922  0.1837 -0.2197  0.0021
 3828SOL    HW122946   4.709   1.791  10.911 -0.3957  0.0873  1.3130
 3828SOL    HW222947   4.680   1.660  10.834  0.2540  0.5725 -0.3540
 3829SOL     OW22948   1.347   3.625  11.146 -0.0467 -0.0597 -0.4827
 3829SOL    HW122949   1.344   3.718  11.170 -0.1424 -0.0786 -0.4228
 3829SOL    HW222950   1.403   3.620  11.069 -1.5141 -1.0490 -1.4818
 3830SOL     OW22951   0.334   4.376   8.640 -0.1316  0.5600 -0.4835
 3830SOL    HW122952   0.259   4.426   8.607 -0.4077  1.2172  1.1506
 3830SOL    HW222953   0.318   4.374   8.734 -1.4173  0.0381 -0.7115
 3831SOL     OW22954   3.918   4.187   7.525  0.0663  0.3997  0.0415
 3831SOL    HW122955   3.889   4.210   7.613 -1.1293  0.1764 -0.3014
 3831SOL    HW222956   3.894   4.267   7.478 -1.2308  0.4547  0.8023
 3832SOL     OW22957   0.761   4.375   3.100 -0.1869 -0.3101 -0.0051
 3832SOL    HW122958   0.850   4.340   3.102 -0.6659 -1.6136 -1.3887
 3832SOL    HW222959   0.776   4.461   3.062  0.8042 -1.9160 -3.2532
 3833SOL     OW22960   4.684   1.993   4.177  0.1096 -0.6258  0.4350
 3833SOL    HW122961   4.676   2.069   4.235 -2.0270 -0.9379  0.5733
 3833SOL    HW222962   0.050   1.973   4.195 -0.5453 -3.1503  0.9639
 3834SOL     OW22963   0.078   3.046   2.303 -1.0992 -0.3651  0.3990
 3834SOL    HW122964   0.115   3.085   2.382  0.2727 -1.1435  0.1512
 3834SOL    HW222965   0.091   3.110   2.233  0.9622 -1.2117  0.0082
 3835SOL     OW22966   1.999   0.907   2.672  0.2930 -0.7510  0.1347
 3835SOL    HW122967   1.919   0.918   2.723 -0.5174 -1.3961 -0.9955
 3835SOL    HW222968   2.046   0.840   2.723  0.8120  0.2716  0.9942
 3836SOL     OW22969   2.145   4.448   5.841  0.3436 -0.0174  0.4201
 3836SOL    HW122970   2.183   4.400   5.767  0.6263  1.4364 -0.3794
 3836SOL    HW222971   2.171   4.537   5.817  0.9941 -0.5190 -0.7697
 3837SOL     OW22972   1.346   2.667   2.155 -0.2175  0.2508  0.2148
 3837SOL    HW122973   1.313   2.702   2.072  0.6940  0.8734  0.1186
 3837SOL    HW222974   1.282   2.701   2.218  1.0967 -0.2316  1.8025
 3838SOL     OW22975   2.827   1.418   4.252 -0.1640 -0.2490 -0.2313
 3838SOL    HW122976   2.828   1.323   4.261 -2.6191 -0.2231  0.2547
 3838SOL    HW222977   2.748   1.441   4.302  0.3181  2.1043 -0.5484
 3839SOL     OW22978   1.711   3.840  13.182  1.0777 -0.7854  0.7244
 3839SOL    HW122979   1.636   3.900  13.189  0.5509 -1.3616 -0.0795
 3839SOL    HW222980   1.693   3.786  13.106 -0.0847  1.7142 -0.7851
 3840SOL     OW22981   4.010   2.737   3.755  0.1523 -0.1307  0.9523
 3840SOL    HW122982   3.976   2.822   3.781  2.2812  0.8869  0.3939
 3840SOL    HW222983   4.040   2.684   3.829  0.4008 -0.9931  0.2472
 3841SOL     OW22984   4.131   2.014   4.372 -0.4809 -0.0867  0.1413
 3841SOL    HW122985   4.134   1.997   4.278  0.8168  1.0965 -0.0370
 3841SOL    HW222986   4.225   2.027   4.388 -0.7902 -1.7356  3.2200
 3842SOL     OW22987   3.964   3.215   5.664 -0.1812  0.5741 -0.0491
 3842SOL    HW122988   4.044   3.164   5.650 -0.7382 -0.0468 -0.8953
 3842SOL    HW222989   3.948   3.223   5.570 -0.1186 -0.0830 -0.1190
 3843SOL     OW22990   3.082   3.374  10.644  0.0099  0.3451 -0.0364
 3843SOL    HW122991   3.104   3.375  10.551 -0.8008 -0.1924 -0.2292
 3843SOL    HW222992   3.016   3.305  10.645 -0.0217  0.3567 -0.9886
 3844SOL     OW22993   2.802   1.469   0.765  0.2286  0.0313  0.8275
 3844SOL    HW122994   2.780   1.451   0.857  1.8501 -1.3808  0.9364
 3844SOL    HW222995   2.838   1.558   0.766  1.7559 -0.5858 -1.0360
 3845SOL     OW22996   3.124   1.120   1.218 -0.5833 -0.2556  1.0438
 3845SOL    HW122997   3.056   1.054   1.230 -0.9622 -0.3045 -1.3623
 3845SOL    HW222998   3.202   1.065   1.228  1.0738  2.4906  3.1655
 3846SOL     OW22999   0.255   1.290   7.537  0.1226  0.4363  0.0254
 3846SOL    HW123000   0.183   1.231   7.559  1.3672 -0.5934  1.3517
 3846SOL    HW223001   0.309   1.286   7.616  0.4035 -0.4129 -0.1990
 3847SOL     OW23002   1.017   3.935   2.475  0.1073 -0.1324 -0.0956
 3847SOL    HW123003   1.104   3.908   2.505 -0.9830 -0.9117  2.3157
 3847SOL    HW223004   0.955   3.881   2.525 -1.1394  4.1232  2.8932
 3848SOL     OW23005   0.082   2.545   7.137 -0.2628  0.1344  0.5845
 3848SOL    HW123006   0.170   2.579   7.121 -0.9072  1.5618  0.0849
 3848SOL    HW223007   0.088   2.450   7.124  1.3146  0.3214 -0.0866
 3849SOL     OW23008   4.186   4.581   7.904  0.5877  0.4776  0.1277
 3849SOL    HW123009   4.281   4.586   7.889  0.6949  0.8613  0.9353
 3849SOL    HW223010   4.168   4.672   7.926 -2.8356 -0.2641  0.3891
 3850SOL     OW23011   2.940   4.077  16.746  0.8733  0.1263 -0.2186
 3850SOL    HW123012   2.926   4.016  16.818  0.9405  0.0054 -0.3063
 3850SOL    HW223013   2.928   4.163  16.785 -2.8925 -0.9872  1.0971
 3851SOL     OW23014   0.759   0.853   1.907 -0.3014  0.2567 -0.7006
 3851SOL    HW123015   0.668   0.881   1.910  0.1235  1.7203 -1.2123
 3851SOL    HW223016   0.754   0.783   1.972 -1.6089 -0.8265 -1.9696
 3852SOL     OW23017   4.099   0.366  11.159 -0.0268  0.5972  0.3323
 3852SOL    HW123018   4.182   0.400  11.191 -0.1542 -1.7196  3.0970
 3852SOL    HW223019   4.124   0.339  11.070  5.2064  0.5934  1.8312
 3853SOL     OW23020   2.723   0.600   3.534 -0.4367  0.2920  0.5862
 3853SOL    HW123021   2.642   0.550   3.542 -1.4717  1.6658 -1.2765
 3853SOL    HW223022   2.741   0.610   3.627  0.9964  1.0102  0.2321
 3854SOL     OW23023   1.945   2.407   5.718  0.1032 -0.5072 -0.5658
 3854SOL    HW123024   1.986   2.470   5.777  0.7364  0.9127 -2.5514
 3854SOL    HW223025   2.013   2.397   5.651  0.2250  0.1542 -0.5394
 3855SOL     OW23026   0.630   1.282   5.649  0.3275 -0.3193 -0.5844
 3855SOL    HW123027   0.575   1.232   5.590 -0.4141 -1.2218  0.8663
 3855SOL    HW223028   0.690   1.212   5.676  0.7314 -0.0741 -0.8387
 3856SOL     OW23029   2.393   1.281   4.693 -0.2835 -0.4505  0.3381
 3856SOL    HW123030   2.335   1.221   4.646  0.5823 -2.4884  1.8843
 3856SOL    HW223031   2.446   1.225   4.751  0.2792 -0.7520 -0.4675
 3857SOL     OW23032   3.635   0.113   4.907 -0.3594  0.1975  0.3587
 3857SOL    HW123033   3.693   0.043   4.877 -0.5074 -0.4656  1.6229
 3857SOL    HW223034   3.552   0.069   4.921 -0.1838 -1.3320 -3.5163
 3858SOL     OW23035   4.700   1.969  15.457  0.4148 -0.0785 -0.2484
 3858SOL    HW123036   4.654   1.888  15.481  0.7597 -0.0598  0.4682
 3858SOL    HW223037   0.043   1.929  15.403  1.4817 -1.0566  1.8450
 3859SOL     OW23038   2.418   3.688   5.478 -0.4862 -0.0993  0.4129
 3859SOL    HW123039   2.337   3.736   5.460  0.0581  0.4133 -0.6464
 3859SOL    HW223040   2.459   3.688   5.391 -0.6630 -1.8663  0.3425
 3860SOL     OW23041   2.392   3.471   3.471 -0.2225  0.5263 -0.2854
 3860SOL    HW123042   2.318   3.526   3.496  0.4449  1.2358  0.1308
 3860SOL    HW223043   2.462   3.534   3.486 -0.1506  0.6432 -1.0828
 3861SOL     OW23044   0.392   0.706   3.506 -0.0747 -0.2229  0.4483
 3861SOL    HW123045   0.309   0.667   3.479  0.7188 -1.6334  0.0377
 3861SOL    HW223046   0.443   0.627   3.524  0.3941 -0.2532 -1.0067
 3862SOL     OW23047   2.013   1.944   9.029  0.2991 -0.0930 -0.6379
 3862SOL    HW123048   2.104   1.971   9.015  0.8605 -2.0568 -0.8411
 3862SOL    HW223049   2.013   1.849   9.039  2.0444  0.1174  1.2988
 3863SOL     OW23050   3.470   3.590   2.660 -0.2772 -0.3758 -0.4405
 3863SOL    HW123051   3.394   3.609   2.715 -0.9594 -0.9349 -1.2000
 3863SOL    HW223052   3.465   3.494   2.656  0.5660 -0.3917 -0.9855
 3864SOL     OW23053   0.099   2.010   4.573 -0.7962 -0.5016 -0.5315
 3864SOL    HW123054   0.062   1.922   4.567  1.1950 -1.4328  1.1980
 3864SOL    HW223055   0.102   2.024   4.667  1.9372 -0.3490 -0.6518
 3865SOL     OW23056   2.459   4.017   3.601  0.3769  0.0539 -0.0903
 3865SOL    HW123057   2.537   3.964   3.619  0.1833  0.1618  1.0823
 3865SOL    HW223058   2.473   4.086   3.665  0.0136 -2.1834  2.4151
 3866SOL     OW23059   1.660   0.431   2.877  0.4491 -0.6203 -0.1152
 3866SOL    HW123060   1.679   0.473   2.961 -1.4027  1.5239 -0.7608
 3866SOL    HW223061   1.747   0.392   2.864  0.6720 -0.5332  1.1610
 3867SOL     OW23062   0.568   0.949   4.461  0.6463  0.3127  0.0583
 3867SOL    HW123063   0.646   0.917   4.506  0.0890  1.4771  1.8302
 3867SOL    HW223064   0.552   0.873   4.404  1.9484  0.1551 -0.1060
 3868SOL     OW23065   0.753   0.635   9.779 -0.0922 -0.0934  0.1244
 3868SOL    HW123066   0.807   0.714   9.788 -0.8040  0.6202 -1.8391
 3868SOL    HW223067   0.714   0.638   9.866 -2.2682  0.1762 -0.8419
 3869SOL     OW23068   1.053   3.003   0.731 -0.8375  0.0814  0.2499
 3869SOL    HW123069   0.973   3.053   0.718 -0.3849  0.7689  0.1382
 3869SOL    HW223070   1.089   3.065   0.794  0.9360 -0.3767 -0.3009
 3870SOL     OW23071   1.662   1.256   7.332  0.3552 -0.6457  0.1918
 3870SOL    HW123072   1.674   1.290   7.243 -0.2380 -0.3264  0.2303
 3870SOL    HW223073   1.567   1.263   7.342  0.3824  1.2099 -0.7696
 3871SOL     OW23074   3.905   2.402   6.345 -0.7370 -0.0963  0.2761
 3871SOL    HW123075   3.903   2.403   6.250 -0.3889 -0.0660  0.2702
 3871SOL    HW223076   3.828   2.454   6.367 -0.3845  0.1019  1.0635
 3872SOL     OW23077   2.155   4.173   2.152  0.6283  0.1607  0.0356
 3872SOL    HW123078   2.228   4.155   2.093  0.1220 -0.9307 -0.2594
 3872SOL    HW223079   2.206   4.222   2.218  1.3675  0.3612 -0.6846
 3873SOL     OW23080   3.093   0.724   7.143 -0.1828 -0.4716  0.3424
 3873SOL    HW123081   3.164   0.783   7.166 -0.7593  0.2752  0.2148
 3873SOL    HW223082   3.062   0.687   7.226  0.4898  0.9872  1.2265
 3874SOL     OW23083   2.871   2.051  15.661  0.1817  0.1323 -0.4649
 3874SOL    HW123084   2.923   2.020  15.587  1.4833 -0.5553  0.7355
 3874SOL    HW223085   2.790   2.064  15.613 -0.5065  0.9021  0.8877
 3875SOL     OW23086   1.155   3.313   2.752  0.1178  0.1640 -0.2203
 3875SOL    HW123087   1.232   3.358   2.786 -0.2834  0.0678  0.8336
 3875SOL    HW223088   1.085   3.359   2.799 -0.2775 -0.5624 -0.0799
 3876SOL     OW23089   2.962   2.959   3.080  0.1276  0.0161  0.7996
 3876SOL    HW123090   2.932   2.983   2.992  2.5209  1.8777  0.5157
 3876SOL    HW223091   3.030   3.026   3.088 -0.4560  0.6319  0.6033
 3877SOL     OW23092   1.525   4.571   2.061 -0.0235 -0.0895  0.1292
 3877SOL    HW123093   1.465   4.643   2.040 -0.1788 -0.3833 -0.4241
 3877SOL    HW223094   1.527   4.569   2.157  0.9633 -0.2956  0.1022
 3878SOL     OW23095   3.270   0.606  14.872 -0.0689 -0.6119  0.7212
 3878SOL    HW123096   3.342   0.577  14.816  0.2110  0.4179  0.5492
 3878SOL    HW223097   3.204   0.537  14.864  0.2607 -0.5711 -2.3699
 3879SOL     OW23098   1.504   4.270   5.107  0.8979 -1.5212 -0.1538
 3879SOL    HW123099   1.469   4.191   5.149  1.2127 -1.6766 -0.1890
 3879SOL    HW223100   1.596   4.282   5.129 -0.5189  2.3024  3.7008
 3880SOL     OW23101   3.272   0.280   7.973  0.0045 -0.1458  0.2188
 3880SOL    HW123102   3.317   0.338   7.911  1.0996  0.7511  1.8753
 3880SOL    HW223103   3.181   0.286   7.942 -0.6289 -0.7826  1.9582
 3881SOL     OW23104   4.451   2.942   9.483  0.7328  0.4140  0.0478
 3881SOL    HW123105   4.443   2.936   9.388 -1.6323  0.4331  0.2404
 3881SOL    HW223106   4.451   3.034   9.508  2.4523  0.4930 -0.2430
 3882SOL     OW23107   3.827   1.768  13.699 -0.1233  0.2828 -0.5387
 3882SOL    HW123108   3.893   1.766  13.631 -0.8665  1.5617 -1.3098
 3882SOL    HW223109   3.770   1.842  13.678  0.0518  0.8463  0.9140
 3883SOL     OW23110   2.799   3.244   3.394 -0.2911 -0.2252  0.4352
 3883SOL    HW123111   2.728   3.291   3.350 -0.3272 -0.0528  0.6769
 3883SOL    HW223112   2.874   3.256   3.335 -1.2947  3.3687 -0.0920
 3884SOL     OW23113   3.584   3.683   4.140 -0.4287 -0.3043 -0.0680
 3884SOL    HW123114   3.527   3.644   4.073  0.2192 -1.1292 -0.1406
 3884SOL    HW223115   3.604   3.604   4.190  3.9865  0.5004 -0.5814
 3885SOL     OW23116   0.926   1.838   2.953  0.1158  0.4108 -0.8637
 3885SOL    HW123117   0.859   1.801   2.895 -1.0104  0.8190  0.1856
 3885SOL    HW223118   0.868   1.852   3.028  1.3819  1.4825 -0.1031
 3886SOL     OW23119   2.840   1.321   6.628  0.7340  0.4264  0.3704
 3886SOL    HW123120   2.757   1.369   6.627  0.3365 -0.2835 -2.0298
 3886SOL    HW223121   2.828   1.278   6.713  0.1308 -1.3851 -0.6351
 3887SOL     OW23122   1.682   3.611  15.848  0.0453 -0.0054 -0.2013
 3887SOL    HW123123   1.690   3.634  15.941  0.3773  2.2172 -0.7850
 3887SOL    HW223124   1.754   3.548  15.839  0.3394  0.5519 -1.7049
 3888SOL     OW23125   1.001   0.816  11.041  0.1453 -0.5453  0.7508
 3888SOL    HW123126   0.954   0.747  10.993  1.0674 -1.6972  1.4885
 3888SOL    HW223127   0.950   0.894  11.021  0.1872 -0.8713 -0.6433
 3889SOL     OW23128   2.997   1.213   3.810  0.0879  0.4249  0.2362
 3889SOL    HW123129   2.974   1.145   3.746 -0.8719  0.7614  0.2318
 3889SOL    HW223130   3.073   1.166   3.844 -1.3959 -1.0576  1.4485
 3890SOL     OW23131   3.045   3.737   7.606 -0.5143 -0.3161 -0.4439
 3890SOL    HW123132   3.014   3.777   7.525 -1.2038 -2.0168 -1.0337
 3890SOL    HW223133   3.139   3.739   7.588 -0.4110  0.8452  0.2621
 3891SOL     OW23134   0.980   4.349   9.715 -0.0811  0.1112  0.1706
 3891SOL    HW123135   1.006   4.326   9.804 -2.6114  0.8502  1.0863
 3891SOL    HW223136   1.062   4.389   9.686 -0.5802  0.0401 -1.3501
 3892SOL     OW23137   4.605   4.428  12.777  0.5078  0.3749  0.7103
 3892SOL    HW123138   4.575   4.495  12.715  1.0044 -1.2463 -1.2716
 3892SOL    HW223139   4.524   4.379  12.791 -0.9473  2.5503 -0.0798
 3893SOL     OW23140   0.089   1.926   8.996  0.2368  0.0230  0.4787
 3893SOL    HW123141   4.720   1.939   8.999  0.1589  0.1224 -2.5620
 3893SOL    HW223142   0.100   1.843   8.950 -2.2939  0.1865 -0.4373
 3894SOL     OW23143   1.854   1.459   0.986  0.0503 -0.3457 -0.1356
 3894SOL    HW123144   1.793   1.507   1.042  2.8686  1.5521  1.3046
 3894SOL    HW223145   1.865   1.379   1.038 -0.2829 -0.0138  0.4451
 3895SOL     OW23146   1.642   3.070  12.789 -0.3266 -0.3265  0.0754
 3895SOL    HW123147   1.604   3.152  12.819  1.6188  1.4697 -2.3779
 3895SOL    HW223148   1.704   3.049  12.859 -0.0156 -0.2684 -0.1811
 3896SOL     OW23149   4.373   2.733  12.546 -0.1939 -1.0113 -0.2166
 3896SOL    HW123150   4.364   2.743  12.451 -0.9474  0.0122 -0.0330
 3896SOL    HW223151   4.389   2.640  12.560 -0.6922 -0.7841  1.8191
 3897SOL     OW23152   3.793   2.118  17.542  0.8998 -0.1853  0.1481
 3897SOL    HW123153   3.776   2.148  17.631 -1.0108  3.0348 -1.3226
 3897SOL    HW223154   3.816   2.025  17.546  2.7118  0.2326 -0.2471
 3898SOL     OW23155   1.152   1.480   4.599 -0.1649  0.0085 -0.5102
 3898SOL    HW123156   1.115   1.547   4.543 -1.7245  0.6233  1.2437
 3898SOL    HW223157   1.092   1.406   4.587 -1.4972  0.9220  0.4861
 3899SOL     OW23158   0.707   1.576  16.588 -0.6293  0.0369 -0.7231
 3899SOL    HW123159   0.697   1.548  16.497 -0.2865  0.8566 -1.0098
 3899SOL    HW223160   0.713   1.489  16.628 -0.4158  0.3904  0.0249
 3900SOL     OW23161   0.911   3.240  16.672 -0.4138 -0.5032  0.0779
 3900SOL    HW123162   0.835   3.247  16.615 -0.6293  1.2333  0.5568
 3900SOL    HW223163   0.967   3.306  16.631 -2.2683 -0.2931 -2.0899
 3901SOL     OW23164   0.737   2.576   2.219 -0.2101 -0.3050 -0.2050
 3901SOL    HW123165   0.663   2.545   2.167 -0.0256  1.7995 -1.7170
 3901SOL    HW223166   0.771   2.654   2.175 -0.9770 -0.3310 -0.8346
 3902SOL     OW23167   1.945   1.650  16.178 -0.0645 -0.7774 -0.2656
 3902SOL    HW123168   1.879   1.662  16.110 -1.1563  3.3420  1.5588
 3902SOL    HW223169   1.900   1.670  16.260  1.3191 -1.1825  0.6041
 3903SOL     OW23170   4.690   0.413   5.418  0.3725  0.4407  0.0833
 3903SOL    HW123171   4.700   0.420   5.323 -1.8815 -1.5796 -0.2879
 3903SOL    HW223172   4.645   0.330   5.429  2.0813 -0.5530 -0.4646
 3904SOL     OW23173   1.545   1.009   4.830  0.2402 -0.0189  0.1103
 3904SOL    HW123174   1.588   0.992   4.914  0.8925 -0.7577 -0.3827
 3904SOL    HW223175   1.578   1.097   4.816  0.8136 -0.7105 -2.7103
 3905SOL     OW23176   4.693   2.656   8.186 -0.1675 -0.6094  0.0787
 3905SOL    HW123177   0.049   2.662   8.237  0.2775  0.4876 -0.7830
 3905SOL    HW223178   4.718   2.705   8.108  0.2049 -3.7179 -1.7714
 3906SOL     OW23179   1.404   4.722  13.532  0.7260  0.3489  0.2942
 3906SOL    HW123180   1.407   0.081  13.487  0.0860  0.3388  0.2345
 3906SOL    HW223181   1.311   4.713  13.553  1.2025 -0.1682  2.1620
 3907SOL     OW23182   1.102   0.633   7.883  0.9480 -0.4372  0.3743
 3907SOL    HW123183   1.109   0.587   7.799  0.1287 -1.2426  0.7529
 3907SOL    HW223184   1.170   0.593   7.936  1.3541 -1.4967 -0.9533
 3908SOL     OW23185   0.640   3.859   0.074  0.7189  0.2847 -0.2493
 3908SOL    HW123186   0.574   3.909   0.027  0.6515 -0.9037 -1.4153
 3908SOL    HW223187   0.666   3.787   0.017 -0.4173  0.6141 -1.1756
 3909SOL     OW23188   3.145   1.794   9.213 -0.0897  0.0475  0.3291
 3909SOL    HW123189   3.090   1.846   9.272  0.4444  1.2279 -0.2015
 3909SOL    HW223190   3.083   1.767   9.146 -0.2158 -0.6785  0.7341
 3910SOL     OW23191   2.810   2.859   1.612 -0.0991 -0.0716  0.0695
 3910SOL    HW123192   2.762   2.922   1.559  1.2924  1.2330  0.3642
 3910SOL    HW223193   2.898   2.856   1.575  0.0088  1.1157  0.2202
 3911SOL     OW23194   2.140   0.089   2.843  0.6028  0.6798  0.7278
 3911SOL    HW123195   2.045   0.092   2.829  0.7933  0.4426 -0.5668
 3911SOL    HW223196   2.159   0.111   2.752 -0.4903  2.5107  0.9396
 3912SOL     OW23197   0.136   1.521   9.576  0.3772  0.1820  0.7225
 3912SOL    HW123198   0.099   1.577   9.644  1.6134  1.9135 -0.0192
 3912SOL    HW223199   0.064   1.472   9.535  1.4969 -1.3676  0.6305
 3913SOL     OW23200   0.351   0.045   3.653 -0.3633 -0.4265 -0.0567
 3913SOL    HW123201   0.343   4.675   3.651 -2.0554 -0.3692  3.1194
 3913SOL    HW223202   0.263   0.073   3.628 -0.9355 -0.3446  2.0638
 3914SOL     OW23203   0.994   2.519  11.438 -0.1014  0.0782  0.1963
 3914SOL    HW123204   1.085   2.545  11.455 -0.9361  1.3914  2.6476
 3914SOL    HW223205   0.980   2.473  11.520  0.9222 -0.1117  0.2655
 3915SOL     OW23206   1.011   0.453   6.935  0.5688 -0.0998  0.3102
 3915SOL    HW123207   1.008   0.366   6.894  1.7411 -0.3772  0.8179
 3915SOL    HW223208   1.030   0.515   6.865 -0.0561 -0.8503 -0.5218
 3916SOL     OW23209   2.728   4.500   5.202  0.0089  0.1113 -0.3449
 3916SOL    HW123210   2.659   4.489   5.268 -0.0015  0.7060 -0.2596
 3916SOL    HW223211   2.800   4.448   5.237  0.1199  0.0010 -0.7354
 3917SOL     OW23212   3.637   0.498   8.017 -0.2581 -0.2591 -0.2355
 3917SOL    HW123213   3.610   0.545   7.938  1.6411 -2.1620 -2.0394
 3917SOL    HW223214   3.675   0.570   8.066  2.3538 -3.6739  2.7205
 3918SOL     OW23215   0.696   3.512   4.994 -0.1799  0.3684 -0.1060
 3918SOL    HW123216   0.735   3.590   4.956  0.1148  0.2689 -0.0104
 3918SOL    HW223217   0.691   3.459   4.915  0.5495 -1.1963  0.8815
 3919SOL     OW23218   3.643   0.671   1.763  0.4241 -0.3206  0.1956
 3919SOL    HW123219   3.614   0.598   1.708 -0.2535 -0.7260  1.0859
 3919SOL    HW223220   3.663   0.621   1.842  3.3320 -0.3002 -0.5085
 3920SOL     OW23221   1.875   0.031   5.610  1.0954 -0.3610 -0.1217
 3920SOL    HW123222   1.873   0.103   5.547 -1.4139 -0.5745 -0.3085
 3920SOL    HW223223   1.930   4.691   5.566 -0.7492 -1.2457 -1.1022
 3921SOL     OW23224   2.850   4.606   3.108  0.9892  0.3561 -0.0223
 3921SOL    HW123225   2.880   4.697   3.116 -1.0533  0.7493  3.1885
 3921SOL    HW223226   2.838   4.597   3.203 -1.6929 -0.0379 -0.4061
 3922SOL     OW23227   1.901   0.397   1.595  0.6343 -0.0579  0.6078
 3922SOL    HW123228   1.827   0.336   1.589  0.2806  0.3240  1.0926
 3922SOL    HW223229   1.908   0.402   1.690 -0.3992  0.6241  0.6509
 3923SOL     OW23230   1.804   4.259   3.064  0.1803 -0.6762  0.0654
 3923SOL    HW123231   1.754   4.280   3.143 -2.3443  1.0788 -2.0096
 3923SOL    HW223232   1.733   4.233   3.006  0.6031  0.4091 -0.9413
 3924SOL     OW23233   1.193   1.831   4.214  0.4209 -0.5111  0.2970
 3924SOL    HW123234   1.188   1.807   4.121 -0.9164 -0.4644  0.3648
 3924SOL    HW223235   1.163   1.921   4.208 -1.8531 -1.2705  0.4073
 3925SOL     OW23236   3.659   1.735   9.302 -0.2696 -0.2244  0.0642
 3925SOL    HW123237   3.679   1.734   9.396 -2.0342  1.0867  0.4626
 3925SOL    HW223238   3.627   1.825   9.298  0.8058  0.1630  0.1160
 3926SOL     OW23239   3.757   3.676  15.295 -0.3225  0.3076  0.0074
 3926SOL    HW123240   3.749   3.744  15.228 -0.6289  1.1168  0.8601
 3926SOL    HW223241   3.670   3.676  15.335  0.4708  3.3099  1.7324
 3927SOL     OW23242   2.388   4.004   6.098  0.4790 -0.0757  0.0728
 3927SOL    HW123243   2.450   3.934   6.117  1.0944  0.6883  0.8767
 3927SOL    HW223244   2.320   3.986   6.162 -0.3393  0.6054 -0.6075
 3928SOL     OW23245   4.231   3.240   6.089  0.1849 -0.0408  0.2277
 3928SOL    HW123246   4.177   3.282   6.156 -2.9272  0.8603 -2.7977
 3928SOL    HW223247   4.188   3.274   6.010  1.1248 -1.1296 -0.7458
 3929SOL     OW23248   2.619   1.098  15.039 -0.2730  0.4825 -0.1804
 3929SOL    HW123249   2.643   1.054  14.957  1.1186 -0.2455  0.6238
 3929SOL    HW223250   2.532   1.133  15.020 -0.2314  0.5901 -0.1713
 3930SOL     OW23251   1.132   1.085   0.373  0.3836 -0.1306 -0.1301
 3930SOL    HW123252   1.164   1.035   0.297  0.3545 -1.7687  0.9301
 3930SOL    HW223253   1.040   1.066   0.357  0.5410 -0.0920 -1.0951
 3931SOL     OW23254   3.001   4.073   6.891 -0.0063  0.3464  0.2664
 3931SOL    HW123255   2.984   4.008   6.822 -1.5928  1.2142 -0.1491
 3931SOL    HW223256   3.070   4.019   6.930 -0.4558 -0.0094  0.5664
 3932SOL     OW23257   0.764   3.136  13.325  0.2202  0.2525 -0.2040
 3932SOL    HW123258   0.777   3.217  13.276 -0.5190  1.6452  1.9030
 3932SOL    HW223259   0.788   3.172  13.410  1.6247 -0.1192 -0.4366
 3933SOL     OW23260   0.177   0.236   2.925  0.4310 -0.0763  0.2371
 3933SOL    HW123261   0.260   0.229   2.973  0.8330  0.7441 -0.3370
 3933SOL    HW223262   0.121   0.283   2.986 -1.7643 -1.2903 -0.8689
 3934SOL     OW23263   3.685   2.900   2.097  0.4312 -0.0264 -0.4631
 3934SOL    HW123264   3.751   2.969   2.087  1.2954 -1.0901 -2.2648
 3934SOL    HW223265   3.696   2.874   2.188  2.8267  1.6323 -0.2701
 3935SOL     OW23266   3.839   4.191   2.720  0.1599 -0.3549  0.3033
 3935SOL    HW123267   3.750   4.208   2.689  0.0144 -1.4551  0.1201
 3935SOL    HW223268   3.888   4.259   2.674 -0.8824  0.9959  1.1728
 3936SOL     OW23269   1.615   1.891   7.232 -0.2792 -0.5323 -0.2611
 3936SOL    HW123270   1.665   1.848   7.161 -3.3770 -1.0139 -2.1435
 3936SOL    HW223271   1.529   1.896   7.190 -0.4365 -1.7087 -0.0805
 3937SOL     OW23272   3.673   3.444  12.224 -0.4022 -0.0099  0.0821
 3937SOL    HW123273   3.732   3.446  12.299 -0.9400 -0.5690  0.5155
 3937SOL    HW223274   3.734   3.468  12.155  1.7222 -3.2514  0.8513
 3938SOL     OW23275   0.528   1.242   4.227 -0.3992 -0.0659 -0.0172
 3938SOL    HW123276   0.482   1.166   4.192  2.1655 -1.6799  0.1184
 3938SOL    HW223277   0.619   1.223   4.205  0.1071 -0.1770  2.2019
 3939SOL     OW23278   1.683   0.983   4.425  0.0023 -0.1246  0.0704
 3939SOL    HW123279   1.608   1.041   4.440 -1.0299 -1.5196  0.3745
 3939SOL    HW223280   1.747   1.035   4.473 -1.0999  0.0016  1.3939
 3940SOL     OW23281   0.999   4.490   6.967  0.3773 -0.7779 -0.1629
 3940SOL    HW123282   1.093   4.489   6.947  0.3078 -0.3453 -0.5040
 3940SOL    HW223283   0.968   4.455   6.883  0.2324  0.2823 -0.5510
 3941SOL     OW23284   2.242   4.041   3.449  0.1738 -0.4649  0.1874
 3941SOL    HW123285   2.312   4.010   3.506  1.3655  0.4958 -0.7321
 3941SOL    HW223286   2.281   4.118   3.407 -2.4367  0.8057  0.0743
 3942SOL     OW23287   4.103   3.515  10.132 -0.1391 -0.2110 -0.4592
 3942SOL    HW123288   4.162   3.446  10.098  1.0858  1.7917 -2.4232
 3942SOL    HW223289   4.086   3.490  10.223 -0.7058  1.9772  0.0283
 3943SOL     OW23290   2.746   3.217   6.674  0.3821 -0.2407  0.4277
 3943SOL    HW123291   2.785   3.240   6.590  0.1710 -1.3597  0.0273
 3943SOL    HW223292   2.757   3.297   6.726 -4.0094  1.5714 -1.4482
 3944SOL     OW23293   2.975   2.102   0.820 -0.6821  0.2304  0.3957
 3944SOL    HW123294   3.009   2.144   0.741 -1.2776 -1.1528 -0.5835
 3944SOL    HW223295   3.037   2.138   0.883 -0.4526  0.5471 -0.0082
 3945SOL     OW23296   1.201   2.660   4.242 -0.3054  0.3362  0.8619
 3945SOL    HW123297   1.195   2.658   4.147  1.5481  0.7358  0.7542
 3945SOL    HW223298   1.295   2.647   4.254 -0.4480 -1.4854  0.0384
 3946SOL     OW23299   3.511   3.690   9.873  0.4918 -1.0625  0.3243
 3946SOL    HW123300   3.539   3.663   9.961  1.0761 -0.4089  0.3344
 3946SOL    HW223301   3.528   3.784   9.871 -0.4227 -0.8806  1.4165
 3947SOL     OW23302   1.381   4.289   8.587  0.1308  0.2920 -0.1373
 3947SOL    HW123303   1.345   4.237   8.658  0.6104  1.1333  0.7246
 3947SOL    HW223304   1.341   4.253   8.508 -2.0132  0.9180  0.6819
 3948SOL     OW23305   4.165   0.707   5.480 -0.6931 -0.2625 -0.1043
 3948SOL    HW123306   4.115   0.643   5.531 -0.8859 -1.4880 -1.8369
 3948SOL    HW223307   4.149   0.777   5.543 -0.9717 -0.7047  0.3129
 3949SOL     OW23308   4.213   1.416   1.187  0.3657  0.2611  0.4004
 3949SOL    HW123309   4.256   1.456   1.263 -0.8433  0.6562  0.8775
 3949SOL    HW223310   4.147   1.361   1.229 -1.0059  0.9485 -0.8389
 3950SOL     OW23311   3.449   4.456   2.510  0.6527 -0.4617 -0.2174
 3950SOL    HW123312   3.392   4.379   2.505  0.1484 -0.1247  0.3856
 3950SOL    HW223313   3.402   4.499   2.581 -1.9422 -0.6263 -1.8349
 3951SOL     OW23314   3.544   0.849   2.162  0.4419  0.5391 -0.1912
 3951SOL    HW123315   3.484   0.801   2.104  0.6128 -0.8276  0.7731
 3951SOL    HW223316   3.605   0.888   2.099  2.2647 -1.7673  0.1621
 3952SOL     OW23317   1.894   1.452   9.127 -0.3192 -0.1334 -0.1697
 3952SOL    HW123318   1.887   1.440   9.222  1.1911 -0.7001 -0.1271
 3952SOL    HW223319   1.972   1.401   9.103 -0.2079 -0.0757  0.0694
 3953SOL     OW23320   0.347   2.404   6.277 -0.0094  0.1515 -0.2488
 3953SOL    HW123321   0.351   2.335   6.343  1.6138  0.2879 -0.2122
 3953SOL    HW223322   0.442   2.413   6.269  0.2615  0.0064  2.6315
 3954SOL     OW23323   4.224   4.303   7.917  0.3037  0.2435 -0.0350
 3954SOL    HW123324   4.147   4.265   7.960 -2.0570  1.9652 -2.8076
 3954SOL    HW223325   4.211   4.397   7.914  0.8804  0.3271  0.0712
 3955SOL     OW23326   1.783   3.298   6.411 -0.6317  0.0085  1.1262
 3955SOL    HW123327   1.828   3.217   6.434  0.8502  0.8987  1.3762
 3955SOL    HW223328   1.802   3.304   6.317 -2.4383 -1.0655  0.6812
 3956SOL     OW23329   2.355   2.437   6.404 -0.3521 -0.2753  0.3898
 3956SOL    HW123330   2.280   2.492   6.382 -0.3259 -0.3566  0.1015
 3956SOL    HW223331   2.364   2.464   6.496 -0.6365 -0.3257  0.4316
 3957SOL     OW23332   0.856   2.101   4.027 -0.4332  0.3685  0.0733
 3957SOL    HW123333   0.887   2.098   3.936 -0.2916 -3.1984  0.2485
 3957SOL    HW223334   0.766   2.077   4.006  0.7486 -1.1414 -3.2135
 3958SOL     OW23335   4.459   1.186   1.741 -0.2969 -0.1146 -0.3568
 3958SOL    HW123336   4.395   1.182   1.670 -0.7708  0.2390  0.0504
 3958SOL    HW223337   4.518   1.254   1.708  2.3269 -1.5104  1.3868
 3959SOL     OW23338   0.148   4.390   6.407  0.5788  0.6287  0.2201
 3959SOL    HW123339   0.151   4.475   6.364  0.0580 -0.1994 -1.4375
 3959SOL    HW223340   0.195   4.416   6.487  0.6375  0.0618  0.3678
 3960SOL     OW23341   4.592   1.139   2.650  0.2214 -0.0830 -0.1026
 3960SOL    HW123342   4.660   1.188   2.698  0.8644  0.0306 -1.1334
 3960SOL    HW223343   4.508   1.185   2.660  0.0331 -0.2589 -0.9505
 3961SOL     OW23344   2.850   2.342  17.681  0.2265 -0.2654 -0.0795
 3961SOL    HW123345   2.826   2.298  17.600  0.5240 -2.7898  1.2286
 3961SOL    HW223346   2.781   2.408  17.674  1.5360  0.9034 -2.1649
 3962SOL     OW23347   2.945   3.820   8.417  0.5862  0.4297 -0.1678
 3962SOL    HW123348   2.971   3.764   8.490 -1.4741  1.3063  1.2214
 3962SOL    HW223349   2.934   3.744   8.359 -0.5462  1.2368 -1.0222
 3963SOL     OW23350   0.186   2.253  16.295  0.2757 -0.6753 -0.1084
 3963SOL    HW123351   0.103   2.264  16.248  0.7212 -2.1465 -1.2468
 3963SOL    HW223352   0.164   2.304  16.372  1.4288 -0.9231  0.3828
 3964SOL     OW23353   2.723   1.373   4.795 -0.2842 -0.3348 -0.0154
 3964SOL    HW123354   2.762   1.310   4.854 -0.3685  2.1552  2.6793
 3964SOL    HW223355   2.631   1.346   4.796  0.3373 -2.3241  1.6949
 3965SOL     OW23356   3.443   1.001   6.512  0.4038  0.5561 -0.3764
 3965SOL    HW123357   3.515   0.940   6.524 -0.4454 -0.1516  1.1358
 3965SOL    HW223358   3.380   0.932   6.533 -0.3536  0.5821 -2.4487
 3966SOL     OW23359   3.256   1.015  17.622 -0.0318 -0.3372 -0.0962
 3966SOL    HW123360   3.272   0.949  17.690 -1.3451 -0.3263  0.2331
 3966SOL    HW223361   3.345   1.048  17.619 -0.6285  1.1112 -1.7751
 3967SOL     OW23362   2.523   2.931   1.950 -0.2971 -0.0030  0.5761
 3967SOL    HW123363   2.480   2.947   1.866 -1.0742 -2.2217  0.5311
 3967SOL    HW223364   2.475   2.852   1.976  0.7661 -0.3120  1.5950
 3968SOL     OW23365   1.407   1.355  13.811  0.0056  0.4285  0.4261
 3968SOL    HW123366   1.340   1.298  13.849 -0.5171  0.6431 -0.1617
 3968SOL    HW223367   1.466   1.369  13.885 -1.2081  0.9771  1.2967
 3969SOL     OW23368   0.614   3.421   3.522 -0.0909  0.2809  0.0624
 3969SOL    HW123369   0.523   3.450   3.520 -0.0076  0.5601  0.4057
 3969SOL    HW223370   0.643   3.478   3.451  1.6552 -2.0205 -1.0752
 3970SOL     OW23371   4.333   3.626   1.341  0.5141 -0.3155  0.4557
 3970SOL    HW123372   4.268   3.598   1.277 -0.3947 -1.1758  1.7431
 3970SOL    HW223373   4.396   3.562   1.309  2.2068  1.4457  0.2581
 3971SOL     OW23374   4.664   0.092   5.291  0.0642 -0.3904  0.2410
 3971SOL    HW123375   4.608   0.142   5.350 -0.0915 -0.1135 -0.1396
 3971SOL    HW223376   4.676   0.012   5.343  0.4158 -0.9059 -0.6430
 3972SOL     OW23377   1.785   0.102  17.075  0.2092 -0.1046 -0.0417
 3972SOL    HW123378   1.787   0.128  17.167 -0.1942 -1.3714  0.3233
 3972SOL    HW223379   1.708   0.150  17.045  0.4283  0.5416  0.4130
 3973SOL     OW23380   4.080   0.776   6.690 -0.3395 -0.3253 -0.0290
 3973SOL    HW123381   4.018   0.732   6.747  0.0666 -0.5255  0.2618
 3973SOL    HW223382   4.104   0.710   6.624  0.0700  0.3549 -0.5601
 3974SOL     OW23383   3.658   1.568  16.581  0.1576 -0.2682  0.1887
 3974SOL    HW123384   3.746   1.573  16.617  0.0928 -0.5275  0.3884
 3974SOL    HW223385   3.605   1.612  16.647  1.1283  1.9585 -0.5374
 3975SOL     OW23386   2.609   2.094   6.609 -0.3200 -0.2484  0.1378
 3975SOL    HW123387   2.513   2.091   6.610 -0.4349  2.4587 -0.4164
 3975SOL    HW223388   2.633   2.107   6.700  1.6289 -0.1131 -0.3841
 3976SOL     OW23389   0.483   4.353  13.357  0.0156 -0.2379  0.7716
 3976SOL    HW123390   0.497   4.367  13.263  2.3036 -0.1307  1.1353
 3976SOL    HW223391   0.495   4.259  13.353 -3.3836 -0.5260 -3.5265
 3977SOL     OW23392   1.865   0.582   7.637 -0.7010 -0.1032  0.5563
 3977SOL    HW123393   1.806   0.514   7.606  0.4734 -0.3806 -1.0595
 3977SOL    HW223394   1.810   0.653   7.604 -1.4341 -1.9313 -2.0873
 3978SOL     OW23395   2.584   2.071   4.091 -0.1687 -0.4211 -0.7264
 3978SOL    HW123396   2.566   2.010   4.019  0.2997 -2.5069  0.9285
 3978SOL    HW223397   2.554   2.025   4.170  1.5661  0.7027  0.5709
 3979SOL     OW23398   3.304   1.441   2.186  0.4641  0.4804  0.3334
 3979SOL    HW123399   3.290   1.536   2.184  2.1158  0.7433  1.3996
 3979SOL    HW223400   3.398   1.421   2.190  1.0824  3.1327 -0.5180
 3980SOL     OW23401   1.371   2.755  11.306 -0.3917  0.5643 -1.2945
 3980SOL    HW123402   1.450   2.723  11.349  0.3520  2.1092 -1.5184
 3980SOL    HW223403   1.299   2.701  11.338  0.0356  0.9834  0.3432
 3981SOL     OW23404   2.046   3.356   7.942  0.3054  0.1908 -0.2395
 3981SOL    HW123405   2.065   3.440   7.901  0.6893  0.1094 -0.2250
 3981SOL    HW223406   2.025   3.381   8.031 -0.0735 -0.4037 -0.1612
 3982SOL     OW23407   3.110   0.815   7.768  0.2561 -0.1359 -0.3007
 3982SOL    HW123408   3.071   0.825   7.855  1.3398 -0.4777  0.2124
 3982SOL    HW223409   3.094   0.721   7.757 -1.8755  0.2972 -0.9959
 3983SOL     OW23410   1.244   0.829  12.816 -0.2975  0.4305  0.4790
 3983SOL    HW123411   1.285   0.914  12.799  0.2091  0.5347  2.2216
 3983SOL    HW223412   1.156   0.867  12.818  0.0063  1.2207 -0.7806
 3984SOL     OW23413   1.464   0.684   9.655 -0.2509  0.3673  0.1415
 3984SOL    HW123414   1.538   0.740   9.678  1.2373 -1.1564 -0.9588
 3984SOL    HW223415   1.509   0.603   9.633 -1.4483  0.5387 -2.9276
 3985SOL     OW23416   4.326   2.857  10.393  0.1599 -0.1121 -0.4945
 3985SOL    HW123417   4.251   2.915  10.399  0.0557 -0.1769 -1.1071
 3985SOL    HW223418   4.286   2.772  10.415 -0.6696  0.4031 -0.0268
 3986SOL     OW23419   1.421   1.018   9.816 -0.5696  0.2640 -0.1899
 3986SOL    HW123420   1.428   1.030   9.910  1.2272  2.6332 -0.6439
 3986SOL    HW223421   1.465   1.090   9.771 -2.1302  0.4920 -1.3445
 3987SOL     OW23422   0.255   0.702   5.559 -0.0317  1.1177 -0.1420
 3987SOL    HW123423   0.325   0.753   5.518  1.3259  0.0371  0.8604
 3987SOL    HW223424   0.267   0.609   5.537 -0.4266  0.8043  0.9807
 3988SOL     OW23425   3.974   0.518   4.735  0.0132 -0.0283 -0.1597
 3988SOL    HW123426   3.960   0.423   4.728 -2.3109  0.1682  2.1995
 3988SOL    HW223427   4.045   0.519   4.670 -0.4088  2.0863 -0.5802
 3989SOL     OW23428   2.408   2.857   8.881 -0.3585  0.2376 -0.0464
 3989SOL    HW123429   2.418   2.925   8.948  1.4617 -0.2645  0.1825
 3989SOL    HW223430   2.322   2.821   8.902 -1.2112  2.5683  0.4928
 3990SOL     OW23431   1.092   4.286   3.870  0.3705 -0.0145 -0.1166
 3990SOL    HW123432   1.158   4.323   3.929 -0.3997  1.5616 -0.2530
 3990SOL    HW223433   1.129   4.311   3.785  0.8807  0.2034  0.1722
 3991SOL     OW23434   3.616   2.017   8.791  0.3623 -0.6341  0.0205
 3991SOL    HW123435   3.540   2.049   8.840  0.9958  0.4955  0.2758
 3991SOL    HW223436   3.631   1.942   8.849 -3.6073  0.2284  2.1553
 3992SOL     OW23437   4.062   1.373   2.614  0.8705 -0.3817  0.0782
 3992SOL    HW123438   4.067   1.438   2.544 -0.8494 -2.5362 -2.0369
 3992SOL    HW223439   3.969   1.349   2.622  0.6009  0.4690 -0.5921
 3993SOL     OW23440   1.737   3.534   5.502  0.0940 -0.3354  0.0014
 3993SOL    HW123441   1.717   3.441   5.492 -1.5773 -0.1266  1.3353
 3993SOL    HW223442   1.831   3.548   5.493  0.1748 -0.3245  0.8581
 3994SOL     OW23443   3.942   2.738   4.741 -0.1907  0.6733  0.1757
 3994SOL    HW123444   3.858   2.717   4.699 -0.4134 -0.9415  1.4101
 3994SOL    HW223445   4.001   2.709   4.671 -0.7427 -2.8562  1.1394
 3995SOL     OW23446   4.227   1.984  15.171  0.3452  0.0535  0.9171
 3995SOL    HW123447   4.256   1.943  15.089 -0.1145  0.6075  0.4819
 3995SOL    HW223448   4.308   2.017  15.211  0.2634  0.8100  0.4539
 3996SOL     OW23449   2.214   1.906  17.178  0.1485 -0.3149  0.0065
 3996SOL    HW123450   2.149   1.853  17.225 -0.7262 -1.2295 -2.2420
 3996SOL    HW223451   2.291   1.850  17.168  0.3560  0.6321 -3.4569
 3997SOL     OW23452   2.843   1.146   3.493 -0.4158 -0.1905 -0.3590
 3997SOL    HW123453   2.842   1.097   3.411 -3.4282  1.6610 -1.4203
 3997SOL    HW223454   2.919   1.103   3.533 -0.5558 -0.9874 -0.9518
 3998SOL     OW23455   1.037   0.055  15.133  0.4293 -0.0038  0.6273
 3998SOL    HW123456   1.053   0.088  15.044 -1.5286  1.9374  1.0018
 3998SOL    HW223457   1.123   0.020  15.157  0.6760 -0.3803 -0.8031
 3999SOL     OW23458   3.808   0.335   6.850 -0.6820 -0.6276 -0.1298
 3999SOL    HW123459   3.723   0.320   6.808 -2.9473  0.5222  4.0026
 3999SOL    HW223460   3.807   0.275   6.925 -0.7505 -0.1599  0.2403
 4000SOL     OW23461   2.241   0.155  10.059  0.6303  0.0142  0.8847
 4000SOL    HW123462   2.222   0.088   9.993  1.3577 -0.5402  1.2360
 4000SOL    HW223463   2.178   0.227  10.054  0.8387  0.1898  0.7782
 4001SOL     OW23464   1.507   1.067  16.682  0.4322 -0.8533  0.1015
 4001SOL    HW123465   1.563   1.135  16.719 -1.4169 -0.0431  1.3660
 4001SOL    HW223466   1.462   1.030  16.758 -2.4873 -0.1506 -1.2827
 4002SOL     OW23467   3.577   3.420   6.042 -0.4240 -0.2611  0.5645
 4002SOL    HW123468   3.640   3.361   6.001 -0.6331 -1.9503  2.6354
 4002SOL    HW223469   3.595   3.506   6.004 -0.8038 -0.4332  0.0066
 4003SOL     OW23470   1.754   0.962  10.148 -0.3765 -0.0269 -0.4660
 4003SOL    HW123471   1.809   1.040  10.138 -0.2628 -0.1184 -0.5463
 4003SOL    HW223472   1.704   0.986  10.226  1.4135  0.6018  0.4793
 4004SOL     OW23473   2.771   0.306   1.727  0.0315  0.1093  0.0629
 4004SOL    HW123474   2.789   0.334   1.637 -1.9130  1.0583 -0.0337
 4004SOL    HW223475   2.742   0.386   1.770 -2.3915 -1.3415  1.1591
 4005SOL     OW23476   3.051   4.268  17.209 -0.4086  0.2881 -0.5024
 4005SOL    HW123477   3.120   4.213  17.174 -0.5361 -0.3417  0.2340
 4005SOL    HW223478   2.973   4.212  17.214  0.9761 -1.6323 -0.7108
 4006SOL     OW23479   3.008   1.676   8.779  0.2213  0.3024 -0.2993
 4006SOL    HW123480   3.039   1.637   8.698  0.1142  0.8168 -0.5922
 4006SOL    HW223481   2.917   1.696   8.756  0.8307  1.3946 -1.8108
 4007SOL     OW23482   1.516   1.258  11.426  0.4536 -0.3896 -0.1548
 4007SOL    HW123483   1.432   1.235  11.385  0.1541  0.8804 -0.2548
 4007SOL    HW223484   1.520   1.354  11.419  0.6347 -0.4773 -1.2700
 4008SOL     OW23485   0.757   3.837  13.814 -0.0531  0.6717  0.0801
 4008SOL    HW123486   0.757   3.741  13.822 -0.1204  0.6906  0.3114
 4008SOL    HW223487   0.693   3.867  13.879 -0.0270  2.7736 -0.8969
 4009SOL     OW23488   1.758   1.430   3.110 -0.3268  0.0539  0.4352
 4009SOL    HW123489   1.745   1.358   3.049  1.6160  0.1736 -0.1094
 4009SOL    HW223490   1.818   1.386   3.171  0.8111 -1.5288 -1.8415
 4010SOL     OW23491   1.599   4.186   9.486  0.3528  0.0145 -0.5221
 4010SOL    HW123492   1.651   4.203   9.407  0.7756  2.3920  0.2595
 4010SOL    HW223493   1.517   4.216   9.447  0.0229 -0.5858 -0.2921
 4011SOL     OW23494   1.795   1.788   5.916  0.3007  0.5670  0.6890
 4011SOL    HW123495   1.767   1.855   5.978 -2.6479  0.4925 -0.5915
 4011SOL    HW223496   1.719   1.730   5.920  0.6231  0.0620 -0.4788
 4012SOL     OW23497   0.110   0.900   6.222 -0.5368  0.0253 -0.3374
 4012SOL    HW123498   0.148   0.958   6.288  1.0233 -2.1316  0.6476
 4012SOL    HW223499   0.047   0.962   6.186  0.5121  0.7143 -1.0148
 4013SOL     OW23500   1.749   3.908   5.701  0.2107  0.4951 -0.3346
 4013SOL    HW123501   1.718   3.822   5.732  2.1548 -0.4585 -1.0701
 4013SOL    HW223502   1.751   3.963   5.780  0.0064  0.7714 -0.5238
 4014SOL     OW23503   1.358   0.604   7.205 -0.3225 -0.2216  0.0875
 4014SOL    HW123504   1.286   0.618   7.144  0.9583 -1.1316 -1.6527
 4014SOL    HW223505   1.419   0.566   7.142 -0.7987 -1.2054  0.2163
 4015SOL     OW23506   0.570   2.102   6.658 -0.3871 -0.9838 -0.0825
 4015SOL    HW123507   0.662   2.123   6.673 -1.1304  1.3983  1.1742
 4015SOL    HW223508   0.560   2.152   6.577  0.5281  0.8154  0.9097
 4016SOL     OW23509   0.872   3.837   7.706  0.4212 -0.0181  0.4689
 4016SOL    HW123510   0.813   3.847   7.781  0.5224 -0.1206  0.5625
 4016SOL    HW223511   0.846   3.908   7.648  2.0310 -0.5081 -0.8659
 4017SOL     OW23512   0.120   4.328  12.648  0.2112 -0.1706 -0.1453
 4017SOL    HW123513   0.051   4.381  12.688  0.8556  0.0938  0.6198
 4017SOL    HW223514   0.090   4.239  12.670  3.2651 -0.8559  1.3314
 4018SOL     OW23515   4.193   1.245   6.098 -0.2280  0.5584 -0.3556
 4018SOL    HW123516   4.264   1.219   6.039 -2.3666 -0.6686 -2.3876
 4018SOL    HW223517   4.131   1.245   6.025  0.1612  1.6079 -0.6831
 4019SOL     OW23518   4.228   4.556   6.814  0.0778 -0.3460  0.2549
 4019SOL    HW123519   4.171   4.589   6.744 -0.5508 -2.1813 -0.1056
 4019SOL    HW223520   4.312   4.544   6.770  0.7096 -1.5118  1.7561
 4020SOL     OW23521   2.035   4.072   9.417  0.0307  0.5964  0.1211
 4020SOL    HW123522   1.967   4.112   9.471  0.4043  0.1665  0.9136
 4020SOL    HW223523   1.990   3.991   9.394  0.2978  0.2657  0.7576
 4021SOL     OW23524   2.935   4.404   7.484  0.2791  0.4980 -0.0089
 4021SOL    HW123525   2.916   4.446   7.400  0.8424  0.0599 -0.3568
 4021SOL    HW223526   2.963   4.317   7.456  1.2955  0.0110  2.4849
 4022SOL     OW23527   0.976   1.786   5.917 -0.2835  0.7474  0.2893
 4022SOL    HW123528   0.986   1.733   5.997 -0.9657 -0.7869 -0.6391
 4022SOL    HW223529   0.986   1.721   5.847  2.5466  0.4817  0.9128
 4023SOL     OW23530   4.556   3.231  10.043  0.1380 -0.0145 -0.6635
 4023SOL    HW123531   4.544   3.282   9.964  2.9844 -1.2922 -1.9463
 4023SOL    HW223532   4.642   3.254  10.079  0.2833  0.7483 -1.5064
 4024SOL     OW23533   2.410   0.425   8.248  0.0548 -0.8193  0.6442
 4024SOL    HW123534   2.337   0.458   8.195  2.5141  3.1872 -0.2174
 4024SOL    HW223535   2.460   0.504   8.265 -2.6153  1.2155 -0.8859
 4025SOL     OW23536   3.167   3.553  10.832 -0.1830  0.5093  0.4653
 4025SOL    HW123537   3.131   3.482  10.779 -1.7017  2.9554 -1.7909
 4025SOL    HW223538   3.244   3.575  10.780  0.1350  1.7882  1.4892
 4026SOL     OW23539   2.758   2.418   0.657 -0.2372  0.8761  0.2578
 4026SOL    HW123540   2.737   2.407   0.749 -3.1151  0.2088 -0.4654
 4026SOL    HW223541   2.811   2.498   0.664 -2.1839  2.0586  1.3698
 4027SOL     OW23542   2.003   0.477   8.266  0.3696 -0.3132  0.0165
 4027SOL    HW123543   1.949   0.451   8.341  1.5259 -0.8735  0.6367
 4027SOL    HW223544   1.953   0.446   8.190  2.3575 -0.8089 -1.0819
 4028SOL     OW23545   1.586   3.481   4.214  0.4711 -0.4793 -0.1891
 4028SOL    HW123546   1.677   3.505   4.231  0.9247 -2.3518  0.0216
 4028SOL    HW223547   1.591   3.385   4.217  2.0108 -0.3396  1.7869
 4029SOL     OW23548   0.244   4.497  13.485 -0.6385 -0.8736  0.0007
 4029SOL    HW123549   0.164   4.482  13.535 -0.6247  2.0839  0.9175
 4029SOL    HW223550   0.214   4.457  13.404 -0.1249 -0.5913 -0.3310
 4030SOL     OW23551   2.577   3.991   0.573 -0.0863  0.4793 -0.0090
 4030SOL    HW123552   2.562   3.906   0.615  0.1318  0.5247  0.1621
 4030SOL    HW223553   2.604   3.964   0.485  1.7113 -0.9198  0.9650
 4031SOL     OW23554   0.064   0.087   3.608 -0.6212 -0.0571  0.4063
 4031SOL    HW123555   0.065   0.116   3.699 -1.4189  0.6258  0.1954
 4031SOL    HW223556   4.718   0.023   3.599 -1.5886  1.2116 -1.0087
 4032SOL     OW23557   4.053   1.565   3.369  0.2601 -0.0895 -0.0952
 4032SOL    HW123558   4.042   1.474   3.342  1.3590 -0.4910  0.8480
 4032SOL    HW223559   4.104   1.556   3.449  0.5196 -1.7214 -0.4435
 4033SOL     OW23560   0.183   2.213   8.942 -0.2821  0.0365  0.6413
 4033SOL    HW123561   0.205   2.219   9.035 -0.8906 -0.5973  0.8218
 4033SOL    HW223562   0.151   2.123   8.935 -1.3784  0.6618 -2.1197
 4034SOL     OW23563   3.311   0.090   8.143  0.4706  0.1448  0.0461
 4034SOL    HW123564   3.313   0.121   8.234  2.9366  0.0579  0.0334
 4034SOL    HW223565   3.290   0.166   8.089  0.2500 -1.2447 -1.7957
 4035SOL     OW23566   0.247   2.147   1.766  0.1794 -0.0931  0.5782
 4035SOL    HW123567   0.319   2.149   1.830  0.3551  2.8460  0.3248
 4035SOL    HW223568   0.222   2.055   1.760  0.9195 -0.2590  0.0118
 4036SOL     OW23569   0.257   3.828   0.275 -0.0186 -0.3584 -0.1596
 4036SOL    HW123570   0.205   3.812   0.354 -0.7391  1.0438 -0.3531
 4036SOL    HW223571   0.225   3.754   0.224 -1.3457 -0.6716  1.1246
 4037SOL     OW23572   2.582   3.327   5.327  0.0173 -0.1125  0.1214
 4037SOL    HW123573   2.645   3.372   5.271 -0.1710  2.0484  1.6417
 4037SOL    HW223574   2.645   3.292   5.390 -0.0188 -1.8192 -0.8064
 4038SOL     OW23575   1.389   0.128  15.409 -0.6764  0.0246 -0.2098
 4038SOL    HW123576   1.483   0.127  15.427 -0.4790  1.7690 -1.2367
 4038SOL    HW223577   1.343   0.146  15.491  0.6116 -0.3930  0.6043
 4039SOL     OW23578   2.947   3.779  13.482  0.6170 -0.4506  0.2208
 4039SOL    HW123579   3.002   3.818  13.415 -0.6431 -1.5771 -1.4739
 4039SOL    HW223580   2.997   3.700  13.503  0.7220 -0.5621 -0.4650
 4040SOL     OW23581   2.693   3.570   9.859 -0.0134 -0.2117  0.4858
 4040SOL    HW123582   2.639   3.579   9.781  0.1483 -1.0012  0.2845
 4040SOL    HW223583   2.672   3.656   9.896  1.9967 -0.4278  2.1613
 4041SOL     OW23584   0.851   4.725  17.680 -0.5506  0.4412 -0.5411
 4041SOL    HW123585   0.875   0.035   0.064  0.1449  0.8662 -0.9152
 4041SOL    HW223586   0.756   0.008  17.685 -0.4355  2.0637 -1.1281
 4042SOL     OW23587   0.018   0.724   2.457  0.5439  0.2712  0.2727
 4042SOL    HW123588   0.033   0.790   2.524  0.4635 -2.4771  3.0332
 4042SOL    HW223589   0.111   0.708   2.441  0.7519 -0.9494  2.6386
 4043SOL     OW23590   1.764   0.716   4.408 -0.6477  0.2626  0.3646
 4043SOL    HW123591   1.724   0.704   4.323  0.9826  3.3312 -0.8237
 4043SOL    HW223592   1.743   0.808   4.417 -0.7257  0.0431  2.5448
 4044SOL     OW23593   1.122   0.774   5.773  0.1572  0.0996 -0.6637
 4044SOL    HW123594   1.064   0.702   5.748  0.4785 -0.5575  0.4854
 4044SOL    HW223595   1.116   0.828   5.695 -0.4181 -3.0737 -2.8051
 4045SOL     OW23596   1.832   2.426   4.895 -0.1101  0.0190 -0.0034
 4045SOL    HW123597   1.876   2.410   4.812  0.6378  0.3799  0.3266
 4045SOL    HW223598   1.747   2.463   4.872 -0.7213 -1.7990 -0.6796
 4046SOL     OW23599   1.012   4.178   8.754 -0.5471  0.5063  0.0336
 4046SOL    HW123600   0.944   4.138   8.809 -0.4348  1.9562  1.2262
 4046SOL    HW223601   0.991   4.159   8.662 -0.6897 -1.7869  0.5379
 4047SOL     OW23602   0.326   0.221  17.559 -0.2795 -0.0441 -0.8038
 4047SOL    HW123603   0.267   0.211  17.634  0.8019 -2.0127 -0.2098
 4047SOL    HW223604   0.319   0.314  17.539  1.1543 -0.3719 -2.8411
 4048SOL     OW23605   2.163   2.657   4.678  0.4001  0.1536  0.6292
 4048SOL    HW123606   2.192   2.584   4.732  0.4345  0.5862  1.1845
 4048SOL    HW223607   2.199   2.738   4.714  0.5105 -0.7547  2.5338
 4049SOL     OW23608   2.087   0.539  10.352 -0.2087  0.6453 -0.2685
 4049SOL    HW123609   2.005   0.511  10.393  1.0136 -1.1909  0.9598
 4049SOL    HW223610   2.078   0.633  10.339  1.7760  1.2440  2.5564
 4050SOL     OW23611   1.158   3.889  10.256  0.4154  0.1721  0.3632
 4050SOL    HW123612   1.229   3.920  10.199 -0.0236  0.1719 -0.1811
 4050SOL    HW223613   1.112   3.969  10.281 -0.9865 -0.2268 -1.0080
 4051SOL     OW23614   0.632   0.513   1.066 -0.1798 -0.7755 -0.4539
 4051SOL    HW123615   0.662   0.515   1.157 -0.5148 -1.1889 -0.3316
 4051SOL    HW223616   0.641   0.602   1.033  0.1421 -0.2260  1.1497
 4052SOL     OW23617   3.447   2.573   1.336  0.2421 -0.3777 -0.1195
 4052SOL    HW123618   3.421   2.482   1.351 -0.8635 -0.3121 -1.6635
 4052SOL    HW223619   3.539   2.570   1.362  0.3973 -1.3982 -0.7798
 4053SOL     OW23620   2.943   3.873  15.075  0.1513  0.2346  0.1312
 4053SOL    HW123621   2.953   3.920  14.992 -0.6236 -0.0886 -0.1507
 4053SOL    HW223622   2.991   3.792  15.059  0.8428  1.0917 -2.1638
 4054SOL     OW23623   3.524   2.330  12.494  0.3259  0.0882 -0.2387
 4054SOL    HW123624   3.463   2.387  12.541 -1.8539  0.7838 -3.8979
 4054SOL    HW223625   3.472   2.250  12.496  1.7643 -0.7794  2.6561
 4055SOL     OW23626   2.935   2.220  16.945  0.2621  0.2577 -0.3363
 4055SOL    HW123627   3.024   2.237  16.976  1.0892 -0.6975 -2.2036
 4055SOL    HW223628   2.930   2.125  16.935 -1.1502  0.2013  1.0480
 4056SOL     OW23629   3.996   4.579   4.928 -0.1182  0.5187  0.4196
 4056SOL    HW123630   4.019   4.592   5.020  0.7723  0.5541  0.1870
 4056SOL    HW223631   4.022   4.488   4.912  1.1183  0.8119  0.7491
 4057SOL     OW23632   3.490   4.547   6.900  0.4833  0.3080  0.0222
 4057SOL    HW123633   3.521   4.590   6.820 -0.2723  1.0739  0.1432
 4057SOL    HW223634   3.461   4.467   6.856 -0.3891 -0.3512  1.7921
 4058SOL     OW23635   0.640   2.928   5.572  0.0744 -0.0882  0.9265
 4058SOL    HW123636   0.664   2.970   5.655  1.5038  1.3482 -0.2251
 4058SOL    HW223637   0.558   2.975   5.554 -0.1361 -0.4968  0.8109
 4059SOL     OW23638   4.432   4.333   0.284 -0.1451  0.2402  0.6392
 4059SOL    HW123639   4.350   4.345   0.236 -0.8098 -0.3728  1.6269
 4059SOL    HW223640   4.456   4.254   0.236  0.4043  0.2296  0.9206
 4060SOL     OW23641   2.370   1.738   9.153 -0.5300  0.0397  0.4140
 4060SOL    HW123642   2.413   1.670   9.206 -0.7170 -0.4032  0.0057
 4060SOL    HW223643   2.281   1.717   9.182 -0.8575  0.2842 -0.4234
 4061SOL     OW23644   1.686   2.120   1.005  0.7925 -0.1250 -0.1537
 4061SOL    HW123645   1.738   2.082   1.077  1.3761  0.8548 -0.0644
 4061SOL    HW223646   1.686   2.209   1.041 -0.1082 -0.3789  0.4891
 4062SOL     OW23647   0.703   1.075   2.836  1.0070 -0.7992  0.8252
 4062SOL    HW123648   0.744   0.989   2.827 -1.0830 -1.6880 -0.0617
 4062SOL    HW223649   0.759   1.136   2.788 -1.6821  1.8909  1.1116
 4063SOL     OW23650   0.561   1.555   7.030  0.3958  0.3567  0.4315
 4063SOL    HW123651   0.552   1.566   6.935 -1.3343 -0.6335  0.4699
 4063SOL    HW223652   0.502   1.482   7.049  0.3749  0.7804  1.9543
 4064SOL     OW23653   2.130   4.293   2.581 -0.1948 -0.6613  0.0571
 4064SOL    HW123654   2.180   4.211   2.579  2.2949  0.8344  0.6587
 4064SOL    HW223655   2.202   4.356   2.588 -1.9073  1.2466  0.7513
 4065SOL     OW23656   0.431   0.897   9.762  0.1854 -0.5221 -0.0894
 4065SOL    HW123657   0.512   0.944   9.782 -0.5486  0.9530 -0.5941
 4065SOL    HW223658   0.462   0.861   9.679 -0.0111 -0.1980 -0.3052
 4066SOL     OW23659   2.642   0.871   7.372  0.5883  0.7079  0.6575
 4066SOL    HW123660   2.678   0.792   7.413  1.5488  0.3516 -0.8770
 4066SOL    HW223661   2.654   0.926   7.449  3.1086  2.2527 -0.8528
 4067SOL     OW23662   4.641   3.130   2.945 -0.0729  0.0768 -0.3876
 4067SOL    HW123663   4.579   3.199   2.920  0.7262  0.7694 -0.4739
 4067SOL    HW223664   4.675   3.157   3.031  1.7375  0.3365 -1.1920
 4068SOL     OW23665   0.165   1.912   3.912 -0.0130  0.4532  0.1778
 4068SOL    HW123666   0.147   1.989   3.966  0.7552  1.1733 -0.5936
 4068SOL    HW223667   0.204   1.959   3.838 -1.6223  1.1268 -0.2317
 4069SOL     OW23668   4.085   0.321   0.362  0.1782  0.0039  0.2697
 4069SOL    HW123669   4.017   0.388   0.353  0.7570  0.6619  0.9167
 4069SOL    HW223670   4.060   0.269   0.285 -0.8097  0.5115  0.2419
 4070SOL     OW23671   3.067   2.459   1.507  0.0750 -0.1695 -0.0344
 4070SOL    HW123672   3.016   2.534   1.474 -0.7736 -1.1481 -0.9280
 4070SOL    HW223673   3.140   2.493   1.558  0.1485 -0.2626 -0.0797
 4071SOL     OW23674   0.226   2.520  14.755  0.0651  0.5738  0.5761
 4071SOL    HW123675   0.223   2.475  14.670 -1.2519  1.2457  0.2614
 4071SOL    HW223676   0.289   2.589  14.735 -2.8843  2.6772 -1.5282
 4072SOL     OW23677   3.041   1.948  17.590  0.4692 -0.0906  0.0144
 4072SOL    HW123678   3.110   1.894  17.553  1.4617  0.5140  0.9862
 4072SOL    HW223679   2.962   1.895  17.577  0.2505  0.7839 -2.3396
 4073SOL     OW23680   3.368   0.913   6.280 -0.1569  0.3106  0.1927
 4073SOL    HW123681   3.402   0.928   6.192  0.2955 -1.9656 -0.0159
 4073SOL    HW223682   3.406   0.982   6.336  0.8808  1.1566 -1.5639
 4074SOL     OW23683   3.657   4.315   8.618 -0.3973 -0.0650  0.2349
 4074SOL    HW123684   3.648   4.409   8.601  1.1869  0.0773  0.1554
 4074SOL    HW223685   3.641   4.279   8.531 -1.2298 -1.6383  1.0484
 4075SOL     OW23686   0.057   0.880   7.032 -0.7390 -0.0993  0.3071
 4075SOL    HW123687   4.704   0.838   7.069 -1.1807  3.2055  3.1897
 4075SOL    HW223688   0.092   0.937   7.101  0.4876  1.2241 -1.4027
 4076SOL     OW23689   1.286   1.527  11.167 -0.9661 -0.2973 -0.0226
 4076SOL    HW123690   1.276   1.587  11.093 -4.1626  1.7542  2.0871
 4076SOL    HW223691   1.298   1.444  11.121 -0.4440  0.3793 -1.1119
 4077SOL     OW23692   4.616   2.075   1.428  0.4580 -0.2963  0.3201
 4077SOL    HW123693   4.666   2.147   1.466  0.6038  0.1775 -0.7492
 4077SOL    HW223694   4.533   2.112   1.397  1.2451  1.6442  0.4819
 4078SOL     OW23695   3.630   0.120  17.041 -0.0069 -0.1951 -0.3483
 4078SOL    HW123696   3.599   0.161  17.122  0.4559 -0.9672  0.2155
 4078SOL    HW223697   3.562   0.057  17.017 -0.7221  0.3492  0.2671
 4079SOL     OW23698   2.168   2.205   5.332  0.2433  0.3136 -0.5819
 4079SOL    HW123699   2.253   2.212   5.289  0.6102  1.1743  0.2967
 4079SOL    HW223700   2.187   2.191   5.425  3.3059 -0.1608 -1.2769
 4080SOL     OW23701   2.704   1.550  17.525 -0.6385 -0.4193  0.3026
 4080SOL    HW123702   2.785   1.500  17.515  0.2920  1.4549 -1.4406
 4080SOL    HW223703   2.645   1.478  17.545  0.1634 -2.4102 -4.5954
 4081SOL     OW23704   2.172   4.460   8.124 -0.3552  0.3039 -0.2621
 4081SOL    HW123705   2.224   4.444   8.045 -0.0151  0.4777 -0.0767
 4081SOL    HW223706   2.175   4.367   8.147 -3.2661  0.8316  2.1827
 4082SOL     OW23707   4.297   1.812   1.377  0.3572 -0.0417 -0.4589
 4082SOL    HW123708   4.255   1.798   1.293 -1.1578  3.1999 -0.2333
 4082SOL    HW223709   4.230   1.761   1.422 -0.2680  0.3957 -0.8976
 4083SOL     OW23710   1.263   0.608   9.816  0.1519 -0.4333  0.2966
 4083SOL    HW123711   1.326   0.624   9.746  0.5503  0.3211  0.8118
 4083SOL    HW223712   1.196   0.674   9.799  0.5024 -0.4639 -1.1410
 4084SOL     OW23713   3.929   1.739   7.586  0.3349 -0.9116 -0.3903
 4084SOL    HW123714   3.916   1.766   7.677 -2.1072 -0.1601 -0.9768
 4084SOL    HW223715   3.918   1.646   7.602  0.5879 -0.8889 -0.0812
 4085SOL     OW23716   2.508   2.989   6.990 -0.4912  0.6256 -0.5558
 4085SOL    HW123717   2.599   3.014   6.973 -0.7100  2.5319  1.0981
 4085SOL    HW223718   2.474   3.078   6.998  0.4617  0.8650  0.7420
 4086SOL     OW23719   1.292   0.322   7.453 -0.2786 -0.2567  0.2720
 4086SOL    HW123720   1.197   0.309   7.448 -0.0306 -1.8634 -0.1764
 4086SOL    HW223721   1.315   0.337   7.361 -1.9755  2.0111  0.2247
 4087SOL     OW23722   3.442   3.303   2.930  0.0769 -0.3882  0.3137
 4087SOL    HW123723   3.502   3.333   2.998 -0.3666  1.0406  0.0718
 4087SOL    HW223724   3.438   3.213   2.963 -0.1121 -0.1137  1.0256
 4088SOL     OW23725   1.004   3.424   0.860  0.1689  0.1944  0.0371
 4088SOL    HW123726   0.931   3.444   0.801  0.3327  0.9056  0.0678
 4088SOL    HW223727   0.998   3.489   0.931 -0.4785  2.3946 -2.0201
 4089SOL     OW23728   2.231   3.253   8.553 -0.2716  0.3323  0.1152
 4089SOL    HW123729   2.287   3.311   8.604  2.4744 -1.1739 -1.1268
 4089SOL    HW223730   2.141   3.271   8.578 -1.4634 -2.7731 -1.9122
 4090SOL     OW23731   2.358   4.634  10.494  0.0811  0.1108  0.0567
 4090SOL    HW123732   2.387   4.666  10.579 -0.9635 -0.1177  0.4969
 4090SOL    HW223733   2.277   4.685  10.489  0.6415  1.1661  1.9274
 4091SOL     OW23734   3.735   4.589   4.800 -0.6538 -0.5868 -0.0614
 4091SOL    HW123735   3.818   4.574   4.845  0.2648  1.7867 -0.9693
 4091SOL    HW223736   3.767   4.565   4.712  0.6768  2.7836 -0.4660
 4092SOL     OW23737   0.291   2.844   2.390  0.4387  0.0796 -0.4477
 4092SOL    HW123738   0.240   2.921   2.365  1.3937  0.9628  0.3009
 4092SOL    HW223739   0.378   2.876   2.367  0.0640  1.4555  0.0938
 4093SOL     OW23740   2.627   3.377   8.765  0.0673 -0.2236  0.0283
 4093SOL    HW123741   2.671   3.372   8.850 -0.6806 -1.3554  0.3509
 4093SOL    HW223742   2.554   3.317   8.782  0.9499 -1.4701 -0.5744
 4094SOL     OW23743   1.648   2.261   3.426  0.3646 -0.1919  0.3505
 4094SOL    HW123744   1.563   2.217   3.432  0.6344 -1.0186 -1.9530
 4094SOL    HW223745   1.716   2.195   3.414  0.9169  0.2323  1.1691
 4095SOL     OW23746   1.763   2.824   2.448  0.0875 -0.3653 -0.2070
 4095SOL    HW123747   1.819   2.752   2.476 -0.7202 -0.7599  0.4034
 4095SOL    HW223748   1.685   2.783   2.411 -0.5608  1.5259 -0.9189
 4096SOL     OW23749   3.376   4.344   1.136 -0.2726  0.0648 -0.1679
 4096SOL    HW123750   3.461   4.299   1.136 -0.7961 -0.9204 -0.6562
 4096SOL    HW223751   3.320   4.291   1.079 -2.4125  0.6938  1.3566
 4097SOL     OW23752   3.898   1.396   1.856  0.0443 -0.1704  0.1795
 4097SOL    HW123753   3.951   1.424   1.781  2.9231  2.0712  3.0453
 4097SOL    HW223754   3.847   1.475   1.878 -0.1610 -0.2378 -0.0558
 4098SOL     OW23755   1.961   2.425   2.222 -0.3932 -0.0927 -0.0312
 4098SOL    HW123756   2.018   2.436   2.145  0.1620 -0.3863  0.3344
 4098SOL    HW223757   2.008   2.465   2.295  0.3378 -1.0992  0.0625
 4099SOL     OW23758   2.809   1.092   0.052  0.3560 -0.1535  0.0806
 4099SOL    HW123759   2.757   1.126   0.125 -0.5224 -0.3777 -0.4413
 4099SOL    HW223760   2.890   1.064   0.095 -0.6753 -1.3144  1.2533
 4100SOL     OW23761   4.296   1.006   1.891  0.1007  0.2321 -0.3143
 4100SOL    HW123762   4.325   0.917   1.871 -1.2748 -0.4365  0.7313
 4100SOL    HW223763   4.374   1.047   1.854 -0.8363  0.8252 -1.6117
 4101SOL     OW23764   1.085   0.635   2.174  0.0770 -0.4242  0.1056
 4101SOL    HW123765   1.138   0.563   2.140  1.6742  0.4028  0.8885
 4101SOL    HW223766   0.997   0.614   2.141 -0.1174 -0.9072  0.9496
 4102SOL     OW23767   0.279   0.601   9.160 -0.4957 -0.7099 -0.1982
 4102SOL    HW123768   0.243   0.674   9.108 -1.8547 -1.0498  0.2570
 4102SOL    HW223769   0.353   0.651   9.195 -1.2251  0.6409 -0.5613
 4103SOL     OW23770   4.037   4.615   1.962  0.5658 -0.0427 -0.4565
 4103SOL    HW123771   4.107   4.638   2.023 -2.1795  1.3132  2.1762
 4103SOL    HW223772   4.079   4.541   1.917  2.1175  1.7901 -1.9942
 4104SOL     OW23773   3.447   4.204  16.415  0.2132 -0.3199 -0.0804
 4104SOL    HW123774   3.373   4.264  16.406  2.3163  2.0861 -1.5257
 4104SOL    HW223775   3.488   4.239  16.336 -1.2723  2.7029  0.4854
 4105SOL     OW23776   3.368   2.583   0.213 -0.2634  0.1707  0.0121
 4105SOL    HW123777   3.275   2.560   0.213 -0.5521  1.3209 -1.4758
 4105SOL    HW223778   3.378   2.627   0.128  2.3909  0.7193  0.6283
 4106SOL     OW23779   1.852   1.045   7.825 -0.2914  0.2454 -0.2717
 4106SOL    HW123780   1.871   1.135   7.796 -0.6778 -0.2305 -1.9800
 4106SOL    HW223781   1.907   0.994   7.766 -0.2840  0.7144 -0.6778
 4107SOL     OW23782   4.447   4.049   6.797  0.6989 -0.0871 -0.2732
 4107SOL    HW123783   4.423   3.963   6.833 -1.6042  0.2979 -0.9051
 4107SOL    HW223784   4.364   4.094   6.812  1.9763  2.0160  0.5127
 4108SOL     OW23785   1.858   4.706   3.102 -0.2400  0.4268  0.1109
 4108SOL    HW123786   1.818   0.019   3.023 -0.0161  0.3905 -0.0191
 4108SOL    HW223787   1.885   4.622   3.066  0.6662  0.8297 -0.1419
 4109SOL     OW23788   4.253   1.428   6.933  0.2029 -0.5332  0.0923
 4109SOL    HW123789   4.191   1.418   6.861  0.5910 -0.2023 -0.2881
 4109SOL    HW223790   4.224   1.509   6.975  1.2437  1.2038 -2.5185
 4110SOL     OW23791   0.645   2.938  13.208  0.1473  0.4690  0.5968
 4110SOL    HW123792   0.702   3.008  13.242  0.5940  0.3406  0.1112
 4110SOL    HW223793   0.634   2.890  13.290 -1.3226 -0.0062  0.1215
 4111SOL     OW23794   1.684   1.886   6.643  0.2072  0.2531 -0.1534
 4111SOL    HW123795   1.778   1.895   6.629  0.0357  0.6839 -1.0326
 4111SOL    HW223796   1.673   1.792   6.660 -2.1865  0.1835 -2.0864
 4112SOL     OW23797   0.592   0.125   8.706  0.0628 -0.2064  0.9794
 4112SOL    HW123798   0.499   0.102   8.705  0.4701 -1.9292  2.3254
 4112SOL    HW223799   0.590   0.214   8.741 -0.0909  0.6442 -1.1746
 4113SOL     OW23800   4.278   4.724  12.390  0.0695 -0.1285  0.1670
 4113SOL    HW123801   4.192   0.018  12.425 -1.8520 -2.1085 -3.4420
 4113SOL    HW223802   4.305   0.090  12.398  1.5913 -0.4529 -1.2260
 4114SOL     OW23803   3.274   2.414   6.653  0.6194 -0.1492  0.1916
 4114SOL    HW123804   3.276   2.321   6.629 -0.7294 -0.4370  1.1336
 4114SOL    HW223805   3.190   2.407   6.699 -0.7833 -3.0427 -2.7770
 4115SOL     OW23806   1.993   0.709   9.201  0.4637 -0.0930  0.0211
 4115SOL    HW123807   2.027   0.771   9.265 -1.4189  0.5002  0.4680
 4115SOL    HW223808   2.063   0.645   9.205  1.2824  0.8201  0.2506
 4116SOL     OW23809   3.767   3.584   7.797  0.6544  0.6265  0.0448
 4116SOL    HW123810   3.847   3.535   7.774  0.1513 -1.3725  2.5421
 4116SOL    HW223811   3.689   3.534   7.773 -1.3096  4.2507 -1.1085
 4117SOL     OW23812   2.036   4.089   3.024  0.7568  0.2305 -0.1919
 4117SOL    HW123813   1.964   4.151   3.038 -1.6989 -1.9780 -3.2317
 4117SOL    HW223814   1.999   4.019   2.970  0.4429 -0.9118  1.5047
 4118SOL     OW23815   1.472   4.057   0.003  0.1822  0.4193 -0.1285
 4118SOL    HW123816   1.468   3.972  17.660 -0.0096 -0.1337  0.9292
 4118SOL    HW223817   1.550   4.096  17.668  0.7016  0.5283  1.0827
 4119SOL     OW23818   0.215   3.551   5.906 -0.1435 -0.9059 -0.3496
 4119SOL    HW123819   0.252   3.543   5.993  1.1635  0.2091 -0.7934
 4119SOL    HW223820   0.131   3.592   5.924 -0.6292 -1.9648 -0.1817
 4120SOL     OW23821   3.540   0.208  11.537  0.1846  0.3677 -0.0196
 4120SOL    HW123822   3.616   0.151  11.526 -1.1044 -1.2543 -0.5663
 4120SOL    HW223823   3.495   0.151  11.599  0.1443 -0.0834 -0.4542
 4121SOL     OW23824   2.288   0.793  14.578  0.0461  0.1394 -0.0148
 4121SOL    HW123825   2.313   0.813  14.488  0.1673 -2.4673 -0.5537
 4121SOL    HW223826   2.373   0.763  14.608  1.7566  1.8642 -3.0945
 4122SOL     OW23827   3.383   2.344   2.063 -0.2710 -0.6720 -0.0174
 4122SOL    HW123828   3.362   2.431   2.030  0.0466  0.2248  2.1673
 4122SOL    HW223829   3.388   2.353   2.158  0.8201  2.5366 -0.3805
 4123SOL     OW23830   1.445   0.468   1.535  0.2189 -0.2865  0.3003
 4123SOL    HW123831   1.489   0.395   1.492  1.2399 -0.3043  1.3895
 4123SOL    HW223832   1.526   0.507   1.568  0.7463 -0.3322 -0.9283
 4124SOL     OW23833   4.261   2.152   0.709  0.1044  0.2220  0.3554
 4124SOL    HW123834   4.274   2.193   0.623  2.3493  0.1570  0.6445
 4124SOL    HW223835   4.288   2.220   0.771 -1.3026 -0.0743  1.2735
 4125SOL     OW23836   3.333   3.104   9.397 -0.5226 -0.4936 -0.4394
 4125SOL    HW123837   3.328   3.109   9.492  0.0430 -2.4888 -0.3066
 4125SOL    HW223838   3.377   3.019   9.392  0.7746  0.2338 -1.3850
 4126SOL     OW23839   2.461   2.615   9.920 -0.1192 -0.0927 -0.1786
 4126SOL    HW123840   2.449   2.626  10.014 -1.0888 -0.8966 -0.2012
 4126SOL    HW223841   2.483   2.703   9.892 -1.6243  0.0876 -0.7892
 4127SOL     OW23842   0.556   2.566   4.130 -0.2309 -0.2431  0.0798
 4127SOL    HW123843   0.592   2.617   4.058 -0.6981  0.7689  0.5600
 4127SOL    HW223844   0.615   2.490   4.137 -0.1686  0.0451  2.8798
 4128SOL     OW23845   3.890   4.145   3.936  0.0240 -0.4965  0.2637
 4128SOL    HW123846   3.836   4.119   3.861  0.4999  1.2937 -0.6942
 4128SOL    HW223847   3.973   4.148   3.888 -0.1069 -0.8778  0.0124
 4129SOL     OW23848   3.310   3.100   6.601 -0.1642  0.2554  0.5269
 4129SOL    HW123849   3.222   3.116   6.635 -0.9371  0.4955 -1.6263
 4129SOL    HW223850   3.326   3.021   6.652 -3.7520 -1.9498 -1.7679
 4130SOL     OW23851   0.318   2.116   0.478  0.1725  0.3645 -0.3021
 4130SOL    HW123852   0.377   2.190   0.491 -0.0258  1.0419 -3.1819
 4130SOL    HW223853   0.311   2.078   0.565  1.8889 -0.4982 -0.5289
 4131SOL     OW23854   1.194   2.670  10.531  0.1614 -0.4022 -0.4354
 4131SOL    HW123855   1.286   2.685  10.508  0.4250 -1.6938 -0.2426
 4131SOL    HW223856   1.193   2.617  10.610  1.7381  0.0942 -0.0915
 4132SOL     OW23857   0.568   3.055   7.589 -0.2149 -0.1843  0.1004
 4132SOL    HW123858   0.516   3.129   7.556 -0.1414 -1.3854 -2.7002
 4132SOL    HW223859   0.525   2.989   7.535 -1.1333  0.6638 -0.2049
 4133SOL     OW23860   2.093   4.350   5.254  0.0717  0.2024 -0.2693
 4133SOL    HW123861   2.085   4.255   5.256 -2.0927  0.4139  1.0372
 4133SOL    HW223862   2.140   4.359   5.171  0.8849 -0.4368  0.1139
 4134SOL     OW23863   3.265   2.564  14.433  0.4925  0.2389  0.2907
 4134SOL    HW123864   3.350   2.573  14.476  2.0170 -0.3657 -2.6270
 4134SOL    HW223865   3.282   2.557  14.339  2.2160 -3.0457  0.8584
 4135SOL     OW23866   0.494   1.759  15.481  0.6372 -0.1734 -0.9650
 4135SOL    HW123867   0.565   1.785  15.422  1.3117  0.5225  0.1432
 4135SOL    HW223868   0.419   1.805  15.443 -0.8528 -1.4627  0.4431
 4136SOL     OW23869   3.188   0.999   5.260 -0.0659 -1.1528 -0.3597
 4136SOL    HW123870   3.249   0.926   5.257  1.6349  0.3383 -1.9750
 4136SOL    HW223871   3.168   1.002   5.354 -0.7966  1.4055 -0.5942
 4137SOL     OW23872   1.872   2.182  14.315  0.1404  0.2267  0.5296
 4137SOL    HW123873   1.838   2.243  14.381  0.0593  0.1005  0.6053
 4137SOL    HW223874   1.837   2.100  14.351  1.2404 -0.8447 -0.8889
 4138SOL     OW23875   0.265   1.545   6.628  0.4763  0.0166 -0.7756
 4138SOL    HW123876   0.176   1.518   6.609  0.0485  1.5158 -0.9079
 4138SOL    HW223877   0.240   1.627   6.672  1.7859  0.4270 -0.7710
 4139SOL     OW23878   2.611   1.264   5.543  0.1844 -0.8323  0.1666
 4139SOL    HW123879   2.667   1.294   5.471 -2.1233  0.8780 -0.9272
 4139SOL    HW223880   2.607   1.350   5.585  0.2898 -0.4518 -0.5887
 4140SOL     OW23881   3.316   2.049   2.189  0.1219 -0.0494 -0.1230
 4140SOL    HW123882   3.274   2.012   2.267  0.0182  0.3278  0.0030
 4140SOL    HW223883   3.347   2.135   2.219  0.1843  0.9909 -3.1190
 4141SOL     OW23884   0.902   4.074  13.804 -0.4384  0.5969 -0.5929
 4141SOL    HW123885   0.847   3.998  13.786  0.6942 -0.3669  0.0659
 4141SOL    HW223886   0.986   4.048  13.767  0.2204  0.0540  1.2966
 4142SOL     OW23887   1.748   0.512   0.420 -0.3426 -0.0250 -0.0760
 4142SOL    HW123888   1.677   0.462   0.379 -0.0565  0.1832 -0.8228
 4142SOL    HW223889   1.747   0.476   0.509  1.1013 -0.7352 -0.3532
 4143SOL     OW23890   2.015   2.487  13.898 -0.2516  0.4740 -0.0857
 4143SOL    HW123891   1.995   2.492  13.804 -0.5105  0.5343 -0.0261
 4143SOL    HW223892   2.027   2.579  13.922 -1.2503  0.9938 -1.5491
 4144SOL     OW23893   1.366   4.126   0.608 -0.0368 -0.0229  0.2819
 4144SOL    HW123894   1.351   4.044   0.560 -1.6935  1.2935 -1.4874
 4144SOL    HW223895   1.301   4.125   0.679 -0.4061 -0.5118 -0.0553
 4145SOL     OW23896   2.790   2.252   8.279  0.1444 -0.2859 -0.4349
 4145SOL    HW123897   2.766   2.279   8.368 -0.9363 -1.3034 -0.4082
 4145SOL    HW223898   2.772   2.332   8.229 -1.7711 -1.7216 -2.0362
 4146SOL     OW23899   2.534   2.998  10.570  0.3181 -0.1031  0.2418
 4146SOL    HW123900   2.457   3.054  10.567  0.0496 -0.4033  1.9047
 4146SOL    HW223901   2.584   3.054  10.628 -0.2093  0.3214  0.2806
 4147SOL     OW23902   2.279   1.279   2.949 -0.1467 -0.8417  0.1595
 4147SOL    HW123903   2.372   1.300   2.940 -0.3490  0.3966  0.9789
 4147SOL    HW223904   2.236   1.336   2.884  0.9578 -1.1967 -0.8729
 4148SOL     OW23905   0.646   1.263   3.621 -0.1914 -0.0075  0.0075
 4148SOL    HW123906   0.725   1.210   3.617 -0.0163  0.2961 -0.5978
 4148SOL    HW223907   0.585   1.222   3.561  0.8957  0.3697 -1.3536
 4149SOL     OW23908   2.532   3.281   9.199 -0.8151 -0.4706  0.8062
 4149SOL    HW123909   2.527   3.376   9.193 -0.6081 -0.3342  2.8619
 4149SOL    HW223910   2.503   3.280   9.290 -0.1965  0.8510  1.0244
 4150SOL     OW23911   3.553   2.013   0.249  0.0163  0.4684 -0.2112
 4150SOL    HW123912   3.554   2.000   0.154 -2.6348  1.0158 -0.3256
 4150SOL    HW223913   3.484   1.954   0.281  1.3703 -1.9750 -1.7835
 4151SOL     OW23914   1.096   4.192   1.091  0.0845  0.5050  0.3389
 4151SOL    HW123915   1.030   4.156   1.033 -1.5295  0.9666  1.8965
 4151SOL    HW223916   1.048   4.256   1.143 -0.3553 -0.8262  1.5693
 4152SOL     OW23917   0.645   0.386   8.791  0.0381  0.8614  0.3523
 4152SOL    HW123918   0.669   0.472   8.826  0.3138  0.6250  0.7389
 4152SOL    HW223919   0.627   0.400   8.698 -0.2090 -1.2902  0.0711
 4153SOL     OW23920   1.715   4.604   3.308  0.2832  0.3052 -0.0045
 4153SOL    HW123921   1.682   4.522   3.272  0.2633 -1.4300  3.9228
 4153SOL    HW223922   1.774   4.629   3.237  3.1444  1.8736  2.9154
 4154SOL     OW23923   1.076   4.648   7.629 -0.2945 -0.5041  0.0231
 4154SOL    HW123924   1.143   4.690   7.683  1.4251  0.9581 -3.2536
 4154SOL    HW223925   0.997   4.695   7.658 -0.6159 -1.4594  0.7010
 4155SOL     OW23926   3.056   3.224   5.482 -0.0550 -0.2089 -0.4801
 4155SOL    HW123927   3.079   3.301   5.430 -0.5090  0.9814  1.0743
 4155SOL    HW223928   3.115   3.223   5.557  0.6952  0.1830 -1.0643
 4156SOL     OW23929   1.057   2.936   4.288  0.5233 -0.5192 -0.0484
 4156SOL    HW123930   1.133   2.993   4.290 -0.4344  0.7981 -1.3937
 4156SOL    HW223931   1.100   2.876   4.226 -0.9003 -0.7807 -0.7944
 4157SOL     OW23932   3.932   2.629   2.501 -0.5517 -0.4667 -0.2151
 4157SOL    HW123933   3.937   2.565   2.573 -0.7170  0.3953  0.5660
 4157SOL    HW223934   3.947   2.713   2.543 -1.5092  0.7172 -2.2544
 4158SOL     OW23935   2.209   3.056   9.199 -0.3443 -0.7995 -0.0973
 4158SOL    HW123936   2.173   3.014   9.277 -0.5405 -2.0817 -0.8764
 4158SOL    HW223937   2.145   3.027   9.133  0.5670 -0.2161 -1.2365
 4159SOL     OW23938   3.423   3.769  17.332  0.1442 -0.0112 -0.5455
 4159SOL    HW123939   3.428   3.855  17.290 -1.1666  0.3891  0.1112
 4159SOL    HW223940   3.474   3.717  17.270 -1.6107 -0.7972 -1.3389
 4160SOL     OW23941   4.488   0.636   7.383 -0.0505 -0.0729  0.0599
 4160SOL    HW123942   4.460   0.724   7.409 -0.5821  0.5041 -2.5107
 4160SOL    HW223943   4.575   0.636   7.424  0.0111  2.5691 -0.0771
 4161SOL     OW23944   2.788   0.723   9.914 -0.3476  0.0777 -0.3452
 4161SOL    HW123945   2.702   0.762   9.900 -0.3969  0.2885  0.5567
 4161SOL    HW223946   2.847   0.783   9.870 -0.8534  1.3656  0.7489
 4162SOL     OW23947   0.686   1.448   6.043 -0.4234 -0.3247 -0.4061
 4162SOL    HW123948   0.714   1.464   6.134  1.7632  1.0683 -1.3207
 4162SOL    HW223949   0.608   1.395   6.059 -0.8541 -0.0083 -1.4916
 4163SOL     OW23950   0.579   1.381   2.822  0.0653 -0.4661  0.3178
 4163SOL    HW123951   0.558   1.297   2.862 -1.6064 -0.4695 -0.5447
 4163SOL    HW223952   0.667   1.404   2.851  1.1055 -2.5094 -1.1847
 4164SOL     OW23953   0.337   1.215  11.883 -0.3335  0.1898 -0.0114
 4164SOL    HW123954   0.373   1.225  11.795 -1.0567  1.5935 -0.1456
 4164SOL    HW223955   0.251   1.178  11.864 -1.0504  1.6909  0.3172
 4165SOL     OW23956   0.678   2.355   8.778 -0.3082 -0.4026  0.1237
 4165SOL    HW123957   0.596   2.315   8.808 -1.1561  0.4985 -0.9839
 4165SOL    HW223958   0.695   2.424   8.842 -1.0175 -0.5112  0.4245
 4166SOL     OW23959   3.408   3.369   0.888  0.1225 -0.3096  0.2289
 4166SOL    HW123960   3.419   3.315   0.810  0.9258  1.5643 -0.9480
 4166SOL    HW223961   3.494   3.356   0.929 -0.3536 -0.9519  1.0186
 4167SOL     OW23962   0.392   2.837  17.541  0.4350  0.3789  0.6723
 4167SOL    HW123963   0.437   2.760  17.506  0.6862  0.9854 -0.3568
 4167SOL    HW223964   0.300   2.820  17.520 -0.0079 -0.5277  3.4361
 4168SOL     OW23965   1.401   1.799   4.833 -0.4868 -0.0791  0.2737
 4168SOL    HW123966   1.357   1.836   4.909 -1.7157  0.3541 -0.6571
 4168SOL    HW223967   1.326   1.800   4.774 -0.5607 -1.8311  0.3444
 4169SOL     OW23968   2.642   0.421   6.974 -0.6075  0.4861 -0.1364
 4169SOL    HW123969   2.695   0.471   7.037 -1.5432  0.5142  0.6349
 4169SOL    HW223970   2.559   0.431   7.021  0.9306 -1.8453  3.0948
 4170SOL     OW23971   3.747   0.959   1.503 -0.5826 -0.0356  0.6151
 4170SOL    HW123972   3.674   0.913   1.462  1.4233 -1.6767 -1.0754
 4170SOL    HW223973   3.745   0.925   1.593  0.3595 -0.0866  0.6162
 4171SOL     OW23974   3.598   3.871  15.151  0.3101 -0.0279  0.0129
 4171SOL    HW123975   3.597   3.967  15.149  0.3202 -0.0006  1.4436
 4171SOL    HW223976   3.508   3.849  15.177  1.5690 -0.5419  3.9122
 4172SOL     OW23977   2.381   4.193   5.459  0.0719  0.1934 -0.1481
 4172SOL    HW123978   2.475   4.196   5.441  0.0154  1.3421 -0.1954
 4172SOL    HW223979   2.342   4.237   5.384  0.6499 -1.3897 -1.3762
 4173SOL     OW23980   3.127   0.322  15.648  0.5008 -0.2202 -0.1471
 4173SOL    HW123981   3.038   0.358  15.653  0.2531 -1.0112  1.1980
 4173SOL    HW223982   3.134   0.278  15.733  1.9476 -1.8751 -1.1391
 4174SOL     OW23983   2.975   0.937   4.270 -0.1972  0.4255 -0.2684
 4174SOL    HW123984   2.891   0.895   4.287 -0.1807  0.5708  0.1584
 4174SOL    HW223985   3.027   0.923   4.349  1.0725 -0.0001 -1.1757
 4175SOL     OW23986   4.466   3.450  14.722 -0.2547  0.1760  0.3241
 4175SOL    HW123987   4.387   3.409  14.686  0.2613 -0.8934  0.4354
 4175SOL    HW223988   4.516   3.475  14.644  2.0878  2.3524  2.5224
 4176SOL     OW23989   3.512   0.069   6.998 -0.0447  0.2515  0.1322
 4176SOL    HW123990   3.479   4.709   6.969 -3.2902  1.2456  0.8629
 4176SOL    HW223991   3.531   0.113   6.915 -1.6148 -0.1774 -0.4459
 4177SOL     OW23992   0.723   2.388  12.095 -0.4108  0.2694 -0.7067
 4177SOL    HW123993   0.708   2.441  12.174 -1.2427 -0.1634 -0.5786
 4177SOL    HW223994   0.782   2.323  12.132 -2.0258  0.7613  2.7454
 4178SOL     OW23995   1.939   3.261  13.770 -0.0826 -0.1891 -0.4267
 4178SOL    HW123996   1.929   3.301  13.856  0.4131  0.5822 -0.7304
 4178SOL    HW223997   1.852   3.274  13.732  0.3103  0.5888 -1.0522
 4179SOL     OW23998   4.619   1.793   8.795 -0.1355 -0.1667  0.4270
 4179SOL    HW123999   4.587   1.710   8.760 -1.1463  0.2026  0.4774
 4179SOL    HW224000   4.711   1.789   8.768  0.5140  2.0008  2.3044
 4180SOL     OW24001   3.207   3.383   7.352 -0.2216  0.1827 -0.4260
 4180SOL    HW124002   3.220   3.478   7.353  0.8044  0.0286  0.1403
 4180SOL    HW224003   3.250   3.366   7.268  0.2514  0.6533 -0.2800
 4181SOL     OW24004   1.627   2.456   8.297  0.1790 -0.3424 -0.4897
 4181SOL    HW124005   1.669   2.420   8.375 -0.4744  1.4035  0.6729
 4181SOL    HW224006   1.560   2.390   8.279 -1.0233  1.0632 -1.1316
 4182SOL     OW24007   2.038   2.895  15.860 -0.0375 -0.3451  0.8015
 4182SOL    HW124008   2.065   2.804  15.854 -2.2499 -0.9060 -0.6934
 4182SOL    HW224009   1.996   2.903  15.774  2.0745  0.0412 -0.1878
 4183SOL     OW24010   0.706   2.274   3.789  0.3062  0.5469 -0.0108
 4183SOL    HW124011   0.625   2.276   3.840  0.2205 -0.6398 -0.0991
 4183SOL    HW224012   0.727   2.367   3.785  3.9076 -0.2977 -0.9965
 4184SOL     OW24013   0.198   0.016   7.084  0.3040 -0.1828 -0.3825
 4184SOL    HW124014   0.133   0.031   7.152 -0.3806  0.7488 -1.2389
 4184SOL    HW224015   0.205   4.647   7.067  2.0311 -0.1411  0.0953
 4185SOL     OW24016   3.424   1.788   1.479  0.2635  0.2753 -0.2593
 4185SOL    HW124017   3.356   1.724   1.458 -0.6922  0.9724  0.7457
 4185SOL    HW224018   3.369   1.854   1.521  1.9233  0.0042  2.3294
 4186SOL     OW24019   1.403   4.079   0.293  0.3679  0.3482  0.2926
 4186SOL    HW124020   1.388   4.066   0.200 -0.2488 -0.1402  0.4553
 4186SOL    HW224021   1.462   4.006   0.315 -1.6300 -0.7359  2.0757
 4187SOL     OW24022   0.494   2.766   4.804  0.1698 -0.1467 -0.6037
 4187SOL    HW124023   0.520   2.755   4.896 -1.3756 -1.1337 -0.2790
 4187SOL    HW224024   0.535   2.692   4.759  1.6861 -0.6401  1.5680
 4188SOL     OW24025   3.077   3.112   4.153  0.0986 -0.5595  0.7369
 4188SOL    HW124026   3.139   3.168   4.106 -1.3557  1.4292  1.1979
 4188SOL    HW224027   3.013   3.175   4.186 -1.5241 -1.9788  0.3086
 4189SOL     OW24028   3.980   2.438   8.657 -0.1545  0.2502 -0.1718
 4189SOL    HW124029   3.943   2.358   8.618  0.1044  0.0034  0.0934
 4189SOL    HW224030   3.901   2.491   8.644 -0.1599  1.0171  3.0738
 4190SOL     OW24031   1.457   2.017   1.774 -0.5291 -0.2881 -0.4503
 4190SOL    HW124032   1.389   1.951   1.786  0.0571 -0.4938  1.7794
 4190SOL    HW224033   1.527   1.974   1.824 -1.3034 -0.7926  0.2001
 4191SOL     OW24034   1.275   0.086   4.467 -0.0956 -0.1474  0.5201
 4191SOL    HW124035   1.209   0.111   4.532  0.0387  0.3169  0.4801
 4191SOL    HW224036   1.215   0.076   4.392  0.8103 -1.4549 -0.0226
 4192SOL     OW24037   2.330   3.285   3.303 -0.0489  0.1811  0.4351
 4192SOL    HW124038   2.360   3.346   3.371 -0.7116 -0.4211  1.2618
 4192SOL    HW224039   2.295   3.349   3.241  0.2871  1.4505  1.5423
 4193SOL     OW24040   1.522   1.879   2.603 -0.4013  0.2734 -0.3750
 4193SOL    HW124041   1.516   1.924   2.687  0.7772 -1.2481  0.5399
 4193SOL    HW224042   1.612   1.886   2.572 -0.2331 -0.2339 -0.0183
 4194SOL     OW24043   2.534   1.921   3.524 -0.5479  0.5466  0.0870
 4194SOL    HW124044   2.446   1.950   3.547 -0.7695 -1.1112  1.3469
 4194SOL    HW224045   2.521   1.834   3.487 -2.3367  1.3407 -1.1681
 4195SOL     OW24046   2.668   1.120   2.825 -0.2782  0.3869  0.3471
 4195SOL    HW124047   2.669   1.105   2.731 -0.3083  0.4666  0.3344
 4195SOL    HW224048   2.622   1.039   2.848  1.1593 -0.3165  0.7948
 4196SOL     OW24049   4.205   0.016  16.425  0.4201  0.4174  0.1781
 4196SOL    HW124050   4.214   0.027  16.520  0.5315  0.6638  0.1379
 4196SOL    HW224051   4.165   4.655  16.418 -2.4817  1.6853  1.2628
 4197SOL     OW24052   1.013   2.591   8.053 -0.0051  0.5480  0.0118
 4197SOL    HW124053   1.003   2.671   8.104  0.6961  1.6192 -1.5539
 4197SOL    HW224054   1.002   2.519   8.116  0.3385 -0.3543 -0.9473
 4198SOL     OW24055   4.668   3.092   6.153 -1.2184  0.0613  0.3143
 4198SOL    HW124056   4.631   3.012   6.189  0.3137 -1.4596 -1.5022
 4198SOL    HW224057   0.012   3.054   6.099 -0.6186 -1.7478  2.3747
 4199SOL     OW24058   3.889   4.440  15.049 -0.4261 -0.2478 -0.0786
 4199SOL    HW124059   3.873   4.347  15.066 -2.9604  0.7097  2.6789
 4199SOL    HW224060   3.841   4.490  15.115 -0.9725  0.1906 -0.8175
 4200SOL     OW24061   3.543   0.820   3.876 -0.0707  0.1479  0.1076
 4200SOL    HW124062   3.545   0.725   3.891  1.2690  0.0696 -0.5953
 4200SOL    HW224063   3.449   0.838   3.884  0.1059  0.3865  1.6816
 4201SOL     OW24064   3.756   0.614   6.866  0.1314 -0.6989  0.3843
 4201SOL    HW124065   3.785   0.539   6.917 -0.6148 -0.3616  1.3086
 4201SOL    HW224066   3.669   0.582   6.840  0.0723 -1.0461  1.0020
 4202SOL     OW24067   1.309   4.015  13.362  0.0781  0.3135  0.6809
 4202SOL    HW124068   1.218   3.992  13.379  0.3515  1.1683  3.2640
 4202SOL    HW224069   1.345   4.002  13.449  1.0563 -3.7385 -0.3490
 4203SOL     OW24070   2.817   2.402  17.125  0.7320 -0.1427  0.4557
 4203SOL    HW124071   2.859   2.337  17.069 -1.3785 -1.2609  0.1878
 4203SOL    HW224072   2.734   2.359  17.146  0.0804  0.7593 -0.2564
 4204SOL     OW24073   3.273   2.674  13.056  0.1598  0.7541  0.2232
 4204SOL    HW124074   3.277   2.727  12.977 -0.4078 -1.7873 -1.4969
 4204SOL    HW224075   3.186   2.632  13.055  0.4380  0.2123 -1.3013
 4205SOL     OW24076   2.091   1.399   2.505  0.6570  0.5344  0.1432
 4205SOL    HW124077   2.037   1.448   2.443 -1.6549 -1.0019  0.9289
 4205SOL    HW224078   2.024   1.353   2.557  1.2261  0.5389  0.8890
 4206SOL     OW24079   4.489   0.134   5.068  0.3159 -0.0081 -0.1085
 4206SOL    HW124080   4.403   0.157   5.103  0.4076 -1.1590  0.8796
 4206SOL    HW224081   4.552   0.134   5.141  1.0513  0.2782 -0.7409
 4207SOL     OW24082   2.990   2.748   5.651  0.4449  1.0023 -0.6214
 4207SOL    HW124083   2.960   2.669   5.605 -1.5041  1.5686 -0.3336
 4207SOL    HW224084   2.952   2.809   5.587 -0.1770  1.1394 -0.1174
 4208SOL     OW24085   4.064   2.381  10.019 -0.0870 -0.2517  0.4201
 4208SOL    HW124086   4.112   2.397   9.938 -1.5009 -0.7600 -0.5221
 4208SOL    HW224087   4.011   2.305   9.996 -0.7368  0.3941 -0.1874
 4209SOL     OW24088   3.643   3.152   6.232  0.6681 -0.1161 -0.2980
 4209SOL    HW124089   3.652   3.173   6.139 -3.2055  1.1728 -0.3806
 4209SOL    HW224090   3.582   3.079   6.219  0.4300 -0.3369  2.2085
 4210SOL     OW24091   2.261   2.387   8.583  0.1133  0.1265  0.0835
 4210SOL    HW124092   2.315   2.465   8.593  1.3707 -0.8016  0.5620
 4210SOL    HW224093   2.257   2.342   8.668  0.8967  0.0077  0.0527
 4211SOL     OW24094   1.736   4.491   5.856 -0.3251 -0.0629 -0.1757
 4211SOL    HW124095   1.820   4.509   5.899 -0.8095  1.1066  0.2791
 4211SOL    HW224096   1.688   4.467   5.936 -0.6476 -0.8748 -0.6079
 4212SOL     OW24097   3.210   2.700  11.531  0.5221 -0.3326  0.6272
 4212SOL    HW124098   3.191   2.768  11.466  0.9726  0.0011  0.8426
 4212SOL    HW224099   3.186   2.744  11.612 -1.5749 -1.0123  0.3730
 4213SOL     OW24100   1.577   2.159  14.255 -0.0052  0.2799  0.2680
 4213SOL    HW124101   1.575   2.082  14.198  1.9916  0.0924  0.4478
 4213SOL    HW224102   1.534   2.231  14.209 -1.7429 -0.2241  1.1072
 4214SOL     OW24103   1.025   2.843   5.984  0.1484 -0.4661 -0.3422
 4214SOL    HW124104   1.106   2.874   6.022 -0.3788  1.0113 -0.4402
 4214SOL    HW224105   1.026   2.749   6.004  1.6711 -0.5562 -0.8735
 4215SOL     OW24106   1.204   3.653   3.869 -0.1769  0.5081  0.1912
 4215SOL    HW124107   1.275   3.714   3.853  0.4145 -0.1230  0.4304
 4215SOL    HW224108   1.175   3.683   3.955  0.1271  0.2803  0.3754
 4216SOL     OW24109   3.021   0.058   8.331 -0.0568  0.4219 -0.2656
 4216SOL    HW124110   3.079   0.024   8.263 -0.1111 -0.5843  0.1901
 4216SOL    HW224111   2.980   0.138   8.298 -0.5837 -0.2963 -1.3218
 4217SOL     OW24112   2.652   4.242   0.368 -0.4682  0.3548  0.0278
 4217SOL    HW124113   2.744   4.268   0.362 -1.2181  3.1241  0.6816
 4217SOL    HW224114   2.655   4.172   0.302  1.6357  0.3032  0.1708
 4218SOL     OW24115   3.745   4.571   9.997  0.1292 -0.0605 -0.8580
 4218SOL    HW124116   3.677   4.637   9.982  0.7083  0.6593 -0.2767
 4218SOL    HW224117   3.818   4.620   9.959 -0.8503  0.8512 -1.5770
 4219SOL     OW24118   1.253   4.478   5.068 -0.1478  0.4463  0.0998
 4219SOL    HW124119   1.344   4.462   5.045 -1.3687 -0.7759 -3.9472
 4219SOL    HW224120   1.219   4.388   5.065  0.3909  0.2672 -0.6326
 4220SOL     OW24121   2.014   4.529   5.476 -0.7871 -0.2849 -0.3320
 4220SOL    HW124122   1.987   4.444   5.512 -0.1998  0.0288  0.8380
 4220SOL    HW224123   1.992   4.514   5.384  3.2356  0.1569 -1.3906
 4221SOL     OW24124   0.952   3.798   6.706 -0.0364  0.4584  0.1261
 4221SOL    HW124125   0.918   3.797   6.795 -1.6576  0.1953 -0.4921
 4221SOL    HW224126   1.037   3.758   6.725  0.7103  0.6417 -2.7224
 4222SOL     OW24127   1.854   3.645   8.856 -0.1869  0.2131 -0.0924
 4222SOL    HW124128   1.940   3.681   8.836 -0.4787  0.7491 -0.3626
 4222SOL    HW224129   1.802   3.725   8.853  0.2263  0.3889 -2.4144
 4223SOL     OW24130   2.157   1.302   1.287  0.4901 -0.2671 -0.0655
 4223SOL    HW124131   2.115   1.216   1.290 -1.3864  0.7416  1.8856
 4223SOL    HW224132   2.086   1.365   1.294  0.1278 -0.4983 -1.6096
 4224SOL     OW24133   4.623   2.158   3.710 -0.2129  0.0834  0.2849
 4224SOL    HW124134   4.548   2.217   3.705  0.5760  1.1970  1.6244
 4224SOL    HW224135   4.583   2.073   3.691  3.2845 -1.6391  0.5157
 4225SOL     OW24136   3.116   4.112   7.664 -0.2321 -0.2173  0.0559
 4225SOL    HW124137   3.024   4.083   7.664 -0.1679 -0.4228  0.7248
 4225SOL    HW224138   3.165   4.033   7.641 -0.3800 -0.5636  0.9163
 4226SOL     OW24139   0.488   2.090   0.906 -0.3011 -0.1440 -0.1803
 4226SOL    HW124140   0.516   2.175   0.941  1.3649 -0.5386 -0.5411
 4226SOL    HW224141   0.512   2.042   0.985  0.9936  1.2299  0.2704
 4227SOL     OW24142   1.063   1.837  12.152  0.7749 -0.1669 -0.8496
 4227SOL    HW124143   1.090   1.796  12.070  0.2604  0.4381 -1.3274
 4227SOL    HW224144   1.138   1.850  12.210  0.1442  1.1272 -0.3219
 4228SOL     OW24145   1.213   0.495   8.101 -0.7469  0.0437  0.5142
 4228SOL    HW124146   1.250   0.407   8.099  0.4058  0.5485 -0.0041
 4228SOL    HW224147   1.275   0.531   8.164 -2.2308  1.2576  1.2895
 4229SOL     OW24148   2.169   4.405   0.930 -0.3461 -0.0098 -0.0062
 4229SOL    HW124149   2.127   4.348   0.994 -0.3350  0.9032  0.8009
 4229SOL    HW224150   2.093   4.461   0.914 -1.4554 -1.1341  1.4128
 4230SOL     OW24151   1.553   0.728   8.111 -1.1417 -0.5212  0.0795
 4230SOL    HW124152   1.563   0.747   8.018 -0.9239 -0.2431  0.1562
 4230SOL    HW224153   1.632   0.674   8.117 -1.6110 -1.2563 -0.5437
 4231SOL     OW24154   0.170   3.415   4.613  1.1871  0.1414  0.3682
 4231SOL    HW124155   0.226   3.488   4.586  1.7037 -0.7416 -0.9577
 4231SOL    HW224156   0.198   3.345   4.554  3.1650 -0.3515  1.8830
 4232SOL     OW24157   1.194   2.538   3.104 -0.2431  0.0971 -0.9115
 4232SOL    HW124158   1.208   2.551   3.198 -0.4225 -0.9164 -0.7458
 4232SOL    HW224159   1.104   2.567   3.088 -0.0398  1.2539  0.0274
 4233SOL     OW24160   2.207   1.122   2.528  0.1689 -0.5551 -0.1952
 4233SOL    HW124161   2.192   1.215   2.511  0.2550 -0.7742 -1.5182
 4233SOL    HW224162   2.141   1.100   2.594 -0.5568  0.3650 -0.6124
 4234SOL     OW24163   4.257   2.875   5.053  0.0823  0.3413 -0.4150
 4234SOL    HW124164   4.269   2.949   4.995  1.1178  0.2622 -0.3041
 4234SOL    HW224165   4.165   2.852   5.040  0.0040  0.9260 -0.8951
 4235SOL     OW24166   4.267   3.576   8.098  0.1740 -0.1957  0.1086
 4235SOL    HW124167   4.264   3.645   8.165 -0.7285 -0.4702  0.3537
 4235SOL    HW224168   4.267   3.631   8.019  1.1032  0.1560  0.3568
 4236SOL     OW24169   1.024   2.004   6.113 -0.0548  0.1388  0.4743
 4236SOL    HW124170   1.027   1.949   6.035  0.7145 -0.6292  1.0592
 4236SOL    HW224171   0.931   2.029   6.115  0.6860  2.8741  1.1112
 4237SOL     OW24172   0.621   0.815   1.475 -0.4054 -0.1851 -0.1239
 4237SOL    HW124173   0.561   0.798   1.403  0.9952  1.2588 -1.6208
 4237SOL    HW224174   0.660   0.729   1.487 -1.1090 -0.5146 -0.1596
 4238SOL     OW24175   0.150   2.246   3.575  0.4360  0.0288  0.0644
 4238SOL    HW124176   0.125   2.320   3.630 -2.0743 -2.3402  2.1240
 4238SOL    HW224177   0.086   2.180   3.604  1.0632 -1.4654 -1.9369
 4239SOL     OW24178   4.498   0.362   6.410 -0.0932 -0.6711  0.3970
 4239SOL    HW124179   4.402   0.360   6.400 -0.1248  4.1065 -0.4566
 4239SOL    HW224180   4.506   0.442   6.462  1.6739 -1.5220  1.3893
 4240SOL     OW24181   0.649   1.465  17.034  0.0306  0.2620  0.0440
 4240SOL    HW124182   0.570   1.451  17.086 -0.3392  2.5140  0.0736
 4240SOL    HW224183   0.650   1.393  16.970  1.8196 -0.0046  0.3588
 4241SOL     OW24184   1.105   0.411   9.962  0.0603 -0.7354  0.2491
 4241SOL    HW124185   1.056   0.428   9.881  1.1415 -1.1678 -0.4974
 4241SOL    HW224186   1.190   0.445   9.937  0.0701 -0.4625  0.6621
 4242SOL     OW24187   0.686   1.624  12.555 -0.0152  0.0437 -0.1204
 4242SOL    HW124188   0.729   1.612  12.640 -0.3828  1.1306  0.2120
 4242SOL    HW224189   0.614   1.562  12.567  0.7478 -0.8067  0.1123
 4243SOL     OW24190   3.005   3.506   4.605  0.0379  0.2541  0.2107
 4243SOL    HW124191   2.962   3.445   4.665 -1.0246  0.0529 -0.7671
 4243SOL    HW224192   2.946   3.581   4.601  2.1969  1.8134 -2.4679
 4244SOL     OW24193   2.856   1.278   5.807 -0.5445 -0.9229  0.1579
 4244SOL    HW124194   2.776   1.231   5.828 -0.7299 -1.3469 -1.5264
 4244SOL    HW224195   2.850   1.356   5.863  0.6208 -0.4583 -0.3566
 4245SOL     OW24196   2.512   2.788  13.150  0.3003  0.2032  0.1329
 4245SOL    HW124197   2.577   2.822  13.088  0.4169  0.9821  0.6738
 4245SOL    HW224198   2.577   2.788  13.220  0.2726 -0.0760  0.1574
 4246SOL     OW24199   2.470   3.509  14.885 -0.8214  0.2850 -0.0814
 4246SOL    HW124200   2.431   3.591  14.855  0.3351 -0.1725 -2.8114
 4246SOL    HW224201   2.412   3.439  14.855  0.1024 -0.5890  0.1506
 4247SOL     OW24202   4.134   1.445  14.640 -0.0777  0.2837 -0.3531
 4247SOL    HW124203   4.170   1.437  14.552 -1.0928 -1.9865 -0.5695
 4247SOL    HW224204   4.039   1.431  14.634 -0.2000 -0.6574  3.6766
 4248SOL     OW24205   3.368   4.241   2.241 -0.0166  0.5474  0.2090
 4248SOL    HW124206   3.311   4.242   2.164  0.3225 -1.2161 -0.0739
 4248SOL    HW224207   3.313   4.297   2.296 -1.1314 -2.4144  2.1317
 4249SOL     OW24208   2.724   3.956   6.403  0.0440 -0.1246  0.0793
 4249SOL    HW124209   2.695   3.928   6.316  1.3447  0.5726 -0.5919
 4249SOL    HW224210   2.641   3.952   6.449 -0.3794  2.5236 -0.4431
 4250SOL     OW24211   0.331   2.156  14.821  0.7483  0.0611 -0.0712
 4250SOL    HW124212   0.292   2.170  14.907  1.9448 -1.2905  0.6877
 4250SOL    HW224213   0.269   2.090  14.791  2.2702 -1.1926 -0.4951
 4251SOL     OW24214   2.573   2.411   2.433 -0.2228 -0.0211  0.5860
 4251SOL    HW124215   2.535   2.353   2.367 -0.7693  2.3568 -1.1945
 4251SOL    HW224216   2.646   2.455   2.389 -0.6322 -0.3388 -0.4066
 4252SOL     OW24217   3.667   4.047   9.070  0.0237 -0.6277  0.2351
 4252SOL    HW124218   3.758   4.023   9.086  0.2970 -1.0389 -1.9946
 4252SOL    HW224219   3.690   4.115   9.007 -0.5281 -2.0120 -1.4228
 4253SOL     OW24220   2.019   4.535  16.120 -0.2525  0.1349 -0.1322
 4253SOL    HW124221   2.104   4.501  16.148 -1.3491 -0.5801  2.2925
 4253SOL    HW224222   2.024   4.623  16.156  2.0830  0.0449 -0.2426
 4254SOL     OW24223   3.735   4.265   7.265 -0.5759 -0.5567 -0.0420
 4254SOL    HW124224   3.672   4.329   7.231  3.4394  2.7122 -1.2498
 4254SOL    HW224225   3.799   4.331   7.290 -1.6216  0.9100 -1.2171
 4255SOL     OW24226   4.625   2.382   8.179  0.1881 -0.2784  0.9863
 4255SOL    HW124227   4.627   2.464   8.228 -0.8438  2.1789 -3.0987
 4255SOL    HW224228   4.607   2.423   8.094 -0.5809 -0.8612  0.8726
 4256SOL     OW24229   3.179   4.071  11.164  0.3315 -0.1904 -0.8469
 4256SOL    HW124230   3.198   4.095  11.074 -1.5905 -1.0163 -1.4824
 4256SOL    HW224231   3.097   4.121  11.168  0.0140 -0.6679 -1.6282
 4257SOL     OW24232   1.845   0.859   5.766 -0.7110 -0.0125 -0.1117
 4257SOL    HW124233   1.939   0.865   5.748 -0.9527  2.0691 -0.6388
 4257SOL    HW224234   1.844   0.895   5.854 -1.0521  0.1954 -0.1994
 4258SOL     OW24235   2.838   2.872   3.657 -0.1798 -0.1332  0.2610
 4258SOL    HW124236   2.800   2.889   3.571  2.1529  0.1298 -0.7141
 4258SOL    HW224237   2.933   2.880   3.644 -0.1257  0.0554  0.7905
 4259SOL     OW24238   1.075   3.396   7.057 -0.0431  0.0275 -0.5114
 4259SOL    HW124239   1.145   3.362   7.001 -0.0998  0.5636 -0.9203
 4259SOL    HW224240   1.090   3.341   7.134 -2.1312 -0.1320 -0.2357
 4260SOL     OW24241   2.347   0.236  15.792  0.3317  0.4108 -0.1205
 4260SOL    HW124242   2.395   0.318  15.777  1.0592 -0.2452 -1.2841
 4260SOL    HW224243   2.258   0.271  15.797  0.7678  1.3766  1.0986
 4261SOL     OW24244   0.110   4.538   8.569  0.2968  0.2466  0.2948
 4261SOL    HW124245   0.145   4.620   8.534  0.1549 -0.1177 -0.7016
 4261SOL    HW224246   0.022   4.540   8.532  0.8376  0.7100 -0.9824
 4262SOL     OW24247   1.086   4.257   6.357  0.0048 -0.1179 -0.2414
 4262SOL    HW124248   1.085   4.345   6.395 -1.7786 -0.1175 -0.2931
 4262SOL    HW224249   1.013   4.252   6.295  0.7568  0.6678 -1.1900
 4263SOL     OW24250   1.748   1.580   5.714 -0.0059 -0.2998 -0.3277
 4263SOL    HW124251   1.713   1.497   5.681  2.0813 -1.3616  0.1099
 4263SOL    HW224252   1.692   1.583   5.792  0.4176  0.8245 -0.0573
 4264SOL     OW24253   2.901   2.353   8.753  0.0424  0.4464  0.5667
 4264SOL    HW124254   2.927   2.261   8.751 -0.3294  0.3720 -0.7503
 4264SOL    HW224255   2.875   2.369   8.844  2.3923  1.4197  1.0636
 4265SOL     OW24256   0.175   0.037   8.402 -0.5939  0.0327  0.2315
 4265SOL    HW124257   0.168   0.131   8.420  0.4882 -0.1986  1.7907
 4265SOL    HW224258   0.173   0.041   8.306 -1.7591  0.7484  0.2807
 4266SOL     OW24259   1.783   2.069   1.282  0.1338 -0.3990  0.5052
 4266SOL    HW124260   1.762   2.011   1.355  0.0279  1.0006  1.6022
 4266SOL    HW224261   1.871   2.042   1.256  0.7031  0.0859  1.9157
 4267SOL     OW24262   2.136   0.767  12.216  0.6563  0.1260 -0.0590
 4267SOL    HW124263   2.201   0.808  12.274 -0.7880  0.5763  1.2316
 4267SOL    HW224264   2.054   0.796  12.255  0.4687 -2.1693  1.2485
 4268SOL     OW24265   0.164   0.697  16.010  0.3308 -0.0011  0.0854
 4268SOL    HW124266   0.202   0.785  16.019 -1.2302  0.7409 -0.5027
 4268SOL    HW224267   0.150   0.686  15.916  0.5069 -0.8453  0.1556
 4269SOL     OW24268   1.365   2.317   2.724  0.3613  0.0672 -0.0099
 4269SOL    HW124269   1.326   2.403   2.742  1.6184  0.9702 -1.5666
 4269SOL    HW224270   1.335   2.261   2.796  0.4086 -1.8208 -1.4544
 4270SOL     OW24271   3.737   3.127   6.743 -0.0119 -0.5372  0.3625
 4270SOL    HW124272   3.789   3.046   6.743 -1.4796 -1.4933 -0.4726
 4270SOL    HW224273   3.737   3.143   6.648  2.7978  0.6708  0.5837
 4271SOL     OW24274   2.296   4.487   2.610  0.1630 -0.0436 -0.1226
 4271SOL    HW124275   2.307   4.460   2.701 -3.4990 -0.2629  0.2697
 4271SOL    HW224276   2.315   4.579   2.625  0.3858 -0.0929 -0.1098
 4272SOL     OW24277   1.979   4.085  12.566  0.3034  0.3718 -0.1781
 4272SOL    HW124278   1.992   3.995  12.596 -0.4958 -0.0564 -1.1420
 4272SOL    HW224279   2.064   4.119  12.595  0.2750  1.0615 -0.8892
 4273SOL     OW24280   4.516   2.298  15.076 -0.2594  0.0977 -0.8194
 4273SOL    HW124281   4.538   2.379  15.123  2.8540 -2.1464  1.5927
 4273SOL    HW224282   4.584   2.303  15.008  3.5736  2.9779  3.2431
 4274SOL     OW24283   0.823   2.719   7.352  0.1325 -0.9606 -0.2396
 4274SOL    HW124284   0.772   2.662   7.410 -0.0267 -1.0152 -0.4337
 4274SOL    HW224285   0.909   2.693   7.384  1.5674  1.9702 -1.7230
 4275SOL     OW24286   0.857   2.452   4.367  0.5326 -0.7486  0.2940
 4275SOL    HW124287   0.947   2.453   4.335  0.2958 -0.7488 -0.3688
 4275SOL    HW224288   0.814   2.420   4.288 -2.1839  4.0279 -0.1791
 4276SOL     OW24289   3.289   1.083   8.574 -0.0069  0.0950  0.1462
 4276SOL    HW124290   3.296   0.989   8.588  0.4158  0.1007 -0.0123
 4276SOL    HW224291   3.257   1.090   8.484  1.5673 -2.1137 -0.5708
 4277SOL     OW24292   2.507   3.225   6.439  0.5643  0.1976  0.0444
 4277SOL    HW124293   2.538   3.159   6.377  1.9065 -0.5419  1.5148
 4277SOL    HW224294   2.586   3.279   6.444 -0.9303  2.3723  0.6644
 4278SOL     OW24295   3.371   2.337   8.247  0.1840 -0.2435  1.0749
 4278SOL    HW124296   3.308   2.366   8.312 -1.5264  1.0891 -1.1613
 4278SOL    HW224297   3.340   2.379   8.166  2.0876 -0.3633  0.2706
 4279SOL     OW24298   0.268   4.250  15.189  0.1760 -0.3584 -0.1117
 4279SOL    HW124299   0.266   4.307  15.266  1.8539  1.5132 -1.4668
 4279SOL    HW224300   0.307   4.303  15.120 -2.6670  0.5742 -1.0224
 4280SOL     OW24301   1.288   0.035  12.298  0.2940  0.5274 -0.2647
 4280SOL    HW124302   1.286   0.123  12.334  1.6019 -0.1077  1.3872
 4280SOL    HW224303   1.354   0.033  12.228 -1.6912  1.8919 -2.1804
 4281SOL     OW24304   3.916   1.149  15.371 -0.4903 -0.2619 -0.4140
 4281SOL    HW124305   3.874   1.207  15.435 -0.6099 -1.9765  1.0699
 4281SOL    HW224306   3.939   1.203  15.296  0.9444 -1.3358 -0.7549
 4282SOL     OW24307   3.993   2.085   3.444  0.0690  0.9031 -0.1850
 4282SOL    HW124308   3.923   2.136   3.405 -1.0500 -1.1497 -0.8114
 4282SOL    HW224309   3.977   2.002   3.400  0.2708  0.7089  0.1026
 4283SOL     OW24310   3.083   4.346   3.114 -0.0223 -0.1780 -0.2374
 4283SOL    HW124311   3.115   4.257   3.123 -2.0027 -0.9067 -0.4490
 4283SOL    HW224312   3.155   4.393   3.156  0.1222 -0.1298 -0.5417
 4284SOL     OW24313   0.216   0.439   5.482  0.1822 -0.0786  0.0464
 4284SOL    HW124314   0.126   0.421   5.458  0.3626 -2.3121  1.0781
 4284SOL    HW224315   0.251   0.481   5.403 -0.5283  0.0230 -0.2073
 4285SOL     OW24316   4.346   0.154   2.773  0.1613  0.1754  0.2737
 4285SOL    HW124317   4.350   0.058   2.766  0.3942  0.2076 -0.0007
 4285SOL    HW224318   4.416   0.182   2.715 -1.3573  0.8958 -1.2342
 4286SOL     OW24319   3.944   1.023  10.105 -0.2394 -0.1150  0.2448
 4286SOL    HW124320   3.950   1.079  10.028  0.3790 -1.5502 -0.7469
 4286SOL    HW224321   3.957   1.089  10.174  1.5206  1.3469 -1.5103
 4287SOL     OW24322   0.435   3.736   9.055 -0.4687 -0.3645 -0.2015
 4287SOL    HW124323   0.340   3.748   9.044 -0.7585  0.0070  2.5827
 4287SOL    HW224324   0.453   3.822   9.093  1.7515 -1.0826  0.3262
 4288SOL     OW24325   3.854   1.840   8.147  0.8214  0.4808  0.3683
 4288SOL    HW124326   3.795   1.766   8.161  2.9513 -1.2321  0.2486
 4288SOL    HW224327   3.944   1.812   8.160  0.6194 -0.6810 -0.8220
 4289SOL     OW24328   0.771   1.164   1.772 -0.5562 -0.6692  0.3926
 4289SOL    HW124329   0.721   1.132   1.847 -2.8406  1.8547 -0.0690
 4289SOL    HW224330   0.781   1.095   1.706 -1.9267 -1.4099  0.9612
 4290SOL     OW24331   4.165   0.963   1.389  0.0915 -0.4316 -0.5157
 4290SOL    HW124332   4.227   0.911   1.440  1.4395 -0.6900 -2.3845
 4290SOL    HW224333   4.196   1.048   1.420  2.5991 -0.6235 -2.4014
 4291SOL     OW24334   3.317   2.120   5.276  0.0883  0.2499  0.1903
 4291SOL    HW124335   3.373   2.043   5.275  2.0057  1.5944  2.4498
 4291SOL    HW224336   3.236   2.084   5.311  1.8271 -3.0254  0.7780
 4292SOL     OW24337   2.462   4.211  10.613 -0.6356 -0.1124 -0.0887
 4292SOL    HW124338   2.416   4.259  10.545  0.9957  0.5832 -0.6844
 4292SOL    HW224339   2.394   4.201  10.679 -1.1514 -0.1092 -0.6188
 4293SOL     OW24340   2.460   1.002   9.246 -0.1393  0.4312  0.1691
 4293SOL    HW124341   2.458   1.032   9.337 -1.6759 -2.1885  1.0031
 4293SOL    HW224342   2.375   1.037   9.218  0.0007 -1.3394 -2.4188
 4294SOL     OW24343   1.094   2.139   5.229  0.2530  0.2842  0.4552
 4294SOL    HW124344   1.040   2.177   5.299 -1.3982 -2.6254  0.7672
 4294SOL    HW224345   1.069   2.171   5.143 -0.0730 -3.5692 -0.8926
 4295SOL     OW24346   4.105   0.341  12.997 -0.0117 -0.2376 -0.4194
 4295SOL    HW124347   4.186   0.325  12.949 -0.3278 -2.0311 -0.3746
 4295SOL    HW224348   4.054   0.260  12.984 -0.7776  0.3828 -1.3030
 4296SOL     OW24349   0.326   2.870   6.509 -0.4600 -0.1664 -1.0869
 4296SOL    HW124350   0.231   2.880   6.506 -0.7923 -2.8353  1.0367
 4296SOL    HW224351   0.332   2.775   6.500  0.4379 -0.2416  0.3059
 4297SOL     OW24352   4.336   1.177   3.054  0.6293 -0.2730  0.4030
 4297SOL    HW124353   4.325   1.105   2.992 -0.7138 -0.1962  0.5606
 4297SOL    HW224354   4.425   1.162   3.087  1.5066  0.7340 -1.5004
 4298SOL     OW24355   1.129   4.353   4.179  0.1797 -0.2611 -0.1681
 4298SOL    HW124356   1.108   4.420   4.114 -2.8583  0.1016  1.1895
 4298SOL    HW224357   1.073   4.371   4.255 -0.7691  1.6785 -1.3305
 4299SOL     OW24358   4.685   0.523  15.709  0.0051  0.3279  0.4280
 4299SOL    HW124359   0.030   0.586  15.725  0.0999  0.2277  0.3980
 4299SOL    HW224360   4.609   0.578  15.729  0.7088  0.5782  2.4247
 4300SOL     OW24361   1.083   3.867   5.670 -0.5518  0.4903 -0.7623
 4300SOL    HW124362   1.165   3.917   5.672  0.4848 -1.2431  0.0857
 4300SOL    HW224363   1.045   3.937   5.725 -0.0582 -1.5228  2.1259
 4301SOL     OW24364   0.829   3.320   8.280 -0.2893 -0.3035 -0.0356
 4301SOL    HW124365   0.925   3.323   8.288 -0.4518 -0.8266  2.1703
 4301SOL    HW224366   0.811   3.323   8.186  0.6350 -0.0666 -0.2095
 4302SOL     OW24367   0.117   2.482   6.218  0.6053  0.3851 -0.4735
 4302SOL    HW124368   0.063   2.490   6.296  0.7102 -1.5500 -0.2042
 4302SOL    HW224369   0.207   2.471   6.250  0.8619 -0.8001 -1.5728
 4303SOL     OW24370   0.312   2.561   4.840 -0.1262  0.4139 -0.4587
 4303SOL    HW124371   0.400   2.527   4.822 -0.0309  0.3661  0.1016
 4303SOL    HW224372   0.306   2.621   4.765  2.5670  0.6469 -0.4701
 4304SOL     OW24373   4.578   4.232   8.569  0.2611 -0.3019  0.0629
 4304SOL    HW124374   4.611   4.221   8.658  0.2861  1.3594  0.2693
 4304SOL    HW224375   4.557   4.325   8.574  0.3653 -0.1916 -1.3562
 4305SOL     OW24376   0.305   2.338  13.929 -0.8032  0.5059  0.1564
 4305SOL    HW124377   0.384   2.292  13.956 -0.3115  2.6603  2.3369
 4305SOL    HW224378   0.274   2.280  13.859 -0.4120  1.1982 -0.5930
 4306SOL     OW24379   1.536   2.063   8.116  0.0832  0.7958 -0.1700
 4306SOL    HW124380   1.515   2.120   8.191  1.6562  2.1226 -0.7277
 4306SOL    HW224381   1.545   2.137   8.055 -0.3239  0.5800 -0.4870
 4307SOL     OW24382   3.091   4.354   1.012 -0.2492  0.5889 -0.4157
 4307SOL    HW124383   3.023   4.414   0.983 -0.3048  1.9543  2.5209
 4307SOL    HW224384   3.083   4.353   1.107 -1.3798 -0.1349 -0.5280
 4308SOL     OW24385   2.918   2.172   2.056  0.2334  0.5728  0.2211
 4308SOL    HW124386   2.922   2.092   2.004 -1.7106  0.1687  0.6911
 4308SOL    HW224387   3.007   2.203   2.040 -0.7802  3.0110 -0.7026
 4309SOL     OW24388   3.220   4.382   4.332  0.4140  0.0236  0.4693
 4309SOL    HW124389   3.268   4.457   4.299 -1.1256  1.6073  1.8209
 4309SOL    HW224390   3.285   4.348   4.394  1.5882  0.0489 -0.7585
 4310SOL     OW24391   3.939   4.267   8.584 -0.3641 -0.7030  0.4234
 4310SOL    HW124392   3.852   4.307   8.575 -0.8572 -0.9843  4.1274
 4310SOL    HW224393   3.965   4.282   8.493 -2.0380  0.8754  0.1994
 4311SOL     OW24394   2.327   1.353   5.164  0.0571 -0.4782 -0.2517
 4311SOL    HW124395   2.342   1.346   5.258 -2.5950 -1.0972  0.1261
 4311SOL    HW224396   2.254   1.292   5.157 -1.2571  1.2480 -1.5921
 4312SOL     OW24397   0.400   1.177   7.809 -0.2102 -0.0944  0.4782
 4312SOL    HW124398   0.367   1.164   7.898 -0.3859 -1.5878  0.1963
 4312SOL    HW224399   0.464   1.106   7.809  0.7121  0.7423  3.6293
 4313SOL     OW24400   3.915   4.449   9.273  0.0779  0.5073  0.5761
 4313SOL    HW124401   3.881   4.361   9.290 -1.3512  0.6775 -1.3045
 4313SOL    HW224402   3.844   4.505   9.306  0.0095  0.4505  0.5277
 4314SOL     OW24403   1.955   0.508   6.184 -0.1551  0.0041 -0.4665
 4314SOL    HW124404   1.991   0.419   6.180  0.8285  0.3502  0.8411
 4314SOL    HW224405   1.995   0.540   6.265 -1.4276 -0.5885  0.4068
 4315SOL     OW24406   2.857   2.017   7.439 -0.4299 -0.0014 -0.3319
 4315SOL    HW124407   2.779   1.967   7.461  0.7565 -1.3289  0.8276
 4315SOL    HW224408   2.831   2.066   7.361 -1.9198  1.7639  1.2805
 4316SOL     OW24409   0.568   0.148   1.647 -0.1501  0.6456 -0.1643
 4316SOL    HW124410   0.518   0.169   1.568  0.0739  1.2048 -0.1584
 4316SOL    HW224411   0.567   0.052   1.656  1.0648  0.5057 -1.5313
 4317SOL     OW24412   2.729   0.458   3.833 -0.0697 -0.0552 -0.5735
 4317SOL    HW124413   2.657   0.397   3.815 -0.3574  0.2097 -0.3001
 4317SOL    HW224414   2.716   0.484   3.924  2.0781  0.4382 -0.4039
 4318SOL     OW24415   1.081   3.909   2.849 -0.1780  0.4965 -0.0418
 4318SOL    HW124416   0.986   3.907   2.835 -0.6512 -0.0243  3.1486
 4318SOL    HW224417   1.123   3.903   2.764 -0.4651  0.7862 -0.2052
 4319SOL     OW24418   1.495   3.321   3.613  0.0898  0.3256  0.6025
 4319SOL    HW124419   1.585   3.287   3.618  0.4409  0.8989 -1.4962
 4319SOL    HW224420   1.516   3.377   3.538  1.6721  0.4948  1.1627
 4320SOL     OW24421   4.247   2.834   7.424 -0.1925  0.3708 -0.3893
 4320SOL    HW124422   4.331   2.831   7.378 -0.2656 -2.5136 -0.3455
 4320SOL    HW224423   4.179   2.844   7.357  0.3425  0.3795 -0.9295
 4321SOL     OW24424   4.616   4.499   1.010  0.0121 -0.6024 -0.5601
 4321SOL    HW124425   4.602   4.592   1.029  2.3985 -0.3497 -0.0614
 4321SOL    HW224426   4.581   4.506   0.922 -0.3891  1.5632 -0.2304
 4322SOL     OW24427   1.103   3.291   8.298 -0.5310 -0.4062 -0.3385
 4322SOL    HW124428   1.118   3.252   8.212  1.6049 -1.5722  0.5873
 4322SOL    HW224429   1.164   3.365   8.299 -1.8699  0.7026  0.0338
 4323SOL     OW24430   1.410   3.757   8.779  0.0541 -0.4301  0.0313
 4323SOL    HW124431   1.360   3.679   8.802  0.0806 -0.8152 -1.1922
 4323SOL    HW224432   1.347   3.814   8.824  0.3622  0.1660 -0.2898
 4324SOL     OW24433   2.034   4.190   4.949  0.2042  0.2803  0.1206
 4324SOL    HW124434   2.090   4.154   4.880  0.3296 -0.5296  0.6454
 4324SOL    HW224435   2.072   4.277   4.959 -0.6804  0.6637  0.1681
 4325SOL     OW24436   1.767   1.037  11.137  0.2662  0.1268 -0.1863
 4325SOL    HW124437   1.698   0.999  11.084  1.2355  0.9121 -1.9923
 4325SOL    HW224438   1.835   1.047  11.070  0.8205  0.2544  0.3923
 4326SOL     OW24439   0.141   2.475   1.469  0.0659  0.1712 -0.8498
 4326SOL    HW124440   0.202   2.480   1.396  2.7766  2.0709  1.5248
 4326SOL    HW224441   0.080   2.544   1.443 -0.3715 -0.4813 -1.5402
 4327SOL     OW24442   3.679   1.135   0.527 -0.4649 -0.2639  0.3183
 4327SOL    HW124443   3.658   1.054   0.479  1.1667 -1.1477  1.1198
 4327SOL    HW224444   3.662   1.200   0.458 -0.1045 -0.9304 -0.3987
 4328SOL     OW24445   3.636   1.498   4.263  0.2063  0.1212  0.0249
 4328SOL    HW124446   3.718   1.449   4.266 -1.0010 -1.7654  1.7954
 4328SOL    HW224447   3.669   1.588   4.271  2.6074 -0.8200  0.5992
 4329SOL     OW24448   0.352   0.808   7.943  0.0460  0.3772  0.1760
 4329SOL    HW124449   0.447   0.812   7.948  0.1265  0.0154 -1.1637
 4329SOL    HW224450   0.336   0.901   7.929 -1.1840  0.1673  0.1740
 4330SOL     OW24451   1.490   4.325   7.741 -0.4710 -0.1412  0.1592
 4330SOL    HW124452   1.463   4.373   7.820  3.6482  0.9402  0.9140
 4330SOL    HW224453   1.487   4.240   7.784 -2.6518  0.3639  1.0431
 4331SOL     OW24454   2.562   1.311   0.589  0.0645  0.0906  0.7075
 4331SOL    HW124455   2.494   1.288   0.525 -0.1917  0.2786  0.9134
 4331SOL    HW224456   2.511   1.389   0.612 -2.2956 -1.2510  0.0528
 4332SOL     OW24457   3.994   2.737   5.416 -0.2421  0.2126  0.8724
 4332SOL    HW124458   4.038   2.659   5.380  2.1954  1.2370  1.6382
 4332SOL    HW224459   4.028   2.803   5.356 -0.9691  0.3721  0.6347
 4333SOL     OW24460   3.763   3.765   9.300  0.8888  0.0587 -0.3984
 4333SOL    HW124461   3.699   3.737   9.235 -2.2175  2.3132  1.7225
 4333SOL    HW224462   3.841   3.714   9.278 -0.2238 -1.6101 -0.4141
 4334SOL     OW24463   0.314   0.692  12.904 -0.1228 -0.4870 -0.4223
 4334SOL    HW124464   0.245   0.753  12.878 -0.2205 -1.5923 -2.7657
 4334SOL    HW224465   0.363   0.760  12.951 -1.1744 -0.5245  0.7431
 4335SOL     OW24466   4.636   2.653   2.739  0.2395  0.0640 -0.5995
 4335SOL    HW124467   4.630   2.681   2.648  0.6701 -1.6678 -1.1569
 4335SOL    HW224468   4.553   2.690   2.772 -0.0548  1.1414 -2.5507
 4336SOL     OW24469   2.269   1.870   6.323 -0.3479 -0.6720 -0.0762
 4336SOL    HW124470   2.349   1.868   6.271 -1.5211  0.1156 -1.9039
 4336SOL    HW224471   2.264   1.965   6.316  1.1227 -0.5583  0.5125
 4337SOL     OW24472   4.545   2.616   4.676 -0.0957  0.2483  0.0732
 4337SOL    HW124473   4.573   2.546   4.734 -2.0631 -1.1846 -0.6981
 4337SOL    HW224474   4.457   2.628   4.712 -0.2372  0.8190 -0.4559
 4338SOL     OW24475   3.407   2.732   5.996 -0.2439  0.6852  0.6793
 4338SOL    HW124476   3.364   2.770   5.920  0.4263 -1.6216 -0.8274
 4338SOL    HW224477   3.491   2.703   5.959  0.0468 -0.1869  2.0306
 4339SOL     OW24478   1.442   0.951  11.157  0.0321 -0.5244  0.3868
 4339SOL    HW124479   1.450   0.864  11.197  1.2543 -0.3601  0.5224
 4339SOL    HW224480   1.518   0.952  11.098 -0.1280 -1.6779  0.1567
 4340SOL     OW24481   0.764   3.439  10.549 -0.1794 -0.1270  0.3859
 4340SOL    HW124482   0.723   3.451  10.635  1.6134  2.4878  0.8637
 4340SOL    HW224483   0.763   3.344  10.543  0.7438 -0.0146 -1.5446
 4341SOL     OW24484   0.730   1.174  14.631 -0.0503 -0.1207  0.2382
 4341SOL    HW124485   0.646   1.198  14.671 -0.1824 -0.3529  0.1022
 4341SOL    HW224486   0.782   1.192  14.710  0.5819 -0.3202 -0.1352
 4342SOL     OW24487   3.174   2.282   4.053  0.2724 -0.7437 -0.1009
 4342SOL    HW124488   3.183   2.187   4.054 -0.3241 -0.7929  0.6154
 4342SOL    HW224489   3.222   2.296   3.971 -1.7922 -0.0706 -1.2048
 4343SOL     OW24490   3.567   4.122   1.089  0.5881  0.5834 -0.0261
 4343SOL    HW124491   3.629   4.163   1.029  0.4065  0.5414 -0.2429
 4343SOL    HW224492   3.528   4.066   1.021  1.1174 -0.0360  0.1761
 4344SOL     OW24493   4.573   1.203   5.062  0.0316  0.6320  0.7804
 4344SOL    HW124494   4.513   1.136   5.096 -0.0628 -0.0745 -0.7868
 4344SOL    HW224495   4.529   1.279   5.101  0.0930  1.1437 -0.1453
 4345SOL     OW24496   2.619   2.851   7.691  0.1374 -0.4450 -0.1535
 4345SOL    HW124497   2.645   2.941   7.676 -0.0508 -0.2201  0.8764
 4345SOL    HW224498   2.710   2.823   7.693  0.2974  0.0492 -0.5485
 4346SOL     OW24499   3.706   2.725   4.011  0.0614 -0.7865 -0.0798
 4346SOL    HW124500   3.784   2.780   4.019 -1.2950  0.9838  0.8408
 4346SOL    HW224501   3.641   2.774   4.061  1.6659 -1.1017  2.3370
 4347SOL     OW24502   3.993   3.533   8.256  0.3059  0.8269  0.3441
 4347SOL    HW124503   4.017   3.618   8.219 -1.8400  1.3419  0.0902
 4347SOL    HW224504   3.912   3.524   8.205 -1.1495  0.0283  2.7542
 4348SOL     OW24505   2.099   1.889   2.813 -0.2369  0.2759  0.4536
 4348SOL    HW124506   2.175   1.857   2.861 -1.3304 -2.5926  0.3009
 4348SOL    HW224507   2.127   1.980   2.806  0.0176  0.1850  0.3213
 4349SOL     OW24508   2.261   3.485   3.140  0.2784 -0.1388  1.0674
 4349SOL    HW124509   2.297   3.499   3.053  0.7464 -1.6539  1.0143
 4349SOL    HW224510   2.288   3.567   3.181  3.2655 -0.4744 -0.2857
 4350SOL     OW24511   1.224   0.745   2.751 -0.9758  0.1268 -0.5609
 4350SOL    HW124512   1.170   0.688   2.805 -0.1835  0.3835  0.5159
 4350SOL    HW224513   1.308   0.700   2.762  0.2072  2.5004  0.1084
 4351SOL     OW24514   2.468   1.251   1.719  0.1247  0.1389 -1.1400
 4351SOL    HW124515   2.511   1.218   1.640 -0.8316 -0.4085 -1.4299
 4351SOL    HW224516   2.529   1.223   1.786 -2.7676 -3.8000 -0.1791
 4352SOL     OW24517   1.927   3.905   8.456 -0.2804  0.1911  0.2868
 4352SOL    HW124518   1.957   3.850   8.528  0.1668 -0.2925 -0.2610
 4352SOL    HW224519   1.977   3.986   8.465  0.9207 -0.4735 -0.3430
 4353SOL     OW24520   0.437   0.417   4.482  0.2238 -0.1602 -0.2081
 4353SOL    HW124521   0.391   0.432   4.565  2.3297 -0.5649  1.0315
 4353SOL    HW224522   0.368   0.380   4.427  0.2649 -0.3107 -0.1592
 4354SOL     OW24523   4.383   4.010   9.027 -0.3689 -0.7095 -0.3239
 4354SOL    HW124524   4.329   4.067   9.081  0.3777 -0.4613  0.1604
 4354SOL    HW224525   4.386   4.056   8.943 -1.8559  1.2694  0.7100
 4355SOL     OW24526   1.233   0.969   6.922  0.2765  0.4139 -0.2162
 4355SOL    HW124527   1.219   1.057   6.886  0.1244  0.0248 -1.1108
 4355SOL    HW224528   1.254   0.915   6.847  0.3893  1.9405 -1.2977
 4356SOL     OW24529   0.320   0.203   2.686 -0.4575  0.2263 -0.0716
 4356SOL    HW124530   0.363   0.125   2.722 -0.0229  0.4326 -0.1448
 4356SOL    HW224531   0.276   0.217   2.770  0.5663 -4.1857  1.2373
 4357SOL     OW24532   2.434   4.235  11.438 -0.3835 -0.2159 -0.1402
 4357SOL    HW124533   2.367   4.187  11.487 -1.5308  3.4223  1.8911
 4357SOL    HW224534   2.387   4.314  11.410  0.1235 -0.4159 -1.5471
 4358SOL     OW24535   1.510   0.609   6.659  0.3967  0.4482 -0.7291
 4358SOL    HW124536   1.553   0.663   6.725 -0.8209 -2.0254  2.1143
 4358SOL    HW224537   1.494   0.524   6.700  1.1716  0.2564 -0.8210
 4359SOL     OW24538   3.551   2.877   4.162 -0.2161 -0.3182 -0.1082
 4359SOL    HW124539   3.534   2.941   4.092 -1.7161  1.0958  1.5598
 4359SOL    HW224540   3.548   2.930   4.242 -2.0175 -2.4973  1.2660
 4360SOL     OW24541   0.726   1.780   3.894  0.1000 -0.9066 -0.2686
 4360SOL    HW124542   0.646   1.784   3.840 -0.3769 -0.1957  0.4810
 4360SOL    HW224543   0.711   1.690   3.921 -1.6054 -1.0563 -1.6976
 4361SOL     OW24544   2.406   1.995   0.627 -0.0765 -0.6260  0.2933
 4361SOL    HW124545   2.345   2.068   0.637 -0.1947 -0.6699 -0.0956
 4361SOL    HW224546   2.414   1.964   0.718  0.6140 -0.5242  0.2607
 4362SOL     OW24547   0.735   2.147   3.115 -0.1214 -0.2896  0.1143
 4362SOL    HW124548   0.651   2.178   3.149 -0.7348  1.2261 -2.8449
 4362SOL    HW224549   0.716   2.053   3.116 -1.1042 -0.0887  1.1666
 4363SOL     OW24550   3.412   1.384  10.968  0.0368 -0.2621  0.5462
 4363SOL    HW124551   3.492   1.379  10.916 -0.6913 -2.1859 -0.3855
 4363SOL    HW224552   3.372   1.448  10.909  1.0905  1.0567  1.2644
 4364SOL     OW24553   0.599   1.092   8.441 -1.0577  0.3711  0.2674
 4364SOL    HW124554   0.666   1.127   8.501 -1.5042  0.0212  0.9723
 4364SOL    HW224555   0.558   1.170   8.406 -1.7988  0.7179  1.8902
 4365SOL     OW24556   3.501   4.683  17.339 -0.2531 -0.3471 -0.1730
 4365SOL    HW124557   3.531   4.595  17.314  2.0942  0.4259 -0.0289
 4365SOL    HW224558   3.462   4.679  17.426  3.2994  0.4042  1.4638
 4366SOL     OW24559   3.824   2.599  13.922  0.0054  0.5014 -0.1048
 4366SOL    HW124560   3.762   2.630  13.855  1.1379  1.6113 -0.6555
 4366SOL    HW224561   3.778   2.560  13.996  0.9660  1.3016  0.9208
 4367SOL     OW24562   1.399   1.467   4.082  0.3045 -0.0874  0.1621
 4367SOL    HW124563   1.353   1.516   4.014 -1.4786 -1.1575  0.6130
 4367SOL    HW224564   1.476   1.524   4.091 -0.5283  0.8988  0.9881
 4368SOL     OW24565   1.179   1.724   7.671  0.1313  0.4377  0.3652
 4368SOL    HW124566   1.094   1.747   7.707 -0.1387  0.3999 -0.2530
 4368SOL    HW224567   1.219   1.702   7.755  0.0963 -0.7713  0.0567
 4369SOL     OW24568   4.667   0.105  17.571  0.3230  0.3515  0.4822
 4369SOL    HW124569   0.017   0.057  17.607 -0.4559 -1.8309 -0.7622
 4369SOL    HW224570   4.644   0.166  17.640 -0.9500  1.1472 -0.6339
 4370SOL     OW24571   0.172   0.725   6.033 -0.1301  0.3290  0.1599
 4370SOL    HW124572   0.154   0.778   6.111  0.5851 -1.1199  1.3295
 4370SOL    HW224573   0.182   0.638   6.073 -0.8254  0.2278  0.1049
 4371SOL     OW24574   3.479   4.149  13.321 -0.1087  0.0556  0.2712
 4371SOL    HW124575   3.541   4.081  13.348 -0.1684 -1.3552 -3.0887
 4371SOL    HW224576   3.408   4.129  13.382  0.6578  0.0734  1.1691
 4372SOL     OW24577   2.313   0.712   7.673  0.4379 -0.0968 -0.4986
 4372SOL    HW124578   2.346   0.766   7.602 -0.0213 -0.5827 -1.0877
 4372SOL    HW224579   2.387   0.711   7.733 -0.1555 -2.1551  0.2142
 4373SOL     OW24580   1.711   2.330   8.538  0.1396  0.5400  0.2568
 4373SOL    HW124581   1.674   2.329   8.626  0.9924 -1.2813  0.5793
 4373SOL    HW224582   1.755   2.246   8.533  0.3759  0.6700  0.1848
 4374SOL     OW24583   2.083   3.689   4.015  0.1619 -0.1487 -0.1296
 4374SOL    HW124584   2.056   3.781   4.017 -0.2771 -0.2461 -1.7015
 4374SOL    HW224585   2.169   3.699   3.975  0.1820 -0.9106 -0.2776
 4375SOL     OW24586   0.720   0.350  11.794 -0.0088  0.1678  0.0605
 4375SOL    HW124587   0.746   0.280  11.855  1.4657 -0.4825 -1.3371
 4375SOL    HW224588   0.808   0.386  11.782  1.9615 -3.9346  2.3136
 4376SOL     OW24589   3.679   4.543  17.047  0.2134 -0.1998  0.3554
 4376SOL    HW124590   3.719   4.627  17.072 -0.2219 -0.6660  2.6193
 4376SOL    HW224591   3.609   4.570  16.988  0.2940  1.7291  1.1223
 4377SOL     OW24592   1.911   2.427   0.417 -0.3699 -1.0246 -0.0442
 4377SOL    HW124593   1.865   2.438   0.501  0.5088  0.1856  0.2923
 4377SOL    HW224594   1.977   2.496   0.407 -0.7926 -0.7216 -0.7403
 4378SOL     OW24595   0.852   1.625   5.305  0.6386  0.1455 -0.3343
 4378SOL    HW124596   0.930   1.621   5.360  0.8465 -0.0704 -0.6432
 4378SOL    HW224597   0.874   1.575   5.227 -2.9322 -0.6176 -0.8594
 4379SOL     OW24598   1.613   4.564  13.502  0.4568  0.5083  0.4328
 4379SOL    HW124599   1.535   4.619  13.508 -0.6640 -1.2250  1.6124
 4379SOL    HW224600   1.564   4.483  13.486 -1.0707  2.0758 -2.7022
 4380SOL     OW24601   3.237   1.788  17.491  0.2445  0.2119 -0.6074
 4380SOL    HW124602   3.299   1.782  17.418 -0.4221 -1.3497 -1.0608
 4380SOL    HW224603   3.239   1.697  17.521 -1.2717  0.8978  1.5818
 4381SOL     OW24604   2.697   3.049   2.455 -0.0743 -0.1306  0.1617
 4381SOL    HW124605   2.684   3.102   2.377 -1.5970  2.2504  2.0489
 4381SOL    HW224606   2.701   3.112   2.527  0.4352  0.3589 -0.2963
 4382SOL     OW24607   0.438   1.559   1.655  0.3219 -0.0131 -0.2620
 4382SOL    HW124608   0.443   1.470   1.690 -0.9422  0.5009  1.2544
 4382SOL    HW224609   0.345   1.582   1.663  0.4650  1.0478 -1.6268
 4383SOL     OW24610   3.997   1.216   6.558 -0.1506  0.3973  0.7932
 4383SOL    HW124611   3.946   1.137   6.575 -0.2535 -0.2018 -2.2615
 4383SOL    HW224612   4.071   1.167   6.522 -0.0448  0.0063  1.5545
 4384SOL     OW24613   3.293   2.310   7.201  0.2761 -0.3112  0.2910
 4384SOL    HW124614   3.361   2.353   7.253  1.3361  0.2796 -1.6035
 4384SOL    HW224615   3.255   2.254   7.269  2.4622  0.4852  2.1736
 4385SOL     OW24616   1.304   4.236  12.557  0.1332  0.7564  0.0634
 4385SOL    HW124617   1.278   4.272  12.642 -0.2126  0.3936  0.1073
 4385SOL    HW224618   1.242   4.277  12.497 -1.0311 -1.2275 -0.0949
 4386SOL     OW24619   3.340   0.859   1.534  0.1690 -0.0899 -0.8769
 4386SOL    HW124620   3.321   0.813   1.615 -2.2521 -1.3459 -2.1646
 4386SOL    HW224621   3.293   0.939   1.559  0.4231 -1.0637  2.7073
 4387SOL     OW24622   3.607   2.310   0.108 -0.2134  0.1888  0.1172
 4387SOL    HW124623   3.621   2.241   0.173 -0.5137 -1.6259 -1.7196
 4387SOL    HW224624   3.513   2.312   0.091 -0.3471 -0.9182  0.7414
 4388SOL     OW24625   2.529   1.923   6.229 -0.4612  0.1772  0.2551
 4388SOL    HW124626   2.598   1.989   6.226  0.3245 -0.6987 -0.9455
 4388SOL    HW224627   2.577   1.844   6.204  0.1869  0.6528 -0.0086
 4389SOL     OW24628   0.343   4.148   2.912 -0.2486 -0.3717 -0.3405
 4389SOL    HW124629   0.256   4.188   2.915  0.4931  1.1550  0.2861
 4389SOL    HW224630   0.348   4.106   2.827  0.1092 -0.8023 -0.1086
 4390SOL     OW24631   1.243   4.215   5.981 -0.1854 -0.2475  0.3446
 4390SOL    HW124632   1.185   4.142   5.956  2.1009 -1.5694 -1.0290
 4390SOL    HW224633   1.295   4.214   5.901  2.6385  0.1154  2.2009
 4391SOL     OW24634   0.329   1.974   3.082  0.2103  0.4653  0.1993
 4391SOL    HW124635   0.327   1.965   2.987 -1.3825  1.7886  0.1151
 4391SOL    HW224636   0.324   1.883   3.112 -1.9327  1.4027  2.6531
 4392SOL     OW24637   2.187   3.422   4.588 -0.5471 -0.4298  0.2694
 4392SOL    HW124638   2.237   3.410   4.508 -1.8124 -1.8823 -0.3093
 4392SOL    HW224639   2.260   3.443   4.645 -2.3217 -3.4613  3.6445
 4393SOL     OW24640   0.651   2.161   4.950 -0.8825 -0.4390 -0.1039
 4393SOL    HW124641   0.627   2.221   5.021  0.3895 -2.3511  1.9531
 4393SOL    HW224642   0.626   2.077   4.988  0.3433 -0.0994  1.4724
 4394SOL     OW24643   3.020   2.613   5.129  0.1398  0.1450 -0.3953
 4394SOL    HW124644   2.951   2.547   5.138  0.1275  0.2857  0.6156
 4394SOL    HW224645   3.071   2.574   5.058 -0.7645  1.8738 -2.0137
 4395SOL     OW24646   4.517   3.533   5.760  0.2646 -0.3944 -0.1686
 4395SOL    HW124647   4.495   3.478   5.835 -2.3060 -0.0375 -0.6545
 4395SOL    HW224648   4.494   3.472   5.689  1.7311 -0.4932 -0.5490
 4396SOL     OW24649   1.764   0.793   0.816 -0.8255 -0.2789 -0.2622
 4396SOL    HW124650   1.733   0.881   0.794 -0.0215  0.0813  0.0344
 4396SOL    HW224651   1.781   0.760   0.728  0.1265 -0.5170  0.0108
 4397SOL     OW24652   1.282   3.599   9.433 -0.1852 -0.3520 -0.1561
 4397SOL    HW124653   1.314   3.658   9.365 -0.2444  0.2016  0.2986
 4397SOL    HW224654   1.289   3.511   9.395 -0.2585 -0.4335  0.0186
 4398SOL     OW24655   1.252   1.853   7.436 -0.0595  0.3406  0.0328
 4398SOL    HW124656   1.235   1.771   7.390  2.5305 -0.2488  0.1424
 4398SOL    HW224657   1.268   1.823   7.525 -0.3049 -1.8361 -0.6658
 4399SOL     OW24658   0.219   0.266   7.572  0.2749 -0.1464 -0.0783
 4399SOL    HW124659   0.247   0.300   7.657  1.5518  0.1281 -0.6050
 4399SOL    HW224660   0.132   0.241   7.602  0.6983 -0.2333  1.0680
 4400SOL     OW24661   2.034   0.288  14.454  0.4429 -0.0938 -0.1408
 4400SOL    HW124662   2.103   0.354  14.453  2.3575 -2.1077 -1.5265
 4400SOL    HW224663   1.978   0.324  14.385  0.6078  2.9558  1.3502
 4401SOL     OW24664   3.037   2.722  14.482 -0.4239 -0.1530  0.1532
 4401SOL    HW124665   2.995   2.643  14.448 -1.8954  1.1449 -1.0137
 4401SOL    HW224666   3.124   2.683  14.496 -0.4522 -0.1090  0.4656
 4402SOL     OW24667   0.088   4.165   8.102 -0.1026  0.1819 -0.0004
 4402SOL    HW124668   0.103   4.167   8.197  4.3159  1.8857 -0.7370
 4402SOL    HW224669   0.135   4.243   8.073 -0.3427  0.6371  0.8179
 4403SOL     OW24670   1.413   3.487   2.196  0.7824 -0.2579 -0.3328
 4403SOL    HW124671   1.339   3.432   2.174 -0.5018  1.4585 -0.2576
 4403SOL    HW224672   1.476   3.416   2.206 -1.4283 -2.2667 -0.8122
 4404SOL     OW24673   1.773   3.400   4.595  0.2158  0.1117 -0.5511
 4404SOL    HW124674   1.686   3.362   4.595  0.2453  0.0437 -0.4175
 4404SOL    HW224675   1.829   3.344   4.649 -0.6636 -0.8597 -0.6693
 4405SOL     OW24676   3.337   3.742  14.764 -0.6117 -0.5521  0.7119
 4405SOL    HW124677   3.408   3.798  14.798  0.1523 -1.0999  0.0111
 4405SOL    HW224678   3.361   3.655  14.796  0.5885 -0.0584  1.1565
 4406SOL     OW24679   2.058   0.170  15.679  0.0065 -0.1913 -0.3489
 4406SOL    HW124680   2.019   0.237  15.736  1.2816 -0.0491  0.3400
 4406SOL    HW224681   2.071   0.221  15.599  0.1526  0.2669 -0.0297
 4407SOL     OW24682   2.533   2.837   1.634 -0.8185 -1.0857  0.3862
 4407SOL    HW124683   2.626   2.859   1.640 -1.1878  1.0330 -1.4416
 4407SOL    HW224684   2.519   2.836   1.540  1.4995 -0.8808  0.0426
 4408SOL     OW24685   2.352   4.259   7.123 -0.0190 -0.6832 -0.0686
 4408SOL    HW124686   2.292   4.333   7.135 -1.7097 -2.0577 -0.0730
 4408SOL    HW224687   2.326   4.201   7.194 -0.5396  0.3538  0.5855
 4409SOL     OW24688   4.416   2.793   2.888 -0.1330  0.2518 -0.0360
 4409SOL    HW124689   4.343   2.750   2.844 -0.4713 -0.1572  0.9297
 4409SOL    HW224690   4.435   2.724   2.951  0.6258  0.4449 -0.0510
 4410SOL     OW24691   2.343   0.940   2.739 -1.1149 -0.0210  1.0566
 4410SOL    HW124692   2.407   0.892   2.687 -2.1325 -0.0956 -0.1219
 4410SOL    HW224693   2.290   0.983   2.672 -1.2834 -1.2332  0.4110
 4411SOL     OW24694   3.772   2.324   7.404 -0.4912 -0.2955 -0.2541
 4411SOL    HW124695   3.778   2.403   7.459  1.5265 -1.2847  0.9670
 4411SOL    HW224696   3.863   2.296   7.398  0.1640  1.6152  0.6675
 4412SOL     OW24697   3.837   2.249   1.225  0.2518 -0.1285  0.1605
 4412SOL    HW124698   3.827   2.217   1.136  2.1977 -3.1206  1.0406
 4412SOL    HW224699   3.837   2.342   1.203  0.2913 -0.2069 -0.1620
 4413SOL     OW24700   3.741   0.414   4.108 -0.2140 -0.0329  0.5780
 4413SOL    HW124701   3.796   0.428   4.031 -0.4016  2.4909  0.9055
 4413SOL    HW224702   3.697   0.329   4.099  1.3447 -0.9714  1.7172
 4414SOL     OW24703   3.277   2.277   0.035 -0.2686  0.1121  0.1734
 4414SOL    HW124704   3.271   2.340  17.665 -0.2311  1.3014  1.2074
 4414SOL    HW224705   3.200   2.310   0.081  0.7102  0.5042  1.5674
 4415SOL     OW24706   4.195   1.812   2.828  0.5767  0.8590 -0.1535
 4415SOL    HW124707   4.188   1.830   2.921  2.8576  0.1068  0.1692
 4415SOL    HW224708   4.237   1.891   2.793 -0.3367  1.0291 -0.8757
 4416SOL     OW24709   1.769   4.005   4.209 -0.0160 -0.2584  0.2404
 4416SOL    HW124710   1.756   3.983   4.117  0.2283  0.0605  0.1270
 4416SOL    HW224711   1.865   4.005   4.206 -0.0944 -1.7118 -1.8114
 4417SOL     OW24712   0.773   4.714   9.804  0.5059 -0.2741 -0.3204
 4417SOL    HW124713   0.731   4.630   9.785 -0.4174  0.0959  0.0580
 4417SOL    HW224714   0.866   4.695   9.809  0.6719  0.5266 -0.3055
 4418SOL     OW24715   3.840   0.990   6.604  0.0945  0.0057  0.5221
 4418SOL    HW124716   3.915   0.932   6.613  0.5872  0.6328  0.3974
 4418SOL    HW224717   3.762   0.934   6.602  0.7109 -0.9475  2.6529
 4419SOL     OW24718   0.846   3.554  13.820  0.1529  0.4483  0.1047
 4419SOL    HW124719   0.899   3.476  13.839 -0.1952  0.0627 -0.5109
 4419SOL    HW224720   0.886   3.620  13.876 -0.8818  2.1663 -1.2111
 4420SOL     OW24721   2.433   1.777   0.253  0.0992 -0.1875  0.2491
 4420SOL    HW124722   2.452   1.859   0.206 -0.3362 -0.0806  0.2608
 4420SOL    HW224723   2.364   1.806   0.312  1.6498  1.2885  1.3347
 4421SOL     OW24724   2.864   2.596   3.504  0.2616 -0.4593  1.0406
 4421SOL    HW124725   2.838   2.512   3.468  3.7144 -0.5760 -1.1600
 4421SOL    HW224726   2.778   2.637   3.517 -0.4735 -1.8753  0.6342
 4422SOL     OW24727   1.863   2.880   8.459  0.7503 -0.1732  0.0511
 4422SOL    HW124728   1.957   2.873   8.480  0.7170 -1.5003 -0.2601
 4422SOL    HW224729   1.830   2.819   8.524 -1.0066  0.6001 -0.1285
 4423SOL     OW24730   0.825   3.717   8.787 -0.4155 -0.5302  0.3765
 4423SOL    HW124731   0.850   3.625   8.783 -2.1640 -0.9800 -0.0615
 4423SOL    HW224732   0.731   3.708   8.769 -0.0106 -1.8829 -1.0227
 4424SOL     OW24733   0.346   3.488   3.485  0.3053  0.3778  1.1145
 4424SOL    HW124734   0.325   3.540   3.407 -0.4056 -0.5517  0.6894
 4424SOL    HW224735   0.275   3.510   3.544  0.4274  0.2448  1.3126
 4425SOL     OW24736   3.096   2.153   2.641  0.0870  0.0277 -0.1327
 4425SOL    HW124737   3.051   2.174   2.723 -2.8159 -2.1303 -1.1531
 4425SOL    HW224738   3.030   2.090   2.611 -2.5041  3.9052 -2.5711
 4426SOL     OW24739   1.159   0.701  11.232  0.3069  0.0477  0.2724
 4426SOL    HW124740   1.121   0.760  11.167 -0.8598 -0.9178  0.0787
 4426SOL    HW224741   1.162   0.624  11.175  0.2919  0.2433  0.0050
 4427SOL     OW24742   4.462   2.090  15.236  0.0377 -0.0656 -0.2408
 4427SOL    HW124743   4.482   2.126  15.322 -0.3835  2.4967 -1.2363
 4427SOL    HW224744   4.468   2.170  15.184 -1.8955  0.5490  0.4828
 4428SOL     OW24745   2.404   0.314   7.542  0.1478 -0.2145 -0.1137
 4428SOL    HW124746   2.477   0.286   7.599  0.7354 -0.3281 -0.9192
 4428SOL    HW224747   2.341   0.341   7.609 -0.5933 -2.0454 -0.0930
 4429SOL     OW24748   1.329   1.332   8.345 -0.3002 -0.4568  0.0134
 4429SOL    HW124749   1.246   1.373   8.370  0.9518  1.7723  0.4813
 4429SOL    HW224750   1.306   1.240   8.332  1.5547 -0.7594 -1.0297
 4430SOL     OW24751   4.148   1.604   7.245 -0.0148  0.2969  0.4419
 4430SOL    HW124752   4.230   1.652   7.256 -0.3874  0.6946  1.5419
 4430SOL    HW224753   4.074   1.663   7.227  1.4881  1.8946 -0.4878
 4431SOL     OW24754   1.014   3.564  15.489  0.4311  0.1364  0.0344
 4431SOL    HW124755   1.083   3.629  15.504 -0.6799  1.4557 -0.5379
 4431SOL    HW224756   1.033   3.486  15.541 -3.9049 -0.8465  0.1117
 4432SOL     OW24757   1.218   4.678   8.687  0.6936 -0.0052  0.2500
 4432SOL    HW124758   1.305   4.641   8.668 -0.1672 -2.2028  0.5134
 4432SOL    HW224759   1.237   0.009   8.762  1.6204  0.0236  0.0040
 4433SOL     OW24760   0.467   4.164  17.696  0.4301  0.1489 -0.3688
 4433SOL    HW124761   0.433   4.249  17.667 -1.0798 -0.8814 -1.6391
 4433SOL    HW224762   0.404   4.134   0.059  0.5437  0.8186  0.0573
 4434SOL     OW24763   0.466   2.152   7.455  0.0504  0.0813 -0.2562
 4434SOL    HW124764   0.485   2.192   7.539 -0.1641 -2.1879  0.8765
 4434SOL    HW224765   0.538   2.176   7.397 -0.4415 -1.6856 -1.6197
 4435SOL     OW24766   3.253   0.648   5.523 -0.0761  0.3912  0.0857
 4435SOL    HW124767   3.287   0.734   5.547 -1.6755  1.0036  0.1495
 4435SOL    HW224768   3.199   0.621   5.597  1.3931  1.7732  1.6670
 4436SOL     OW24769   0.898   3.239   8.758  0.1023 -0.3003  0.0466
 4436SOL    HW124770   0.940   3.201   8.681 -1.2598  0.9514 -1.2993
 4436SOL    HW224771   0.932   3.327   8.746  1.0147 -0.9645 -2.1906
 4437SOL     OW24772   1.634   2.573   2.789 -0.4949  0.4370  0.1038
 4437SOL    HW124773   1.549   2.571   2.833 -1.0880 -3.6730 -1.3295
 4437SOL    HW224774   1.615   2.541   2.701  0.9440  0.8867 -0.3706
 4438SOL     OW24775   3.599   2.105  14.899 -0.7091  0.2163 -0.1493
 4438SOL    HW124776   3.548   2.115  14.979 -1.6718  3.2755 -1.1413
 4438SOL    HW224777   3.537   2.060  14.841  0.3803 -2.6776  0.9303
 4439SOL     OW24778   3.510   3.386   5.199 -0.3492 -0.3082 -0.2008
 4439SOL    HW124779   3.458   3.465   5.185  1.8838  0.9874 -1.2903
 4439SOL    HW224780   3.570   3.377   5.124 -0.7651  0.3721 -0.6223
 4440SOL     OW24781   1.103   2.983   4.680  0.5569  0.1640 -0.0760
 4440SOL    HW124782   1.139   3.060   4.636  0.3876  0.5456  0.4502
 4440SOL    HW224783   1.161   2.913   4.650  1.1438  0.2079  0.9785
 4441SOL     OW24784   0.046   4.023   5.676 -0.2740 -0.1043 -0.2582
 4441SOL    HW124785   0.108   4.031   5.748  0.1916  0.9414 -0.7748
 4441SOL    HW224786   4.722   3.944   5.699  2.6681 -2.8376 -3.4196
 4442SOL     OW24787   4.720   0.450   1.308  0.2418 -0.7909  0.1147
 4442SOL    HW124788   0.060   0.393   1.351 -0.9692 -0.6854  2.0876
 4442SOL    HW224789   0.047   0.502   1.247  1.3194  0.1902  1.8725
 4443SOL     OW24790   4.283   3.685   8.352  0.7297 -0.2477  0.1096
 4443SOL    HW124791   4.377   3.665   8.358  0.7394 -0.4998 -0.7998
 4443SOL    HW224792   4.268   3.685   8.446 -1.1674 -0.9984 -0.2066
 4444SOL     OW24793   1.741   3.109   2.340  0.0592  0.8468  0.3032
 4444SOL    HW124794   1.781   3.028   2.307  0.7420  1.5339 -0.5519
 4444SOL    HW224795   1.770   3.095   2.430  0.3084  1.3024  0.2923
 4445SOL     OW24796   2.917   1.144   7.658 -0.5063 -0.0555  0.0168
 4445SOL    HW124797   2.863   1.223   7.659  2.0050  1.6438 -1.5684
 4445SOL    HW224798   2.961   1.142   7.743 -0.3446 -0.5142 -0.0762
 4446SOL     OW24799   1.810   4.248   6.387 -0.2987 -0.1979 -0.1478
 4446SOL    HW124800   1.777   4.336   6.366  0.0652  0.0351  0.2542
 4446SOL    HW224801   1.849   4.270   6.472  0.2361  1.2507 -0.7497
 4447SOL     OW24802   4.282   4.061   5.217  0.9837  0.5210  0.2440
 4447SOL    HW124803   4.361   4.059   5.270  1.6196 -0.1846 -0.7327
 4447SOL    HW224804   4.301   4.117   5.142 -2.8127 -1.6602 -2.3349
 4448SOL     OW24805   2.928   4.723   5.663 -0.2045 -0.2931 -0.4786
 4448SOL    HW124806   2.870   4.686   5.596 -0.4993 -0.7784  0.0379
 4448SOL    HW224807   3.002   0.023   5.608 -0.1544  0.7186  0.0518
 4449SOL     OW24808   3.433   2.643   2.103 -0.1975  0.1825  0.2605
 4449SOL    HW124809   3.488   2.599   2.169  1.3532  1.0237 -0.4652
 4449SOL    HW224810   3.389   2.706   2.159 -0.9398  1.5728 -1.8729
 4450SOL     OW24811   3.893   4.351   0.800  0.0919 -0.4943  0.5954
 4450SOL    HW124812   3.851   4.437   0.809  1.0190 -0.0614  0.7667
 4450SOL    HW224813   3.850   4.296   0.866 -0.2113 -0.1141  0.7176
 4451SOL     OW24814   4.312   4.718  12.715  0.0956  0.1224 -0.8943
 4451SOL    HW124815   4.332   0.085  12.728  0.3047  0.0475 -0.6918
 4451SOL    HW224816   4.250   4.703  12.787  1.1370  0.1137  0.0046
 4452SOL     OW24817   3.728   1.306  11.351  0.3959  0.1350  0.1736
 4452SOL    HW124818   3.734   1.388  11.401 -3.4620  1.3458 -1.3728
 4452SOL    HW224819   3.715   1.342  11.263  1.7208 -1.7338 -0.7950
 4453SOL     OW24820   4.720   4.413   9.084 -0.6461 -0.1624 -0.1519
 4453SOL    HW124821   4.692   4.474   9.016  1.5017 -0.2059 -1.0575
 4453SOL    HW224822   4.642   4.424   9.138  0.4216  2.0310  0.9527
 4454SOL     OW24823   3.091   0.351   1.234  1.1371 -0.0435  0.4792
 4454SOL    HW124824   3.066   0.358   1.326  0.5581 -0.4876  0.3606
 4454SOL    HW224825   3.119   0.440   1.211  0.7693 -0.5428 -1.9968
 4455SOL     OW24826   2.121   2.744   2.705 -0.1207  0.2132  0.3587
 4455SOL    HW124827   2.070   2.682   2.757  0.7749 -0.4313  0.4835
 4455SOL    HW224828   2.209   2.733   2.742 -0.5222 -0.4744  1.0988
 4456SOL     OW24829   2.459   1.590   8.114 -0.0677  0.2733 -0.5154
 4456SOL    HW124830   2.498   1.506   8.138 -0.4317 -0.2775 -1.8345
 4456SOL    HW224831   2.373   1.572   8.151  0.6010 -0.6831  0.5637
 4457SOL     OW24832   4.027   1.341   0.256 -0.0291 -0.1304  0.0904
 4457SOL    HW124833   4.064   1.325   0.169 -0.6432 -3.6084  0.4795
 4457SOL    HW224834   4.086   1.296   0.317 -1.2812 -0.2368  1.2074
 4458SOL     OW24835   3.063   1.954  15.096 -0.1906 -0.5299 -0.1439
 4458SOL    HW124836   2.986   1.905  15.067  0.2804 -0.6220 -1.2556
 4458SOL    HW224837   3.117   1.878  15.119  0.0471 -0.0143  0.9924
 4459SOL     OW24838   1.329   0.045   4.968 -0.1369  0.1589 -0.2776
 4459SOL    HW124839   1.291   0.037   5.056 -2.8141  0.2451 -1.4421
 4459SOL    HW224840   1.282   0.119   4.930  2.1042  1.2167 -0.9479
 4460SOL     OW24841   4.470   3.209   4.449  0.3607 -0.0451 -0.1035
 4460SOL    HW124842   4.539   3.184   4.388  2.9768 -0.3853  2.9643
 4460SOL    HW224843   4.521   3.273   4.498 -2.6250  2.3744 -0.1947
 4461SOL     OW24844   4.254   3.629   4.733 -0.5609  0.2053  0.1997
 4461SOL    HW124845   4.274   3.709   4.781  4.5773 -1.8692  1.6052
 4461SOL    HW224846   4.165   3.613   4.765 -0.6236 -0.4394 -0.2770
 4462SOL     OW24847   1.833   1.606   0.754  0.0311  0.3359 -0.3701
 4462SOL    HW124848   1.903   1.568   0.806 -0.6251  0.3668  0.5371
 4462SOL    HW224849   1.768   1.558   0.805 -0.8987  0.8300 -1.0907
 4463SOL     OW24850   2.201   0.193   9.281 -0.1170 -0.0459  0.2054
 4463SOL    HW124851   2.120   0.162   9.240 -1.5801  2.5398  1.1314
 4463SOL    HW224852   2.202   0.149   9.366 -0.4523  1.7726  1.1278
 4464SOL     OW24853   1.159   0.550   8.710  0.1366  0.4468  0.1228
 4464SOL    HW124854   1.235   0.607   8.698  0.4724  0.3180  1.7059
 4464SOL    HW224855   1.104   0.617   8.751 -1.4128 -0.7103 -0.0390
 4465SOL     OW24856   1.237   2.787  13.933  0.1200  0.1394  0.0934
 4465SOL    HW124857   1.158   2.796  13.879 -0.4465 -1.2214  0.7107
 4465SOL    HW224858   1.275   2.875  13.925 -0.7719  0.5125 -0.1394
 4466SOL     OW24859   3.681   2.632   2.266 -0.1260 -0.4006  0.3078
 4466SOL    HW124860   3.775   2.642   2.258 -0.0804  0.3747  1.7617
 4466SOL    HW224861   3.669   2.657   2.358 -0.4397 -0.3850  0.2629
 4467SOL     OW24862   0.173   3.775  15.951  0.6528 -0.1355 -0.1922
 4467SOL    HW124863   0.194   3.859  15.911 -1.6435  0.9432  0.8247
 4467SOL    HW224864   0.236   3.778  16.023  2.0384 -2.2250 -1.3231
 4468SOL     OW24865   1.781   3.750   2.561 -0.1802  0.3227 -0.4913
 4468SOL    HW124866   1.766   3.708   2.477 -1.9248 -0.1929  0.0904
 4468SOL    HW224867   1.877   3.756   2.558 -0.0215 -2.2667 -0.3658
 4469SOL     OW24868   2.218   0.454   7.672 -0.1200  0.4311  0.0168
 4469SOL    HW124869   2.266   0.537   7.673 -2.3298  1.7261  0.3327
 4469SOL    HW224870   2.146   0.477   7.732 -0.6198 -0.4505 -0.2479
 4470SOL     OW24871   2.443   3.068  13.005  0.0517 -0.1052 -0.3341
 4470SOL    HW124872   2.425   3.088  13.097 -1.6792 -0.7994 -0.5263
 4470SOL    HW224873   2.360   3.100  12.968  1.1485  2.6621 -0.3941
 4471SOL     OW24874   1.814   3.560   9.305  0.1180  0.0660  0.6736
 4471SOL    HW124875   1.867   3.483   9.324  1.4996  1.0766  0.8690
 4471SOL    HW224876   1.795   3.593   9.393 -0.6359  2.5763 -0.4338
 4472SOL     OW24877   4.299   2.223   6.196  0.1031  0.7222 -0.1447
 4472SOL    HW124878   4.259   2.309   6.212 -0.4283  0.9537 -2.7775
 4472SOL    HW224879   4.308   2.194   6.287 -2.7108  0.1827 -0.0386
 4473SOL     OW24880   0.063   1.751   7.435 -0.4455 -0.1658 -0.3042
 4473SOL    HW124881   0.141   1.702   7.461  0.2109  0.7533 -0.5521
 4473SOL    HW224882   0.098   1.838   7.454  0.2515 -0.5493  0.1454
 4474SOL     OW24883   4.015   0.384   6.085  0.3068  0.5051  0.1986
 4474SOL    HW124884   4.017   0.289   6.073 -0.4502  0.8346 -2.4481
 4474SOL    HW224885   3.975   0.392   5.999 -2.8876 -2.2819  1.4207
 4475SOL     OW24886   1.360   3.280   5.010  0.1105 -0.0483 -0.2270
 4475SOL    HW124887   1.345   3.362   4.964 -1.4991  1.9747  3.9478
 4475SOL    HW224888   1.282   3.230   4.987 -0.8034  0.7516  1.1460
 4476SOL     OW24889   2.709   3.570   8.593 -0.3996  0.4928  0.0316
 4476SOL    HW124890   2.697   3.500   8.657 -0.3346 -1.5747 -2.2511
 4476SOL    HW224891   2.650   3.557   8.519  0.6999 -1.1792 -0.5404
 4477SOL     OW24892   3.335   0.347   1.417  0.0627 -0.1189 -0.1715
 4477SOL    HW124893   3.287   0.321   1.339 -1.3974 -1.1604  1.0767
 4477SOL    HW224894   3.267   0.338   1.483 -0.7561  1.0733 -0.8527
 4478SOL     OW24895   4.111   4.213   5.690  0.4248  0.4655 -0.1769
 4478SOL    HW124896   4.081   4.196   5.779  1.7081 -0.4799  0.0784
 4478SOL    HW224897   4.200   4.177   5.689  0.0478 -0.4572 -1.8980
 4479SOL     OW24898   2.050   2.892   3.715  0.4100  0.2633 -0.2238
 4479SOL    HW124899   1.995   2.833   3.766 -0.6192  0.9237 -0.5755
 4479SOL    HW224900   2.122   2.831   3.699  1.0175  0.4506  1.7749
 4480SOL     OW24901   1.618   2.216  11.003 -0.3788  0.2356  0.5008
 4480SOL    HW124902   1.530   2.219  11.040 -1.0337  0.6559 -1.0872
 4480SOL    HW224903   1.675   2.226  11.080  0.0214 -2.2521  0.5141
 4481SOL     OW24904   3.256   3.202   7.537 -0.6196 -0.1759 -0.0560
 4481SOL    HW124905   3.237   3.131   7.476 -1.9222  0.3169 -0.2362
 4481SOL    HW224906   3.235   3.273   7.476  0.1812 -0.0764 -0.2171
 4482SOL     OW24907   1.782   4.223   1.986 -0.3089 -0.1463  0.2113
 4482SOL    HW124908   1.868   4.186   2.008 -0.4461 -0.6408 -0.0931
 4482SOL    HW224909   1.773   4.207   1.892 -1.4438 -1.2477  0.5095
 4483SOL     OW24910   2.858   0.084   8.863  0.0468  0.4746 -0.0789
 4483SOL    HW124911   2.828   0.026   8.793  2.0141  1.1557 -1.4606
 4483SOL    HW224912   2.947   0.049   8.866  0.2200  0.7978 -1.5612
 4484SOL     OW24913   4.132   4.042   6.386 -0.0573 -0.2882 -0.2918
 4484SOL    HW124914   4.138   3.949   6.361  0.1533 -0.2955 -0.2138
 4484SOL    HW224915   4.222   4.073   6.374  0.3993 -0.8511  1.6164
 4485SOL     OW24916   0.237   4.091  16.315 -0.0216  0.3494 -0.2871
 4485SOL    HW124917   0.294   4.167  16.308 -0.3045  0.8724  3.1722
 4485SOL    HW224918   0.258   4.061  16.404 -1.2270  2.7914  0.8181
 4486SOL     OW24919   3.062   2.683  17.507  0.0109  0.2104 -0.1083
 4486SOL    HW124920   3.008   2.640  17.441 -0.9570  1.6082 -0.2078
 4486SOL    HW224921   3.095   2.752  17.449 -0.9003  0.5456 -0.2197
 4487SOL     OW24922   1.584   0.373   4.202 -0.3088  0.4957  0.3268
 4487SOL    HW124923   1.578   0.466   4.185  0.5151  0.6618  0.8956
 4487SOL    HW224924   1.652   0.346   4.140 -1.1175 -1.7486  0.4133
 4488SOL     OW24925   3.377   2.216   4.664 -0.1112 -0.1993  0.1103
 4488SOL    HW124926   3.451   2.182   4.614 -0.3024 -0.1236 -0.2261
 4488SOL    HW224927   3.306   2.228   4.601 -1.1545  0.8747  1.4802
 4489SOL     OW24928   3.413   2.846   8.552  0.2997 -0.7712 -0.1178
 4489SOL    HW124929   3.481   2.888   8.605 -1.1294 -0.2199  1.2714
 4489SOL    HW224930   3.390   2.772   8.608  1.3450 -1.9462 -1.2459
 4490SOL     OW24931   2.147   4.518  11.877  0.3690  0.1352 -0.2266
 4490SOL    HW124932   2.066   4.564  11.900  1.8298  2.0625  0.9763
 4490SOL    HW224933   2.205   4.558  11.942 -1.0458 -0.9340  1.6741
 4491SOL     OW24934   0.945   4.409   1.178  0.0148  0.1694 -0.3975
 4491SOL    HW124935   0.890   4.347   1.225  0.4467  1.0809  1.3076
 4491SOL    HW224936   0.984   4.455   1.252  0.2660 -1.5168  0.5118
 4492SOL     OW24937   2.931   3.667  15.334 -0.4571 -0.5072 -0.0301
 4492SOL    HW124938   2.849   3.715  15.325  0.9438  1.7562 -0.8000
 4492SOL    HW224939   2.946   3.642  15.243  0.7245 -0.7602  0.2258
 4493SOL     OW24940   4.642   3.554   5.290 -0.5350  0.1908 -0.1125
 4493SOL    HW124941   4.723   3.548   5.239 -1.1124  2.2074 -1.3024
 4493SOL    HW224942   4.606   3.466   5.280  0.0661 -0.2094  1.3341
 4494SOL     OW24943   4.348   1.832  14.626 -0.1598 -0.4559  0.3684
 4494SOL    HW124944   4.291   1.901  14.660 -0.8894 -0.5833 -0.6173
 4494SOL    HW224945   4.419   1.852  14.687  0.8421  0.5627 -1.1354
 4495SOL     OW24946   3.567   0.182   3.794  0.4665  0.1038  0.6351
 4495SOL    HW124947   3.476   0.173   3.765  1.7923 -2.2340 -2.8691
 4495SOL    HW224948   3.614   0.116   3.742  0.2256 -0.9553  1.7618
 4496SOL     OW24949   0.367   2.695   8.571 -0.3013 -0.8086  0.5319
 4496SOL    HW124950   0.459   2.720   8.580  0.2285 -2.7313  0.5858
 4496SOL    HW224951   0.356   2.633   8.643 -0.4153 -0.6868  0.6210
 4497SOL     OW24952   3.887   1.068   7.800 -0.0665  0.3044 -0.0453
 4497SOL    HW124953   3.874   1.144   7.857  2.1299 -0.4110  1.3921
 4497SOL    HW224954   3.942   1.104   7.730 -0.3869  0.0224 -0.4474
 4498SOL     OW24955   4.289   1.653  13.698 -0.2563  0.2323  0.0128
 4498SOL    HW124956   4.345   1.644  13.775  1.7176 -1.2837 -1.6037
 4498SOL    HW224957   4.220   1.711  13.730 -0.6730  0.7321 -1.7996
 4499SOL     OW24958   1.497   2.176   5.242  0.2955 -0.3480 -0.3040
 4499SOL    HW124959   1.518   2.189   5.149  1.7469 -2.2946 -0.2691
 4499SOL    HW224960   1.528   2.257   5.281 -1.6066 -0.3935  1.2803
 4500SOL     OW24961   4.269   0.567   5.144  0.2102 -0.2206 -0.7286
 4500SOL    HW124962   4.236   0.489   5.099  0.7280 -0.9106  0.1085
 4500SOL    HW224963   4.362   0.549   5.135  0.0277 -2.1085  1.2401
 4501SOL     OW24964   2.432   3.606   5.745 -0.2009  0.3800  0.4725
 4501SOL    HW124965   2.349   3.643   5.774 -0.1419  0.2500  0.8056
 4501SOL    HW224966   2.433   3.619   5.650 -2.2184 -1.3453  0.2261
 4502SOL     OW24967   2.360   2.421   5.212 -0.3270  0.1984 -0.3889
 4502SOL    HW124968   2.383   2.347   5.157 -0.5705  0.6164 -1.0495
 4502SOL    HW224969   2.413   2.407   5.291  0.5121  0.7658 -0.8491
 4503SOL     OW24970   2.548   1.894   3.881  0.1857 -0.2101 -0.0139
 4503SOL    HW124971   2.468   1.890   3.830  0.8765  1.7250 -1.2162
 4503SOL    HW224972   2.592   1.809   3.874  1.1834  0.3339 -0.3428
 4504SOL     OW24973   2.977   4.581   9.404  0.0218  0.1555  0.0227
 4504SOL    HW124974   2.923   4.512   9.442 -0.4842  0.6304  0.1640
 4504SOL    HW224975   2.908   4.629   9.359  0.1072  1.7877  1.6309
 4505SOL     OW24976   3.646   2.482  17.299  0.2010 -0.1883  0.5990
 4505SOL    HW124977   3.706   2.421  17.256 -0.4861  0.4756 -1.3025
 4505SOL    HW224978   3.593   2.417  17.345 -2.7793  1.3362 -0.6464
 4506SOL     OW24979   1.296   2.970   2.158 -0.2319 -0.3455 -0.2168
 4506SOL    HW124980   1.205   2.984   2.134  0.1005  2.0818 -0.0950
 4506SOL    HW224981   1.307   3.019   2.240 -0.8104 -0.2403 -0.2048
 4507SOL     OW24982   2.441   2.412   0.731  0.3203 -0.6300  0.2074
 4507SOL    HW124983   2.397   2.466   0.796  0.9295  0.3181 -0.1780
 4507SOL    HW224984   2.524   2.459   0.744 -0.9605  1.6346  0.1753
 4508SOL     OW24985   1.810   2.187   0.426 -0.5231 -0.4298  0.4675
 4508SOL    HW124986   1.814   2.186   0.521  3.6577 -1.1594  0.2779
 4508SOL    HW224987   1.840   2.277   0.413  1.3959 -1.1415  0.0201
 4509SOL     OW24988   3.610   3.972   6.519  0.4151 -0.2840 -0.0226
 4509SOL    HW124989   3.662   3.897   6.546  0.0070 -0.5447  0.0299
 4509SOL    HW224990   3.666   4.050   6.517  0.3160 -0.2374 -1.5341
 4510SOL     OW24991   4.200   4.423   6.526 -0.7509  0.4651 -0.0091
 4510SOL    HW124992   4.145   4.500   6.513 -1.1717 -0.6053 -4.7848
 4510SOL    HW224993   4.158   4.381   6.600  0.7112 -2.6660 -0.9479
 4511SOL     OW24994   3.817   0.191   2.930 -0.0061  0.1651  0.1480
 4511SOL    HW124995   3.796   0.120   2.989 -1.9045  1.0533  0.5368
 4511SOL    HW224996   3.776   0.162   2.848  0.6404  0.9203 -0.4560
 4512SOL     OW24997   3.913   1.823   3.061  0.2946 -0.0243 -0.1485
 4512SOL    HW124998   3.994   1.853   3.103 -0.7430  0.8833  1.2077
 4512SOL    HW224999   3.898   1.892   2.997  2.9714  0.4932 -0.2311
 4513SOL     OW25000   4.574   0.545   2.574 -0.2169  0.0056 -0.5415
 4513SOL    HW125001   4.516   0.591   2.634  0.8610  0.4326  0.1546
 4513SOL    HW225002   4.613   0.613   2.519 -2.3388  2.0867  0.5396
 4514SOL     OW25003   1.365   1.380   1.175 -0.1085  0.0072 -0.6974
 4514SOL    HW125004   1.449   1.404   1.215 -0.9853  0.4095  0.9202
 4514SOL    HW225005   1.407   1.347   1.095 -1.5389 -1.2203 -0.9441
 4515SOL     OW25006   1.225   0.963   5.566 -0.0696  0.6141 -0.2292
 4515SOL    HW125007   1.174   1.040   5.590 -0.1610 -0.9545  4.5588
 4515SOL    HW225008   1.250   0.988   5.477  0.5569 -1.5863 -0.6873
 4516SOL     OW25009   0.922   1.756   8.213 -0.0979  0.3564 -0.2258
 4516SOL    HW125010   0.917   1.689   8.145  1.2115 -1.8835  1.8609
 4516SOL    HW225011   0.859   1.821   8.184 -0.9634 -0.3344  0.1235
 4517SOL     OW25012   4.308   1.252   2.596 -0.4879 -0.0451  0.0901
 4517SOL    HW125013   4.223   1.295   2.606 -0.8980 -0.6035 -0.9815
 4517SOL    HW225014   4.305   1.240   2.501  1.3996 -1.3220  0.1646
 4518SOL     OW25015   4.591   4.533   1.680 -0.0904  0.8876  0.5529
 4518SOL    HW125016   4.505   4.521   1.639  0.0455  0.2092  0.4713
 4518SOL    HW225017   4.563   4.565   1.766  1.9549 -0.6811  1.7814
 4519SOL     OW25018   2.232   0.905   1.758  0.1467 -0.0586  0.0801
 4519SOL    HW125019   2.139   0.890   1.742  0.4663 -1.0688 -0.8398
 4519SOL    HW225020   2.281   0.823   1.752  0.7607  0.4132 -1.3304
 4520SOL     OW25021   1.871   4.233  14.977 -0.3103 -0.2885  0.3026
 4520SOL    HW125022   1.946   4.288  14.996 -0.8026  1.1173 -1.8175
 4520SOL    HW225023   1.907   4.144  14.977 -1.9252 -0.9586  1.8787
 4521SOL     OW25024   2.224   4.371   8.489  0.1646 -0.2471  0.7196
 4521SOL    HW125025   2.298   4.370   8.428  0.6772 -0.0047  1.3337
 4521SOL    HW225026   2.157   4.423   8.445 -0.0923 -0.9040  0.3397
 4522SOL     OW25027   4.429   4.058  13.237 -0.5570 -0.4159 -0.6120
 4522SOL    HW125028   4.423   4.148  13.269  0.0703 -0.0228 -1.5792
 4522SOL    HW225029   4.372   4.070  13.161  0.7666 -0.2084 -1.5917
 4523SOL     OW25030   2.667   0.133  13.329 -0.2768 -0.3725 -0.0445
 4523SOL    HW125031   2.693   0.056  13.279 -1.6558 -1.2844  0.6588
 4523SOL    HW225032   2.576   0.114  13.353  0.0947 -0.1844  1.5164
 4524SOL     OW25033   0.415   0.207  14.634 -0.3508 -0.0646  0.2255
 4524SOL    HW125034   0.389   0.151  14.707 -1.1344 -0.6461 -0.5032
 4524SOL    HW225035   0.502   0.170  14.616 -1.6598 -2.6585 -0.7886
 4525SOL     OW25036   0.630   0.535   5.152 -0.3469  0.0513 -0.0376
 4525SOL    HW125037   0.643   0.460   5.211 -0.6573 -0.7469 -1.0002
 4525SOL    HW225038   0.608   0.494   5.069  0.9925  0.9651 -0.8342
 4526SOL     OW25039   3.699   0.453   8.913  0.6006 -0.0242 -0.1458
 4526SOL    HW125040   3.770   0.406   8.870  1.2484  0.5088  0.3438
 4526SOL    HW225041   3.726   0.540   8.882  0.3749  0.5524  1.2788
 4527SOL     OW25042   0.359   1.891   8.518 -0.3200  0.4893 -0.1606
 4527SOL    HW125043   0.315   1.950   8.457 -0.5869 -0.8469 -1.2545
 4527SOL    HW225044   0.449   1.921   8.528 -0.6954  0.9946  1.7277
 4528SOL     OW25045   1.144   2.739  16.306 -0.3355 -0.1258 -0.2921
 4528SOL    HW125046   1.159   2.832  16.322  0.3291 -0.4732  1.0917
 4528SOL    HW225047   1.153   2.721  16.212  0.6828 -2.7891  0.3367
 4529SOL     OW25048   0.703   0.497  16.876  0.4408 -0.3139  0.3583
 4529SOL    HW125049   0.622   0.535  16.909  1.1768  0.8177  0.8784
 4529SOL    HW225050   0.709   0.417  16.927  3.4328 -1.0973 -1.2095
 4530SOL     OW25051   1.104   2.634   8.884  0.2837  0.0667 -0.0278
 4530SOL    HW125052   1.195   2.610   8.866  0.1726 -1.1699  0.9828
 4530SOL    HW225053   1.103   2.726   8.857 -1.7449  0.3651  1.0622
 4531SOL     OW25054   4.248   3.466  14.198  0.2253 -0.2815  0.2185
 4531SOL    HW125055   4.301   3.457  14.119  2.4881 -1.0345  1.8049
 4531SOL    HW225056   4.159   3.493  14.175  0.8794  0.2364 -1.7278
 4532SOL     OW25057   0.122   4.597   4.149  0.2534 -0.1660 -0.1221
 4532SOL    HW125058   0.087   4.686   4.149 -1.3915 -0.8068 -0.2614
 4532SOL    HW225059   0.093   4.564   4.064 -1.0030 -0.8022  0.5477
 4533SOL     OW25060   3.245   1.965   3.923 -0.0626  0.7261  0.1953
 4533SOL    HW125061   3.221   1.873   3.911  0.6664  0.9260 -2.8046
 4533SOL    HW225062   3.306   1.975   3.851 -0.0887 -1.0793 -0.0896
 4534SOL     OW25063   4.721   2.004   8.564 -0.2059  0.6432 -0.4829
 4534SOL    HW125064   4.704   1.910   8.566 -1.0598  0.8021 -0.0057
 4534SOL    HW225065   0.081   2.017   8.523  0.7854  0.4931  1.5119
 4535SOL     OW25066   0.850   3.686  10.520 -0.8883 -0.1022 -0.1321
 4535SOL    HW125067   0.905   3.686  10.598 -0.8966 -0.3831 -0.1265
 4535SOL    HW225068   0.833   3.592  10.516  2.6244 -0.7360 -0.1813
 4536SOL     OW25069   3.770   0.787  10.333  0.1706  0.4582  0.9212
 4536SOL    HW125070   3.710   0.714  10.346  1.2521 -0.3478  1.3507
 4536SOL    HW225071   3.710   0.858  10.355 -1.1132 -0.0029 -1.0597
 4537SOL     OW25072   4.138   3.740  11.403 -0.2423  0.1356  0.5229
 4537SOL    HW125073   4.125   3.819  11.455 -3.1832 -0.7581  1.1466
 4537SOL    HW225074   4.066   3.740  11.340 -2.4294  1.6015  3.0137
 4538SOL     OW25075   3.106   0.314  11.488  0.3367 -0.0758  0.6702
 4538SOL    HW125076   3.143   0.267  11.413 -0.6353  0.6423 -0.2445
 4538SOL    HW225077   3.190   0.325  11.533  0.2546 -1.3472  1.1391
 4539SOL     OW25078   4.423   1.962   5.828 -0.6897  0.3117  0.2104
 4539SOL    HW125079   4.463   2.018   5.894 -0.4357  0.6965 -0.2684
 4539SOL    HW225080   4.480   1.974   5.752 -2.7040 -0.1904 -1.4050
 4540SOL     OW25081   2.906   3.679   5.266 -0.2033  0.6069 -0.0667
 4540SOL    HW125082   2.911   3.766   5.307  3.2690 -0.4464  1.6369
 4540SOL    HW225083   2.953   3.697   5.185 -0.9493  1.2478 -0.3708
 4541SOL     OW25084   0.923   1.430   6.331 -0.2406 -0.2700 -0.0524
 4541SOL    HW125085   0.986   1.406   6.399  0.0088 -3.1496 -1.2889
 4541SOL    HW225086   0.846   1.380   6.357 -0.8483  1.5441  1.5949
 4542SOL     OW25087   2.578   0.020   5.123  0.3267  0.1638 -0.0161
 4542SOL    HW125088   2.551   0.015   5.214 -0.6407  0.3193 -0.2972
 4542SOL    HW225089   2.609   4.655   5.112  0.5720  0.4499 -1.7907
 4543SOL     OW25090   1.045   4.477  15.532 -0.5190 -0.2672  0.1227
 4543SOL    HW125091   1.044   4.527  15.451 -1.4687 -0.1404  0.2123
 4543SOL    HW225092   0.954   4.451  15.545 -0.7021  0.3861  0.1043
 4544SOL     OW25093   1.247   0.650   1.493  0.1541  0.2517  0.3976
 4544SOL    HW125094   1.324   0.596   1.511 -0.0594 -0.1422  0.1296
 4544SOL    HW225095   1.260   0.637   1.399 -0.7641 -1.5088  0.5262
 4545SOL     OW25096   4.341   1.228   1.485 -0.3486  0.3571  0.3039
 4545SOL    HW125097   4.355   1.322   1.476  0.5468  0.2741  0.9024
 4545SOL    HW225098   4.390   1.192   1.411 -1.0208 -1.7764  0.8775
 4546SOL     OW25099   2.244   2.714   4.404 -0.3706 -0.5081  0.3606
 4546SOL    HW125100   2.204   2.776   4.465  0.8808  1.2767 -0.6775
 4546SOL    HW225101   2.232   2.640   4.465  0.3718 -1.9214 -1.2225
 4547SOL     OW25102   2.656   0.701   5.561 -0.3998 -0.2088  0.0947
 4547SOL    HW125103   2.597   0.645   5.611  0.2015 -1.2031 -0.2990
 4547SOL    HW225104   2.722   0.640   5.527 -1.7238 -0.6364 -1.7115
 4548SOL     OW25105   1.206   0.846   7.389 -1.0843  0.0520 -0.8722
 4548SOL    HW125106   1.207   0.881   7.300  0.3070  0.6846 -0.6026
 4548SOL    HW225107   1.297   0.819   7.403 -1.1371  0.7146  0.7141
 4549SOL     OW25108   2.761   0.516   8.651 -0.2845  0.4676  0.3338
 4549SOL    HW125109   2.691   0.551   8.596 -1.3465 -0.8514  0.8489
 4549SOL    HW225110   2.740   0.423   8.649 -0.5264  0.5416 -0.6408
 4550SOL     OW25111   1.963   3.034  11.159  0.0873  0.1439 -0.4805
 4550SOL    HW125112   1.910   2.962  11.192  0.8698 -0.5729 -0.7770
 4550SOL    HW225113   1.972   3.093  11.234  2.9219 -2.4854  1.2098
 4551SOL     OW25114   3.863   3.526   2.654 -0.7174 -0.1084  0.8064
 4551SOL    HW125115   3.790   3.559   2.707 -0.3218  0.1388  1.1900
 4551SOL    HW225116   3.918   3.604   2.655  0.3541 -0.8740  2.0289
 4552SOL     OW25117   1.984   1.113  16.109 -0.7592 -0.5079  0.0781
 4552SOL    HW125118   1.933   1.194  16.106 -0.8153 -0.4610  2.1749
 4552SOL    HW225119   2.013   1.095  16.020 -1.7206  0.9590 -0.5362
 4553SOL     OW25120   2.210   4.688  11.500  0.5019 -0.2056  0.0441
 4553SOL    HW125121   2.273   4.616  11.508  0.7858  0.0110 -0.2370
 4553SOL    HW225122   2.268   0.038  11.494  1.0244 -0.4248  2.3007
 4554SOL     OW25123   0.928   2.925  13.001 -0.0407  0.0927  0.2977
 4554SOL    HW125124   0.871   2.981  12.949  0.4993 -0.3082 -0.7201
 4554SOL    HW225125   1.005   2.953  12.952 -2.2153 -0.4752 -3.4791
 4555SOL     OW25126   0.695   2.685   8.897  0.0316 -0.1253 -0.6150
 4555SOL    HW125127   0.682   2.747   8.824 -0.4629 -0.3596 -0.7253
 4555SOL    HW225128   0.755   2.735   8.952 -1.3427 -3.1861  3.5823
 4556SOL     OW25129   3.607   1.363   8.745 -0.6484  0.3252 -0.2114
 4556SOL    HW125130   3.652   1.313   8.678  0.1775  0.8049 -0.0146
 4556SOL    HW225131   3.678   1.376   8.808 -0.6530 -3.4373  0.5576
 4557SOL     OW25132   1.006   0.037   1.100  0.1194  0.0488  0.5423
 4557SOL    HW125133   0.973   0.127   1.104  2.4237  0.9481 -0.5128
 4557SOL    HW225134   1.101   0.050   1.109  0.0803  2.0877 -1.9477
 4558SOL     OW25135   3.224   1.698   3.862  1.0648  0.1736  0.6886
 4558SOL    HW125136   3.307   1.664   3.828  1.0135  0.9724 -0.2533
 4558SOL    HW225137   3.160   1.640   3.820  0.8572  1.5662 -0.9361
 4559SOL     OW25138   1.388   3.446   1.050  0.2153 -0.0542 -0.1607
 4559SOL    HW125139   1.440   3.426   1.128 -1.4023 -2.8026  0.1963
 4559SOL    HW225140   1.300   3.454   1.086  1.3096 -1.1422  2.6915
 4560SOL     OW25141   0.528   3.548   4.330  0.0937 -0.4869 -0.9958
 4560SOL    HW125142   0.526   3.464   4.283 -2.2535 -0.3996 -1.0553
 4560SOL    HW225143   0.589   3.598   4.277  0.4811  0.4071  0.2821
 4561SOL     OW25144   4.525   2.614   5.738 -0.1407  0.6096 -0.3700
 4561SOL    HW125145   4.461   2.617   5.809  1.3330 -2.9260  1.1284
 4561SOL    HW225146   4.482   2.539   5.695 -1.0708  0.4291  0.8649
 4562SOL     OW25147   4.006   2.385   3.963 -0.0666 -0.1255  0.6026
 4562SOL    HW125148   3.993   2.351   4.052  0.1014  0.8124  0.9816
 4562SOL    HW225149   4.076   2.449   3.979  0.5542 -0.4224 -0.9560
 4563SOL     OW25150   3.907   3.364   4.337  0.3507  0.2635 -0.2703
 4563SOL    HW125151   3.972   3.309   4.293  0.4064  1.4524 -1.6758
 4563SOL    HW225152   3.893   3.320   4.420 -1.1907  0.9259 -0.1788
 4564SOL     OW25153   1.843   2.086  13.668 -0.1317 -0.1403 -0.2195
 4564SOL    HW125154   1.750   2.089  13.690 -0.3564  1.6636 -1.4047
 4564SOL    HW225155   1.827   2.143  13.593 -1.7575 -0.8992 -0.4481
 4565SOL     OW25156   2.388   0.389   1.005 -0.1170 -0.0496 -0.0077
 4565SOL    HW125157   2.426   0.302   1.018 -0.6139 -0.0392  1.5696
 4565SOL    HW225158   2.336   0.388   1.086 -1.0852  2.0294 -0.5860
 4566SOL     OW25159   2.774   2.267   2.582 -0.2440  0.1124  0.0599
 4566SOL    HW125160   2.811   2.220   2.507  0.7143  0.9127  0.0369
 4566SOL    HW225161   2.735   2.336   2.527  0.8897  2.3302  2.0449
 4567SOL     OW25162   2.692   1.848   6.859  0.0627 -0.3893  0.2959
 4567SOL    HW125163   2.696   1.941   6.837 -0.1572 -1.1499 -2.9379
 4567SOL    HW225164   2.663   1.848   6.950  0.0416 -0.6179  0.2890
 4568SOL     OW25165   0.882   3.265   9.547  0.1447 -0.6235 -0.0454
 4568SOL    HW125166   0.973   3.295   9.544  0.8955 -3.0346 -1.3006
 4568SOL    HW225167   0.872   3.282   9.641  1.0643  0.5824 -0.1652
 4569SOL     OW25168   1.872   0.577   8.564 -0.0858  0.9246 -0.1922
 4569SOL    HW125169   1.794   0.584   8.619 -0.2973 -0.2064 -0.3298
 4569SOL    HW225170   1.898   0.668   8.556  1.3247  0.6549  1.2352
 4570SOL     OW25171   1.762   0.709   6.761  0.1256 -0.3592 -0.7417
 4570SOL    HW125172   1.741   0.790   6.715 -2.7071 -0.7892 -0.2381
 4570SOL    HW225173   1.853   0.710   6.788  0.4012 -0.7072 -1.6470
 4571SOL     OW25174   3.882   1.781   7.870  0.2037  0.7086  0.2662
 4571SOL    HW125175   3.834   1.699   7.881 -0.1365  1.3246  3.1989
 4571SOL    HW225176   3.840   1.826   7.943 -1.3845 -0.9521  0.3778
 4572SOL     OW25177   0.361   4.216   7.528  0.1589  0.2995  0.9186
 4572SOL    HW125178   0.299   4.289   7.537  0.2822  0.6689 -1.3232
 4572SOL    HW225179   0.420   4.231   7.455  1.0431  1.3392  1.8530
 4573SOL     OW25180   0.259   4.299  10.544 -0.6376 -0.3149 -0.6124
 4573SOL    HW125181   0.291   4.389  10.541  0.9803 -0.7910  3.0714
 4573SOL    HW225182   0.173   4.307  10.502 -0.4972 -0.0331 -0.8463
 4574SOL     OW25183   0.087   0.233   2.535  0.2898  0.3444 -0.0831
 4574SOL    HW125184   0.145   0.263   2.465 -0.6347  1.2138 -0.4862
 4574SOL    HW225185   0.152   0.212   2.602 -0.3402 -0.9288  0.1421
 4575SOL     OW25186   3.702   2.092   2.068 -0.4006 -0.1654 -0.3858
 4575SOL    HW125187   3.795   2.071   2.082 -0.2006  0.9370 -0.0310
 4575SOL    HW225188   3.723   2.170   2.018  0.5027  0.2409  0.6164
 4576SOL     OW25189   2.563   3.864   0.911 -0.0874  0.0652 -0.0242
 4576SOL    HW125190   2.639   3.806   0.909 -1.6854 -2.0687  0.4049
 4576SOL    HW225191   2.608   3.948   0.907 -0.0769  0.0673  0.1301
 4577SOL     OW25192   0.638   1.848   3.071 -0.1130  0.3206 -0.4692
 4577SOL    HW125193   0.590   1.788   3.014 -0.8536 -0.1967  0.6957
 4577SOL    HW225194   0.587   1.819   3.146  1.6670  1.5466  1.2406
 4578SOL     OW25195   2.032   4.407   7.117  0.5177  0.6905 -0.0881
 4578SOL    HW125196   1.994   4.390   7.203  0.5416 -2.6828 -0.7386
 4578SOL    HW225197   2.112   4.452   7.141  1.8563 -1.3643 -0.6968
 4579SOL     OW25198   3.079   2.304   2.359  0.1027  0.2039  0.6602
 4579SOL    HW125199   2.995   2.260   2.343  0.5188  0.0313 -1.0574
 4579SOL    HW225200   3.119   2.247   2.425  0.5776  0.7901  0.8747
 4580SOL     OW25201   4.562   2.546   7.950  0.3059 -0.0831  0.0540
 4580SOL    HW125202   4.560   2.566   7.856 -0.5341  0.8439  0.2615
 4580SOL    HW225203   4.613   2.621   7.983 -0.3448  0.3552  0.0627
 4581SOL     OW25204   0.931   2.323   3.503 -0.3081  0.6616  0.5087
 4581SOL    HW125205   0.924   2.418   3.503 -1.1786  0.5933 -0.1860
 4581SOL    HW225206   1.025   2.307   3.516  0.5203  2.9748 -2.8597
 4582SOL     OW25207   1.987   4.429   2.987  0.5592 -0.0904 -0.3963
 4582SOL    HW125208   1.920   4.370   3.022  0.0008  1.3273  0.8834
 4582SOL    HW225209   1.956   4.417   2.897 -1.8211  0.7219  0.3324
 4583SOL     OW25210   4.033   4.006   2.557  0.1530 -0.5310 -0.1986
 4583SOL    HW125211   4.095   4.009   2.484  0.6763 -0.3671  0.2523
 4583SOL    HW225212   4.067   4.080   2.609 -0.4944 -1.0721  0.9908
 4584SOL     OW25213   4.539   3.451  11.509  0.3747  0.0846  0.1842
 4584SOL    HW125214   4.469   3.512  11.486  1.3176  1.7120  1.6061
 4584SOL    HW225215   4.571   3.490  11.590  3.8037 -0.3398 -0.9341
 4585SOL     OW25216   2.794   3.507   2.037  0.6247  0.5997  0.2971
 4585SOL    HW125217   2.822   3.428   2.082  0.4218 -0.2831 -1.1206
 4585SOL    HW225218   2.705   3.475   2.022  0.3548  2.1553 -1.4348
 4586SOL     OW25219   2.018   3.017   4.983  0.4456  0.1464  0.3697
 4586SOL    HW125220   2.004   3.026   5.077  2.5724  0.5809  0.6320
 4586SOL    HW225221   2.099   3.066   4.969 -0.8594  1.6190 -2.2168
 4587SOL     OW25222   1.892   3.474   6.628  0.8687  0.1796 -0.3480
 4587SOL    HW125223   1.865   3.559   6.594  0.5062 -0.0199 -0.5664
 4587SOL    HW225224   1.858   3.412   6.563 -0.6934 -0.2608  0.8757
 4588SOL     OW25225   0.369   1.578   9.435 -0.1115  0.0067  0.2063
 4588SOL    HW125226   0.295   1.552   9.490  0.0995 -1.4434 -0.1896
 4588SOL    HW225227   0.431   1.604   9.504  0.6040 -2.2757  0.4239
 4589SOL     OW25228   0.801   0.984  16.116  0.4357  0.5126 -0.3711
 4589SOL    HW125229   0.852   1.066  16.116 -0.5796  1.1435  0.2032
 4589SOL    HW225230   0.767   0.981  16.206 -2.0816 -0.6362 -1.3772
 4590SOL     OW25231   1.413   0.662   7.451  0.0252 -0.2497  0.0285
 4590SOL    HW125232   1.388   0.641   7.361 -0.6430  0.7992 -0.0339
 4590SOL    HW225233   1.492   0.607   7.452  0.3992  0.2974  0.6947
 4591SOL     OW25234   0.048   1.224   4.887  0.5276 -0.2189 -0.1809
 4591SOL    HW125235   4.715   1.222   4.963 -0.5358 -0.6867 -1.0088
 4591SOL    HW225236   0.111   1.289   4.918 -0.4173  0.5649  0.0873
 4592SOL     OW25237   2.698   1.449   6.357 -0.1736  0.3412 -0.3562
 4592SOL    HW125238   2.786   1.426   6.329  0.2911  1.0808  0.5042
 4592SOL    HW225239   2.659   1.363   6.372 -1.2777  0.8471 -0.2770
 4593SOL     OW25240   3.302   3.861   9.383  0.8166 -1.0312 -0.1920
 4593SOL    HW125241   3.362   3.790   9.361 -0.8307 -2.9801  1.6353
 4593SOL    HW225242   3.253   3.819   9.454  0.2381  1.8812  1.1474
 4594SOL     OW25243   4.160   1.476   8.048  0.3428  0.3103 -0.4816
 4594SOL    HW125244   4.161   1.471   7.953 -0.5875  2.6647 -0.5925
 4594SOL    HW225245   4.248   1.512   8.062  1.0484 -1.6224  0.0625
 4595SOL     OW25246   3.877   3.454   5.415 -0.1879 -0.0728  0.1022
 4595SOL    HW125247   3.939   3.506   5.466 -1.5154  0.2498  1.3584
 4595SOL    HW225248   3.911   3.473   5.327 -2.8086  0.5611 -0.7714
 4596SOL     OW25249   4.642   2.586   2.279 -0.2228 -0.1529  0.3728
 4596SOL    HW125250   4.569   2.553   2.228 -0.8949  1.8926  0.0047
 4596SOL    HW225251   4.659   2.666   2.229 -1.8946 -0.3485 -0.5082
 4597SOL     OW25252   3.492   1.962   6.404 -0.3254  0.4873  0.0976
 4597SOL    HW125253   3.588   1.957   6.408 -0.1510  3.5679 -0.1059
 4597SOL    HW225254   3.470   1.869   6.402  3.2398 -0.3382 -1.3845
 4598SOL     OW25255   0.696   1.043   3.221 -0.3745 -0.1936 -0.0270
 4598SOL    HW125256   0.678   0.965   3.168 -1.3467  1.0464 -1.5357
 4598SOL    HW225257   0.637   1.020   3.292  1.9210  1.4264  2.3847
 4599SOL     OW25258   2.716   4.013   0.242  0.3279  0.2979 -0.4654
 4599SOL    HW125259   2.790   3.999   0.181  1.2730 -1.6347  1.1292
 4599SOL    HW225260   2.640   3.973   0.201  1.3182  0.8507 -2.8562
 4600SOL     OW25261   0.302   4.341  12.933  0.3526 -0.0047 -0.4823
 4600SOL    HW125262   0.393   4.314  12.943  0.6229  1.1333  0.1823
 4600SOL    HW225263   0.292   4.319  12.841 -0.7274 -1.3408 -0.0394
 4601SOL     OW25264   3.547   3.504  16.677  0.0794  0.0610 -0.2852
 4601SOL    HW125265   3.635   3.522  16.710 -1.3977 -0.8756  4.1398
 4601SOL    HW225266   3.545   3.554  16.595  1.6528 -0.0574 -0.4032
 4602SOL     OW25267   1.806   2.316   4.312 -0.3016  0.5095  0.4734
 4602SOL    HW125268   1.783   2.345   4.400 -1.7790  3.5532 -0.9079
 4602SOL    HW225269   1.897   2.288   4.324 -0.0016  1.7350  1.0766
 4603SOL     OW25270   0.058   1.344  16.012 -0.1912 -0.4088 -0.2160
 4603SOL    HW125271   0.047   1.253  16.039 -0.7802 -0.1103  0.5553
 4603SOL    HW225272   0.141   1.320  15.971 -0.3908 -2.2047  0.4263
 4604SOL     OW25273   1.204   3.710   7.141  0.1117 -0.2625  0.2506
 4604SOL    HW125274   1.148   3.782   7.110 -0.9707 -1.9943 -1.8080
 4604SOL    HW225275   1.234   3.737   7.228 -2.8196  0.2806  1.1011
 4605SOL     OW25276   0.748   0.808   5.119 -0.9174  0.0262  0.5694
 4605SOL    HW125277   0.735   0.713   5.119  0.8325 -0.2178  0.8564
 4605SOL    HW225278   0.692   0.845   5.051 -0.3214  2.5793  1.4924
 4606SOL     OW25279   2.184   2.422   5.569 -0.0291 -0.0134 -0.2093
 4606SOL    HW125280   2.204   2.494   5.509  1.5071  0.4482  0.8512
 4606SOL    HW225281   2.243   2.449   5.639  0.5861 -1.3565 -0.2127
 4607SOL     OW25282   0.755   2.835   9.567 -0.5633 -0.9856 -0.0559
 4607SOL    HW125283   0.727   2.902   9.504  1.9623 -2.7496 -3.0549
 4607SOL    HW225284   0.675   2.833   9.620  0.5119  0.2541  1.6294
 4608SOL     OW25285   4.185   2.910  14.660  0.2461 -0.0503  0.7511
 4608SOL    HW125286   4.093   2.904  14.683  0.4297  1.6309  1.9421
 4608SOL    HW225287   4.224   2.834  14.702 -0.4374 -0.2066  1.0986
 4609SOL     OW25288   0.985   0.032   7.257 -0.1514 -0.4480  0.2842
 4609SOL    HW125289   1.028   0.117   7.254  1.6869 -1.3190  1.4495
 4609SOL    HW225290   0.917   0.058   7.319  1.0444 -0.2140  1.4951
 4610SOL     OW25291   1.134   3.992   7.032 -0.1266  0.0141 -0.1682
 4610SOL    HW125292   1.198   4.062   7.049 -0.7601  0.3519  0.8632
 4610SOL    HW225293   1.057   4.048   7.036 -1.6275 -2.1422  1.1458
 4611SOL     OW25294   3.806   1.726   8.838 -0.4512 -0.1565 -0.3984
 4611SOL    HW125295   3.868   1.793   8.867  0.4971 -0.1608 -2.4276
 4611SOL    HW225296   3.730   1.749   8.892 -0.8502 -1.1139 -0.5624
 4612SOL     OW25297   3.338   0.106   4.116  0.1832 -0.3526  0.1702
 4612SOL    HW125298   3.277   0.175   4.089  0.1801 -1.0786 -1.6067
 4612SOL    HW225299   3.294   0.028   4.083 -1.0117  0.7770 -0.9069
 4613SOL     OW25300   0.020   2.796   7.980 -0.1840 -0.4648 -0.2713
 4613SOL    HW125301   0.107   2.758   7.966 -0.5345 -1.0002 -1.0081
 4613SOL    HW225302   0.026   2.885   7.945  1.7075  1.1984  4.2861
 4614SOL     OW25303   1.808   3.088   8.280 -0.1983 -0.7043  0.6340
 4614SOL    HW125304   1.808   3.007   8.331 -0.5191 -0.2178  1.3871
 4614SOL    HW225305   1.898   3.121   8.282  0.7712 -3.4452  1.4976
 4615SOL     OW25306   4.521   1.809   7.435  0.2223  0.0027 -0.2036
 4615SOL    HW125307   4.520   1.899   7.401 -0.0497 -0.0502 -0.3417
 4615SOL    HW225308   4.606   1.794   7.475 -0.6626 -1.2636  1.1953
 4616SOL     OW25309   2.519   1.271   5.000  0.1713  0.2310  0.0063
 4616SOL    HW125310   2.453   1.306   5.060  0.4697 -1.0055  1.0676
 4616SOL    HW225311   2.595   1.269   5.058  0.3787 -0.5815 -0.2903
 4617SOL     OW25312   3.794   4.021   0.775 -0.4641 -0.1144  0.3239
 4617SOL    HW125313   3.749   3.945   0.739 -1.0132  1.1446 -1.6650
 4617SOL    HW225314   3.735   4.057   0.841  1.0334  0.1042  1.5408
 4618SOL     OW25315   0.130   2.197  12.523  0.2139 -0.4488 -0.0136
 4618SOL    HW125316   0.141   2.155  12.438 -0.9126 -0.2378 -0.2668
 4618SOL    HW225317   0.216   2.174  12.558 -0.7446 -0.9348  2.0545
 4619SOL     OW25318   4.266   0.711   3.032 -0.4722  0.2815 -0.0366
 4619SOL    HW125319   4.286   0.792   2.984  2.1399  1.0419  2.3260
 4619SOL    HW225320   4.257   0.646   2.963  0.9441  0.3861 -0.3273
 4620SOL     OW25321   0.851   0.879   9.833 -0.1011  0.2861 -0.5969
 4620SOL    HW125322   0.785   0.948   9.823  1.6089  1.8394 -1.0597
 4620SOL    HW225323   0.879   0.900   9.922 -1.0948  0.0093 -0.2124
 4621SOL     OW25324   3.790   2.264   1.877  0.2708  0.2762 -0.2809
 4621SOL    HW125325   3.884   2.250   1.890  0.3100  0.5635 -0.2658
 4621SOL    HW225326   3.779   2.225   1.790  2.0989  0.5914 -0.6497
 4622SOL     OW25327   4.438   1.732   5.274  0.0589 -0.7204 -0.2146
 4622SOL    HW125328   4.464   1.789   5.346  2.0214 -1.8900 -0.0182
 4622SOL    HW225329   4.477   1.770   5.195 -0.8362 -0.8445 -0.7184
 4623SOL     OW25330   0.738   0.229  16.947 -0.2823 -0.2917 -0.0497
 4623SOL    HW125331   0.666   0.178  16.909  0.0311 -0.9871  0.3017
 4623SOL    HW225332   0.753   0.182  17.029 -0.5500  0.9897  0.7212
 4624SOL     OW25333   3.573   1.709   6.366  0.7396 -0.0089  0.2432
 4624SOL    HW125334   3.643   1.671   6.313 -0.4391 -1.9342  0.0980
 4624SOL    HW225335   3.535   1.633   6.409  0.5345  1.4110  2.5825
 4625SOL     OW25336   1.065   1.622   2.588  0.2219 -0.5042 -0.0264
 4625SOL    HW125337   1.066   1.637   2.683 -2.4595 -0.2511 -0.0138
 4625SOL    HW225338   1.149   1.578   2.575 -0.8848 -2.9138  0.8983
 4626SOL     OW25339   0.285   1.691   3.113  0.1213 -0.0231 -0.8164
 4626SOL    HW125340   0.214   1.627   3.111 -1.8247  2.1729 -2.7114
 4626SOL    HW225341   0.322   1.692   3.201  0.2939  0.5107 -0.8939
 4627SOL     OW25342   3.254   0.439   4.625 -0.2721  0.2834  0.0507
 4627SOL    HW125343   3.161   0.444   4.647  0.0736 -1.7527  2.0184
 4627SOL    HW225344   3.248   0.455   4.531  1.1566  3.7157  0.5696
 4628SOL     OW25345   0.629   4.478   5.143 -0.0713  0.1062 -0.0751
 4628SOL    HW125346   0.633   4.395   5.094  1.9731 -0.3285  0.8254
 4628SOL    HW225347   0.572   4.454   5.216  1.7646 -1.0324  0.9932
 4629SOL     OW25348   1.315   0.844   8.185 -0.3640  0.9706 -0.1803
 4629SOL    HW125349   1.401   0.809   8.161 -0.6895 -0.5055  0.7975
 4629SOL    HW225350   1.277   0.861   8.099  1.7758 -0.7589 -1.4658
 4630SOL     OW25351   4.642   3.573  10.812 -0.3594 -0.2044 -0.0833
 4630SOL    HW125352   4.688   3.580  10.896  0.3606 -0.6250 -0.4442
 4630SOL    HW225353   4.706   3.619  10.758  0.2814 -0.9518  0.0473
 4631SOL     OW25354   0.054   0.436   2.719 -0.4497 -0.1616 -0.4713
 4631SOL    HW125355   0.062   0.365   2.656 -0.3788  0.4333 -1.1261
 4631SOL    HW225356   4.710   0.480   2.670 -0.3677  0.1804 -0.2826
 4632SOL     OW25357   2.183   3.662   3.519  0.0145  0.2862 -0.1738
 4632SOL    HW125358   2.144   3.615   3.593  0.9220  1.0530  0.7771
 4632SOL    HW225359   2.126   3.739   3.517  0.3811  0.5384 -0.9082
 4633SOL     OW25360   0.619   0.675   6.822  0.2503 -0.1804  0.5404
 4633SOL    HW125361   0.622   0.769   6.840 -0.8734  0.0981 -0.7869
 4633SOL    HW225362   0.604   0.637   6.909 -0.5720  1.1137  0.9772
 4634SOL     OW25363   4.253   1.413   5.638 -0.3637  0.3077 -0.0345
 4634SOL    HW125364   4.287   1.331   5.602 -0.2434  0.3210  0.0501
 4634SOL    HW225365   4.194   1.432   5.565  0.0231  0.4031 -0.3172
 4635SOL     OW25366   3.092   0.592   8.972 -0.3750  0.1739 -0.3969
 4635SOL    HW125367   3.180   0.557   8.959 -0.6668  0.2659 -2.5942
 4635SOL    HW225368   3.058   0.528   9.035 -0.1734 -0.2072 -0.6786
 4636SOL     OW25369   2.645   1.850   7.550  0.3136 -0.2613 -0.0958
 4636SOL    HW125370   2.669   1.910   7.621  1.1300  1.1650 -1.5807
 4636SOL    HW225371   2.556   1.881   7.528  0.4657  1.2217  1.3719
 4637SOL     OW25372   0.943   1.681   4.083 -0.0327 -0.2062  0.3919
 4637SOL    HW125373   0.879   1.664   4.014 -0.4721  0.1252  0.7177
 4637SOL    HW225374   0.896   1.746   4.135  2.2206  1.6472  0.1529
 4638SOL     OW25375   2.649   0.070   3.226 -0.3393 -0.2977 -0.0318
 4638SOL    HW125376   2.725   0.018   3.253  0.6834  1.3808  0.3111
 4638SOL    HW225377   2.605   0.078   3.311 -1.7049 -0.7037 -0.7132
 4639SOL     OW25378   0.860   1.662  13.317 -0.1426 -0.0397 -0.2422
 4639SOL    HW125379   0.916   1.701  13.250  0.2750 -0.8381 -0.3580
 4639SOL    HW225380   0.917   1.647  13.392  0.6194 -3.0417 -1.4368
 4640SOL     OW25381   3.701   0.969   8.879  0.0483  0.2900  0.1425
 4640SOL    HW125382   3.768   1.034   8.901  0.7899  0.4423 -2.6206
 4640SOL    HW225383   3.625   1.028   8.880  0.7561  1.2070 -0.5614
 4641SOL     OW25384   1.782   3.606   2.994 -0.3497 -0.1154 -0.1846
 4641SOL    HW125385   1.690   3.588   3.016 -0.8276  1.1200 -1.1833
 4641SOL    HW225386   1.791   3.547   2.919  2.4970  1.0276 -0.7181
 4642SOL     OW25387   0.488   1.527   5.619  0.1108  0.3366 -0.0495
 4642SOL    HW125388   0.515   1.435   5.621  3.1747  1.2091 -1.4950
 4642SOL    HW225389   0.499   1.569   5.704  0.7645 -0.7541  0.4105
 4643SOL     OW25390   4.243   0.359   6.335  0.4944 -0.0638 -0.2510
 4643SOL    HW125391   4.263   0.418   6.263 -0.3921 -0.8985 -1.1746
 4643SOL    HW225392   4.169   0.312   6.298  0.2576  0.3038 -0.2360
 4644SOL     OW25393   2.057   2.509  14.225  0.0707  0.1413  0.6893
 4644SOL    HW125394   2.109   2.494  14.304 -1.4519  1.4358  1.9331
 4644SOL    HW225395   2.117   2.575  14.191  0.3048 -0.4239  0.0095
 4645SOL     OW25396   4.220   3.585  13.215 -0.6041 -0.4569  0.4023
 4645SOL    HW125397   4.301   3.540  13.189 -0.1286  2.0901 -2.4653
 4645SOL    HW225398   4.161   3.514  13.241 -0.8516  0.7117  3.0036
 4646SOL     OW25399   4.209   2.371   6.635  0.2981  0.4762 -0.4233
 4646SOL    HW125400   4.145   2.301   6.652  1.7150 -1.0255 -1.1689
 4646SOL    HW225401   4.171   2.434   6.573  0.0046  2.4575  1.7993
 4647SOL     OW25402   2.627   3.698  12.238  0.1363  0.1044  0.4314
 4647SOL    HW125403   2.578   3.633  12.188  0.4811 -1.0289  1.5474
 4647SOL    HW225404   2.716   3.688  12.203  1.0013 -1.6609  3.1400
 4648SOL     OW25405   4.356   4.262   5.032 -0.1909  0.3833  0.0256
 4648SOL    HW125406   4.445   4.228   5.027 -0.7465 -1.2200  1.0635
 4648SOL    HW225407   4.368   4.353   5.060 -0.9426  1.4002 -2.9583
 4649SOL     OW25408   3.281   3.045   3.408 -0.3212 -0.3129 -0.0321
 4649SOL    HW125409   3.325   3.076   3.329 -0.3904  0.5368  0.2592
 4649SOL    HW225410   3.350   3.021   3.469 -0.2483 -1.1811 -0.4613
 4650SOL     OW25411   1.497   4.098   2.609  0.2433  0.4822 -0.7808
 4650SOL    HW125412   1.449   4.102   2.527  0.3750  0.7818 -0.8426
 4650SOL    HW225413   1.485   4.185   2.646  0.6617  0.5748 -0.8603
 4651SOL     OW25414   0.293   1.989  12.061 -0.0015  0.5527 -0.0496
 4651SOL    HW125415   0.262   1.900  12.048  0.7018  0.6451 -2.3141
 4651SOL    HW225416   0.373   1.984  12.008 -0.0268  1.8231 -0.2223
 4652SOL     OW25417   4.563   2.660   1.845 -0.0264  0.1901 -0.4805
 4652SOL    HW125418   4.626   2.732   1.856  0.5010 -0.0853 -1.8007
 4652SOL    HW225419   4.589   2.596   1.911  2.3593  1.2642 -0.3634
 4653SOL     OW25420   2.119   3.581   6.287  0.2518 -0.3824  0.5939
 4653SOL    HW125421   2.094   3.628   6.367 -1.5828 -2.9219  1.4996
 4653SOL    HW225422   2.143   3.494   6.318  0.4462 -0.7117 -0.5009
 4654SOL     OW25423   2.171   0.497  16.744  0.3548  0.1260 -0.5885
 4654SOL    HW125424   2.184   0.577  16.795 -1.2645 -2.3155  3.6742
 4654SOL    HW225425   2.250   0.496  16.691  1.6305  1.8135  1.2714
 4655SOL     OW25426   3.564   2.944   8.763  0.2110  0.1512 -0.2089
 4655SOL    HW125427   3.609   3.025   8.786  0.3989  0.0199 -0.1097
 4655SOL    HW225428   3.520   2.924   8.846  0.5967 -1.1161 -0.3135
 4656SOL     OW25429   1.096   4.323   0.496 -0.5400  0.1202 -0.4201
 4656SOL    HW125430   1.045   4.358   0.569 -2.0159 -2.6297 -0.1570
 4656SOL    HW225431   1.029   4.334   0.429 -0.6678  0.1000 -0.2942
 4657SOL     OW25432   3.272   0.824   8.484 -0.2995  0.0662 -0.0993
 4657SOL    HW125433   3.365   0.813   8.470  0.0878 -0.3283  2.6398
 4657SOL    HW225434   3.272   0.772   8.565 -0.2472  0.1978 -0.0137
 4658SOL     OW25435   4.226   0.476   5.763 -0.3007 -0.2222 -0.8857
 4658SOL    HW125436   4.258   0.397   5.807 -1.5887 -0.4150 -0.3025
 4658SOL    HW225437   4.312   0.503   5.731  0.7309 -0.9667  1.2474
 4659SOL     OW25438   4.395   2.146   7.616  0.0186  0.4208  0.2899
 4659SOL    HW125439   4.309   2.104   7.624  0.4254 -0.1512  1.6231
 4659SOL    HW225440   4.438   2.134   7.701 -0.1998 -0.4882  0.2728
 4660SOL     OW25441   1.069   4.427   3.195 -0.6045 -0.4614 -0.0730
 4660SOL    HW125442   1.164   4.427   3.184 -0.7107 -1.6293 -1.0528
 4660SOL    HW225443   1.049   4.517   3.222 -0.5898 -0.5268  0.1525
 4661SOL     OW25444   1.441   0.661   8.966  0.5621  0.5226 -0.1998
 4661SOL    HW125445   1.361   0.614   8.989  1.6703 -1.5940 -0.6375
 4661SOL    HW225446   1.506   0.596   8.991 -1.1839 -0.8052  0.8117
 4662SOL     OW25447   4.410   2.357   7.427 -0.4469  0.5178 -0.0037
 4662SOL    HW125448   4.405   2.301   7.505 -2.1610 -0.0484 -0.5380
 4662SOL    HW225449   4.505   2.367   7.417 -0.3744 -1.2479 -0.9817
 4663SOL     OW25450   3.462   1.137   5.606 -0.4576 -0.3912 -0.0758
 4663SOL    HW125451   3.541   1.158   5.654  0.7219  0.5696 -2.4548
 4663SOL    HW225452   3.479   1.201   5.537  2.5820 -1.0057  0.1155
 4664SOL     OW25453   0.250   4.367  13.927 -0.2334 -0.0870  0.0446
 4664SOL    HW125454   0.266   4.337  13.837 -0.1042  0.8481 -0.2447
 4664SOL    HW225455   0.322   4.340  13.983 -1.7280 -0.6299  1.6864
 4665SOL     OW25456   0.425   0.375   4.193 -0.1639 -0.3422 -0.2939
 4665SOL    HW125457   0.487   0.310   4.227  2.1000  1.2127 -1.4216
 4665SOL    HW225458   0.482   0.446   4.163  0.3710 -0.1354  1.2109
 4666SOL     OW25459   4.107   4.074   5.457  0.2175  0.4627  0.3710
 4666SOL    HW125460   4.114   4.128   5.536  1.6515  1.0624 -0.1748
 4666SOL    HW225461   4.173   4.111   5.398 -3.4617  2.4151 -2.4888
 4667SOL     OW25462   1.257   1.559   8.105  0.2659 -0.0882 -0.4792
 4667SOL    HW125463   1.335   1.505   8.116  0.9829  0.6400 -1.9976
 4667SOL    HW225464   1.269   1.604   8.021  0.3326  0.7212 -0.0329
 4668SOL     OW25465   1.903   4.372   4.329 -0.2590 -0.4612  0.2122
 4668SOL    HW125466   1.817   4.370   4.287  0.2223 -0.2045 -0.7625
 4668SOL    HW225467   1.894   4.293   4.383  1.3932 -1.1123 -0.4815
 4669SOL     OW25468   0.326   1.853   3.491 -0.2061 -0.0597 -0.0767
 4669SOL    HW125469   0.248   1.901   3.519 -0.0509  0.0922  0.0907
 4669SOL    HW225470   0.385   1.860   3.565 -1.3339  1.9637  0.6203
 4670SOL     OW25471   1.387   3.064  15.698  0.6146  0.1115 -0.3956
 4670SOL    HW125472   1.433   3.138  15.737  0.5990 -0.7035  1.1838
 4670SOL    HW225473   1.450   3.034  15.633  1.1645  0.9008 -0.2194
 4671SOL     OW25474   1.033   2.030   1.704 -0.3733 -0.0397 -0.0496
 4671SOL    HW125475   0.963   2.086   1.672 -1.0009 -2.1932 -2.4591
 4671SOL    HW225476   1.087   2.094   1.750  0.7106 -0.5339 -0.6120
 4672SOL     OW25477   0.483   2.909   3.020 -0.3825 -0.0912  0.5459
 4672SOL    HW125478   0.414   2.928   2.956 -0.3205  1.2890  0.8746
 4672SOL    HW225479   0.454   2.983   3.074 -1.6331 -0.9108  1.0082
 4673SOL     OW25480   4.642   0.147  16.377 -0.3634  0.4166  0.6215
 4673SOL    HW125481   4.551   0.174  16.366  0.4374  1.5644 -3.4652
 4673SOL    HW225482   4.660   0.090  16.302  0.8189 -1.1425  2.1023
 4674SOL     OW25483   3.606   3.001   4.411  0.5658  0.7056  0.5857
 4674SOL    HW125484   3.655   2.918   4.412  0.7797  0.8114 -1.0625
 4674SOL    HW225485   3.558   3.000   4.493 -1.4253 -1.2220 -0.6041
 4675SOL     OW25486   4.454   3.852   2.221 -0.2755  0.1349 -0.2100
 4675SOL    HW125487   4.500   3.890   2.147  0.1136  0.7918  0.3626
 4675SOL    HW225488   4.505   3.882   2.296  0.4660  2.0510 -1.4791
 4676SOL     OW25489   4.383   0.930  10.686  0.0501  0.2355 -0.5609
 4676SOL    HW125490   4.294   0.960  10.672 -1.6017 -3.6551  1.7329
 4676SOL    HW225491   4.418   0.929  10.597  1.8823 -2.3347  0.1819
 4677SOL     OW25492   1.589   1.824   2.228  0.5249  0.4055 -0.0900
 4677SOL    HW125493   1.664   1.875   2.196 -0.9044  0.5526 -3.1468
 4677SOL    HW225494   1.622   1.734   2.223  1.6909  0.9144 -1.6085
 4678SOL     OW25495   0.865   2.783   8.444  0.4652  0.3662  0.1128
 4678SOL    HW125496   0.931   2.736   8.496 -0.3859 -0.5960  0.3303
 4678SOL    HW225497   0.920   2.784   8.365 -1.6430 -1.0582 -1.3647
 4679SOL     OW25498   2.737   3.490   6.768  0.9622  0.2436  0.5237
 4679SOL    HW125499   2.752   3.531   6.853 -0.9294  0.6848  0.6464
 4679SOL    HW225500   2.676   3.553   6.732  0.7989  0.7139  1.6292
 4680SOL     OW25501   3.341   2.566   8.048 -0.6067 -0.2697  0.2364
 4680SOL    HW125502   3.434   2.544   8.050 -0.3454  0.7725 -0.3913
 4680SOL    HW225503   3.340   2.660   8.031  0.3937 -0.0625  1.3288
 4681SOL     OW25504   2.586   2.160   4.530 -0.2287 -0.0830 -0.0157
 4681SOL    HW125505   2.655   2.209   4.486  0.9913 -0.0103  1.9923
 4681SOL    HW225506   2.627   2.146   4.615  0.1814 -4.0875 -0.8755
 4682SOL     OW25507   1.620   2.802   8.949  0.2023 -0.3305  0.2049
 4682SOL    HW125508   1.591   2.890   8.926  1.4880  0.5574  1.9153
 4682SOL    HW225509   1.597   2.757   8.868 -0.0117 -1.2651  0.7892
 4683SOL     OW25510   1.384   2.594   1.179 -0.2122  0.1505 -0.5792
 4683SOL    HW125511   1.301   2.548   1.169 -1.7637  2.4902  1.5696
 4683SOL    HW225512   1.400   2.608   1.086  0.6491 -1.3423 -0.6555
 4684SOL     OW25513   2.833   3.271   8.549  0.1752  0.2292 -0.0415
 4684SOL    HW125514   2.889   3.304   8.619 -1.4597  2.7963  0.0347
 4684SOL    HW225515   2.747   3.266   8.590 -0.1040 -2.1219 -0.8641
 4685SOL     OW25516   4.131   1.841  16.050  0.4677  0.3299  0.3510
 4685SOL    HW125517   4.218   1.865  16.020  1.2334 -1.8634  0.8406
 4685SOL    HW225518   4.149   1.757  16.091 -0.1997 -0.4467 -0.9456
 4686SOL     OW25519   3.743   4.287   2.418  0.3382  0.3397 -0.0977
 4686SOL    HW125520   3.755   4.195   2.442  0.4889  0.7067  1.2194
 4686SOL    HW225521   3.704   4.292   2.331 -2.0170  0.9224  0.9839
 4687SOL     OW25522   3.098   1.055  11.881 -0.4904 -0.0516 -0.0148
 4687SOL    HW125523   3.012   1.097  11.881  0.7662  2.5077 -0.5017
 4687SOL    HW225524   3.121   1.078  11.971 -2.5330  3.2016 -0.3278
 4688SOL     OW25525   4.669   0.036   6.752 -0.3723  0.0136  0.3971
 4688SOL    HW125526   4.660   0.018   6.658 -0.4063 -1.5590  0.6980
 4688SOL    HW225527   4.607   4.702   6.794  0.0202 -0.1761  0.7061
 4689SOL     OW25528   0.501   1.660   2.934  0.2959  0.2213 -0.5679
 4689SOL    HW125529   0.414   1.635   2.964  1.0475 -2.4974 -0.7170
 4689SOL    HW225530   0.535   1.572   2.918 -0.9527 -0.6686  1.6854
 4690SOL     OW25531   1.226   0.334   3.019 -0.2727 -0.1223  0.2426
 4690SOL    HW125532   1.289   0.353   2.950 -2.0836  2.5329 -0.6928
 4690SOL    HW225533   1.288   0.304   3.085  0.8017 -0.9052 -1.1114
 4691SOL     OW25534   3.209   2.303   4.475  0.6476  0.1960 -0.0258
 4691SOL    HW125535   3.210   2.398   4.474  0.1537  0.2032 -0.6819
 4691SOL    HW225536   3.255   2.295   4.391  2.8442 -0.3360  1.2321
 4692SOL     OW25537   0.875   0.121   4.425  0.0002 -0.1444 -0.2417
 4692SOL    HW125538   0.812   0.189   4.447  0.2914  0.6181 -1.7561
 4692SOL    HW225539   0.824   0.069   4.364  0.8759 -1.0232 -0.2350
 4693SOL     OW25540   3.830   2.813   6.061 -0.2998  0.0012 -0.3890
 4693SOL    HW125541   3.822   2.877   5.991 -2.7654 -0.7878 -0.8312
 4693SOL    HW225542   3.810   2.731   6.015  0.9144 -1.5166  1.7291
 4694SOL     OW25543   3.390   3.090   8.407  0.0772  0.2151 -0.2006
 4694SOL    HW125544   3.375   3.008   8.454  0.8710  0.6646  0.8277
 4694SOL    HW225545   3.303   3.130   8.407  0.2786  0.6445  0.9877
 4695SOL     OW25546   0.636   2.778   4.447 -0.5382 -0.0095  0.8022
 4695SOL    HW125547   0.715   2.781   4.501  0.3787 -1.3452 -0.4770
 4695SOL    HW225548   0.663   2.838   4.378  1.4845 -2.8289 -0.8760
 4696SOL     OW25549   2.841   4.170   9.406  0.0006  0.0690 -0.1561
 4696SOL    HW125550   2.835   4.237   9.475  0.2742  1.0681 -1.1124
 4696SOL    HW225551   2.933   4.185   9.383  0.5947 -3.7326 -0.2927
 4697SOL     OW25552   0.737   0.629   2.995 -0.0187  0.7835  0.4205
 4697SOL    HW125553   0.661   0.684   3.014 -0.7203 -0.0979  0.1581
 4697SOL    HW225554   0.737   0.636   2.900  0.3907  0.2357  0.3785
 4698SOL     OW25555   0.595   0.505   2.163 -0.0495 -0.0615  0.0461
 4698SOL    HW125556   0.501   0.521   2.150  0.2121  1.0032 -0.5723
 4698SOL    HW225557   0.591   0.423   2.211  0.4344  0.8557  1.6382
 4699SOL     OW25558   1.171   0.101   0.808 -0.2166  0.2038 -0.6348
 4699SOL    HW125559   1.138   0.190   0.820 -2.3190 -0.6423 -0.2011
 4699SOL    HW225560   1.197   0.087   0.899 -1.2464 -0.4861 -0.4491
 4700SOL     OW25561   1.685   0.318  12.650  0.8404  0.0785 -0.1394
 4700SOL    HW125562   1.666   0.384  12.583 -1.6648  1.5994  2.0867
 4700SOL    HW225563   1.714   0.245  12.594 -1.6911 -0.3981 -0.8516
 4701SOL     OW25564   1.189   3.602  13.172  0.4145  0.3255  0.0383
 4701SOL    HW125565   1.143   3.660  13.233 -1.1704  1.7297 -2.5254
 4701SOL    HW225566   1.275   3.642  13.158 -0.5125  0.8911 -4.0434
 4702SOL     OW25567   1.976   4.488   8.388  0.0296  0.5216 -0.4617
 4702SOL    HW125568   1.911   4.449   8.330 -0.2407 -1.0737  0.8919
 4702SOL    HW225569   1.948   4.443   8.468  2.7360 -1.7363 -0.7500
 4703SOL     OW25570   0.745   1.682   6.294 -0.0658 -0.4089  0.2876
 4703SOL    HW125571   0.654   1.687   6.264  0.0332  1.2428  0.2547
 4703SOL    HW225572   0.739   1.593   6.330  0.1329 -0.8868 -0.8674
 4704SOL     OW25573   3.503   4.655   8.826  0.3197 -0.1921 -0.5423
 4704SOL    HW125574   3.467   4.574   8.863 -0.1243  0.2616  0.0132
 4704SOL    HW225575   3.568   4.618   8.766  0.8089  0.9967 -0.7496
 4705SOL     OW25576   0.323   1.759   4.764  0.6209 -0.1835 -0.1277
 4705SOL    HW125577   0.316   1.853   4.747  1.6892 -0.1974 -0.6831
 4705SOL    HW225578   0.322   1.763   4.859 -1.1426 -2.6788 -0.0548
 4706SOL     OW25579   3.193   2.914   4.337  0.3220  0.7787  0.0513
 4706SOL    HW125580   3.191   2.969   4.259 -0.8073 -0.1291 -0.5673
 4706SOL    HW225581   3.105   2.879   4.325  0.3967  0.4905  0.3405
 4707SOL     OW25582   2.212   0.966   8.611 -0.0623 -0.1675 -0.1886
 4707SOL    HW125583   2.249   1.043   8.569  0.3222 -0.0751  0.3189
 4707SOL    HW225584   2.134   0.957   8.556 -0.1236  0.1668 -0.1571
 4708SOL     OW25585   3.058   3.188   8.990  0.3662 -0.0523  0.5011
 4708SOL    HW125586   3.136   3.175   9.045 -0.9232 -0.1998  2.2892
 4708SOL    HW225587   3.006   3.226   9.061  0.2235  1.2290 -0.3013
 4709SOL     OW25588   4.516   1.191   7.863  0.0088 -0.0159 -0.4738
 4709SOL    HW125589   4.600   1.152   7.888  0.5036  0.9922 -0.5668
 4709SOL    HW225590   4.513   1.259   7.930 -1.1543  1.5751 -2.1475
 4710SOL     OW25591   3.243   0.673  17.560 -0.2294  0.2298 -0.1386
 4710SOL    HW125592   3.217   0.624  17.482 -2.7720  0.8529  0.3311
 4710SOL    HW225593   3.325   0.721  17.547 -0.1265 -0.1557 -0.9064
 4711SOL     OW25594   1.254   0.662  13.061 -0.7113 -0.3760 -0.1071
 4711SOL    HW125595   1.196   0.586  13.054  0.7831 -1.7350  2.4716
 4711SOL    HW225596   1.225   0.704  12.980 -0.4394  1.8932  0.9779
 4712SOL     OW25597   2.660   3.116   9.640  0.6549  0.0468  0.3106
 4712SOL    HW125598   2.678   3.165   9.560  1.5866 -0.6754  0.0788
 4712SOL    HW225599   2.722   3.164   9.694  1.2590 -2.1603  1.5600
 4713SOL     OW25600   3.424   2.156  15.110 -0.4987  0.1591 -0.2236
 4713SOL    HW125601   3.449   2.081  15.164 -0.5158  0.8830  0.8037
 4713SOL    HW225602   3.466   2.226  15.161 -1.8135 -1.0838  2.5963
 4714SOL     OW25603   1.151   2.869  10.831 -0.0546 -0.1751  0.1330
 4714SOL    HW125604   1.221   2.834  10.887 -0.2880 -0.1718  0.4226
 4714SOL    HW225605   1.194   2.862  10.746 -2.7280  0.4830 -1.2425
 4715SOL     OW25606   4.113   3.848  13.223  0.1835  0.1696 -0.1049
 4715SOL    HW125607   4.197   3.887  13.247 -0.6363  1.4809  0.6513
 4715SOL    HW225608   4.132   3.754  13.219 -1.4916 -0.2742  1.9688
 4716SOL     OW25609   3.839   0.447   5.875 -0.4803  0.9160 -0.0218
 4716SOL    HW125610   3.860   0.372   5.819  0.2564  0.8637  0.3238
 4716SOL    HW225611   3.757   0.485   5.845 -1.6273 -0.6208  1.1557
 4717SOL     OW25612   3.901   1.397  15.536  0.0760  0.4871 -0.1299
 4717SOL    HW125613   3.912   1.414  15.629  1.8571 -1.5360  0.0365
 4717SOL    HW225614   3.984   1.436  15.509  0.6413 -0.9828 -0.4930
 4718SOL     OW25615   4.669   0.843   6.796  0.1295 -0.5058  0.1761
 4718SOL    HW125616   4.652   0.752   6.817 -0.4534 -0.7791 -1.4298
 4718SOL    HW225617   4.707   0.877   6.877 -2.3402  1.0110  0.7065
 4719SOL     OW25618   3.251   4.487  12.734  0.0282  0.1752 -0.3698
 4719SOL    HW125619   3.183   4.554  12.725  1.6341  1.6018 -1.7019
 4719SOL    HW225620   3.324   4.536  12.769  0.5857 -1.0962  0.2576
 4720SOL     OW25621   3.319   1.972   2.957  0.0524 -0.5456  0.5885
 4720SOL    HW125622   3.348   1.959   2.867  2.4007  1.2941  1.0849
 4720SOL    HW225623   3.233   2.008   2.934  0.4194 -0.3371 -0.4586
 4721SOL     OW25624   0.410   4.703   8.012 -0.6367 -0.0290  0.5277
 4721SOL    HW125625   0.429   0.039   7.941  0.8534 -0.6835  0.3809
 4721SOL    HW225626   0.344   0.026   8.063 -0.7824 -0.0424  0.3516
 4722SOL     OW25627   2.259   4.497   4.391 -0.2528 -0.1311 -0.1795
 4722SOL    HW125628   2.296   4.496   4.480 -1.7223 -3.7241  0.3551
 4722SOL    HW225629   2.211   4.415   4.398  0.1844 -0.2592  1.4375
 4723SOL     OW25630   2.535   3.325   0.116  0.4642 -0.6190 -0.0673
 4723SOL    HW125631   2.518   3.317   0.210  1.1034  3.2810  0.3646
 4723SOL    HW225632   2.469   3.269   0.075 -0.5158  0.7921 -0.4083
 4724SOL     OW25633   1.789   0.840   5.164  0.0174 -0.2339 -0.4946
 4724SOL    HW125634   1.883   0.821   5.157 -0.0962 -0.8816 -0.2426
 4724SOL    HW225635   1.800   0.931   5.136  3.5800 -0.6388 -0.3838
 4725SOL     OW25636   1.077   2.594  10.786  0.8357  0.7183 -0.4531
 4725SOL    HW125637   1.047   2.575  10.875  0.1754 -0.4152 -0.9209
 4725SOL    HW225638   1.163   2.634  10.801  0.9458  0.2746  0.1106
 4726SOL     OW25639   3.180   0.261   6.455 -0.4376  0.5525 -0.5415
 4726SOL    HW125640   3.123   0.209   6.511  0.4143  0.5443  0.3045
 4726SOL    HW225641   3.205   0.190   6.396 -1.5722  0.8430 -1.3876
 4727SOL     OW25642   2.527   0.799   6.093  0.0173 -0.3409  0.0416
 4727SOL    HW125643   2.451   0.855   6.082 -1.5030 -2.2139  1.1114
 4727SOL    HW225644   2.528   0.768   6.184  0.4842 -0.1692  0.0950
 4728SOL     OW25645   0.132   4.209   7.151 -0.3892  0.0878  0.0149
 4728SOL    HW125646   0.055   4.153   7.147 -0.8221  0.7915 -1.3680
 4728SOL    HW225647   0.128   4.221   7.246  1.5913  1.8862 -0.1118
 4729SOL     OW25648   1.448   2.453  14.521 -0.1319  0.4108  0.4940
 4729SOL    HW125649   1.401   2.484  14.598  3.0644  0.1512  2.5639
 4729SOL    HW225650   1.407   2.504  14.452 -1.4642  2.1858  2.5972
 4730SOL     OW25651   0.041   4.160   7.440 -0.4908 -0.0763 -0.3391
 4730SOL    HW125652   4.673   4.148   7.421 -0.3556 -0.8578 -0.5177
 4730SOL    HW225653   0.062   4.074   7.477  1.0166  0.5275  0.2180
 4731SOL     OW25654   2.714   4.315  10.716 -0.0318  0.2960 -0.0678
 4731SOL    HW125655   2.683   4.405  10.703 -0.6321  0.2836  1.3526
 4731SOL    HW225656   2.633   4.266  10.702  0.2265 -1.1886  3.6706
 4732SOL     OW25657   4.462   0.434  16.565  0.0317  0.2963 -0.2691
 4732SOL    HW125658   4.377   0.388  16.564  0.5103 -0.5722 -1.3121
 4732SOL    HW225659   4.477   0.450  16.472 -2.5505 -0.8343 -0.8882
 4733SOL     OW25660   2.021   0.330  10.121 -0.1717 -0.2083 -0.0815
 4733SOL    HW125661   2.004   0.367  10.208 -0.3452 -1.1265  0.2771
 4733SOL    HW225662   1.950   0.265  10.117  1.3403 -1.8557 -0.4407
 4734SOL     OW25663   2.845   3.968   6.024  0.1507  0.5617  0.1554
 4734SOL    HW125664   2.866   4.041   6.083  1.8360 -1.8390  2.5040
 4734SOL    HW225665   2.815   3.906   6.091 -0.6464  0.0760 -0.6603
 4735SOL     OW25666   2.205   1.332  15.987  0.1072 -0.4278 -0.5398
 4735SOL    HW125667   2.210   1.428  15.992 -0.6022 -0.3594 -1.1174
 4735SOL    HW225668   2.120   1.308  15.950 -1.5901 -0.1651  3.1935
 4736SOL     OW25669   2.480   2.389   5.490 -0.0299  0.1097  0.3027
 4736SOL    HW125670   2.444   2.347   5.568 -0.5892 -0.5098 -0.2914
 4736SOL    HW225671   2.525   2.467   5.522 -0.6954  0.9537 -0.8238
 4737SOL     OW25672   4.720   0.340   6.644 -0.2957 -0.0545 -0.1361
 4737SOL    HW125673   0.047   0.318   6.722  0.2565 -0.7631 -0.7055
 4737SOL    HW225674   4.717   0.254   6.602 -1.6191 -0.3729  0.6098
 4738SOL     OW25675   2.614   2.599   5.549 -0.7567 -0.9433 -0.1759
 4738SOL    HW125676   2.627   2.661   5.478  0.9738 -0.2814  0.7127
 4738SOL    HW225677   2.569   2.654   5.613  0.8890 -0.5999  0.7135
 4739SOL     OW25678   1.665   1.388   7.993  0.2181 -0.3515 -0.3316
 4739SOL    HW125679   1.727   1.406   8.063  0.2849  0.5791 -0.6315
 4739SOL    HW225680   1.725   1.366   7.921  0.6161 -1.1708  0.2485
 4740SOL     OW25681   2.260   4.553   2.052  0.5367 -0.2217 -0.1994
 4740SOL    HW125682   2.245   4.647   2.040 -2.8588 -0.6195  0.9059
 4740SOL    HW225683   2.354   4.536   2.043  0.8239 -0.1574  2.6602
 4741SOL     OW25684   0.611   1.715   4.185  0.2891  0.0096 -0.5156
 4741SOL    HW125685   0.562   1.749   4.110  0.1946  1.7495  0.3230
 4741SOL    HW225686   0.545   1.654   4.216  0.2073  0.9961  1.2400
 4742SOL     OW25687   4.423   2.002   3.085 -0.6133 -0.5229  0.3082
 4742SOL    HW125688   4.493   1.950   3.047  0.4279  1.2864 -0.2515
 4742SOL    HW225689   4.458   2.091   3.088  0.6529 -0.9590 -2.0745
 4743SOL     OW25690   3.158   3.655   0.760 -0.5566  0.2463 -0.0188
 4743SOL    HW125691   3.127   3.746   0.760 -3.0934 -0.6104  0.9073
 4743SOL    HW225692   3.099   3.612   0.822  0.9049  1.4981  2.2461
 4744SOL     OW25693   3.605   3.246  17.218  0.4659  0.7154 -0.5139
 4744SOL    HW125694   3.579   3.164  17.259 -0.6276  0.9609 -0.7275
 4744SOL    HW225695   3.526   3.293  17.243 -0.6754 -1.1009 -0.7115
 4745SOL     OW25696   4.487   4.616   8.161  0.0927 -0.1194 -0.0318
 4745SOL    HW125697   4.424   4.581   8.224 -2.5241  0.5890 -2.2806
 4745SOL    HW225698   4.559   4.558   8.184 -0.7431 -1.4451 -0.7882
 4746SOL     OW25699   3.027   3.081  12.820  0.2308  0.0231  0.1315
 4746SOL    HW125700   3.005   3.113  12.908  1.1737  1.7202 -0.2546
 4746SOL    HW225701   3.099   3.019  12.837  2.5929  3.3175  2.1689
 4747SOL     OW25702   4.581   3.869   5.022 -0.1362  0.0960 -0.4042
 4747SOL    HW125703   4.628   3.845   4.942  1.2595  0.0258  0.4252
 4747SOL    HW225704   4.533   3.787   5.038 -1.3260  0.8809  0.0230
 4748SOL     OW25705   1.230   0.883  10.112 -0.0182  0.3983  0.3926
 4748SOL    HW125706   1.280   0.953  10.070 -0.7187  0.0754 -1.0031
 4748SOL    HW225707   1.266   0.800  10.080 -0.5690 -0.5096  2.1691
 4749SOL     OW25708   1.302   2.093   7.301 -0.2003 -0.3362  0.2979
 4749SOL    HW125709   1.272   2.048   7.380 -0.2242 -1.0772 -0.1306
 4749SOL    HW225710   1.296   2.030   7.229 -0.0881 -0.2675  0.2275
 4750SOL     OW25711   3.574   0.935   0.134 -0.6084 -0.0056  0.0984
 4750SOL    HW125712   3.536   1.016   0.100  1.2022 -0.3034 -2.6292
 4750SOL    HW225713   3.501   0.872   0.126  0.1570 -1.0711  1.6549
 4751SOL     OW25714   4.175   2.527   5.361 -0.1520 -0.3525 -0.0616
 4751SOL    HW125715   4.193   2.523   5.455  4.0405  1.3596 -0.8137
 4751SOL    HW225716   4.123   2.449   5.346 -0.4733  0.0301 -0.9288
 4752SOL     OW25717   2.128   1.476   2.800  0.5055  0.2443  0.4452
 4752SOL    HW125718   2.087   1.483   2.714 -1.4618 -0.4815  1.3025
 4752SOL    HW225719   2.055   1.496   2.859 -0.0843  0.6775 -0.4361
 4753SOL     OW25720   1.895   3.858   1.549  0.2329  0.6428 -0.3834
 4753SOL    HW125721   1.858   3.910   1.478 -2.1117  0.7655  0.9458
 4753SOL    HW225722   1.853   3.883   1.632  1.3436  1.6630 -0.1260
 4754SOL     OW25723   0.356   4.276  17.163  0.4293  0.2793 -0.0775
 4754SOL    HW125724   0.408   4.323  17.098 -0.3068  0.4493 -0.5509
 4754SOL    HW225725   0.378   4.333  17.237  0.0173  0.6496 -0.2378
 4755SOL     OW25726   0.057   2.833   1.894  0.4546 -0.0722  0.4294
 4755SOL    HW125727   0.136   2.803   1.939 -0.0291 -1.7386  0.1819
 4755SOL    HW225728   0.083   2.819   1.803 -1.6742  0.6144 -0.2961
 4756SOL     OW25729   4.267   0.978   5.925  0.0691 -0.1709 -0.1849
 4756SOL    HW125730   4.179   0.998   5.892 -0.0594 -1.4339 -0.6062
 4756SOL    HW225731   4.317   1.057   5.905 -1.1054  0.5808 -0.1853
 4757SOL     OW25732   0.773   0.002   2.535 -0.0367  0.0298 -0.0108
 4757SOL    HW125733   0.718   0.079   2.524  0.9109  0.6604 -0.3069
 4757SOL    HW225734   0.725   4.663   2.483 -0.5469  0.2768  0.1583
 4758SOL     OW25735   4.312   2.930  16.389  0.0006  0.0591  0.2162
 4758SOL    HW125736   4.361   2.914  16.308  0.5504  2.0218  0.1756
 4758SOL    HW225737   4.355   3.014  16.404  1.3302 -0.8434  1.3911
 4759SOL     OW25738   3.964   2.602  11.669  0.3941 -0.1359  0.7892
 4759SOL    HW125739   3.992   2.580  11.580  1.2713 -1.9049  1.5169
 4759SOL    HW225740   3.919   2.524  11.700  1.3826 -1.3745 -0.9237
 4760SOL     OW25741   2.436   3.238   9.445  0.2031  0.5473  0.3240
 4760SOL    HW125742   2.398   3.309   9.496 -1.1330 -0.6180  0.9421
 4760SOL    HW225743   2.362   3.178   9.451 -0.6558  1.6651  0.8020
 4761SOL     OW25744   3.281   1.712   7.338  0.1875 -0.1107 -0.0803
 4761SOL    HW125745   3.233   1.750   7.412 -0.1185  0.3832 -0.5311
 4761SOL    HW225746   3.369   1.746   7.352  1.2806 -2.7719 -0.4816
 4762SOL     OW25747   2.112   0.435   4.475 -0.6165  0.0277 -0.3307
 4762SOL    HW125748   2.153   0.485   4.405  3.3308 -0.9882  1.3082
 4762SOL    HW225749   2.082   0.359   4.425  0.5097  0.3560 -1.5087
 4763SOL     OW25750   2.679   0.364   5.462  0.5859  0.1277 -0.0826
 4763SOL    HW125751   2.606   0.416   5.495  0.0153 -1.4628  1.1360
 4763SOL    HW225752   2.635   0.285   5.431 -1.2325 -0.1195  3.2083
 4764SOL     OW25753   3.567   2.277  13.592  0.6930 -0.2665 -0.1424
 4764SOL    HW125754   3.545   2.312  13.506 -0.3805  3.5391  1.7145
 4764SOL    HW225755   3.549   2.184  13.579  0.7853 -0.4696  1.1698
 4765SOL     OW25756   2.906   2.951   7.554 -0.1423 -0.3366  0.2646
 4765SOL    HW125757   2.840   3.017   7.573 -1.6015 -1.7007 -0.1064
 4765SOL    HW225758   2.908   2.907   7.639 -2.6158 -1.6024 -0.3303
 4766SOL     OW25759   1.649   1.216   8.360  0.1812 -0.0491 -0.1353
 4766SOL    HW125760   1.725   1.262   8.323  1.7503 -3.2365 -0.9081
 4766SOL    HW225761   1.593   1.194   8.285  0.9161  1.0306 -0.9985
 4767SOL     OW25762   0.411   3.828  17.544  0.0539  0.1326 -0.2510
 4767SOL    HW125763   0.329   3.869  17.572 -0.7462 -2.2986  0.9723
 4767SOL    HW225764   0.456   3.885  17.482 -2.1303  1.3800 -0.6801
 4768SOL     OW25765   2.643   2.865   5.869 -0.0511  0.5666  0.8139
 4768SOL    HW125766   2.666   2.774   5.886  1.2667  0.8038  0.3676
 4768SOL    HW225767   2.646   2.899   5.958  0.7249  2.0387  0.2305
 4769SOL     OW25768   0.129   4.651   4.613  0.4998 -0.1223  0.1512
 4769SOL    HW125769   0.159   4.633   4.524 -0.9400  2.5425 -0.8719
 4769SOL    HW225770   0.116   0.021   4.613 -0.0219 -0.1906  0.0944
 4770SOL     OW25771   1.300   1.536   6.478 -0.4223  0.4401 -0.1509
 4770SOL    HW125772   1.313   1.531   6.384  0.2261  0.8727 -0.0855
 4770SOL    HW225773   1.314   1.630   6.491  0.9707  0.1500  0.3960
 4771SOL     OW25774   1.142   4.023  12.711  0.1675 -0.4024 -0.0198
 4771SOL    HW125775   1.053   4.008  12.677  0.2908  2.4246 -1.5881
 4771SOL    HW225776   1.184   4.054  12.631 -0.1115 -0.1055 -0.0518
 4772SOL     OW25777   3.799   3.749   8.531  0.4380  0.0795  0.1104
 4772SOL    HW125778   3.821   3.656   8.539 -0.3218 -0.2145 -1.2279
 4772SOL    HW225779   3.788   3.775   8.622 -0.5037 -0.0774  0.0417
 4773SOL     OW25780   1.123   3.119   4.949 -0.5883  0.6090  0.1179
 4773SOL    HW125781   1.095   3.082   4.866 -1.0926  0.8497  0.1804
 4773SOL    HW225782   1.044   3.168   4.973 -0.5245  1.3366 -1.1517
 4774SOL     OW25783   3.372   0.410  13.340 -0.5515  0.7418  0.3142
 4774SOL    HW125784   3.439   0.434  13.276 -0.1603  0.2918  0.5600
 4774SOL    HW225785   3.292   0.397  13.288  1.3597 -1.4117 -2.0599
 4775SOL     OW25786   2.570   1.339  14.424 -0.0678  0.0476 -0.0344
 4775SOL    HW125787   2.546   1.285  14.499 -0.7547  0.3869 -0.0109
 4775SOL    HW225788   2.531   1.427  14.431  1.0164  0.5102  0.1065
 4776SOL     OW25789   1.681   0.604  12.274  0.4750  0.3991  0.7360
 4776SOL    HW125790   1.736   0.596  12.195 -2.0908 -2.2291 -0.7568
 4776SOL    HW225791   1.683   0.696  12.299 -0.1076  0.1959  1.5253
 4777SOL     OW25792   4.640   0.898   9.423  0.0660  0.2719 -0.1605
 4777SOL    HW125793   4.656   0.835   9.352  2.2490 -1.4096  1.8239
 4777SOL    HW225794   4.581   0.854   9.485  0.9164  0.3963  0.7263
 4778SOL     OW25795   1.149   3.174   8.064 -0.3368  0.0761 -0.0976
 4778SOL    HW125796   1.103   3.144   7.986 -0.5724 -2.8471  1.1698
 4778SOL    HW225797   1.238   3.169   8.028 -1.1847  0.5006 -2.2489
 4779SOL     OW25798   3.864   4.200  10.092  0.0369 -0.0613  0.4016
 4779SOL    HW125799   3.846   4.254  10.015  0.3054  0.1409  0.4804
 4779SOL    HW225800   3.888   4.115  10.054  1.5554 -0.0365  1.3176
 4780SOL     OW25801   2.275   0.020  16.072 -0.4039 -0.1551  0.5203
 4780SOL    HW125802   2.219   0.079  16.122 -0.8593 -0.7587  0.7226
 4780SOL    HW225803   2.266   4.662  16.118 -1.5711 -1.5573 -2.2478
 4781SOL     OW25804   1.853   2.554   5.161  0.4376 -0.0154  0.3563
 4781SOL    HW125805   1.858   2.503   5.081  0.2693  0.5559 -0.0197
 4781SOL    HW225806   1.935   2.524   5.201 -0.7220 -0.2966  2.5304
 4782SOL     OW25807   3.560   0.807   1.389  0.0440 -0.1114 -0.1113
 4782SOL    HW125808   3.474   0.821   1.429  0.4845 -0.6309  1.0316
 4782SOL    HW225809   3.563   0.712   1.398 -2.0146 -0.0742  1.2363
 4783SOL     OW25810   1.646   1.269  11.781  0.3868  0.1337 -0.9983
 4783SOL    HW125811   1.674   1.336  11.719 -0.8824 -0.0548 -1.7677
 4783SOL    HW225812   1.703   1.202  11.742  1.4307 -1.8764  3.9105
 4784SOL     OW25813   3.114   3.857  15.393 -0.0981  0.0643  0.3621
 4784SOL    HW125814   3.155   3.829  15.474 -0.0471 -0.7877  0.0468
 4784SOL    HW225815   3.059   3.782  15.370  1.3317 -1.0178  0.4615
 4785SOL     OW25816   1.394   1.588   3.438  0.2510 -0.0015 -0.2071
 4785SOL    HW125817   1.365   1.623   3.522  0.5876 -1.5114  0.5480
 4785SOL    HW225818   1.412   1.496   3.457 -1.2201 -0.0485  0.9438
 4786SOL     OW25819   4.044   3.765   1.993 -0.2873  0.3692  0.4569
 4786SOL    HW125820   4.105   3.781   1.921 -2.1094 -0.4588 -1.2794
 4786SOL    HW225821   3.967   3.800   1.948  0.8227  1.6676 -0.4295
 4787SOL     OW25822   3.434   1.099   1.365  0.3300 -0.0145  0.0690
 4787SOL    HW125823   3.474   1.035   1.424 -0.1141  0.4014  0.8222
 4787SOL    HW225824   3.498   1.098   1.294 -0.5346  0.1648 -0.7185
 4788SOL     OW25825   2.550   2.548   6.903  0.0921 -0.0634 -0.1832
 4788SOL    HW125826   2.601   2.609   6.850 -0.2940 -0.3042 -0.8291
 4788SOL    HW225827   2.502   2.613   6.955 -1.7124 -1.2090 -0.4260
 4789SOL     OW25828   2.773   1.500   9.510 -0.2678 -0.2343 -0.1138
 4789SOL    HW125829   2.804   1.565   9.573  0.6328 -0.7805  0.0091
 4789SOL    HW225830   2.784   1.545   9.426  0.2749 -0.2550 -0.0549
 4790SOL     OW25831   4.620   0.959   8.281 -0.2562 -0.1392  0.3080
 4790SOL    HW125832   4.690   0.918   8.230  0.3054 -1.0168  1.7633
 4790SOL    HW225833   4.562   0.989   8.211  0.6295  1.1946  0.1405
 4791SOL     OW25834   0.282   0.768   2.393 -0.0097  0.1988  0.4617
 4791SOL    HW125835   0.265   0.818   2.313  2.7713 -0.8243 -0.7773
 4791SOL    HW225836   0.372   0.790   2.418 -0.4262  2.0017  0.3574
 4792SOL     OW25837   4.075   1.160   0.484  0.6521 -0.7583 -0.1383
 4792SOL    HW125838   4.164   1.169   0.518  1.1196  1.4720 -1.9312
 4792SOL    HW225839   4.079   1.068   0.458  1.3770 -1.1747  1.4482
 4793SOL     OW25840   2.584   1.269   2.175  0.3612  0.1702 -0.0378
 4793SOL    HW125841   2.504   1.307   2.210  2.1890  3.1878  0.8123
 4793SOL    HW225842   2.589   1.192   2.231  1.6870  1.8097  2.0576
 4794SOL     OW25843   0.983   1.317   8.368  0.1544  0.3759  0.7446
 4794SOL    HW125844   0.927   1.268   8.428  1.7017 -4.1905 -1.5012
 4794SOL    HW225845   0.934   1.397   8.351 -0.4490  0.5880  3.4404
 4795SOL     OW25846   2.586   2.275   3.880 -0.5540 -0.1168  0.0612
 4795SOL    HW125847   2.597   2.227   3.962  3.0820 -1.0640 -0.9438
 4795SOL    HW225848   2.629   2.214   3.819 -0.6378 -1.9665  1.8360
 4796SOL     OW25849   2.267   0.797  11.691 -0.0043 -0.1295 -0.3894
 4796SOL    HW125850   2.235   0.763  11.775 -3.0784 -0.8646 -1.8558
 4796SOL    HW225851   2.181   0.805  11.650 -0.8816 -1.6487  1.1525
 4797SOL     OW25852   2.415   0.392   2.765 -0.1220  0.2694 -0.1146
 4797SOL    HW125853   2.418   0.297   2.752 -0.3968  0.1632  0.5857
 4797SOL    HW225854   2.388   0.392   2.857  0.9740  0.7302  0.2068
 4798SOL     OW25855   3.365   2.014   8.439 -0.7324 -0.1036  0.1060
 4798SOL    HW125856   3.378   1.919   8.443  0.1812 -0.0457 -1.4963
 4798SOL    HW225857   3.455   2.044   8.453 -0.4280  0.2807 -2.8095
 4799SOL     OW25858   1.941   1.287  14.630 -0.0598 -0.4903 -0.2686
 4799SOL    HW125859   1.909   1.250  14.712  1.5284  1.7247  1.3445
 4799SOL    HW225860   2.034   1.278  14.647  0.1999 -2.4815 -2.7203
 4800SOL     OW25861   4.145   1.268   5.242  0.1310  0.9077 -0.6409
 4800SOL    HW125862   4.128   1.224   5.325  0.8774  0.1660 -0.8725
 4800SOL    HW225863   4.204   1.340   5.267 -0.3418  0.6200  1.3481
 4801SOL     OW25864   1.587   3.989   4.419 -0.0454  0.0689  0.1708
 4801SOL    HW125865   1.600   4.058   4.484 -0.7815  0.1240  0.2558
 4801SOL    HW225866   1.656   4.009   4.354  0.4934 -0.4146  0.5951
 4802SOL     OW25867   1.913   4.559   8.026  0.2270 -0.0504 -0.0367
 4802SOL    HW125868   1.862   4.559   8.107 -1.6314  1.8398 -1.2109
 4802SOL    HW225869   1.998   4.521   8.048  0.2081 -0.0338  0.0637
 4803SOL     OW25870   2.954   3.465   9.709  0.4447  0.4058 -0.3108
 4803SOL    HW125871   2.977   3.377   9.679 -1.0034  0.1625 -0.7010
 4803SOL    HW225872   2.872   3.449   9.756  0.4297 -0.3804 -0.6155
 4804SOL     OW25873   0.795   2.584   9.471 -0.4932 -0.0718  0.5353
 4804SOL    HW125874   0.885   2.589   9.439 -0.9546  1.3838 -0.5156
 4804SOL    HW225875   0.794   2.661   9.529 -0.1508 -0.0537  0.5180
 4805SOL     OW25876   3.825   4.000   7.309  0.5943 -0.0719 -0.5585
 4805SOL    HW125877   3.860   4.033   7.392  0.3133  0.2285 -0.5607
 4805SOL    HW225878   3.777   4.077   7.279  0.7354  0.9611  1.8510
 4806SOL     OW25879   0.247   2.159   0.138 -0.1674  0.1072  0.1556
 4806SOL    HW125880   0.250   2.254   0.137 -2.7781  0.1744 -2.0233
 4806SOL    HW225881   0.264   2.140   0.045  1.0618  0.6296  0.2761
 4807SOL     OW25882   2.224   2.999   1.998  0.4354  0.3789 -0.3369
 4807SOL    HW125883   2.191   3.006   1.908  1.0399 -0.5597 -0.6294
 4807SOL    HW225884   2.157   3.044   2.050  0.0459  0.9137 -1.2861
 4808SOL     OW25885   2.826   1.071   6.489  0.1542  0.3360  0.5609
 4808SOL    HW125886   2.845   1.154   6.535  0.8115  1.6989 -2.1756
 4808SOL    HW225887   2.773   1.104   6.417 -0.7172  0.7676  1.3923
 4809SOL     OW25888   2.280   2.222   3.928  0.0046  0.0527  0.2208
 4809SOL    HW125889   2.338   2.296   3.946  0.9881 -0.5347 -0.5200
 4809SOL    HW225890   2.206   2.257   3.978  1.4115  2.0468  0.9103
 4810SOL     OW25891   2.111   1.212   2.160  0.0618 -0.3408  0.0926
 4810SOL    HW125892   2.043   1.162   2.206  1.0005 -1.5748  0.1282
 4810SOL    HW225893   2.196   1.174   2.183  1.4139  1.2018 -2.2916
 4811SOL     OW25894   4.431   0.217   3.779  0.1477  0.0243 -0.8346
 4811SOL    HW125895   4.434   0.222   3.684 -1.1281 -1.5491 -0.9479
 4811SOL    HW225896   4.362   0.281   3.795 -0.1896 -0.9837  1.8957
 4812SOL     OW25897   4.127   3.721   4.307 -0.0566 -0.2910  0.2317
 4812SOL    HW125898   4.131   3.782   4.234  1.4903 -0.8655 -0.1655
 4812SOL    HW225899   4.112   3.642   4.256  1.7079 -0.3467 -0.1962
 4813SOL     OW25900   2.091   0.974   0.924  0.1003 -0.3649 -0.3133
 4813SOL    HW125901   2.163   1.036   0.911  0.1126 -0.4827 -0.8016
 4813SOL    HW225902   2.041   0.985   0.843 -0.0005 -0.0735 -0.2114
 4814SOL     OW25903   0.951   3.631   9.326  0.1186 -0.2891 -0.4210
 4814SOL    HW125904   0.949   3.613   9.420 -1.1685  1.1485 -0.1802
 4814SOL    HW225905   0.972   3.546   9.286  1.5115 -0.1903  0.0828
 4815SOL     OW25906   2.452   0.477  15.669  0.1299  0.2639  0.3583
 4815SOL    HW125907   2.492   0.474  15.582  1.2835 -1.0067  0.9232
 4815SOL    HW225908   2.358   0.473  15.652 -0.2463  0.5663  2.3408
 4816SOL     OW25909   3.624   0.359   4.787  0.0706  0.1990  0.2001
 4816SOL    HW125910   3.617   0.271   4.823 -1.4926  0.4938  0.5932
 4816SOL    HW225911   3.715   0.359   4.756 -0.0349  1.3419 -0.1321
 4817SOL     OW25912   0.835   3.660   6.480 -0.3009 -0.8546  0.5043
 4817SOL    HW125913   0.749   3.656   6.521 -1.0670  1.8870 -0.8105
 4817SOL    HW225914   0.867   3.732   6.535 -0.9359 -0.8185  0.8229
 4818SOL     OW25915   2.522   1.305   4.000 -0.3129 -0.4211 -0.9809
 4818SOL    HW125916   2.610   1.339   4.011 -0.4573  0.2967 -2.0575
 4818SOL    HW225917   2.536   1.222   3.954  0.4994 -1.8906  1.8801
 4819SOL     OW25918   0.558   4.098   3.355 -0.9869 -0.2216  0.5345
 4819SOL    HW125919   0.583   4.071   3.266 -0.5868  1.2719  0.1885
 4819SOL    HW225920   0.555   4.017   3.405  2.0115 -0.0877  0.9574
 4820SOL     OW25921   1.406   3.942  14.327  0.2970 -0.2239  0.5488
 4820SOL    HW125922   1.312   3.958  14.322  0.6510  0.6803 -2.7765
 4820SOL    HW225923   1.402   3.850  14.299 -0.5829  0.0137 -0.0980
 4821SOL     OW25924   4.194   3.925   7.684  0.0787 -0.2362  0.3316
 4821SOL    HW125925   4.158   3.974   7.610  0.1284  0.5219  0.8045
 4821SOL    HW225926   4.287   3.924   7.663 -0.2432  1.2634 -1.2198
 4822SOL     OW25927   2.326   1.879   0.894  0.6471 -0.2760 -0.1650
 4822SOL    HW125928   2.393   1.860   0.959 -0.8940 -0.5733  1.3228
 4822SOL    HW225929   2.289   1.795   0.866  1.9477 -0.5643 -1.0142
 4823SOL     OW25930   3.694   3.637   2.816 -0.0043 -0.2058  0.3395
 4823SOL    HW125931   3.706   3.674   2.904  2.4197 -1.2546  0.4371
 4823SOL    HW225932   3.609   3.593   2.821 -0.0969 -0.1155 -0.5742
 4824SOL     OW25933   2.182   3.118  14.895  0.1937  0.0968 -0.2274
 4824SOL    HW125934   2.226   3.045  14.939 -1.2799  0.1171  1.2800
 4824SOL    HW225935   2.172   3.082  14.807  0.0321  0.2403 -0.2661
 4825SOL     OW25936   3.719   2.385   8.935 -0.0468  0.0314 -0.4044
 4825SOL    HW125937   3.737   2.473   8.967  2.7868 -1.0619  1.0405
 4825SOL    HW225938   3.740   2.321   9.003 -0.8812 -1.3863 -1.4646
 4826SOL     OW25939   1.166   2.086  11.231  0.3310 -0.6593 -0.6131
 4826SOL    HW125940   1.240   2.041  11.272  0.1019 -1.5958 -1.2438
 4826SOL    HW225941   1.104   2.015  11.218  0.9053 -1.4962  1.0619
 4827SOL     OW25942   2.822   3.426  12.625 -0.0351  0.1663  0.0721
 4827SOL    HW125943   2.803   3.409  12.532  3.5358 -1.4714 -0.3671
 4827SOL    HW225944   2.903   3.376  12.635 -0.6371 -0.8621 -0.1006
 4828SOL     OW25945   0.085   0.985   5.637  0.0093 -0.4219 -0.0935
 4828SOL    HW125946   0.094   1.055   5.572  1.8506 -0.5946 -0.0389
 4828SOL    HW225947   0.158   0.926   5.617  0.2373  0.0401 -0.6152
 4829SOL     OW25948   0.848   3.018   7.628 -0.2032  0.5504  0.4869
 4829SOL    HW125949   0.856   3.028   7.723 -0.3000 -0.1280  0.5688
 4829SOL    HW225950   0.755   3.029   7.612 -0.2916 -0.6836  0.0948
 4830SOL     OW25951   2.157   4.483   8.998 -0.7542  0.7650 -0.1032
 4830SOL    HW125952   2.185   4.421   8.930 -1.4765  0.8315 -0.4547
 4830SOL    HW225953   2.062   4.479   8.992 -0.8103 -1.3622  2.3455
 4831SOL     OW25954   2.046   0.205   6.888  0.1213 -0.2278  0.0862
 4831SOL    HW125955   2.103   0.162   6.825 -1.5566 -1.2185 -0.7598
 4831SOL    HW225956   2.101   0.274   6.924 -0.5367 -0.5559  1.7351
 4832SOL     OW25957   4.017   2.891   4.218 -0.2749 -0.2131 -0.6945
 4832SOL    HW125958   3.978   2.972   4.252 -0.3014 -0.7675  0.5670
 4832SOL    HW225959   4.094   2.881   4.273 -0.0710  0.7597 -0.8036
 4833SOL     OW25960   0.232   1.650   3.817  0.8521  0.4053 -0.1147
 4833SOL    HW125961   0.205   1.669   3.727 -3.5222  0.7387  1.2679
 4833SOL    HW225962   0.187   1.721   3.863  1.2866 -1.1727  2.7170
 4834SOL     OW25963   2.817   1.787  17.512  0.3959  0.5432 -0.2095
 4834SOL    HW125964   2.795   1.694  17.521 -0.1150  0.4539 -2.3524
 4834SOL    HW225965   2.749   1.826  17.457 -0.2747 -1.2072 -0.6226
 4835SOL     OW25966   1.870   4.318   0.730  0.1150 -0.4533  0.4637
 4835SOL    HW125967   1.900   4.275   0.650  3.0984  2.3188  0.1056
 4835SOL    HW225968   1.776   4.312   0.714  0.5346  0.1278 -2.1144
 4836SOL     OW25969   0.130   4.189   9.439  0.1895 -0.4050  0.0410
 4836SOL    HW125970   0.182   4.216   9.364 -1.7637  1.5190 -0.6115
 4836SOL    HW225971   0.081   4.271   9.445 -2.3908 -2.0295  1.5498
 4837SOL     OW25972   0.917   0.764   4.398 -0.6042 -0.6716  0.7026
 4837SOL    HW125973   0.849   0.703   4.427 -0.3976 -0.4619  1.6457
 4837SOL    HW225974   0.965   0.785   4.478  1.1875  1.0132 -0.8209
 4838SOL     OW25975   3.866   1.790   2.122  0.4038  0.1937  0.2008
 4838SOL    HW125976   3.808   1.812   2.049  1.6153  1.9499 -0.2316
 4838SOL    HW225977   3.949   1.811   2.079  0.1782 -1.2653 -0.9444
 4839SOL     OW25978   0.672   1.500   8.133  0.2236  0.0312 -0.3680
 4839SOL    HW125979   0.756   1.514   8.089  0.5408  0.5181  0.3967
 4839SOL    HW225980   0.633   1.587   8.124 -1.4680 -0.6836  0.1146
 4840SOL     OW25981   1.864   3.251   3.465  0.3708 -0.6096 -0.3632
 4840SOL    HW125982   1.869   3.277   3.373 -2.5977  2.2370  0.2815
 4840SOL    HW225983   1.928   3.181   3.472  2.4169  1.5471  2.3292
 4841SOL     OW25984   0.684   0.357   1.768 -0.0467  0.0892 -0.1487
 4841SOL    HW125985   0.653   0.268   1.749 -0.4120  0.2984 -0.5319
 4841SOL    HW225986   0.605   0.399   1.800  2.7352  3.0125  2.9430
 4842SOL     OW25987   4.218   0.861  13.093 -0.1709 -0.2017  0.2928
 4842SOL    HW125988   4.231   0.766  13.082 -3.1280 -0.3984 -1.4710
 4842SOL    HW225989   4.251   0.862  13.183 -2.1417  1.3800  0.9732
 4843SOL     OW25990   1.048   1.049  12.529  0.3128  0.4504 -0.0635
 4843SOL    HW125991   1.043   1.071  12.436 -2.7181 -0.6254 -0.1545
 4843SOL    HW225992   1.002   1.126  12.562  0.0643  1.1912 -2.1295
 4844SOL     OW25993   2.162   3.693   1.694  0.0885 -0.4256 -0.5173
 4844SOL    HW125994   2.138   3.702   1.786  1.7730 -1.9150  0.0710
 4844SOL    HW225995   2.085   3.645   1.665  0.9580 -1.1476 -1.6271
 4845SOL     OW25996   4.443   0.294   1.376 -0.5482  0.4472  0.2711
 4845SOL    HW125997   4.409   0.313   1.464  0.1329 -1.6765  0.9895
 4845SOL    HW225998   4.375   0.323   1.315  0.2086  0.9759 -0.3095
 4846SOL     OW25999   0.472   0.580  16.997  0.3439  0.4265 -0.2913
 4846SOL    HW126000   0.460   0.675  17.009 -3.2787 -0.0723 -0.0734
 4846SOL    HW226001   0.403   0.550  17.056  0.5620 -0.9955 -0.7779
 4847SOL     OW26002   4.712   2.402  17.257 -0.2120 -0.4892 -0.1066
 4847SOL    HW126003   0.022   2.320  17.290  1.7240  0.8908  1.2657
 4847SOL    HW226004   4.700   2.455  17.336  0.5589 -0.4749  0.0050
 4848SOL     OW26005   0.009   3.599  11.077 -0.1114 -0.2142 -0.2899
 4848SOL    HW126006   0.033   3.534  11.144 -0.8112 -0.2373 -0.0670
 4848SOL    HW226007   4.667   3.649  11.123 -0.5899 -1.4564  0.3867
 4849SOL     OW26008   4.217   3.216   7.017 -0.3818  0.1475 -0.1621
 4849SOL    HW126009   4.189   3.212   6.926  1.2618 -2.0471 -0.5920
 4849SOL    HW226010   4.205   3.308   7.041  2.2694  0.8393 -1.4805
 4850SOL     OW26011   0.117   1.635   2.306  0.1712  0.2982  0.4586
 4850SOL    HW126012   0.048   1.573   2.284  0.4277  0.2067 -0.1038
 4850SOL    HW226013   0.077   1.685   2.377 -0.9328 -1.8814  1.3650
 4851SOL     OW26014   3.885   1.807   6.026  0.3918 -0.0647  0.1267
 4851SOL    HW126015   3.931   1.811   6.111  0.8112 -0.0401 -0.1012
 4851SOL    HW226016   3.851   1.718   6.031  1.5035 -0.5704 -1.5716
 4852SOL     OW26017   1.619   0.146   3.365  0.5106  0.0211  0.3941
 4852SOL    HW126018   1.657   0.072   3.319 -1.8332 -1.2596  0.5245
 4852SOL    HW226019   1.644   0.118   3.453  0.0214 -1.0267  0.2014
 4853SOL     OW26020   1.117   3.450   3.709 -0.1918  0.0154 -0.4267
 4853SOL    HW126021   1.024   3.461   3.730  0.0678  2.8428 -0.6858
 4853SOL    HW226022   1.157   3.521   3.760 -0.0273 -2.2060  2.5010
 4854SOL     OW26023   3.703   1.744  12.216 -0.0841  0.1308 -0.1269
 4854SOL    HW126024   3.765   1.680  12.182  0.5640 -0.4076  2.0557
 4854SOL    HW226025   3.629   1.685  12.233 -0.2118 -0.1542 -1.6920
 4855SOL     OW26026   0.125   4.707   1.671  0.0800 -0.0589 -0.5381
 4855SOL    HW126027   0.054   4.643   1.670 -0.0225  0.0014  3.2808
 4855SOL    HW226028   0.197   4.656   1.634 -1.3041 -4.3332  2.6741
 4856SOL     OW26029   4.258   0.612  16.454 -0.0503 -0.4750  0.5202
 4856SOL    HW126030   4.184   0.626  16.513 -0.0844  1.3906  0.0271
 4856SOL    HW226031   4.301   0.545  16.508  0.7361 -0.4149 -0.0282
 4857SOL     OW26032   0.607   3.347  11.020 -0.1747  0.1155 -0.1443
 4857SOL    HW126033   0.570   3.310  11.100  1.7437 -1.1373  0.1605
 4857SOL    HW226034   0.652   3.417  11.067  0.4993  0.6530 -1.5982
 4858SOL     OW26035   0.319   0.388   8.608 -0.0819  0.4314 -0.0794
 4858SOL    HW126036   0.402   0.408   8.565  1.0555 -1.1183  1.3908
 4858SOL    HW226037   0.349   0.345   8.688 -2.5945  1.7594  1.6153
 4859SOL     OW26038   1.322   0.289   9.669 -0.2680  0.2925  0.1166
 4859SOL    HW126039   1.345   0.256   9.755 -2.1493 -0.4820  0.3084
 4859SOL    HW226040   1.386   0.360   9.666  0.1679 -0.1418 -1.2850
 4860SOL     OW26041   2.297   1.678   2.507 -0.4404 -0.0207  0.2334
 4860SOL    HW126042   2.359   1.691   2.578 -2.3017  0.6995  1.7496
 4860SOL    HW226043   2.286   1.583   2.506  0.1192 -0.0797 -0.2818
 4861SOL     OW26044   4.385   2.742   8.871 -0.1459  0.0326 -0.0920
 4861SOL    HW126045   4.368   2.701   8.956  2.6003 -1.6353 -0.3258
 4861SOL    HW226046   4.326   2.687   8.820 -1.0766 -1.3993  2.4857
 4862SOL     OW26047   3.368   4.075   6.737 -0.2202 -0.1610  0.4041
 4862SOL    HW126048   3.424   4.032   6.673 -1.2944  0.0727 -0.6781
 4862SOL    HW226049   3.329   4.013   6.798 -0.7363 -1.8506 -1.6463
 4863SOL     OW26050   1.641   1.013   7.441 -0.5549  0.4575  0.6582
 4863SOL    HW126051   1.654   1.098   7.401  1.0414 -0.0410  0.1117
 4863SOL    HW226052   1.619   1.033   7.532 -2.0616  1.3201  0.1033
 4864SOL     OW26053   1.872   2.859   8.848  0.2578 -0.1939  0.3298
 4864SOL    HW126054   1.816   2.925   8.806  1.3509  1.5498  1.6312
 4864SOL    HW226055   1.810   2.827   8.913 -0.7499  2.4073  0.6478
 4865SOL     OW26056   0.275   4.455   6.643 -0.1443 -0.2506  0.0866
 4865SOL    HW126057   0.315   4.530   6.685 -3.1524  1.4273 -0.0191
 4865SOL    HW226058   0.348   4.395   6.630  1.1523  1.4847 -0.6585
 4866SOL     OW26059   1.713   4.435   2.461  0.0569  0.1064  0.0596
 4866SOL    HW126060   1.714   4.386   2.543 -3.1156 -1.3922 -0.8370
 4866SOL    HW226061   1.721   4.366   2.395  0.6597 -1.5126  1.8347
 4867SOL     OW26062   0.704   2.613   5.213  0.5863  0.0184 -0.1213
 4867SOL    HW126063   0.743   2.675   5.274 -2.6816  1.2921  0.6887
 4867SOL    HW226064   0.717   2.661   5.131  2.3081 -0.7732 -0.3135
 4868SOL     OW26065   2.482   2.817   5.652  0.1527  0.8070  0.2892
 4868SOL    HW126066   2.482   2.903   5.611 -0.1224  1.2370  1.1796
 4868SOL    HW226067   2.533   2.844   5.729  0.4336 -0.8793  0.6929
 4869SOL     OW26068   0.074   3.775   6.011  0.4626 -0.2549 -0.8973
 4869SOL    HW126069   0.056   3.774   6.105  0.3437 -1.4087 -0.9265
 4869SOL    HW226070   0.159   3.818   6.013  0.6696 -0.6983 -0.1128
 4870SOL     OW26071   3.624   0.706   5.284  0.3598 -0.0867 -0.4839
 4870SOL    HW126072   3.710   0.706   5.326  0.0139  1.6820  0.2485
 4870SOL    HW226073   3.635   0.614   5.263 -1.8318 -0.8711  1.8933
 4871SOL     OW26074   3.281   3.604   6.369 -0.1053 -0.2800 -0.0824
 4871SOL    HW126075   3.336   3.528   6.347 -0.9361 -0.8190 -0.3109
 4871SOL    HW226076   3.302   3.625   6.459  0.0659  0.2282 -0.2417
 4872SOL     OW26077   3.570   3.135  16.257 -0.0196  0.6387 -0.4911
 4872SOL    HW126078   3.508   3.066  16.284  0.5085  0.4323  0.1985
 4872SOL    HW226079   3.608   3.090  16.182 -0.1776 -2.5057  1.3051
 4873SOL     OW26080   0.251   1.651  16.337  0.1263  0.3160  0.4777
 4873SOL    HW126081   0.236   1.648  16.431 -1.8018  0.3887  0.1569
 4873SOL    HW226082   0.293   1.735  16.317 -1.1731  0.7321 -0.4945
 4874SOL     OW26083   2.986   4.339   7.008 -0.3646 -0.1049  0.2525
 4874SOL    HW126084   2.978   4.248   6.979 -1.5586  0.5793 -1.5784
 4874SOL    HW226085   2.901   4.331   7.051 -1.8257  2.3399 -2.1975
 4875SOL     OW26086   0.780   1.119   4.284 -0.4609 -0.5778  0.4286
 4875SOL    HW126087   0.843   1.062   4.240  0.5560 -0.6520  1.9637
 4875SOL    HW226088   0.738   1.059   4.345 -0.4796  2.1710  3.1220
 4876SOL     OW26089   1.247   3.817   7.956 -0.5544  0.1164 -0.6644
 4876SOL    HW126090   1.244   3.858   7.870 -1.3095  0.8949 -0.2751
 4876SOL    HW226091   1.180   3.748   7.952  0.7442 -1.1975  0.1768
 4877SOL     OW26092   1.294   1.178   6.663  0.1624 -0.3978  0.0724
 4877SOL    HW126093   1.321   1.228   6.740 -1.0227  3.2860 -1.8996
 4877SOL    HW226094   1.376   1.165   6.615  0.3202  0.1861  0.1816
 4878SOL     OW26095   0.234   4.606   6.032  0.0323  0.3572 -0.5165
 4878SOL    HW126096   0.317   4.628   5.990 -0.4731  1.4548 -0.9461
 4878SOL    HW226097   0.170   4.635   5.967 -0.7151 -0.6071 -0.2169
 4879SOL     OW26098   1.411   3.750   6.636 -0.0563 -0.3444 -0.3680
 4879SOL    HW126099   1.478   3.786   6.578  1.6129  1.0193  2.3464
 4879SOL    HW226100   1.450   3.663   6.646  1.2398  0.4871  2.0953
 4880SOL     OW26101   3.934   4.264  10.358  0.0909 -0.1179  0.2581
 4880SOL    HW126102   3.922   4.222  10.272 -1.3473 -0.6228  0.7136
 4880SOL    HW226103   3.902   4.353  10.340  2.0258  0.7413  1.0701
 4881SOL     OW26104   3.124   3.887   3.704  0.1820  0.2514  0.1025
 4881SOL    HW126105   3.091   3.801   3.729  0.9205  0.6289  2.4079
 4881SOL    HW226106   3.046   3.939   3.720  0.0150 -0.2034  0.7446
 4882SOL     OW26107   0.068   0.875   8.087  0.2604 -0.2653 -0.1237
 4882SOL    HW126108   0.163   0.872   8.081  0.2234 -1.5521 -0.0847
 4882SOL    HW226109   0.047   0.784   8.065 -0.1706 -0.1784 -0.0713
 4883SOL     OW26110   1.628   3.335   2.229  0.6891 -0.2140  0.1122
 4883SOL    HW126111   1.665   3.326   2.141 -1.0377  2.5960 -0.9013
 4883SOL    HW226112   1.668   3.268   2.285  0.3452 -0.4774  0.0377
 4884SOL     OW26113   3.823   1.511   1.069  0.4129  0.3305  0.5430
 4884SOL    HW126114   3.824   1.604   1.093  1.9607  1.3273 -3.4938
 4884SOL    HW226115   3.863   1.472   1.147 -2.0955 -0.7883  1.2822
 4885SOL     OW26116   1.151   1.675  10.374  0.0643  0.0705 -0.1033
 4885SOL    HW126117   1.232   1.686  10.323  1.1456 -0.2305  1.5621
 4885SOL    HW226118   1.125   1.587  10.349  1.0923 -0.0840 -0.6745
 4886SOL     OW26119   1.079   3.845   8.687  0.3090 -0.4776  0.4045
 4886SOL    HW126120   1.140   3.896   8.740  0.1544  0.3380 -0.1954
 4886SOL    HW226121   0.988   3.866   8.704  0.3364  0.9707 -1.2153
 4887SOL     OW26122   2.008   3.354  14.515  0.0842  0.2811  0.9104
 4887SOL    HW126123   2.060   3.278  14.539  0.1031  0.9108  2.8210
 4887SOL    HW226124   1.933   3.359  14.574 -0.6988  2.3756 -0.2550
 4888SOL     OW26125   4.493   4.177   7.437 -0.8380 -1.2239 -0.4267
 4888SOL    HW126126   4.448   4.261   7.434  2.1956  0.4919  1.8152
 4888SOL    HW226127   4.498   4.167   7.532  0.6173 -0.7131 -0.4527
 4889SOL     OW26128   0.319   1.364  10.624 -0.4628 -0.0916  0.3317
 4889SOL    HW126129   0.385   1.416  10.669 -1.5072  0.4858  1.1884
 4889SOL    HW226130   0.252   1.430  10.604  1.1172  1.6361  0.7317
 4890SOL     OW26131   0.319   1.004   4.656 -0.3000  0.0153  0.5607
 4890SOL    HW126132   0.351   1.095   4.653  0.1521 -0.1913 -0.5614
 4890SOL    HW226133   0.388   0.959   4.609 -1.4591 -0.5420 -0.5855
 4891SOL     OW26134   1.333   0.540   5.916  0.4386  0.1173  0.2358
 4891SOL    HW126135   1.342   0.605   5.985 -0.9576  1.2512 -0.6715
 4891SOL    HW226136   1.304   0.588   5.838 -1.4393 -1.3340  0.0470
 4892SOL     OW26137   0.334   2.009   4.692 -0.1944 -0.5773 -0.0301
 4892SOL    HW126138   0.286   2.066   4.632  0.5208  0.0826  0.0274
 4892SOL    HW226139   0.418   2.046   4.666  0.3248 -0.0080  2.4913
 4893SOL     OW26140   0.803   1.530   4.575 -0.0179 -0.1188  0.4421
 4893SOL    HW126141   0.727   1.586   4.556  0.1609 -0.4561 -1.2648
 4893SOL    HW226142   0.780   1.506   4.664 -1.7902  0.2370  0.0978
 4894SOL     OW26143   4.651   4.229   1.016 -0.2217  0.0783  0.4895
 4894SOL    HW126144   4.630   4.318   1.043  0.1540 -0.8876  3.9345
 4894SOL    HW226145   4.596   4.223   0.938  1.5122  0.9439 -0.7860
 4895SOL     OW26146   1.058   2.179   4.346  0.0398 -0.0264 -0.2229
 4895SOL    HW126147   0.989   2.184   4.412  0.3234  1.7229 -0.0564
 4895SOL    HW226148   1.049   2.258   4.293 -0.8199  0.9092  1.3299
 4896SOL     OW26149   4.140   3.897   5.786  0.0600 -0.1740 -0.1942
 4896SOL    HW126150   4.188   3.816   5.799  0.9798  0.9193  3.2168
 4896SOL    HW226151   4.209   3.960   5.809 -0.6005  0.0491  1.1892
 4897SOL     OW26152   2.220   3.854   6.264  0.3939  0.3721 -0.7347
 4897SOL    HW126153   2.207   3.760   6.275  0.0656  0.3493 -1.2921
 4897SOL    HW226154   2.132   3.880   6.238  0.8012  2.0837 -0.3848
 4898SOL     OW26155   4.319   0.453  17.320 -0.4795  0.1245  0.9056
 4898SOL    HW126156   4.334   0.546  17.337 -2.6000  0.5646  0.3629
 4898SOL    HW226157   4.251   0.439  17.387 -2.4540  1.9943 -0.6999
 4899SOL     OW26158   2.339   2.376   0.096  0.4641  0.5746  0.5558
 4899SOL    HW126159   2.279   2.451   0.098 -2.1301 -1.4137 -1.7637
 4899SOL    HW226160   2.417   2.400   0.046 -1.2927  2.3931 -1.3441
 4900SOL     OW26161   3.278   0.581   1.246 -0.3560 -0.0095 -0.5554
 4900SOL    HW126162   3.341   0.531   1.299 -0.5304 -1.7521 -1.9823
 4900SOL    HW226163   3.328   0.595   1.165  2.2261  2.0419  1.4072
 4901SOL     OW26164   4.393   2.877   8.020  0.7212 -0.2410  0.0624
 4901SOL    HW126165   4.453   2.840   8.085  2.6522  0.6029 -1.2316
 4901SOL    HW226166   4.349   2.805   7.976 -0.2898  1.0801 -1.0835
 4902SOL     OW26167   0.940   0.371  13.424 -0.4527  0.1829  0.3761
 4902SOL    HW126168   0.902   0.309  13.486  1.8781  0.0977  1.7228
 4902SOL    HW226169   0.882   0.446  13.438  2.8624  2.6549  0.8244
 4903SOL     OW26170   1.022   0.847   7.615 -0.4471  0.5018 -0.4032
 4903SOL    HW126171   1.092   0.847   7.550  0.0292  1.7762  0.1028
 4903SOL    HW226172   1.054   0.782   7.678 -0.5184  0.8430 -0.0061
 4904SOL     OW26173   2.375   3.214  10.525 -0.2739  0.3089  0.5944
 4904SOL    HW126174   2.366   3.211  10.430 -0.1327 -0.4558  0.6022
 4904SOL    HW226175   2.313   3.276  10.561 -0.2047  0.1107  1.0508
 4905SOL     OW26176   0.321   1.269  12.414 -0.7380 -0.0937  0.1769
 4905SOL    HW126177   0.333   1.242  12.323 -2.9517 -2.0858  0.4804
 4905SOL    HW226178   0.228   1.292  12.411 -0.9162 -0.7293  1.1910
 4906SOL     OW26179   0.154   0.175   6.844  0.4663 -0.3604 -0.3256
 4906SOL    HW126180   0.080   0.126   6.807 -1.5960  0.9774  2.0281
 4906SOL    HW226181   0.180   0.117   6.915  2.2541  0.5513 -0.2208
 4907SOL     OW26182   2.236   2.861  13.192  0.7183 -0.2436 -0.3476
 4907SOL    HW126183   2.267   2.951  13.202 -1.2085  0.6982 -2.9533
 4907SOL    HW226184   2.321   2.821  13.170  1.6448  0.4056  2.0300
 4908SOL     OW26185   0.123   1.901   6.919  0.0661 -0.1927  0.0622
 4908SOL    HW126186   0.055   1.903   6.986  1.6706  4.2526  1.5147
 4908SOL    HW226187   0.201   1.897   6.974 -0.8455  1.3072  1.4469
 4909SOL     OW26188   0.325   3.830   7.644  0.1948  0.5005  0.6103
 4909SOL    HW126189   0.367   3.909   7.677  1.1244 -0.3132  1.4053
 4909SOL    HW226190   0.393   3.763   7.641  1.6041  1.9611 -0.0081
 4910SOL     OW26191   1.221   1.165   7.904 -0.0607 -0.3518  0.5267
 4910SOL    HW126192   1.272   1.242   7.931 -1.7525  0.7584  0.5793
 4910SOL    HW226193   1.190   1.193   7.818 -0.2448  0.4500  0.8540
 4911SOL     OW26194   3.788   0.339   9.137  0.1994  0.9963 -0.4105
 4911SOL    HW126195   3.708   0.305   9.175 -0.0985  1.2702 -0.7913
 4911SOL    HW226196   3.749   0.383   9.061 -2.7081  0.9010  1.0459
 4912SOL     OW26197   1.343   4.594   2.496 -0.4544 -0.1608  0.5632
 4912SOL    HW126198   1.272   4.531   2.487 -1.4979  0.8512  1.6319
 4912SOL    HW226199   1.311   4.671   2.449 -1.2766 -0.4580  0.6433
 4913SOL     OW26200   2.107   1.424  13.134  0.0175 -0.0208 -0.8396
 4913SOL    HW126201   2.096   1.519  13.130  0.7886  0.0883 -0.5425
 4913SOL    HW226202   2.033   1.398  13.190  0.6216 -1.0718 -0.5193
 4914SOL     OW26203   0.917   3.434   6.342  0.0862  0.2308 -0.6425
 4914SOL    HW126204   0.897   3.515   6.390 -1.3699 -0.0060 -0.8466
 4914SOL    HW226205   1.012   3.441   6.346 -0.0014  1.2312 -0.2375
 4915SOL     OW26206   3.871   1.216   8.051 -0.6022 -0.0600  0.2273
 4915SOL    HW126207   3.855   1.172   8.134  0.4217 -0.0664  0.4189
 4915SOL    HW226208   3.906   1.303   8.070 -0.3495 -0.4064  1.3506
 4916SOL     OW26209   3.938   4.055   6.206 -0.3522  0.0806  0.3489
 4916SOL    HW126210   3.900   3.975   6.243  1.5748 -0.3386  1.4534
 4916SOL    HW226211   4.017   4.062   6.259  1.5433 -2.6794 -2.0595
 4917SOL     OW26212   3.554   2.612  13.115  0.1589  0.0002  0.3596
 4917SOL    HW126213   3.558   2.707  13.124 -1.1694  0.2915 -1.9885
 4917SOL    HW226214   3.459   2.596  13.116 -0.0543  1.3302  1.1454
 4918SOL     OW26215   4.673   1.527   7.304 -0.5064  0.4047  0.6221
 4918SOL    HW126216   4.696   1.461   7.370  0.2135 -0.6791 -0.7150
 4918SOL    HW226217   4.713   1.603   7.345  1.9665 -1.2583  1.3336
 4919SOL     OW26218   0.724   2.156   3.558 -0.7338 -0.1247 -0.1533
 4919SOL    HW126219   0.721   2.193   3.647 -2.4340  2.1456 -1.1571
 4919SOL    HW226220   0.802   2.206   3.534 -0.7160 -0.5697 -0.9999
 4920SOL     OW26221   4.547   2.185   4.689  0.1385  0.2734 -0.1545
 4920SOL    HW126222   4.614   2.130   4.728 -0.9562 -0.1648  1.1191
 4920SOL    HW226223   4.592   2.268   4.674  0.5229 -0.3622 -2.4447
 4921SOL     OW26224   2.025   0.272   6.342  0.1237 -0.6295 -0.0162
 4921SOL    HW126225   2.010   0.234   6.256  0.9020 -1.4786  0.2204
 4921SOL    HW226226   2.064   0.204   6.397  0.4345 -0.7711 -0.4123
 4922SOL     OW26227   2.641   0.279   2.030  0.6594 -0.7517  0.3494
 4922SOL    HW126228   2.671   0.219   2.099  1.8231  0.8191  1.2162
 4922SOL    HW226229   2.639   0.220   1.955 -0.1759  0.9933 -0.9822
 4923SOL     OW26230   2.202   1.116   3.164  0.5032 -0.0437 -0.3331
 4923SOL    HW126231   2.265   1.052   3.131 -0.2899 -0.2398 -1.4608
 4923SOL    HW226232   2.223   1.184   3.100 -0.0254  1.4116  1.0193
 4924SOL     OW26233   2.965   1.998   8.420  0.1270 -0.3232 -0.6898
 4924SOL    HW126234   2.886   2.018   8.469  0.5154 -0.7096  0.0861
 4924SOL    HW226235   3.014   2.075   8.447  1.5976 -0.8685 -1.8045
 4925SOL     OW26236   3.125   3.481   5.340  0.2186 -0.1001 -0.0894
 4925SOL    HW126237   3.189   3.515   5.403  0.9749 -0.5050 -0.6324
 4925SOL    HW226238   3.074   3.560   5.323 -1.5377 -1.1216  0.5408
 4926SOL     OW26239   2.981   4.585  11.466 -0.3447 -0.5113  0.1636
 4926SOL    HW126240   3.002   4.495  11.492 -1.7755 -0.2017  2.3535
 4926SOL    HW226241   3.060   4.608  11.417 -0.4330  0.1883  0.3549
 4927SOL     OW26242   2.305   2.044   2.441  0.2174 -0.1156 -0.4778
 4927SOL    HW126243   2.332   2.031   2.531 -2.6666 -0.6344  0.3238
 4927SOL    HW226244   2.389   2.071   2.404 -0.4244 -0.9783 -2.5631
 4928SOL     OW26245   0.347   4.210  11.376 -0.7496 -0.4024 -0.0356
 4928SOL    HW126246   0.441   4.202  11.358 -0.9251  1.0091 -1.6266
 4928SOL    HW226247   0.317   4.184  11.289  1.3108 -2.0152 -0.2479
 4929SOL     OW26248   3.602   2.146  16.996 -0.1522 -0.4327  0.0674
 4929SOL    HW126249   3.665   2.111  16.933  1.2249  2.8939 -0.3511
 4929SOL    HW226250   3.526   2.156  16.939 -0.0153 -1.6614 -0.3520
 4930SOL     OW26251   2.900   2.096   1.448  0.2950  0.1127 -0.2852
 4930SOL    HW126252   2.819   2.145   1.439 -0.9267 -2.0870 -1.2723
 4930SOL    HW226253   2.951   2.141   1.515 -0.3656 -0.0358  0.3144
 4931SOL     OW26254   4.573   0.854   5.138  0.4514  0.4206  0.4493
 4931SOL    HW126255   4.511   0.900   5.195 -0.4342  0.4741 -0.5491
 4931SOL    HW226256   4.540   0.879   5.052 -1.2813 -0.6337  0.8218
 4932SOL     OW26257   1.476   2.941   8.458  0.4729  0.2175 -0.0735
 4932SOL    HW126258   1.464   2.860   8.409 -2.4380  1.0390 -0.7218
 4932SOL    HW226259   1.465   3.001   8.384 -0.5056  1.0172  0.7159
 4933SOL     OW26260   1.453   4.283   5.518 -0.8954 -0.0776  0.3000
 4933SOL    HW126261   1.547   4.277   5.537 -0.9395  0.4408  0.6817
 4933SOL    HW226262   1.449   4.365   5.469 -2.5643 -0.3543 -0.0130
 4934SOL     OW26263   4.050   0.471  17.490  0.8919  0.0244  0.1585
 4934SOL    HW126264   4.061   0.557  17.450  1.5004 -0.0250  0.2198
 4934SOL    HW226265   3.963   0.478  17.531  0.4637  1.1020 -0.9191
 4935SOL     OW26266   2.592   1.085   1.517 -0.3253  0.2754  0.1069
 4935SOL    HW126267   2.655   1.104   1.448  0.4547 -0.1445  0.6967
 4935SOL    HW226268   2.519   1.077   1.456 -1.6959  0.8174  1.6880
 4936SOL     OW26269   4.596   3.654   6.467 -0.6227 -0.1254 -0.0093
 4936SOL    HW126270   4.569   3.598   6.394  1.6163  3.3396 -3.4623
 4936SOL    HW226271   4.540   3.619   6.536 -0.5304 -1.4608 -0.6069
 4937SOL     OW26272   1.821   3.620   3.487 -0.5630  0.2787 -0.0338
 4937SOL    HW126273   1.822   3.694   3.426  0.3311 -1.2453 -1.8741
 4937SOL    HW226274   1.864   3.548   3.440 -0.1142  1.3701 -1.3130
 4938SOL     OW26275   4.242   1.577  16.187 -0.3276  0.5670  0.3320
 4938SOL    HW126276   4.311   1.641  16.202  1.3365 -1.0913 -0.1766
 4938SOL    HW226277   4.286   1.498  16.157 -0.5855 -0.3903  2.4324
 4939SOL     OW26278   3.263   1.611   8.883 -0.1261  0.8912  0.1076
 4939SOL    HW126279   3.169   1.619   8.873 -0.1996 -0.5161 -0.3741
 4939SOL    HW226280   3.268   1.575   8.971  1.1963 -0.1578 -0.3870
 4940SOL     OW26281   3.726   4.674  12.186  0.2365  0.4144 -0.0488
 4940SOL    HW126282   3.649   4.713  12.144  0.5277 -0.0306 -1.0077
 4940SOL    HW226283   3.782   0.026  12.174  0.3195  0.2259 -0.8685
 4941SOL     OW26284   4.120   2.004   5.563 -0.2050  0.6349 -0.2028
 4941SOL    HW126285   4.088   2.014   5.653  2.2213  1.2132  0.5854
 4941SOL    HW226286   4.037   2.000   5.515  0.8606 -0.4924 -1.9662
 4942SOL     OW26287   3.210   1.507  10.835 -0.2746 -0.0508  0.1651
 4942SOL    HW126288   3.140   1.480  10.895  0.8146  1.8123  2.2819
 4942SOL    HW226289   3.156   1.542  10.764  0.6336 -0.9210 -0.9500
 4943SOL     OW26290   2.773   4.107   3.509  0.5342 -0.0198  0.0301
 4943SOL    HW126291   2.757   4.017   3.479  2.8884 -0.1326 -0.8317
 4943SOL    HW226292   2.773   4.157   3.428 -0.1945  1.1692  0.7633
 4944SOL     OW26293   3.502   1.383   1.934  0.1085 -0.3794 -0.0113
 4944SOL    HW126294   3.543   1.298   1.921  2.5922  0.6246  1.2035
 4944SOL    HW226295   3.460   1.386   2.020 -0.9647  0.3803 -0.5605
 4945SOL     OW26296   3.740   3.171  11.255  0.1453  0.5249 -0.1414
 4945SOL    HW126297   3.694   3.106  11.202 -1.3091  0.0652  1.6722
 4945SOL    HW226298   3.793   3.128  11.321  0.0030  1.8149  0.8184
 4946SOL     OW26299   2.821   2.562   2.298  0.2925 -0.3666 -0.4950
 4946SOL    HW126300   2.793   2.652   2.311 -2.0822 -1.2938  0.8580
 4946SOL    HW226301   2.811   2.568   2.203  2.2549  3.2584 -0.4557
 4947SOL     OW26302   4.606   2.736   8.725 -0.0685 -0.3256 -0.2989
 4947SOL    HW126303   4.568   2.784   8.652  0.6973 -2.0283 -1.8269
 4947SOL    HW226304   4.528   2.725   8.780 -0.9155 -0.0527 -1.4614
 4948SOL     OW26305   2.580   3.146   8.279  0.2489 -0.1059  0.4898
 4948SOL    HW126306   2.533   3.073   8.318 -0.7987  1.0714  1.4373
 4948SOL    HW226307   2.499   3.196   8.264 -0.3787 -0.4752  2.7057
 4949SOL     OW26308   2.380   3.929  17.133  0.0942  0.2019  0.4939
 4949SOL    HW126309   2.366   3.836  17.154  0.9132  0.1398  0.7636
 4949SOL    HW226310   2.291   3.958  17.154  0.3709  2.0336 -0.8708
 4950SOL     OW26311   1.123   3.241   8.575  0.2380 -0.0819  0.3159
 4950SOL    HW126312   1.190   3.297   8.615  0.0439  0.1800  0.2760
 4950SOL    HW226313   1.129   3.262   8.481  1.0018 -0.4153  0.2904
 4951SOL     OW26314   1.260   0.261   1.550  0.2616  0.3511  0.3532
 4951SOL    HW126315   1.302   0.346   1.566  3.0434 -1.1925  1.1901
 4951SOL    HW226316   1.327   0.197   1.573 -1.6453 -1.4458  0.9903
 4952SOL     OW26317   3.764   4.702   2.731 -0.0880 -0.6528 -0.2156
 4952SOL    HW126318   3.761   4.644   2.655 -0.8870 -0.8943 -0.0041
 4952SOL    HW226319   3.691   4.663   2.779 -1.9593 -0.4019 -2.8991
 4953SOL     OW26320   0.920   1.901   5.596 -0.3252  0.3390 -0.0785
 4953SOL    HW126321   0.915   1.826   5.655 -0.5684  0.8298  0.5207
 4953SOL    HW226322   1.014   1.918   5.601 -0.3276  0.2463  0.2981
 4954SOL     OW26323   0.684   0.182   5.149  0.2676 -0.0735  0.1910
 4954SOL    HW126324   0.729   0.180   5.234  1.8762 -1.9890 -0.7174
 4954SOL    HW226325   0.734   0.113   5.106  0.1004  1.1281 -1.9347
 4955SOL     OW26326   3.957   2.135  11.182  0.0940 -0.0403  0.2613
 4955SOL    HW126327   4.022   2.099  11.121 -0.1176 -2.6675  1.5640
 4955SOL    HW226328   3.904   2.056  11.192  0.6917 -0.5527 -0.5969
 4956SOL     OW26329   2.742   0.241   5.121 -0.0269 -0.4461 -0.4167
 4956SOL    HW126330   2.688   0.164   5.138  0.0236 -0.3978 -0.0307
 4956SOL    HW226331   2.823   0.194   5.099  0.3411  0.5003 -1.0820
 4957SOL     OW26332   3.195   3.400   6.142  0.3516 -0.1636 -0.1743
 4957SOL    HW126333   3.210   3.478   6.195  0.9168  1.9445 -3.4707
 4957SOL    HW226334   3.279   3.381   6.100  0.4374  0.6467 -0.3567
 4958SOL     OW26335   2.159   0.620  14.750  0.1723  0.6009 -0.1329
 4958SOL    HW126336   2.197   0.686  14.692 -0.1411  0.7485 -0.1710
 4958SOL    HW226337   2.237   0.598  14.799 -0.4926  2.0875  1.5899
 4959SOL     OW26338   2.063   4.041   5.276 -0.5210 -1.0283 -0.1873
 4959SOL    HW126339   2.079   4.013   5.186 -1.3246 -1.1081 -0.3084
 4959SOL    HW226340   1.968   4.029   5.278 -0.7487  0.8722  0.1548
 4960SOL     OW26341   2.769   2.261  17.449  0.3494 -0.5905 -0.3573
 4960SOL    HW126342   2.769   2.302  17.363  1.5501 -2.0057 -1.0435
 4960SOL    HW226343   2.745   2.174  17.415 -0.4168 -0.5306  0.0128
 4961SOL     OW26344   1.394   0.424   2.841 -0.5866  0.1624 -0.3099
 4961SOL    HW126345   1.396   0.467   2.756  0.0543  0.7774  0.0145
 4961SOL    HW226346   1.488   0.423   2.858 -0.8467 -1.0065  1.0856
 4962SOL     OW26347   2.682   0.833   4.312 -0.6426 -0.4610 -0.3218
 4962SOL    HW126348   2.642   0.858   4.396  1.2841 -2.3149  1.1322
 4962SOL    HW226349   2.608   0.847   4.253  0.0223  0.5860 -0.9042
 4963SOL     OW26350   2.261   2.906   6.315 -0.5481  0.3297  0.5369
 4963SOL    HW126351   2.353   2.891   6.338 -0.2503  0.8580 -0.2756
 4963SOL    HW226352   2.256   2.838   6.249 -1.2029  0.4957  0.4171
 4964SOL     OW26353   0.557   4.363   5.648  0.1179  0.3318 -0.5379
 4964SOL    HW126354   0.514   4.290   5.692  0.8168  1.3241  1.8178
 4964SOL    HW226355   0.643   4.369   5.690 -0.9422  0.6172  1.5716
 4965SOL     OW26356   4.244   1.748  11.415  0.2943 -0.1633  0.1589
 4965SOL    HW126357   4.243   1.798  11.497 -1.5492  3.8170 -2.2530
 4965SOL    HW226358   4.244   1.659  11.449  1.7423 -0.8269 -1.5964
 4966SOL     OW26359   3.998   2.927  13.838  0.2162 -0.0032 -0.4462
 4966SOL    HW126360   4.056   2.970  13.900  0.7788  1.3123 -1.8780
 4966SOL    HW226361   4.036   2.840  13.827  2.2933  0.6710  1.4928
 4967SOL     OW26362   1.224   4.297   9.139 -0.0978  0.1629 -0.4825
 4967SOL    HW126363   1.132   4.322   9.134 -0.0059  0.8693  1.6540
 4967SOL    HW226364   1.257   4.386   9.150  0.2505 -0.0904  0.4777
 4968SOL     OW26365   0.546   0.317  12.109 -0.5024 -0.0361 -0.3080
 4968SOL    HW126366   0.543   0.222  12.114  2.0393 -0.0598  0.5092
 4968SOL    HW226367   0.641   0.325  12.102 -0.5990  0.5122 -1.0321
 4969SOL     OW26368   1.982   4.216   2.360  0.0546 -0.6305 -0.4097
 4969SOL    HW126369   2.037   4.269   2.419 -0.4278 -0.0243 -0.5042
 4969SOL    HW226370   2.035   4.209   2.282  0.2819 -1.9084 -0.1338
 4970SOL     OW26371   0.787   0.857   9.279  0.0327  0.6198  0.7208
 4970SOL    HW126372   0.863   0.880   9.333 -0.0081  0.3199  0.9059
 4970SOL    HW226373   0.716   0.913   9.308 -0.8670  1.3474 -2.9431
 4971SOL     OW26374   1.567   2.526  13.701 -0.1912 -0.0577  0.3936
 4971SOL    HW126375   1.553   2.607  13.653  0.3162  1.4831  2.8144
 4971SOL    HW226376   1.661   2.508  13.693 -0.1828 -0.0085  0.3857
 4972SOL     OW26377   3.219   1.781   5.720  0.0932  0.7066  0.0508
 4972SOL    HW126378   3.194   1.859   5.771  0.0236 -1.0997  2.7869
 4972SOL    HW226379   3.301   1.806   5.677 -0.6297  0.8551 -1.2339
 4973SOL     OW26380   2.758   2.249   7.932 -0.2797  0.1974 -0.4269
 4973SOL    HW126381   2.721   2.182   7.990  1.0278 -0.3945 -0.2778
 4973SOL    HW226382   2.839   2.201   7.912  0.4934  1.5759 -0.5655
 4974SOL     OW26383   3.123   4.611  14.601  0.4984  0.1931 -0.3996
 4974SOL    HW126384   3.142   4.691  14.553 -2.3700  2.6356  2.4957
 4974SOL    HW226385   3.205   4.603  14.651  1.3957 -2.0335 -2.2129
 4975SOL     OW26386   4.365   2.987   6.038  0.4366  0.0094 -0.5523
 4975SOL    HW126387   4.332   3.072   6.067 -0.6705 -0.5296 -0.2174
 4975SOL    HW226388   4.284   2.959   5.995 -0.3535  0.9826  0.3150
 4976SOL     OW26389   4.485   1.374  16.123 -0.1931 -0.1634 -0.3235
 4976SOL    HW126390   4.570   1.414  16.102 -0.3480  1.0254  1.3245
 4976SOL    HW226391   4.459   1.344  16.035 -3.2956 -0.7542  0.7951
 4977SOL     OW26392   4.278   2.638  15.399  0.2757 -0.0789  0.4092
 4977SOL    HW126393   4.210   2.668  15.459  1.8574  2.3997  0.9544
 4977SOL    HW226394   4.361   2.646  15.444  0.7831  0.3524 -0.5925
 4978SOL     OW26395   1.859   2.481  10.442 -0.8268  0.4792  0.0961
 4978SOL    HW126396   1.895   2.512  10.525  0.2374 -1.6597  0.4471
 4978SOL    HW226397   1.939   2.463  10.391  0.3386 -0.9454  2.4203
 4979SOL     OW26398   1.565   1.592  11.132 -0.1595 -0.2566 -0.5941
 4979SOL    HW126399   1.609   1.528  11.076  0.0633  0.0246 -0.7413
 4979SOL    HW226400   1.527   1.660  11.076  0.7841  0.8847  0.1467
 4980SOL     OW26401   3.921   1.023   6.307 -0.0528  0.2603 -0.5791
 4980SOL    HW126402   3.849   1.069   6.262  1.7206  1.4887 -2.1609
 4980SOL    HW226403   3.876   0.971   6.373 -0.7853  1.5036 -0.1124
 4981SOL     OW26404   0.224   1.259   4.520 -0.0500 -0.2108 -0.3392
 4981SOL    HW126405   0.199   1.203   4.447 -1.1425 -1.7488  1.2341
 4981SOL    HW226406   0.317   1.274   4.504 -0.6987  3.2661 -0.9790
 4982SOL     OW26407   3.415   3.385   1.571 -0.2608  0.0640 -0.1039
 4982SOL    HW126408   3.371   3.363   1.654  0.6253  0.6578  0.5214
 4982SOL    HW226409   3.488   3.323   1.572 -1.3248 -1.1787  1.2956
 4983SOL     OW26410   3.695   1.176   8.543  0.1937 -0.1758  0.5977
 4983SOL    HW126411   3.764   1.110   8.535  0.2553 -0.0519  0.1080
 4983SOL    HW226412   3.629   1.139   8.484  0.8637 -1.1640  0.4568
 4984SOL     OW26413   0.253   3.994   5.859  0.4752 -0.1995 -0.0862
 4984SOL    HW126414   0.326   4.054   5.845 -0.1738  0.5767 -0.1268
 4984SOL    HW226415   0.293   3.908   5.847  1.1322  0.4152 -2.2488
 4985SOL     OW26416   3.061   0.628  13.008 -0.5847  0.1991 -0.3302
 4985SOL    HW126417   3.099   0.541  12.997  0.9234  0.7967  0.2074
 4985SOL    HW226418   3.082   0.658  13.096 -0.8379  0.0865 -0.2325
 4986SOL     OW26419   3.358   1.037   1.025  0.1338  0.5765 -0.5946
 4986SOL    HW126420   3.442   1.045   1.070 -0.0921  0.6651 -0.1919
 4986SOL    HW226421   3.398   1.054   0.939  2.5521  0.3048  0.4803
 4987SOL     OW26422   3.325   0.769   5.283 -0.3072 -0.1301 -0.3674
 4987SOL    HW126423   3.413   0.732   5.275  0.8110  2.2333  0.9298
 4987SOL    HW226424   3.301   0.722   5.363  0.3092 -1.1196 -0.7585
 4988SOL     OW26425   4.168   0.732   8.145 -0.1436  0.0336 -0.0387
 4988SOL    HW126426   4.160   0.825   8.169  0.8902  0.3223 -0.8032
 4988SOL    HW226427   4.173   0.739   8.050 -0.5408  0.1004 -0.0562
 4989SOL     OW26428   4.281   2.983  11.599  0.6228 -0.4689 -0.3131
 4989SOL    HW126429   4.297   2.978  11.504  0.7144 -4.3150 -0.0851
 4989SOL    HW226430   4.331   3.064  11.614 -2.0606  1.0715  0.2217
 4990SOL     OW26431   2.512   0.109  13.731 -0.7416 -0.8103  0.1739
 4990SOL    HW126432   2.505   0.114  13.635 -0.5212 -1.1096  0.1421
 4990SOL    HW226433   2.482   0.018  13.741 -2.6071 -0.2771 -0.4465
 4991SOL     OW26434   2.582   4.086   2.922 -0.7035 -0.0954 -0.0918
 4991SOL    HW126435   2.505   4.032   2.939 -1.2383  0.7411  0.1375
 4991SOL    HW226436   2.634   4.043   2.853  1.3432 -1.5787  2.3831
 4992SOL     OW26437   4.474   2.056   3.413  0.1868 -0.2637  0.2214
 4992SOL    HW126438   4.485   2.144   3.447  0.6457  0.6774 -2.3671
 4992SOL    HW226439   4.559   2.027   3.381  0.2751  0.7672 -0.4873
 4993SOL     OW26440   2.873   0.263   9.294 -0.1928 -0.0547 -0.4120
 4993SOL    HW126441   2.848   0.171   9.300 -1.5873  0.3809  0.4709
 4993SOL    HW226442   2.793   0.300   9.256 -0.6028  1.5099  1.9765
 4994SOL     OW26443   3.364   4.177   2.708  0.0687 -0.2857  0.0236
 4994SOL    HW126444   3.330   4.102   2.659 -1.1091 -1.2193  2.2448
 4994SOL    HW226445   3.278   4.204   2.741  1.1771  2.2434  0.8618
 4995SOL     OW26446   2.718   3.868   3.378 -0.5107  0.7028 -0.5069
 4995SOL    HW126447   2.670   3.837   3.301 -0.6253  1.6734 -0.8193
 4995SOL    HW226448   2.809   3.854   3.350 -0.8018  0.0875 -1.1473
 4996SOL     OW26449   3.786   4.599  13.707  0.1512 -0.0584 -0.2413
 4996SOL    HW126450   3.706   4.549  13.727  0.3102 -0.3724 -0.3870
 4996SOL    HW226451   3.807   4.561  13.622 -0.3945  0.7650 -0.7455
 4997SOL     OW26452   2.782   2.278   6.494  0.2106 -0.2377 -0.0847
 4997SOL    HW126453   2.769   2.257   6.401  0.9513  0.3123 -0.3093
 4997SOL    HW226454   2.716   2.222   6.536 -1.9986  1.1887 -1.6349
 4998SOL     OW26455   3.749   4.677   2.013  0.4112 -0.2231 -0.2563
 4998SOL    HW126456   3.838   4.712   2.004 -0.5581  2.2979 -0.0173
 4998SOL    HW226457   3.705   4.697   1.930  0.6476 -0.5061 -0.4491
 4999SOL     OW26458   1.344   4.405   0.929  0.0820  0.3165  0.5469
 4999SOL    HW126459   1.287   4.430   0.857 -0.2475 -1.6487  0.1283
 4999SOL    HW226460   1.286   4.423   1.003 -1.7500 -0.4531 -0.6975
 5000SOL     OW26461   3.259   0.135   1.606  0.3064 -0.3682 -0.0212
 5000SOL    HW126462   3.293   0.070   1.668  1.0153 -1.2109 -1.3035
 5000SOL    HW226463   3.175   0.094   1.583 -0.6281 -0.0640  2.7957
 5001SOL     OW26464   1.223   2.355   7.199 -0.2962  0.3486 -1.0792
 5001SOL    HW126465   1.290   2.421   7.218  0.3077  0.1073 -2.3840
 5001SOL    HW226466   1.260   2.283   7.249 -0.8209  0.4655 -0.5154
 5002SOL     OW26467   1.241   3.215   0.521  0.1286  0.1858 -0.0099
 5002SOL    HW126468   1.250   3.202   0.615  0.8911 -2.2475 -0.4204
 5002SOL    HW226469   1.180   3.289   0.522 -0.1344 -0.0347  0.4305
 5003SOL     OW26470   2.288   3.969   7.983  0.4657 -0.1555 -0.5553
 5003SOL    HW126471   2.303   4.043   8.044 -1.2333 -0.8507  0.6918
 5003SOL    HW226472   2.353   3.902   8.006  1.2104  0.2599 -1.4318
 5004SOL     OW26473   2.378   0.113  13.959 -0.3936 -0.7504  0.1638
 5004SOL    HW126474   2.441   0.105  13.888  0.4976  1.0816  0.7392
 5004SOL    HW226475   2.374   0.027  13.999 -0.0755  0.0811  1.9918
 5005SOL     OW26476   0.328   0.222   9.150 -0.4340 -0.1299 -0.0127
 5005SOL    HW126477   0.251   0.186   9.194 -0.6746 -0.5199 -0.7554
 5005SOL    HW226478   0.367   0.292   9.202 -0.5486 -0.8671  1.0720
 5006SOL     OW26479   2.846   0.775  10.173 -1.0135  0.0342 -0.0429
 5006SOL    HW126480   2.828   0.775  10.079 -1.5790  0.4649  0.0667
 5006SOL    HW226481   2.830   0.684  10.196  0.7942  0.1650  1.7264
 5007SOL     OW26482   2.545   1.328  13.580 -0.6126  0.6799  0.0760
 5007SOL    HW126483   2.556   1.256  13.518  0.5526  1.1802 -0.2979
 5007SOL    HW226484   2.613   1.385  13.545 -0.3238  1.0254  1.2001
 5008SOL     OW26485   1.247   4.674   7.411 -0.4575 -0.0803 -0.1292
 5008SOL    HW126486   1.202   4.618   7.348 -0.7798  2.2944 -2.0102
 5008SOL    HW226487   1.188   4.664   7.486  0.7889  0.7882  0.9726
 5009SOL     OW26488   3.079   2.599  16.146 -0.7101  0.4654  0.0066
 5009SOL    HW126489   3.032   2.621  16.227 -0.9510 -3.4066  0.8799
 5009SOL    HW226490   3.043   2.518  16.111  2.2889 -0.9247  0.1943
 5010SOL     OW26491   3.052   1.407   0.285 -0.0589 -0.2202 -0.3873
 5010SOL    HW126492   3.053   1.311   0.288  0.5131 -0.2341 -1.0935
 5010SOL    HW226493   2.989   1.433   0.352 -0.1523 -0.0769 -0.5311
 5011SOL     OW26494   2.615   2.349   4.840  0.3723  0.6642  0.1846
 5011SOL    HW126495   2.597   2.266   4.884  0.7701  0.3626 -0.2325
 5011SOL    HW226496   2.697   2.333   4.794  0.3089 -0.2814  0.3973
 5012SOL     OW26497   2.179   4.409   4.963  0.4234 -0.2170 -0.3493
 5012SOL    HW126498   2.271   4.386   4.948  0.9194  1.3751  0.2363
 5012SOL    HW226499   2.187   4.502   4.939 -0.9130  0.3510  1.4574
 5013SOL     OW26500   3.058   1.936  15.475 -0.3500  0.0569  0.2397
 5013SOL    HW126501   3.118   1.941  15.550 -1.0681 -1.0102  0.8791
 5013SOL    HW226502   3.122   1.939  15.404 -2.7614  0.9049 -1.8953
 5014SOL     OW26503   3.384   2.985  15.624  0.0488 -0.4504  0.4113
 5014SOL    HW126504   3.316   3.040  15.663  2.3682  0.9114  2.5236
 5014SOL    HW226505   3.337   2.907  15.595 -2.7006  1.1005  0.7512
 5015SOL     OW26506   1.280   3.859   7.367  0.1881 -0.0241  0.0195
 5015SOL    HW126507   1.358   3.911   7.348 -1.2576  2.1338 -0.0651
 5015SOL    HW226508   1.212   3.920   7.397  0.3171 -0.4365  1.1473
 5016SOL     OW26509   1.037   3.099  14.038  0.0100 -0.2940  0.1014
 5016SOL    HW126510   1.042   3.102  14.133 -1.2293  1.1665  0.1194
 5016SOL    HW226511   0.957   3.047  14.028 -0.2753  0.5282 -1.9312
 5017SOL     OW26512   0.040   0.590   2.932 -0.2317 -0.5259  0.1075
 5017SOL    HW126513   0.046   0.526   2.862 -0.3178  1.1559 -1.4366
 5017SOL    HW226514   0.085   0.663   2.889 -2.8942  0.1136 -1.6062
 5018SOL     OW26515   4.583   0.038   0.987  0.3642 -0.5559  0.0281
 5018SOL    HW126516   4.616   0.060   1.074  1.2613 -0.5608 -0.3107
 5018SOL    HW226517   4.598   0.126   0.951 -1.7367  0.0135  0.5167
 5019SOL     OW26518   1.928   1.912   6.555 -0.0781  0.1893 -0.0092
 5019SOL    HW126519   1.934   1.977   6.486  1.2640 -0.1871 -0.2334
 5019SOL    HW226520   2.012   1.867   6.556  0.1877  0.6919  0.5366
 5020SOL     OW26521   0.650   1.801   9.086 -0.2569  0.3022  0.0340
 5020SOL    HW126522   0.686   1.884   9.057  1.3951  0.4389  2.5274
 5020SOL    HW226523   0.555   1.814   9.080 -0.5440 -1.5824  0.2082
 5021SOL     OW26524   3.244   4.199   8.182  0.2230 -0.0035  0.2800
 5021SOL    HW126525   3.337   4.183   8.168  0.2052  1.7579 -1.7945
 5021SOL    HW226526   3.223   4.269   8.120  1.5609  0.5791  0.4879
 5022SOL     OW26527   1.110   0.032   4.270  0.1563 -0.1854  0.3503
 5022SOL    HW126528   1.085   4.715   4.188  0.6447 -0.4367  0.3296
 5022SOL    HW226529   1.079   4.694   4.336 -0.6213  0.7524  0.8860
 5023SOL     OW26530   3.650   2.074  13.897  0.1865  0.6796 -0.1785
 5023SOL    HW126531   3.658   2.049  13.805  0.3856 -1.5296  0.4323
 5023SOL    HW226532   3.559   2.100  13.901  0.6259  1.9959  0.8706
 5024SOL     OW26533   3.031   1.293  12.128 -0.5941  0.2060 -0.1334
 5024SOL    HW126534   2.967   1.261  12.065 -1.2071 -1.1860  1.1939
 5024SOL    HW226535   3.078   1.210  12.130  0.6838  0.8619 -3.2391
 5025SOL     OW26536   2.132   2.946   0.456  0.0812  0.3354  0.2141
 5025SOL    HW126537   2.068   2.901   0.401  1.0477  1.2383 -1.6552
 5025SOL    HW226538   2.063   3.007   0.483  0.2812 -0.3266  2.2139
 5026SOL     OW26539   4.567   2.950  10.749 -0.0474 -0.3250 -0.2328
 5026SOL    HW126540   4.559   3.004  10.828  0.9920 -1.5581  0.7174
 5026SOL    HW226541   4.489   2.895  10.743 -0.9067  0.9414 -0.6214
 5027SOL     OW26542   3.188   1.944   4.476 -0.4114 -0.1362  0.1550
 5027SOL    HW126543   3.095   1.925   4.464  0.1901 -2.9167 -0.2572
 5027SOL    HW226544   3.231   1.889   4.411  0.9009  0.5048  0.4720
 5028SOL     OW26545   4.627   3.372   9.322 -0.6537  0.1697 -0.4806
 5028SOL    HW126546   4.712   3.333   9.340 -0.8613 -0.3755 -0.6968
 5028SOL    HW226547   4.639   3.467   9.334  0.7879 -0.1677  0.7005
 5029SOL     OW26548   3.605   4.229  16.192 -0.0599  0.8062  0.0760
 5029SOL    HW126549   3.681   4.185  16.155  0.2760  2.0074 -0.6686
 5029SOL    HW226550   3.571   4.285  16.122  0.7579  1.0926 -0.0964
 5030SOL     OW26551   2.162   2.574   0.204  0.5456 -0.4115  0.3900
 5030SOL    HW126552   2.160   2.629   0.282 -1.3026  3.1030 -2.1054
 5030SOL    HW226553   2.187   2.635   0.135  2.2233 -0.5348  0.8977
 5031SOL     OW26554   4.499   3.754   5.479  0.0136  0.2863 -0.2359
 5031SOL    HW126555   4.547   3.749   5.561  1.9072  2.8504 -1.2182
 5031SOL    HW226556   4.553   3.707   5.416 -1.6619 -1.2068 -0.5691
 5032SOL     OW26557   1.661   2.822  10.819  0.4307 -0.5861  0.2921
 5032SOL    HW126558   1.600   2.850  10.887  0.4241  0.8863 -0.3229
 5032SOL    HW226559   1.658   2.727  10.826 -3.8169 -0.4736 -0.4874
 5033SOL     OW26560   0.473   4.017   3.623 -0.4925 -0.0257  0.1756
 5033SOL    HW126561   0.564   3.997   3.645 -0.4017 -0.1595 -0.3278
 5033SOL    HW226562   0.434   3.930   3.629  2.8584 -1.5474  0.0800
 5034SOL     OW26563   1.225   2.524   2.739  0.4635 -0.0092 -0.1252
 5034SOL    HW126564   1.279   2.602   2.748 -0.4920  0.8114 -1.4905
 5034SOL    HW226565   1.142   2.554   2.777 -0.4513 -0.9460 -1.4000
 5035SOL     OW26566   2.594   2.704   0.491 -0.7735 -0.2095  0.5796
 5035SOL    HW126567   2.598   2.685   0.584  0.9563 -1.4963  0.2205
 5035SOL    HW226568   2.503   2.684   0.469 -1.4714  1.8936  1.5083
 5036SOL     OW26569   2.332   0.476  10.312  0.4995 -0.5763 -0.0182
 5036SOL    HW126570   2.242   0.506  10.308  0.5183 -0.4566  0.5012
 5036SOL    HW226571   2.377   0.559  10.328 -0.8607  0.5532 -2.0590
 5037SOL     OW26572   3.767   1.524   0.819 -0.1791 -0.0719  0.7003
 5037SOL    HW126573   3.837   1.466   0.787 -1.4646 -0.2499 -1.8203
 5037SOL    HW226574   3.779   1.521   0.914  0.5027  0.0300  0.6215
 5038SOL     OW26575   3.130   4.149   4.747  0.7540  0.4236 -0.4419
 5038SOL    HW126576   3.189   4.221   4.770 -0.6019  0.5732  2.6393
 5038SOL    HW226577   3.054   4.159   4.804  0.4338 -3.7832 -0.1713
 5039SOL     OW26578   2.299   1.633  17.291  0.4935  0.0607  0.4640
 5039SOL    HW126579   2.290   1.626  17.386  0.2436  1.8698  0.5791
 5039SOL    HW226580   2.391   1.606  17.281 -0.3704 -3.1585  1.0602
 5040SOL     OW26581   1.922   1.635   7.832 -0.1383 -0.5662 -0.4430
 5040SOL    HW126582   1.945   1.712   7.782 -1.9238  0.3987  0.2306
 5040SOL    HW226583   1.977   1.572   7.785  2.8452  0.3266  1.8303
 5041SOL     OW26584   3.076   0.523   7.729 -0.3269  0.1430 -0.1214
 5041SOL    HW126585   3.040   0.463   7.794  0.2493 -1.1529 -1.0116
 5041SOL    HW226586   3.152   0.478   7.692  0.0428 -0.1140  0.9373
 5042SOL     OW26587   4.641   0.381   8.874  0.0960  0.4491 -0.1956
 5042SOL    HW126588   4.721   0.380   8.926  0.5819  0.3591 -0.9513
 5042SOL    HW226589   4.572   0.338   8.925 -0.3889 -0.2736 -1.4775
 5043SOL     OW26590   2.658   4.502   4.317  0.0390  0.1437 -0.5017
 5043SOL    HW126591   2.612   4.573   4.362 -0.5908 -0.2798 -0.4689
 5043SOL    HW226592   2.611   4.424   4.347  1.0806 -0.2454  0.1275
 5044SOL     OW26593   1.107   1.521   3.702 -0.2326 -0.1237  0.2514
 5044SOL    HW126594   1.096   1.587   3.634 -2.7709 -2.4789 -1.6297
 5044SOL    HW226595   1.113   1.450   3.638 -0.1603 -0.1472  0.2845
 5045SOL     OW26596   3.988   0.189   7.303  0.6399 -0.2176  0.4131
 5045SOL    HW126597   4.066   0.221   7.257  0.4629  0.8555  0.8417
 5045SOL    HW226598   4.027   0.107   7.333 -1.7967 -1.0352  1.3632
 5046SOL     OW26599   0.509   1.830   7.402 -0.0214  0.2183  0.1880
 5046SOL    HW126600   0.567   1.903   7.420  2.0652 -1.5601  0.5970
 5046SOL    HW226601   0.531   1.777   7.478  2.7090 -0.2731 -0.9710
 5047SOL     OW26602   0.429   3.663   3.755  0.2257  0.4499 -0.0094
 5047SOL    HW126603   0.490   3.591   3.740 -0.2012  0.2834 -1.0085
 5047SOL    HW226604   0.443   3.666   3.849 -1.0083 -3.1797  0.3162
 5048SOL     OW26605   4.063   2.305   2.220 -0.5319  0.0705  0.3130
 5048SOL    HW126606   4.128   2.322   2.152 -0.2343  1.6354  0.9999
 5048SOL    HW226607   4.015   2.387   2.228  0.4847  0.5494  1.6145
 5049SOL     OW26608   0.612   3.501  10.811  0.3503 -0.1940  0.2566
 5049SOL    HW126609   0.603   3.429  10.872 -2.9149  0.4436  0.5232
 5049SOL    HW226610   0.535   3.556  10.826  0.4443  0.2848 -0.9406
 5050SOL     OW26611   1.918   4.591   2.566 -0.3199  0.0216  0.2446
 5050SOL    HW126612   1.941   4.523   2.628 -0.1235  0.7832  1.0014
 5050SOL    HW226613   1.875   4.542   2.496  2.4389 -2.2020  0.1223
 5051SOL     OW26614   1.835   4.655   7.039  0.2366  0.3653 -1.1934
 5051SOL    HW126615   1.906   4.602   7.002 -1.1587 -1.2482 -1.5309
 5051SOL    HW226616   1.847   0.012   6.990  0.0688  1.7600  1.0918
 5052SOL     OW26617   4.449   0.441  11.750  0.2658 -0.5887  0.3391
 5052SOL    HW126618   4.369   0.440  11.697 -0.3797  1.0444  1.2731
 5052SOL    HW226619   4.423   0.373  11.811  0.7373 -1.3194 -0.2792
 5053SOL     OW26620   3.830   0.889   5.931  0.3405  0.0241  0.3531
 5053SOL    HW126621   3.895   0.948   5.968  0.6534  0.8615 -1.5050
 5053SOL    HW226622   3.864   0.810   5.973 -2.0058  0.0642  2.2702
 5054SOL     OW26623   1.063   4.703   3.170  0.1690 -0.2587  0.0600
 5054SOL    HW126624   1.024   0.063   3.154 -1.2640 -1.0011 -0.3705
 5054SOL    HW226625   1.094   4.686   3.081  2.6372 -2.1025  1.2675
 5055SOL     OW26626   1.647   1.134  14.694  0.0278 -1.0727  0.7662
 5055SOL    HW126627   1.596   1.090  14.626  0.5125 -2.3599  1.2424
 5055SOL    HW226628   1.658   1.212  14.639  4.5247  0.5351  3.9779
 5056SOL     OW26629   4.277   1.529  15.642  0.5050 -0.3203 -0.4961
 5056SOL    HW126630   4.248   1.505  15.730  0.5368 -2.0314 -0.9500
 5056SOL    HW226631   4.352   1.586  15.662 -0.5873  0.3943  1.5715
 5057SOL     OW26632   0.218   4.514   5.021 -0.1879 -0.0006 -0.8892
 5057SOL    HW126633   0.139   4.547   4.978 -0.3576  0.0955 -0.5018
 5057SOL    HW226634   0.182   4.497   5.107  0.5730  0.2194 -0.5270
 5058SOL     OW26635   2.298   1.344   9.461  0.5189  0.4152  0.4249
 5058SOL    HW126636   2.356   1.271   9.485 -0.7109 -0.7599 -0.1982
 5058SOL    HW226637   2.349   1.400   9.402  0.7728 -0.4186 -0.1405
 5059SOL     OW26638   3.075   3.147  17.187  0.2807 -0.0756  0.2235
 5059SOL    HW126639   3.160   3.147  17.231  0.9230 -2.4783 -1.0467
 5059SOL    HW226640   3.086   3.200  17.107  0.7848 -0.3237  0.1249
 5060SOL     OW26641   0.789   0.575  13.536 -0.6291  1.0101  0.4510
 5060SOL    HW126642   0.836   0.643  13.584  0.8900  0.2763 -0.0013
 5060SOL    HW226643   0.711   0.624  13.510  0.4219  1.8543 -1.0816
 5061SOL     OW26644   0.756   4.362   8.674  0.0246 -0.3333 -0.2244
 5061SOL    HW126645   0.689   4.375   8.607 -0.1699  0.7389  0.1771
 5061SOL    HW226646   0.751   4.450   8.710  0.9284 -0.7555  0.9776
 5062SOL     OW26647   1.365   3.740  13.333  0.9205  0.1388  0.7595
 5062SOL    HW126648   1.338   3.830  13.351  2.3163  0.7253 -0.0700
 5062SOL    HW226649   1.413   3.757  13.252  1.2791  0.3809  1.0243
 5063SOL     OW26650   0.574   3.601  12.956  0.0152 -0.1425 -0.0039
 5063SOL    HW126651   0.640   3.670  12.949 -1.1997  1.0695  0.7084
 5063SOL    HW226652   0.535   3.617  12.870  0.3770  1.0358  0.0460
 5064SOL     OW26653   1.085   0.534   2.839  0.0934 -0.0800  0.0916
 5064SOL    HW126654   1.159   0.473   2.839  1.3509  1.4637 -0.6259
 5064SOL    HW226655   1.026   0.462   2.816 -0.4378 -0.2580  2.0020
 5065SOL     OW26656   2.444   0.379   5.869  0.3920 -0.0094  0.3407
 5065SOL    HW126657   2.377   0.394   5.937  2.5612  1.8099  2.0904
 5065SOL    HW226658   2.516   0.370   5.931 -0.0827 -1.6219  0.6412
 5066SOL     OW26659   0.658   0.766   8.633  0.0528 -0.2942  0.1983
 5066SOL    HW126660   0.630   0.849   8.672  0.7750  0.0390  0.0120
 5066SOL    HW226661   0.754   0.774   8.631 -0.0541  1.2844  1.0092
 5067SOL     OW26662   2.931   1.502   4.024 -0.0849 -0.3567  0.3454
 5067SOL    HW126663   2.901   1.491   4.114  2.8061  1.9224  1.5622
 5067SOL    HW226664   2.869   1.447   3.976 -0.5484 -0.0470  0.5898
 5068SOL     OW26665   0.358   4.387  14.981  0.6145 -0.3589  0.3489
 5068SOL    HW126666   0.450   4.416  14.985  0.9414 -1.3419 -0.0255
 5068SOL    HW226667   0.320   4.475  14.990 -0.9615 -0.9295 -0.8751
 5069SOL     OW26668   2.529   1.627   5.994  0.4775  0.5705 -0.5428
 5069SOL    HW126669   2.447   1.593   6.030  1.2472  0.0042  0.6514
 5069SOL    HW226670   2.594   1.615   6.063 -1.9434 -0.1470  1.6123
 5070SOL     OW26671   1.880   1.991   6.834 -0.0845 -0.5592  0.4417
 5070SOL    HW126672   1.856   1.999   6.742  0.8733  2.6245  0.4503
 5070SOL    HW226673   1.971   1.965   6.824  0.5408  1.7415 -0.0203
 5071SOL     OW26674   3.729   2.013   4.305 -0.0050  0.4048  0.0466
 5071SOL    HW126675   3.804   2.068   4.281 -0.7771  1.0231 -0.9252
 5071SOL    HW226676   3.728   1.965   4.222 -1.8261 -0.3141  0.4958
 5072SOL     OW26677   2.858   4.629   3.379 -0.4196 -0.9055  0.3763
 5072SOL    HW126678   2.929   4.569   3.402  0.4929  0.4774  1.1344
 5072SOL    HW226679   2.904   4.712   3.391 -0.7015 -0.7239  0.2121
 5073SOL     OW26680   2.725   4.708   7.136  0.0467  0.1864  0.2182
 5073SOL    HW126681   2.710   0.009   7.045 -0.6323 -1.4411 -0.1524
 5073SOL    HW226682   2.665   4.635   7.155 -1.2950  1.7629  1.9489
 5074SOL     OW26683   1.781   4.177   2.566  0.0818 -0.4007 -0.2289
 5074SOL    HW126684   1.842   4.149   2.497 -1.7801  0.0153 -2.0296
 5074SOL    HW226685   1.705   4.119   2.562 -0.7930  0.6588  1.1235
 5075SOL     OW26686   1.649   3.270   3.921  0.0342 -0.3196 -0.1850
 5075SOL    HW126687   1.660   3.181   3.887 -1.0887 -0.4407 -0.2502
 5075SOL    HW226688   1.739   3.295   3.902  0.3863 -0.0102  1.8408
 5076SOL     OW26689   0.082   0.517  17.585  0.0846 -0.3038 -0.5322
 5076SOL    HW126690   0.006   0.465  17.612 -0.1397  1.3508  2.0916
 5076SOL    HW226691   0.098   0.567  17.665  1.2247 -2.0940  0.3254
 5077SOL     OW26692   2.654   1.706   4.524  1.0360 -0.4081 -0.1814
 5077SOL    HW126693   2.658   1.611   4.539 -0.1654 -0.1399  1.7597
 5077SOL    HW226694   2.626   1.706   4.432  0.0785  0.0602  0.1216
 5078SOL     OW26695   3.214   2.926  17.689  0.1972  0.4551 -0.0320
 5078SOL    HW126696   3.172   3.012  17.682 -0.0560  0.4465  1.3428
 5078SOL    HW226697   3.138   2.866  17.687 -0.8989  1.8154  1.2012
 5079SOL     OW26698   1.005   0.118  13.872  0.1433 -0.3144  0.6018
 5079SOL    HW126699   0.974   0.036  13.910 -1.2543  0.4478  1.0945
 5079SOL    HW226700   1.012   0.169  13.953  0.5709 -1.7028  1.4404
 5080SOL     OW26701   2.803   3.561   7.595  0.2311  0.5492  0.3672
 5080SOL    HW126702   2.837   3.648   7.577  0.4563  0.2188 -0.8511
 5080SOL    HW226703   2.883   3.509   7.599 -1.2160 -1.4828  3.1906
 5081SOL     OW26704   4.227   1.796   6.089 -0.3144 -0.8619  0.3847
 5081SOL    HW126705   4.255   1.747   6.011 -0.4038  2.0722 -1.5055
 5081SOL    HW226706   4.239   1.724   6.150 -1.5739 -1.6629 -0.3211
 5082SOL     OW26707   0.450   4.063   7.719  0.0877  0.0025 -0.1253
 5082SOL    HW126708   0.537   4.086   7.751 -1.0454  0.7953  2.4010
 5082SOL    HW226709   0.437   4.116   7.640  4.3818  1.8439  0.4104
 5083SOL     OW26710   4.412   0.827   6.641  0.5998  0.1181 -0.0219
 5083SOL    HW126711   4.423   0.759   6.574 -1.8540 -1.1386  0.8618
 5083SOL    HW226712   4.446   0.781   6.717 -0.1027  0.7352  0.6663
 5084SOL     OW26713   3.187   0.458   7.143 -0.8869  0.0229 -0.6191
 5084SOL    HW126714   3.117   0.497   7.090 -3.2241 -1.2919  1.5232
 5084SOL    HW226715   3.249   0.531   7.152 -1.7192  1.1009 -3.5133
 5085SOL     OW26716   1.104   1.131   4.144  0.1405 -0.1389  0.0535
 5085SOL    HW126717   1.109   1.140   4.049  0.7853  3.4164  0.4433
 5085SOL    HW226718   1.035   1.064   4.148 -0.7562  0.6909 -1.4070
 5086SOL     OW26719   1.341   1.731   1.322 -0.0518 -0.2545 -0.5380
 5086SOL    HW126720   1.390   1.809   1.345 -0.5013 -0.3575  0.8281
 5086SOL    HW226721   1.366   1.713   1.232  0.0059 -0.3535 -0.5022
 5087SOL     OW26722   0.091   2.112  17.308 -0.3096  0.1348  0.3513
 5087SOL    HW126723   0.123   2.022  17.320  1.1220  0.8552  2.0136
 5087SOL    HW226724   0.020   2.089  17.249 -0.2670  1.7433 -0.3188
 5088SOL     OW26725   3.059   4.379   4.558  0.1353 -0.5435  0.0841
 5088SOL    HW126726   3.121   4.357   4.489 -2.5266  0.1277 -2.4996
 5088SOL    HW226727   3.025   4.301   4.602 -0.7098 -0.0869  0.2483
 5089SOL     OW26728   3.788   2.488   1.091  0.0166 -0.9052 -0.3141
 5089SOL    HW126729   3.837   2.547   1.034 -1.4632  0.5769 -0.0592
 5089SOL    HW226730   3.781   2.538   1.173  2.3824 -1.6805  0.3578
 5090SOL     OW26731   3.405   3.850  17.584  0.5492  0.2005 -0.3516
 5090SOL    HW126732   3.473   3.786  17.601  0.0846 -0.2034  0.0031
 5090SOL    HW226733   3.410   3.836  17.490 -0.1341 -0.7542 -0.2469
 5091SOL     OW26734   4.221   1.148   2.131  0.6032 -0.1066  0.5207
 5091SOL    HW126735   4.252   1.102   2.053 -2.2732 -2.4166  0.7324
 5091SOL    HW226736   4.125   1.145   2.124  0.5880  1.0115  0.2823
 5092SOL     OW26737   0.473   4.695   5.962  0.5775 -0.1411 -0.4025
 5092SOL    HW126738   0.537   4.625   5.976  1.2060  0.5710  0.2857
 5092SOL    HW226739   0.532   0.033   5.922 -1.1492  2.6427  1.4396
 5093SOL     OW26740   2.777   4.613   3.697 -0.1090  0.3144  0.2649
 5093SOL    HW126741   2.757   4.582   3.609  3.1891 -0.7373 -0.1063
 5093SOL    HW226742   2.754   4.542   3.757 -1.7317  2.1653  1.8347
 5094SOL     OW26743   1.308   1.284  11.062  0.6151 -0.3097  0.2316
 5094SOL    HW126744   1.282   1.237  10.983 -2.5325  0.2302  0.9226
 5094SOL    HW226745   1.370   1.222  11.100 -0.0559 -1.2794 -0.2504
 5095SOL     OW26746   2.940   0.597   5.723 -0.5644  0.0307 -0.1252
 5095SOL    HW126747   2.869   0.606   5.786 -0.6072  0.8065 -0.2900
 5095SOL    HW226748   3.014   0.625   5.775  2.0926 -2.1318 -2.7089
 5096SOL     OW26749   0.221   1.788  11.082  0.1987  1.0065  0.1862
 5096SOL    HW126750   0.146   1.733  11.102  1.8508 -2.3717 -2.9219
 5096SOL    HW226751   0.257   1.801  11.170  0.4420  0.3892  0.1765
 5097SOL     OW26752   4.095   1.563   9.904 -1.1164 -0.5457  0.1877
 5097SOL    HW126753   4.056   1.612   9.976 -1.1130 -1.2394  0.6625
 5097SOL    HW226754   4.086   1.473   9.936 -0.9559 -1.0152 -1.0773
 5098SOL     OW26755   1.537   2.874  13.794  0.2617  0.6866 -0.1028
 5098SOL    HW126756   1.602   2.927  13.840  0.2293 -1.7449  2.6805
 5098SOL    HW226757   1.452   2.910  13.820 -0.8656 -1.2646 -1.1023
 5099SOL     OW26758   3.307   3.298  15.992  0.6160  0.4007  0.1188
 5099SOL    HW126759   3.215   3.311  16.013  0.4344 -0.1307 -0.3273
 5099SOL    HW226760   3.344   3.359  16.055  1.0784 -0.1754  0.4100
 5100SOL     OW26761   2.161   1.530   7.444 -0.1418 -0.0217  0.1587
 5100SOL    HW126762   2.230   1.506   7.506 -0.3605  2.1226  1.2241
 5100SOL    HW226763   2.207   1.599   7.396  2.5013 -2.8487 -1.3901
 5101SOL     OW26764   3.905   3.769  11.269 -0.4301  0.3294 -0.3043
 5101SOL    HW126765   3.851   3.737  11.341  0.3415 -0.8439 -0.2569
 5101SOL    HW226766   3.887   3.705  11.201  0.7898 -0.2110 -0.1034
 5102SOL     OW26767   3.759   2.212  17.217 -0.4810  0.0366  0.0330
 5102SOL    HW126768   3.703   2.183  17.145 -1.6656 -0.4195  1.1570
 5102SOL    HW226769   3.707   2.185  17.293  0.0871 -0.5380  0.2151
 5103SOL     OW26770   3.917   1.177   1.533  0.0341 -0.3840  0.7596
 5103SOL    HW126771   3.965   1.135   1.604  2.0346  0.2728 -0.2037
 5103SOL    HW226772   3.856   1.105   1.519  0.6187 -0.6157 -0.6106
 5104SOL     OW26773   3.633   4.331   3.337  0.3736 -0.4875 -0.1064
 5104SOL    HW126774   3.614   4.325   3.430 -2.7747  1.3766 -0.6188
 5104SOL    HW226775   3.714   4.280   3.333  0.3230 -0.4774 -1.4919
 5105SOL     OW26776   1.701   0.028  11.947 -0.3696 -0.0853 -0.2926
 5105SOL    HW126777   1.792   0.017  11.974  0.1151 -0.8111 -2.2531
 5105SOL    HW226778   1.711   4.714  11.860 -1.1594  0.2874 -0.5553
 5106SOL     OW26779   4.173   4.590   8.879 -0.1148  0.1379  0.2798
 5106SOL    HW126780   4.166   4.652   8.806  0.6361  0.4931  0.5123
 5106SOL    HW226781   4.080   4.567   8.877 -0.4145  1.1313  4.2973
 5107SOL     OW26782   3.721   1.470  13.110  0.3024 -0.6888  0.0524
 5107SOL    HW126783   3.768   1.544  13.071  1.5077 -2.0599 -1.0843
 5107SOL    HW226784   3.749   1.412  13.039 -3.1143  0.6247 -2.3726
 5108SOL     OW26785   4.030   4.514  16.385  0.5297 -0.3497 -0.5195
 5108SOL    HW126786   3.942   4.477  16.373 -0.2470  0.7545  1.7199
 5108SOL    HW226787   4.085   4.438  16.367 -0.0879 -0.9059 -0.0507
 5109SOL     OW26788   1.310   0.543   6.425 -0.2527 -0.1474  0.1437
 5109SOL    HW126789   1.304   0.553   6.520  0.4867  1.3136  0.0348
 5109SOL    HW226790   1.377   0.476   6.412 -0.3962 -0.5170  1.3465
 5110SOL     OW26791   2.829   1.438   8.940 -0.1531  0.4872  0.0622
 5110SOL    HW126792   2.920   1.461   8.959 -0.8299  1.0591  2.5808
 5110SOL    HW226793   2.821   1.471   8.850  1.5302  0.0399 -0.2485
 5111SOL     OW26794   0.283   2.728   6.991  0.1612 -0.7789  0.4121
 5111SOL    HW126795   0.342   2.768   7.054  0.9032 -0.4409 -0.4914
 5111SOL    HW226796   0.343   2.698   6.923 -0.7754 -0.0677 -0.7312
 5112SOL     OW26797   3.805   1.408  12.397 -0.1167 -0.4210 -0.7022
 5112SOL    HW126798   3.817   1.501  12.419  2.0154 -1.1297  1.0670
 5112SOL    HW226799   3.842   1.404  12.309  0.7470  2.2465 -0.4697
 5113SOL     OW26800   4.369   3.892   4.830  0.1490 -0.4170  0.3169
 5113SOL    HW126801   4.428   3.889   4.906  1.1765  3.3665 -0.3339
 5113SOL    HW226802   4.438   3.899   4.763 -0.8421 -0.6754 -0.7296
 5114SOL     OW26803   0.672   2.934  11.100 -0.1532 -0.1141  0.1379
 5114SOL    HW126804   0.654   2.884  11.020 -0.3174  0.7219 -0.3459
 5114SOL    HW226805   0.623   2.884  11.164 -0.9678 -2.0445 -2.0042
 5115SOL     OW26806   4.503   0.488   9.569 -0.2716 -0.0926 -0.6759
 5115SOL    HW126807   4.546   0.460   9.650  3.3593 -0.1761 -2.6626
 5115SOL    HW226808   4.538   0.575   9.551  1.2025 -0.4235  0.5969
 5116SOL     OW26809   4.314   1.240   0.254 -0.4416  0.0362  0.1104
 5116SOL    HW126810   4.328   1.241   0.349 -0.9332 -3.2940  0.2275
 5116SOL    HW226811   4.400   1.246   0.212  0.8605  1.1554  2.9230
 5117SOL     OW26812   0.993   2.919   1.494  0.1093  0.1160 -0.6672
 5117SOL    HW126813   0.964   2.968   1.570 -0.2545 -1.7038  0.3718
 5117SOL    HW226814   1.087   2.938   1.491  0.1885  0.0301  1.5390
 5118SOL     OW26815   1.354   2.605   6.796  0.0704 -0.1691 -0.3549
 5118SOL    HW126816   1.441   2.610   6.757 -0.7595 -0.6364 -2.3063
 5118SOL    HW226817   1.332   2.530   6.741  0.0555 -0.1387 -0.3904
 5119SOL     OW26818   1.735   3.650   8.083  0.0183  0.5740  0.1194
 5119SOL    HW126819   1.789   3.629   8.159 -1.8127 -2.0004  0.6985
 5119SOL    HW226820   1.708   3.561   8.059 -3.3233  1.3742  0.8750
 5120SOL     OW26821   0.902   2.240   7.742  0.3151 -0.9644  0.2614
 5120SOL    HW126822   0.992   2.244   7.711 -0.8959 -2.2069 -3.4300
 5120SOL    HW226823   0.889   2.335   7.753  0.0134 -1.1674  1.7658
 5121SOL     OW26824   0.043   2.062  17.583  0.5369 -0.3608  0.3039
 5121SOL    HW126825   0.086   2.105  17.509 -1.2791  1.6399  0.3760
 5121SOL    HW226826   4.723   2.139  17.619  0.5934 -0.8829  1.4848
 5122SOL     OW26827   2.799   3.242   5.495  0.6953  0.0529 -0.8274
 5122SOL    HW126828   2.745   3.197   5.559  1.0153  1.5452  0.4976
 5122SOL    HW226829   2.887   3.206   5.510  0.6529 -0.3531 -1.5434
 5123SOL     OW26830   1.931   0.703   8.930 -0.5086  0.7215  0.5794
 5123SOL    HW126831   1.983   0.693   9.010  0.8097  0.3043 -0.3297
 5123SOL    HW226832   1.991   0.759   8.882  0.2044 -0.3089  0.2649
 5124SOL     OW26833   1.967   3.936   6.891  0.6208 -0.1308 -0.1286
 5124SOL    HW126834   1.974   4.022   6.933  0.3860 -0.2137  0.0794
 5124SOL    HW226835   1.883   3.940   6.844  0.5516  0.2960  0.0335
 5125SOL     OW26836   3.358   3.689   3.261  0.2800 -0.3882 -0.6063
 5125SOL    HW126837   3.322   3.731   3.338  2.2987 -2.7565  1.6644
 5125SOL    HW226838   3.370   3.755   3.193  1.8607 -0.0359  0.0051
 5126SOL     OW26839   2.068   3.104  14.015 -0.1643 -0.2028 -0.3914
 5126SOL    HW126840   2.040   3.184  13.971 -0.3994 -0.6968 -1.1398
 5126SOL    HW226841   2.110   3.065  13.938  1.6381  0.3777  0.3150
 5127SOL     OW26842   0.446   4.385   3.396 -0.1239  0.1311  0.2641
 5127SOL    HW126843   0.462   4.328   3.321 -1.9548 -0.6909  0.5043
 5127SOL    HW226844   0.498   4.341   3.463  1.8398  1.2275 -0.5409
 5128SOL     OW26845   0.997   1.021   7.212 -0.0048 -0.3196  0.0559
 5128SOL    HW126846   0.987   0.926   7.221  0.1132 -0.2294  1.1646
 5128SOL    HW226847   0.910   1.052   7.184 -0.2928 -0.9344  0.2613
 5129SOL     OW26848   0.024   3.170   3.600 -0.1051 -0.1987  0.0529
 5129SOL    HW126849   4.707   3.095   3.642 -0.9267 -0.1288 -0.6479
 5129SOL    HW226850   0.060   3.126   3.523 -2.1397  0.4488 -1.2538
 5130SOL     OW26851   3.392   1.228  11.478  0.3619  0.3861  0.1965
 5130SOL    HW126852   3.389   1.258  11.387 -0.4981  0.2830  0.1880
 5130SOL    HW226853   3.300   1.242  11.501  0.2491 -2.7516  1.6901
 5131SOL     OW26854   2.106   3.106  17.152 -0.3318  0.2508 -0.7033
 5131SOL    HW126855   2.148   3.191  17.161  1.9952 -0.7219 -2.4138
 5131SOL    HW226856   2.154   3.058  17.220 -1.1095  0.3931 -0.0602
 5132SOL     OW26857   3.437   2.999   3.958  0.1766  0.0122  0.2975
 5132SOL    HW126858   3.407   3.089   3.951 -0.7588 -0.2304  1.3232
 5132SOL    HW226859   3.393   2.962   3.881  2.0482 -2.1355  0.2571
 5133SOL     OW26860   1.922   2.186   0.698  0.2282 -0.3009  0.4231
 5133SOL    HW126861   1.981   2.169   0.771  1.1148  0.8924 -0.0015
 5133SOL    HW226862   1.858   2.246   0.736  2.2789  2.0698  0.1900
 5134SOL     OW26863   0.441   3.010   6.742  0.0565 -0.4156 -0.0166
 5134SOL    HW126864   0.377   2.973   6.681  2.3422 -0.6137 -2.2530
 5134SOL    HW226865   0.495   2.934   6.766 -1.8449 -1.7269  0.1401
 5135SOL     OW26866   0.144   0.814   4.246  0.0427  0.0691  0.3502
 5135SOL    HW126867   0.208   0.776   4.186  1.2470  3.1054 -0.3102
 5135SOL    HW226868   0.076   0.833   4.182 -0.2971 -2.3817 -0.0255
 5136SOL     OW26869   0.613   2.404  15.132 -0.4540 -0.1142 -0.7430
 5136SOL    HW126870   0.565   2.433  15.054 -2.1338  1.5664  0.9247
 5136SOL    HW226871   0.538   2.363  15.174  0.0750  0.1019  0.4178
 5137SOL     OW26872   0.516   1.783   7.831 -0.5296 -0.3820 -0.5059
 5137SOL    HW126873   0.511   1.760   7.738  1.1945 -0.0444 -0.6905
 5137SOL    HW226874   0.607   1.758   7.850 -0.5089 -0.1708 -0.3249
 5138SOL     OW26875   3.040   2.411   0.891  0.5903 -0.4419 -0.6325
 5138SOL    HW126876   3.050   2.499   0.856  0.9995 -0.7073 -1.1774
 5138SOL    HW226877   3.122   2.371   0.861  0.4192  0.9847 -2.9800
 5139SOL     OW26878   1.972   3.246   4.714  0.0979 -0.4733  0.3770
 5139SOL    HW126879   2.024   3.269   4.636 -1.8557  0.7927 -0.5420
 5139SOL    HW226880   2.012   3.297   4.784 -1.6065  1.6061 -0.1657
 5140SOL     OW26881   3.643   4.284  13.578 -0.1112  0.3254  0.0480
 5140SOL    HW126882   3.681   4.206  13.619  1.1037 -1.1245 -3.8350
 5140SOL    HW226883   3.692   4.284  13.496 -0.1381  0.4067  0.0325
 5141SOL     OW26884   4.675   3.856  16.678 -0.0138  0.5454  0.3251
 5141SOL    HW126885   4.603   3.917  16.661 -0.7224 -0.0844  1.0164
 5141SOL    HW226886   4.714   3.871  16.592  2.7320 -3.2575  0.9339
 5142SOL     OW26887   0.301   0.573   2.722  0.0608 -0.1087 -0.7518
 5142SOL    HW126888   0.264   0.486   2.731 -1.9727  0.6463 -1.6498
 5142SOL    HW226889   0.346   0.560   2.638 -1.2268  1.3355 -1.6755
 5143SOL     OW26890   2.072   1.447  17.600  0.3817  0.2914 -0.5120
 5143SOL    HW126891   2.012   1.517  17.628  1.0052  1.2478 -1.5799
 5143SOL    HW226892   2.011   1.376  17.583 -1.3713  2.3991 -2.9794
 5144SOL     OW26893   1.062   1.387  11.276  0.1631 -0.0241  0.0820
 5144SOL    HW126894   1.134   1.330  11.248  0.6682  0.5275  0.2676
 5144SOL    HW226895   1.098   1.475  11.261 -1.8903  0.2129 -3.4199
 5145SOL     OW26896   2.785   1.487   5.991  0.6289  0.2512  0.2880
 5145SOL    HW126897   2.749   1.574   5.969 -0.8914 -0.3793  0.2575
 5145SOL    HW226898   2.875   1.512   6.009 -0.1000  2.8497  0.3310
 5146SOL     OW26899   0.212   1.157   2.565  0.0143  0.1524 -0.5836
 5146SOL    HW126900   0.215   1.161   2.469  2.0574 -2.8524 -0.6496
 5146SOL    HW226901   0.236   1.246   2.594 -1.7182  0.3545  0.1860
 5147SOL     OW26902   0.764   3.248  13.561  0.0009 -0.2595  0.0845
 5147SOL    HW126903   0.709   3.324  13.581  2.0368  1.1678  0.2342
 5147SOL    HW226904   0.730   3.186  13.626 -0.9650  1.4692  1.2589
 5148SOL     OW26905   0.797   4.615   9.364  0.0278 -0.4307  0.2198
 5148SOL    HW126906   0.793   4.527   9.402  0.7572 -0.2839  0.6316
 5148SOL    HW226907   0.879   4.615   9.314 -0.5935 -0.4611 -0.8013
 5149SOL     OW26908   1.071   3.988   5.955  0.1744  0.0208  0.2904
 5149SOL    HW126909   1.077   3.938   6.036 -1.8367 -0.7697 -0.0487
 5149SOL    HW226910   1.148   3.947   5.914 -0.6721  0.9327 -2.2060
 5150SOL     OW26911   3.478   0.353  15.805  0.5303  0.4024 -0.0201
 5150SOL    HW126912   3.416   0.289  15.841 -0.4837  2.0183  1.1291
 5150SOL    HW226913   3.484   0.338  15.711  0.4962 -0.3418  0.0998
 5151SOL     OW26914   3.112   1.377   9.035  0.6975 -0.1403 -0.0077
 5151SOL    HW126915   3.190   1.392   9.088  0.1191  1.9344  0.2255
 5151SOL    HW226916   3.151   1.338   8.956  3.8566  0.1787  1.3945
 5152SOL     OW26917   2.853   2.640   5.888 -0.0826 -0.1412  0.1028
 5152SOL    HW126918   2.886   2.698   5.820 -0.3215 -0.9274 -0.6929
 5152SOL    HW226919   2.896   2.671   5.968 -0.5311  0.9275 -0.0839
 5153SOL     OW26920   4.245   0.478   3.798  0.1082 -0.1608 -0.5141
 5153SOL    HW126921   4.327   0.526   3.805 -0.3429  0.8596 -2.1604
 5153SOL    HW226922   4.220   0.506   3.710 -0.4483  1.9175  0.3025
 5154SOL     OW26923   1.655   4.193   4.610 -0.2321  0.3678  0.2778
 5154SOL    HW126924   1.746   4.184   4.582  0.3937  0.2428  2.3829
 5154SOL    HW226925   1.636   4.286   4.601 -1.6790  0.0222 -0.3365
 5155SOL     OW26926   1.064   3.770   4.680  0.3595  0.3964 -0.4945
 5155SOL    HW126927   1.021   3.856   4.684 -0.8217 -0.3014  1.5236
 5155SOL    HW226928   1.151   3.787   4.714 -0.1073 -0.3026  1.0275
 5156SOL     OW26929   3.303   3.616  13.198  0.0286 -0.3822 -0.3598
 5156SOL    HW126930   3.293   3.548  13.131  0.9098  1.1550 -2.0497
 5156SOL    HW226931   3.335   3.696  13.156 -0.5694 -0.9746 -1.9829
 5157SOL     OW26932   0.275   4.616  15.083 -0.1350  0.2860  0.1858
 5157SOL    HW126933   0.264   4.618  15.178  0.5865  0.5980  0.2577
 5157SOL    HW226934   0.221   4.684  15.044 -0.6468 -1.1770 -1.6532
 5158SOL     OW26935   4.711   2.842   2.159  0.6764 -0.2170  0.0063
 5158SOL    HW126936   0.032   2.907   2.212 -0.5535  0.7665 -0.1346
 5158SOL    HW226937   4.706   2.889   2.076 -2.0953  0.4340  0.5447
 5159SOL     OW26938   0.940   0.302   1.172 -0.3046 -0.0874 -0.3433
 5159SOL    HW126939   0.914   0.394   1.174  0.5646  0.0294  4.2681
 5159SOL    HW226940   0.942   0.277   1.264 -0.8778  1.1578  0.0090
 5160SOL     OW26941   1.043   3.556   2.905 -0.1532  0.6886 -0.0914
 5160SOL    HW126942   0.962   3.526   2.863 -0.4848  2.1163 -0.4456
 5160SOL    HW226943   1.013   3.621   2.969  1.8314  0.4270  1.1091
 5161SOL     OW26944   2.079   0.380   2.160  0.3494 -0.2274  0.3315
 5161SOL    HW126945   2.115   0.332   2.085  2.4491 -1.1936  1.9493
 5161SOL    HW226946   2.160   0.410   2.202 -0.3877  0.3595  1.3267
 5162SOL     OW26947   3.418   3.580   3.940  0.2452  0.3163 -0.2017
 5162SOL    HW126948   3.411   3.487   3.962 -2.2908  0.5713  0.0640
 5162SOL    HW226949   3.414   3.567   3.845  1.8578  0.2356 -0.2525
 5163SOL     OW26950   0.528   3.861   0.324 -0.6954 -0.3166 -0.6929
 5163SOL    HW126951   0.558   3.868   0.234  3.4245  0.2324  0.7209
 5163SOL    HW226952   0.433   3.860   0.315 -0.8364  1.6822  0.6707
 5164SOL     OW26953   2.495   1.415   3.287 -0.1645 -0.0628  0.0600
 5164SOL    HW126954   2.580   1.406   3.332  0.3523 -0.9069 -1.0730
 5164SOL    HW226955   2.435   1.371   3.347 -0.8889  1.9612  0.8115
 5165SOL     OW26956   3.757   1.727   8.571 -0.3995  0.5989  0.4744
 5165SOL    HW126957   3.687   1.793   8.573  0.3247  1.3127  1.7462
 5165SOL    HW226958   3.778   1.707   8.662  0.1661  1.8246  0.6085
 5166SOL     OW26959   0.228   0.907   2.161  0.6673  0.5177 -0.0057
 5166SOL    HW126960   0.194   0.993   2.138 -1.1402 -0.7395 -2.1452
 5166SOL    HW226961   0.218   0.858   2.079 -0.1220  0.0086  0.3875
 5167SOL     OW26962   2.247   3.722   2.728  0.4256  0.0287  0.0650
 5167SOL    HW126963   2.289   3.742   2.644  1.3105 -0.3615  0.4084
 5167SOL    HW226964   2.308   3.650   2.744 -1.4852 -2.1539 -2.4448
 5168SOL     OW26965   2.809   3.850  16.643  0.0567  0.5492  0.2842
 5168SOL    HW126966   2.818   3.806  16.727 -2.4210  1.3882  0.9805
 5168SOL    HW226967   2.865   3.925  16.664 -1.2705  0.3749  4.4058
 5169SOL     OW26968   2.200   3.817   6.857  0.3925  0.2820 -0.3642
 5169SOL    HW126969   2.110   3.847   6.842 -0.4790 -1.5112  1.2501
 5169SOL    HW226970   2.187   3.723   6.872 -1.6068  0.5964 -0.0867
 5170SOL     OW26971   2.235   2.799   3.132  0.7371  0.5759  0.2664
 5170SOL    HW126972   2.220   2.706   3.148 -2.4919  0.9383 -0.6280
 5170SOL    HW226973   2.199   2.828   3.216 -2.0642 -1.9718 -0.0352
 5171SOL     OW26974   3.048   4.298  12.360 -0.1453  0.0937  0.5757
 5171SOL    HW126975   3.056   4.382  12.405 -1.5225  1.2642 -1.3208
 5171SOL    HW226976   3.065   4.229  12.424  3.2109 -1.1492 -1.6627
 5172SOL     OW26977   1.432   2.997   4.122 -0.1614  0.9296  0.2467
 5172SOL    HW126978   1.354   3.021   4.073 -0.3168  0.8829  0.4707
 5172SOL    HW226979   1.404   2.999   4.213 -2.8599  0.1351 -0.5938
 5173SOL     OW26980   3.341   1.447   5.238 -0.2671 -0.3390  0.0724
 5173SOL    HW126981   3.307   1.367   5.197  2.2013 -1.2528 -0.1618
 5173SOL    HW226982   3.374   1.503   5.168  0.5078  0.6809  1.2434
 5174SOL     OW26983   2.440   0.584  10.757 -0.0077 -0.0554  0.4606
 5174SOL    HW126984   2.447   0.635  10.676  1.4529 -1.9830 -0.6252
 5174SOL    HW226985   2.438   0.660  10.816  0.8422  0.9346 -0.7631
 5175SOL     OW26986   3.939   4.716   3.755 -0.1586  0.2636 -0.0073
 5175SOL    HW126987   3.995   0.067   3.740 -1.3721  1.1487 -0.0512
 5175SOL    HW226988   3.987   4.672   3.826  0.1820  0.2164 -0.2669
 5176SOL     OW26989   0.979   1.937   7.524  0.4446  0.3694  0.0894
 5176SOL    HW126990   1.073   1.924   7.509 -0.2954 -3.1143 -1.4463
 5176SOL    HW226991   0.945   1.962   7.439  1.5935 -1.2730 -0.8558
 5177SOL     OW26992   2.126   0.946   4.121  0.5828  0.1488 -0.5626
 5177SOL    HW126993   2.059   0.921   4.057 -0.1200  3.9267 -1.3155
 5177SOL    HW226994   2.083   1.026   4.154  2.5507  1.1574 -0.4497
 5178SOL     OW26995   4.193   1.157   7.966 -0.0523 -0.3523 -0.0608
 5178SOL    HW126996   4.210   1.118   7.880  2.6140  0.9224 -0.1266
 5178SOL    HW226997   4.123   1.213   7.932  0.7922  2.0319  2.0557
 5179SOL     OW26998   0.497   2.921   7.163 -0.0501  0.2656  0.2001
 5179SOL    HW126999   0.487   2.997   7.105 -1.6248 -0.5810 -0.6443
 5179SOL    HW227000   0.589   2.903   7.147 -0.2085  0.8611 -1.3824
 5180SOL     OW27001   3.518   3.104  17.642  0.1429 -0.8938  0.3981
 5180SOL    HW127002   3.472   3.032  17.685  0.3883 -1.2273  0.0921
 5180SOL    HW227003   3.449   3.131  17.581  0.3192  0.0872  0.6194
 5181SOL     OW27004   1.368   2.681  10.788  0.1444 -0.3593 -0.1659
 5181SOL    HW127005   1.342   2.706  10.876  0.6909  2.0925 -0.6963
 5181SOL    HW227006   1.460   2.656  10.787  0.2673  0.0409  1.1505
 5182SOL     OW27007   3.677   2.450   3.954  0.4562  0.1357  0.1998
 5182SOL    HW127008   3.585   2.477   3.955 -0.2310 -2.2293 -1.6222
 5182SOL    HW227009   3.717   2.531   3.986 -1.0832  1.7075 -1.8966
 5183SOL     OW27010   3.362   2.314   8.587  0.2073  0.9552  0.2931
 5183SOL    HW127011   3.454   2.331   8.606  1.1706 -2.9829 -0.8274
 5183SOL    HW227012   3.320   2.291   8.670  1.4837  1.5133  1.0998
 5184SOL     OW27013   4.288   1.329   9.894  0.3435  0.1707  0.1316
 5184SOL    HW127014   4.299   1.410   9.845 -1.6057  0.8521  0.8473
 5184SOL    HW227015   4.333   1.279   9.826  1.3571  0.3908  0.6526
 5185SOL     OW27016   1.449   0.064   3.950 -0.0609 -0.6768  0.3369
 5185SOL    HW127017   1.500   0.138   3.916 -1.4691  0.3513  0.4220
 5185SOL    HW227018   1.377   0.063   3.887  1.1841 -4.0829 -0.9924
 5186SOL     OW27019   1.956   3.440   7.108 -0.3768 -0.2103  0.4116
 5186SOL    HW127020   1.988   3.473   7.024 -0.5528 -0.4779  0.2385
 5186SOL    HW227021   1.867   3.473   7.099 -0.9426 -2.0184 -0.6628
 5187SOL     OW27022   3.241   3.106   4.564 -0.3634  0.1817  0.1088
 5187SOL    HW127023   3.237   3.196   4.532  0.8512  0.5618  1.0074
 5187SOL    HW227024   3.202   3.067   4.486  0.2329  2.0907 -1.1336
 5188SOL     OW27025   3.956   0.745  14.696 -0.0074 -0.2681 -0.0823
 5188SOL    HW127026   4.024   0.706  14.751 -0.9431  1.0156  2.0020
 5188SOL    HW227027   3.972   0.697  14.615 -2.7578  0.1755 -0.9178
 5189SOL     OW27028   1.615   2.033   6.980 -0.2082 -0.2716  0.2591
 5189SOL    HW127029   1.682   1.964   6.981 -2.2458 -2.2411  0.1611
 5189SOL    HW227030   1.649   2.091   7.048 -1.2759  1.9481 -1.1022
 5190SOL     OW27031   1.938   3.488   7.383 -0.1044  0.0371  0.4121
 5190SOL    HW127032   2.006   3.551   7.358 -1.4774  0.4271 -2.2866
 5190SOL    HW227033   1.899   3.506   7.298 -0.0672 -2.1937 -0.0818
 5191SOL     OW27034   2.631   0.541   9.336  0.0223 -0.1164 -0.0302
 5191SOL    HW127035   2.645   0.508   9.247  0.5721  0.3437 -0.1146
 5191SOL    HW227036   2.599   0.457   9.369 -2.1559  0.4145 -0.7633
 5192SOL     OW27037   3.729   2.111   6.834 -0.1815 -0.2867  0.1628
 5192SOL    HW127038   3.697   2.141   6.919  3.3509  0.3184  1.3126
 5192SOL    HW227039   3.698   2.187   6.785  3.8656  1.0911 -0.3023
 5193SOL     OW27040   3.493   4.561   4.607 -0.3478  0.4700  0.2603
 5193SOL    HW127041   3.425   4.625   4.628  0.1947  0.6634  1.4542
 5193SOL    HW227042   3.547   4.549   4.686 -0.5072 -1.2858  0.1057
 5194SOL     OW27043   1.023   0.630  17.304 -0.0755 -0.2478 -0.5008
 5194SOL    HW127044   0.961   0.595  17.240  0.1418  1.2497 -1.5511
 5194SOL    HW227045   1.026   0.559  17.368 -0.6507 -1.6054 -1.9781
 5195SOL     OW27046   4.292   4.326   0.051 -0.7439  0.3034  0.1886
 5195SOL    HW127047   4.216   4.275   0.077 -0.1455 -0.4008  0.5509
 5195SOL    HW227048   4.281   4.318  17.658  1.2326 -1.3208  0.0970
 5196SOL     OW27049   1.762   4.611   7.289  0.3107 -0.4343 -0.1057
 5196SOL    HW127050   1.671   4.639   7.302 -0.4865 -2.1526 -1.9674
 5196SOL    HW227051   1.781   4.642   7.201  2.1460  0.8242  0.7184
 5197SOL     OW27052   2.539   1.362   7.557  0.4537 -0.1057  0.4252
 5197SOL    HW127053   2.621   1.376   7.605  0.6602  2.1352 -0.5495
 5197SOL    HW227054   2.496   1.446   7.577 -1.1250 -0.1602 -2.8297
 5198SOL     OW27055   1.985   2.462  12.507 -0.3248 -0.0009 -0.0530
 5198SOL    HW127056   2.009   2.478  12.598  0.3141 -1.2402 -0.0010
 5198SOL    HW227057   2.062   2.488  12.455 -0.1187  1.0640  0.7955
 5199SOL     OW27058   3.359   1.153   3.207  0.1814 -0.5727  0.1333
 5199SOL    HW127059   3.431   1.187   3.154  0.6670 -0.3958  0.9105
 5199SOL    HW227060   3.285   1.151   3.146  1.5927  0.4640 -1.6163
 5200SOL     OW27061   2.483   2.419   8.340 -0.0835  0.1707 -0.0188
 5200SOL    HW127062   2.477   2.514   8.355 -1.5347  0.0560  0.1490
 5200SOL    HW227063   2.560   2.424   8.283  0.0096 -1.2115  0.0026
 5201SOL     OW27064   4.395   2.430   2.166 -0.6028  0.3647  0.2137
 5201SOL    HW127065   4.339   2.417   2.089  0.3020  0.6882 -0.4929
 5201SOL    HW227066   4.475   2.399   2.123 -1.6913  0.3534 -1.8251
 5202SOL     OW27067   0.625   3.392   7.560 -0.3950  1.0621 -0.1013
 5202SOL    HW127068   0.534   3.388   7.589 -0.7611  2.1140 -1.0742
 5202SOL    HW227069   0.609   3.366   7.469 -0.4278 -0.9620  0.4818
 5203SOL     OW27070   0.821   0.748   2.360  0.1560  0.3500  0.0112
 5203SOL    HW127071   0.800   0.661   2.392  0.5796  0.9047  1.7674
 5203SOL    HW227072   0.906   0.761   2.401  0.3292 -1.6242  0.2684
 5204SOL     OW27073   4.417   2.462  12.622  0.0649  0.5241  0.0347
 5204SOL    HW127074   4.404   2.378  12.666 -1.5207 -0.2623 -1.9361
 5204SOL    HW227075   4.494   2.438  12.571 -0.3969  0.9954 -0.9020
 5205SOL     OW27076   3.112   0.206  15.896  0.4371 -0.3522 -0.0932
 5205SOL    HW127077   3.068   0.121  15.903 -1.0729  0.0091 -4.8620
 5205SOL    HW227078   3.201   0.180  15.919  0.3238  1.1015  1.9401
 5206SOL     OW27079   4.100   0.791   3.687 -0.4539 -0.3048  0.2912
 5206SOL    HW127080   4.158   0.821   3.757  0.9331 -3.3212  0.4365
 5206SOL    HW227081   4.025   0.845   3.709  0.2599  1.0577 -0.6432
 5207SOL     OW27082   2.447   2.551  14.621 -0.5067  0.3408 -0.2403
 5207SOL    HW127083   2.503   2.624  14.593  0.3868 -0.1832  0.1884
 5207SOL    HW227084   2.421   2.593  14.703  0.1428 -0.9175  0.6044
 5208SOL     OW27085   3.797   0.548   3.469 -0.0157  0.0783  0.0828
 5208SOL    HW127086   3.853   0.506   3.534 -0.8527 -2.6263 -0.9601
 5208SOL    HW227087   3.747   0.601   3.532 -1.5394  0.2821 -1.3188
 5209SOL     OW27088   2.813   0.395  10.548  0.3705 -0.4001  0.0157
 5209SOL    HW127089   2.768   0.355  10.622 -1.5846  0.7349 -0.5685
 5209SOL    HW227090   2.769   0.351  10.475 -0.0662 -0.3991  0.2799
 5210SOL     OW27091   2.316   3.202   0.020  0.2919  0.2909  0.4803
 5210SOL    HW127092   2.255   3.158   0.080 -0.0949 -0.1535 -0.2395
 5210SOL    HW227093   2.273   3.183  17.639 -0.3442 -2.4380  1.4342
 5211SOL     OW27094   2.450   2.012   7.036 -0.1592 -0.0465 -0.2556
 5211SOL    HW127095   2.367   2.057   7.022  0.7437  1.6224 -0.1690
 5211SOL    HW227096   2.428   1.931   6.990  0.5700 -0.2384 -0.2769
 5212SOL     OW27097   2.620   3.805   1.707 -0.7776 -0.1687 -0.0647
 5212SOL    HW127098   2.560   3.737   1.738 -0.6586 -0.5820 -0.7399
 5212SOL    HW227099   2.593   3.875   1.767 -2.0166  0.1983 -1.0401
 5213SOL     OW27100   3.397   3.493  14.895 -0.2999 -0.0466 -0.1209
 5213SOL    HW127101   3.401   3.466  14.986  0.7141  2.0165  0.4421
 5213SOL    HW227102   3.307   3.464  14.880  0.2052 -0.7852 -1.7178
 5214SOL     OW27103   2.737   3.351   3.015 -0.2564 -0.3355 -0.0638
 5214SOL    HW127104   2.695   3.411   3.077 -1.2961 -2.0971  0.9346
 5214SOL    HW227105   2.728   3.405   2.937  0.7323 -1.2190 -0.7751
 5215SOL     OW27106   4.214   0.291  15.507 -0.0200  0.3869  0.7638
 5215SOL    HW127107   4.270   0.247  15.444  0.1894 -2.5415  2.9708
 5215SOL    HW227108   4.283   0.348  15.541 -0.2815  0.2692  1.5091
 5216SOL     OW27109   1.979   1.147  13.170 -0.1918  0.2246 -0.8110
 5216SOL    HW127110   1.967   1.225  13.223  2.6338 -0.4585  0.8267
 5216SOL    HW227111   1.932   1.082  13.223 -1.0669  0.5676 -1.1653
 5217SOL     OW27112   3.368   4.203   7.730  0.1022  0.3692 -0.1378
 5217SOL    HW127113   3.344   4.222   7.821 -2.3604 -1.7129 -0.3503
 5217SOL    HW227114   3.291   4.151   7.708 -1.4954  2.1204  1.2878
 5218SOL     OW27115   1.470   4.132   3.207 -0.1925 -0.0811 -0.5291
 5218SOL    HW127116   1.404   4.122   3.139  0.0105  2.6481 -1.1177
 5218SOL    HW227117   1.414   4.120   3.284 -1.1451 -0.8735 -1.3409
 5219SOL     OW27118   0.374   0.193   9.590 -0.6671  0.0420  0.2291
 5219SOL    HW127119   0.431   0.121   9.563 -0.7917 -0.1910  0.5884
 5219SOL    HW227120   0.288   0.174   9.553  0.7478 -3.9302 -1.0061
 5220SOL     OW27121   3.847   4.221   3.168 -0.3273  0.2909 -0.8358
 5220SOL    HW127122   3.908   4.157   3.132 -1.6847 -2.2248  1.3393
 5220SOL    HW227123   3.864   4.217   3.262 -0.4170 -0.8395 -0.8630
 5221SOL     OW27124   1.199   4.528   2.073 -0.2456  0.3827 -0.0543
 5221SOL    HW127125   1.252   4.450   2.091 -0.6620 -0.3090 -1.8789
 5221SOL    HW227126   1.145   4.495   2.001 -1.2406  0.4127  0.6805
 5222SOL     OW27127   0.723   1.762   3.475 -0.0402  0.0153  0.4793
 5222SOL    HW127128   0.776   1.793   3.548 -1.2455  0.1059  1.3166
 5222SOL    HW227129   0.742   1.669   3.467 -0.4385 -0.0712  0.5388
 5223SOL     OW27130   3.463   4.024  12.075  0.1034 -0.2785 -0.3490
 5223SOL    HW127131   3.424   4.001  11.991  2.7604 -0.1603 -1.6301
 5223SOL    HW227132   3.499   4.110  12.051  2.9654 -1.7917 -1.5157
 5224SOL     OW27133   2.731   1.247   5.178 -0.1191  0.3495  0.2505
 5224SOL    HW127134   2.757   1.328   5.222 -0.3816 -0.0840  1.1900
 5224SOL    HW227135   2.761   1.181   5.241  1.5481  1.3434  0.4995
 5225SOL     OW27136   4.519   0.977   5.710 -0.1733 -0.5168 -0.4764
 5225SOL    HW127137   4.615   0.985   5.709 -0.2915  0.6675 -1.1141
 5225SOL    HW227138   4.503   0.929   5.791  1.4039 -1.1601 -0.5304
 5226SOL     OW27139   3.436   2.907   0.120  0.0806 -0.0098  0.0089
 5226SOL    HW127140   3.343   2.901   0.097  0.3092  0.4273 -0.9961
 5226SOL    HW227141   3.454   2.817   0.093 -1.9117 -0.6558  0.8041
 5227SOL     OW27142   2.238   4.013   0.457  0.3767  0.9384  0.2001
 5227SOL    HW127143   2.156   3.963   0.467 -0.2295  1.6415 -1.2486
 5227SOL    HW227144   2.289   3.968   0.525 -2.3443  0.2505  1.7991
 5228SOL     OW27145   3.803   3.549  16.718  0.3671  0.2658  0.4700
 5228SOL    HW127146   3.885   3.594  16.697  1.4052 -0.9024  2.0257
 5228SOL    HW227147   3.819   3.459  16.693 -0.5036 -0.2278  1.6747
 5229SOL     OW27148   3.021   3.906   5.086 -0.5004 -0.4850 -0.4645
 5229SOL    HW127149   3.092   3.914   5.022 -1.9052  3.7272 -1.4898
 5229SOL    HW227150   3.030   3.982   5.143 -0.3523 -0.4990 -0.4688
 5230SOL     OW27151   3.613   3.209  14.919 -0.6671 -0.2778  0.3421
 5230SOL    HW127152   3.702   3.236  14.941 -0.4070 -0.2890 -0.6764
 5230SOL    HW227153   3.629   3.117  14.937  5.5398  0.9577  1.1330
 5231SOL     OW27154   1.618   1.283   3.981 -0.4998 -0.4931 -0.4517
 5231SOL    HW127155   1.626   1.199   4.026  0.6246  0.4246  1.0905
 5231SOL    HW227156   1.544   1.329   4.022  0.5848 -1.6573  2.7599
 5232SOL     OW27157   3.455   4.343  15.131 -0.8880  0.0045 -0.1845
 5232SOL    HW127158   3.404   4.366  15.053 -0.5409  0.2406 -0.3422
 5232SOL    HW227159   3.533   4.296  15.101 -0.9358 -1.4109  1.9326
 5233SOL     OW27160   1.512   1.873   8.798 -0.3678 -0.0427 -0.1727
 5233SOL    HW127161   1.495   1.818   8.874 -0.4384  2.1821  1.4201
 5233SOL    HW227162   1.607   1.859   8.795 -0.1134  1.6300  0.1853
 5234SOL     OW27163   0.483   2.409  14.890 -0.2299 -0.1792 -0.1331
 5234SOL    HW127164   0.404   2.463  14.892 -0.9592 -1.2341 -0.3570
 5234SOL    HW227165   0.444   2.329  14.855 -2.2682  0.9850 -0.5887
 5235SOL     OW27166   4.545   2.968   7.366 -0.6384  0.6209  0.4328
 5235SOL    HW127167   4.545   2.918   7.284 -2.4925 -1.2068  1.5224
 5235SOL    HW227168   4.605   2.922   7.424  0.2861 -0.0374 -1.0470
 5236SOL     OW27169   3.820   0.685   1.082  0.1485  0.1009  0.1837
 5236SOL    HW127170   3.862   0.737   1.014  2.2824  0.1347  1.5410
 5236SOL    HW227171   3.848   0.738   1.157  0.1665  2.1943 -1.3009
 5237SOL     OW27172   2.274   0.062   6.805 -0.4785 -0.3058  0.0480
 5237SOL    HW127173   2.326   4.708   6.792  0.4029  0.2956 -0.0458
 5237SOL    HW227174   2.290   0.108   6.722 -1.9677  0.1791  0.0401
 5238SOL     OW27175   3.217   4.485   5.996  0.1858 -0.4178 -0.2939
 5238SOL    HW127176   3.147   4.543   5.964  1.4527 -0.1341 -2.5329
 5238SOL    HW227177   3.281   4.505   5.928  0.5552  0.3600  0.2691
 5239SOL     OW27178   1.380   1.448   4.981  0.0657 -0.2692  0.3273
 5239SOL    HW127179   1.384   1.462   4.887 -0.7604 -4.4616 -0.3120
 5239SOL    HW227180   1.288   1.458   5.002 -0.2644 -2.1029 -0.2583
 5240SOL     OW27181   0.288   4.548   3.062  0.2740 -0.5893  0.2127
 5240SOL    HW127182   0.200   4.585   3.057  1.1879  1.6162  0.2315
 5240SOL    HW227183   0.287   4.520   3.154 -2.0310 -2.7668 -0.4881
 5241SOL     OW27184   1.484   1.318   7.669  0.0785  0.9514 -0.2689
 5241SOL    HW127185   1.482   1.404   7.628 -1.2314  0.3557 -1.4436
 5241SOL    HW227186   1.545   1.337   7.741 -0.0525 -0.4363  0.2150
 5242SOL     OW27187   2.509   0.967  13.676 -0.4813  0.0546  0.2071
 5242SOL    HW127188   2.529   0.887  13.726 -2.2267 -2.0321 -2.4551
 5242SOL    HW227189   2.590   0.970  13.625 -1.5647  0.6715 -1.4664
 5243SOL     OW27190   0.824   2.458   0.580 -0.4546  0.3364  0.9645
 5243SOL    HW127191   0.786   2.514   0.512 -0.4969 -0.0903  0.6358
 5243SOL    HW227192   0.866   2.394   0.523  1.1564  1.1508  1.2216
 5244SOL     OW27193   2.072   0.504   7.416  0.0247  0.3758 -0.5055
 5244SOL    HW127194   1.987   0.463   7.433  0.8042  0.0693  2.7485
 5244SOL    HW227195   2.094   0.527   7.507 -1.2730 -0.5512  0.0543
 5245SOL     OW27196   3.863   2.217   8.566 -0.3868 -0.2981 -0.4974
 5245SOL    HW127197   3.908   2.195   8.484 -1.2856  0.3044 -1.1523
 5245SOL    HW227198   3.904   2.154   8.626  1.3340 -0.0590 -1.4148
 5246SOL     OW27199   4.508   0.264   2.505  0.3818 -0.0550 -0.1528
 5246SOL    HW127200   4.520   0.359   2.505 -1.6846  0.2114 -1.4783
 5246SOL    HW227201   4.596   0.238   2.534  0.6095 -0.2364 -0.9820
 5247SOL     OW27202   1.147   1.268   9.023 -0.1099  0.6057  0.3033
 5247SOL    HW127203   1.206   1.231   9.088 -0.0067 -0.7229 -0.5503
 5247SOL    HW227204   1.208   1.325   8.976 -1.1459  0.4385 -1.2336
 5248SOL     OW27205   3.794   1.567   6.103  0.1316 -0.2531 -0.2393
 5248SOL    HW127206   3.875   1.570   6.154  0.1005  0.6349 -0.2279
 5248SOL    HW227207   3.741   1.524   6.170  0.5731 -0.3454  0.0529
 5249SOL     OW27208   4.149   3.485   1.073  0.0577  0.2990  0.2274
 5249SOL    HW127209   4.176   3.576   1.064 -0.8726  0.3430 -2.1391
 5249SOL    HW227210   4.086   3.498   1.144  0.7182 -1.3270  1.1299
 5250SOL     OW27211   3.115   2.394  14.198  0.1930 -0.0602 -0.5976
 5250SOL    HW127212   3.061   2.321  14.170  0.4408 -1.8219  3.5607
 5250SOL    HW227213   3.049   2.453  14.236 -1.0388 -1.3913 -0.6781
 5251SOL     OW27214   0.796   4.342   8.995  0.1545  0.4287  0.5996
 5251SOL    HW127215   0.766   4.268   8.943  0.2617  0.7238  0.1089
 5251SOL    HW227216   0.726   4.347   9.059  1.3053 -0.4983  1.9176
 5252SOL     OW27217   2.373   0.186  10.519  0.0429  0.6227  0.1806
 5252SOL    HW127218   2.299   0.160  10.466 -0.1822  0.3130  0.6489
 5252SOL    HW227219   2.421   0.230  10.448 -1.0433  1.1812 -0.2120
 5253SOL     OW27220   1.811   3.120  14.472 -0.2960  0.0922  0.7235
 5253SOL    HW127221   1.873   3.190  14.449 -1.7226  0.4222 -2.0984
 5253SOL    HW227222   1.853   3.044  14.432  0.4698  0.0043  1.6964
 5254SOL     OW27223   0.131   2.258   7.005  0.0462  0.2791  0.4150
 5254SOL    HW127224   0.183   2.215   6.938  0.8723 -0.9266  1.8379
 5254SOL    HW227225   0.150   2.199   7.078 -0.9111 -1.0384 -0.3960
 5255SOL     OW27226   3.140   4.625   3.667  0.2636  0.1493 -0.3859
 5255SOL    HW127227   3.194   4.702   3.648  0.1180  0.1650 -0.7339
 5255SOL    HW227228   3.151   4.582   3.751 -0.4203  1.9059  0.6130
 5256SOL     OW27229   1.605   0.546  14.817 -0.1878 -0.2801 -0.0993
 5256SOL    HW127230   1.604   0.547  14.913  1.2322 -1.1758 -0.0604
 5256SOL    HW227231   1.697   0.568  14.798  0.5469 -0.9935  2.6176
 5257SOL     OW27232   0.202   1.310   5.283  0.1730  0.4243  0.8808
 5257SOL    HW127233   0.182   1.289   5.374 -1.3439 -0.8952  0.2460
 5257SOL    HW227234   0.158   1.237   5.239 -1.4119  0.9985  1.4977
 5258SOL     OW27235   0.348   4.486   7.359  0.3464 -0.6014  0.3306
 5258SOL    HW127236   0.275   4.444   7.405 -0.7470  0.6900 -0.2194
 5258SOL    HW227237   0.321   4.576   7.376  0.3286 -0.4430 -0.5408
 5259SOL     OW27238   4.611   2.754   2.497  0.0018  0.7916  0.0223
 5259SOL    HW127239   4.618   2.685   2.432  0.9783  2.1566 -1.3277
 5259SOL    HW227240   4.631   2.836   2.452  0.8558  0.2394 -0.6003
 5260SOL     OW27241   0.400   3.007  11.015 -0.8170  0.5109 -0.2232
 5260SOL    HW127242   0.324   2.954  10.993  1.2702 -2.4592 -0.2779
 5260SOL    HW227243   0.455   2.971  10.946  1.0115  1.0438  0.9526
 5261SOL     OW27244   1.581   2.270   2.512  0.2523 -0.4744 -0.1074
 5261SOL    HW127245   1.533   2.274   2.595 -2.5603  1.7216 -1.8340
 5261SOL    HW227246   1.658   2.220   2.541  0.8260  0.6712  0.3593
 5262SOL     OW27247   0.008   4.210  14.834  0.4072 -0.6834 -0.0404
 5262SOL    HW127248   4.656   4.267  14.834  1.3673  0.6386 -1.8932
 5262SOL    HW227249   0.015   4.204  14.739  2.5648  0.5538  0.0341
 5263SOL     OW27250   2.072   0.219   7.861 -0.3201 -0.2943 -0.0040
 5263SOL    HW127251   2.067   0.197   7.767 -2.4327 -0.1780  0.0948
 5263SOL    HW227252   2.132   0.153   7.896  0.8735  0.9356  0.2605
 5264SOL     OW27253   2.163   0.066  10.347  0.1014  0.2452  0.3952
 5264SOL    HW127254   2.169   0.066  10.251  1.1873 -0.5966  0.4602
 5264SOL    HW227255   2.098   4.721  10.353  0.2957  0.0642  0.4035
 5265SOL     OW27256   2.343   2.993   0.295 -0.2963  0.6061 -0.5313
 5265SOL    HW127257   2.358   3.038   0.378  0.3215 -0.1567 -0.2317
 5265SOL    HW227258   2.252   3.020   0.277 -0.6413 -1.0993 -1.3177
 5266SOL     OW27259   3.055   3.049  15.528 -0.5442  0.6231  0.9720
 5266SOL    HW127260   3.032   3.065  15.620 -4.7963 -3.1826  0.5526
 5266SOL    HW227261   3.092   2.961  15.526 -0.0808  0.8213  0.8401
 5267SOL     OW27262   2.513   3.783   4.210  0.3227 -0.5410 -0.2197
 5267SOL    HW127263   2.542   3.874   4.211 -2.5002  0.3457  0.8767
 5267SOL    HW227264   2.558   3.763   4.127  3.6358  1.0969  1.2097
 5268SOL     OW27265   1.366   4.466   3.273 -0.1358 -0.2668 -0.6767
 5268SOL    HW127266   1.381   4.522   3.349 -2.7932  0.0203 -0.3579
 5268SOL    HW227267   1.456   4.451   3.246 -0.7678 -1.7477 -1.9903
 5269SOL     OW27268   0.424   0.141   7.217 -0.1892 -0.3347  1.0200
 5269SOL    HW127269   0.360   0.104   7.155 -0.0755  1.0318  0.0933
 5269SOL    HW227270   0.397   0.231   7.197 -1.0011 -1.4363 -2.9715
 5270SOL     OW27271   1.612   1.937   2.888 -0.1915  0.0072 -0.1001
 5270SOL    HW127272   1.623   1.843   2.878 -1.0029  0.0436 -1.3583
 5270SOL    HW227273   1.516   1.946   2.886 -0.0227  2.3784  1.5643
 5271SOL     OW27274   1.775   2.173   2.838  0.1382  0.5287  0.1901
 5271SOL    HW127275   1.728   2.089   2.842  1.8720 -0.3919  1.1444
 5271SOL    HW227276   1.743   2.201   2.924  0.6350  0.0864  0.5166
 5272SOL     OW27277   3.402   1.933   2.703 -0.7130  0.5832  0.1648
 5272SOL    HW127278   3.431   1.864   2.642  1.4346  1.6381 -0.0243
 5272SOL    HW227279   3.472   1.995   2.680 -0.8179  1.5815  2.5559
 5273SOL     OW27280   3.608   1.169  16.879 -0.0381  1.0648  0.5084
 5273SOL    HW127281   3.679   1.152  16.817 -1.2508  0.1008 -0.6382
 5273SOL    HW227282   3.602   1.080  16.915  1.5681  0.6337 -0.2639
 5274SOL     OW27283   2.625   0.799   2.899  0.0226  0.0886  0.9756
 5274SOL    HW127284   2.624   0.720   2.846 -1.2331  2.2917 -2.2866
 5274SOL    HW227285   2.716   0.826   2.913 -0.1769 -0.0147  2.4963
 5275SOL     OW27286   1.001   0.595   1.838  0.1695 -0.1193  0.3498
 5275SOL    HW127287   0.918   0.595   1.790 -1.3164  0.3207  2.9447
 5275SOL    HW227288   0.968   0.534   1.904 -0.5010 -0.4985 -0.3278
 5276SOL     OW27289   1.206   2.092   6.714 -0.1085 -0.3981  0.3743
 5276SOL    HW127290   1.181   2.071   6.624  1.8036 -0.7888 -0.0805
 5276SOL    HW227291   1.274   2.026   6.729 -0.6095 -0.1514  3.6822
 5277SOL     OW27292   1.561   3.819   5.170 -0.5819  0.1522  0.1577
 5277SOL    HW127293   1.643   3.801   5.216 -0.0190  0.3487 -0.7703
 5277SOL    HW227294   1.539   3.727   5.154  0.9587  0.2846 -2.8080
 5278SOL     OW27295   4.134   2.643  10.055  0.2867 -0.2530 -0.3891
 5278SOL    HW127296   4.057   2.685  10.091  0.1477 -0.4045 -0.5087
 5278SOL    HW227297   4.101   2.553  10.065 -2.1475  0.6671 -0.2544
 5279SOL     OW27298   3.555   0.086  12.056  0.4361  0.0868 -0.6531
 5279SOL    HW127299   3.540   0.145  12.130 -1.7505 -0.1173 -0.9237
 5279SOL    HW227300   3.545   0.151  11.987 -0.6183 -1.3156 -1.8447
 5280SOL     OW27301   1.182   0.696   9.424 -0.4676 -0.2728  0.1942
 5280SOL    HW127302   1.177   0.628   9.491  1.7913  0.7236  1.3974
 5280SOL    HW227303   1.100   0.668   9.383 -1.3186 -0.8819  2.3212
 5281SOL     OW27304   1.478   4.046  13.145  0.2389  0.0110  0.1446
 5281SOL    HW127305   1.435   4.081  13.067 -0.6009 -0.3804  0.4322
 5281SOL    HW227306   1.419   4.068  13.217  0.3650  0.2382  0.1766
 5282SOL     OW27307   4.383   1.234  11.542  0.1675  0.2604  0.2298
 5282SOL    HW127308   4.448   1.304  11.549  2.3888 -1.4363 -3.5822
 5282SOL    HW227309   4.412   1.187  11.620  0.2588  1.5842  0.9926
 5283SOL     OW27310   3.620   3.193   7.345  0.4835  0.0934  0.0438
 5283SOL    HW127311   3.689   3.182   7.410  1.0684 -0.3278 -0.6428
 5283SOL    HW227312   3.626   3.111   7.295  1.4106  0.1455  0.0790
 5284SOL     OW27313   1.801   3.334  15.048 -0.2301 -1.1121 -0.1558
 5284SOL    HW127314   1.874   3.351  15.107  0.1706  0.9615 -1.2380
 5284SOL    HW227315   1.764   3.248  15.068 -3.1693  0.7290  2.4257
 5285SOL     OW27316   0.827   0.011   4.898  0.0087 -0.3949 -0.0364
 5285SOL    HW127317   0.794   4.698   4.817 -0.0084  5.1041 -2.6270
 5285SOL    HW227318   0.882   4.661   4.920  2.2486  1.5614  1.1757
 5286SOL     OW27319   3.298   3.335   8.738 -0.1283 -0.5956 -0.3035
 5286SOL    HW127320   3.278   3.357   8.829 -1.1639 -0.1517 -0.6366
 5286SOL    HW227321   3.285   3.423   8.703 -2.3240 -0.8270 -0.0541
 5287SOL     OW27322   0.012   0.538   5.860 -0.2659 -0.0975  0.3534
 5287SOL    HW127323   0.061   0.604   5.909  1.6823 -1.2512 -0.0701
 5287SOL    HW227324   0.009   0.589   5.779  1.4397  1.9157  1.5387
 5288SOL     OW27325   3.622   2.956  16.039  0.9131  0.6789  0.3558
 5288SOL    HW127326   3.553   2.899  16.004  2.1989 -0.1426 -0.8082
 5288SOL    HW227327   3.696   2.922  15.989  0.0042  1.4531 -1.5069
 5289SOL     OW27328   3.578   4.532   2.855 -0.0965  0.2622 -0.1738
 5289SOL    HW127329   3.638   4.497   2.922 -1.2801  0.8373  1.1965
 5289SOL    HW227330   3.580   4.450   2.805 -0.5285  0.0853  0.0985
 5290SOL     OW27331   3.022   1.307  14.658  0.1628 -0.3844 -0.2521
 5290SOL    HW127332   3.017   1.313  14.563 -0.5412  2.8517 -0.0272
 5290SOL    HW227333   3.056   1.395  14.676 -0.5757 -0.3258  0.8442
 5291SOL     OW27334   1.629   2.228   1.731  0.1641 -0.3671  0.7764
 5291SOL    HW127335   1.570   2.303   1.737 -0.5009 -0.7435 -0.8999
 5291SOL    HW227336   1.559   2.163   1.729  0.0972 -0.2441 -0.9538
 5292SOL     OW27337   1.566   3.031  14.479 -0.3994 -0.3677  0.0195
 5292SOL    HW127338   1.650   3.076  14.475 -0.2601 -0.6955 -0.7086
 5292SOL    HW227339   1.521   3.103  14.523 -0.0976 -0.7421  0.9545
 5293SOL     OW27340   4.497   2.553  15.199  0.4242 -0.0150 -0.1159
 5293SOL    HW127341   4.519   2.646  15.208  0.2606  0.1652 -1.5493
 5293SOL    HW227342   4.563   2.513  15.256 -0.2042  0.0337  0.6457
 5294SOL     OW27343   4.461   3.371   9.097  0.1307  0.3441  0.3647
 5294SOL    HW127344   4.519   3.301   9.068  1.2600  0.2586  2.8208
 5294SOL    HW227345   4.491   3.371   9.188  0.4996  0.4313  0.2414
 5295SOL     OW27346   4.306   3.460   7.010  0.4111  0.2492 -0.0604
 5295SOL    HW127347   4.283   3.481   6.919  0.4991  1.6194  0.2319
 5295SOL    HW227348   4.296   3.545   7.053 -1.1352  0.7448 -1.3615
 5296SOL     OW27349   3.836   1.884   4.078  0.1776 -0.8852  0.2941
 5296SOL    HW127350   3.894   1.834   4.021  1.3735  0.5091  0.2839
 5296SOL    HW227351   3.774   1.918   4.013  3.1132  1.2336 -1.3812
 5297SOL     OW27352   3.273   3.576   8.062  0.4412  0.4434  0.0916
 5297SOL    HW127353   3.237   3.535   8.140 -4.4098 -1.6892 -3.2406
 5297SOL    HW227354   3.205   3.571   7.995  1.2321  2.2801 -0.8332
 5298SOL     OW27355   3.828   2.626  17.073  0.5838  0.3757  0.4201
 5298SOL    HW127356   3.829   2.533  17.052 -0.0853  0.4572  0.0219
 5298SOL    HW227357   3.899   2.623  17.137  2.0737 -0.3033 -1.2627
 5299SOL     OW27358   4.223   0.665   7.880 -0.2493 -0.3201 -0.1239
 5299SOL    HW127359   4.281   0.597   7.847 -0.6487 -0.2171 -1.0411
 5299SOL    HW227360   4.238   0.728   7.809 -1.7499 -0.8804 -0.9517
 5300SOL     OW27361   3.983   3.768   8.097 -0.4244 -0.3539 -0.2633
 5300SOL    HW127362   3.905   3.733   8.054 -0.2041  1.9682 -2.5016
 5300SOL    HW227363   4.007   3.838   8.036  0.4820 -1.4999 -1.2156
 5301SOL     OW27364   0.916   0.431   6.435  0.4510  0.2206 -0.1549
 5301SOL    HW127365   0.831   0.420   6.392  0.8661  1.6362 -1.3165
 5301SOL    HW227366   0.894   0.481   6.513 -4.7618  0.3362 -1.7034
 5302SOL     OW27367   1.932   2.451   7.753 -0.4532 -0.1898 -0.1333
 5302SOL    HW127368   2.005   2.451   7.815 -1.8832 -1.4185  1.5306
 5302SOL    HW227369   1.940   2.541   7.721 -2.3560 -0.6769 -1.9733
 5303SOL     OW27370   0.264   3.993   3.853  0.0862 -0.5034  0.3291
 5303SOL    HW127371   0.345   4.044   3.859 -0.6481  0.6581  0.1831
 5303SOL    HW227372   0.199   4.051   3.891 -0.4262  0.3997 -1.9063
 5304SOL     OW27373   0.158   3.996  17.587 -0.1744  0.5842  0.1058
 5304SOL    HW127374   0.202   4.068  17.541 -1.1351  0.9748 -0.1936
 5304SOL    HW227375   0.154   4.026  17.678  1.3962 -1.9437  1.0084
 5305SOL     OW27376   1.560   2.707   2.312  0.0669  0.1706  0.3009
 5305SOL    HW127377   1.484   2.686   2.256 -1.1496  1.7910  1.3586
 5305SOL    HW227378   1.511   2.736   2.389  2.0983  3.3258  0.4028
 5306SOL     OW27379   1.235   3.125   4.004  0.0328 -0.2617 -0.1333
 5306SOL    HW127380   1.152   3.170   4.022  0.4165  0.6358 -0.5855
 5306SOL    HW227381   1.281   3.190   3.951 -0.2487  0.9178  1.0505
 5307SOL     OW27382   0.122   0.401   9.036  0.1153  0.5049  0.1292
 5307SOL    HW127383   0.153   0.342   9.104  1.4630  1.7340  0.5801
 5307SOL    HW227384   0.166   0.481   9.063  1.5121 -0.2998  0.2476
 5308SOL     OW27385   3.379   2.735   5.525 -0.0309 -0.4112 -0.2828
 5308SOL    HW127386   3.429   2.769   5.450  0.1878 -0.2918 -0.0823
 5308SOL    HW227387   3.344   2.652   5.493  1.0836 -0.2924 -1.8445
 5309SOL     OW27388   4.544   4.140   8.181 -0.1320  0.0310 -0.1899
 5309SOL    HW127389   4.631   4.172   8.158 -0.7197  1.8950  0.2203
 5309SOL    HW227390   4.566   4.055   8.219 -0.7077  0.4172  0.9982
 5310SOL     OW27391   1.363   4.312   9.388 -0.3913  0.0803  0.2976
 5310SOL    HW127392   1.319   4.268   9.315 -0.4896 -0.5934  0.7650
 5310SOL    HW227393   1.292   4.299   9.451  0.1885  3.4487  1.6434
 5311SOL     OW27394   3.750   0.309  12.257 -0.5921 -0.0779 -0.0814
 5311SOL    HW127395   3.807   0.246  12.213 -2.0497  0.1627 -2.3178
 5311SOL    HW227396   3.810   0.381  12.237  2.9099 -3.3594 -1.3361
 5312SOL     OW27397   1.439   3.935  12.113 -0.6169  0.2504 -0.5557
 5312SOL    HW127398   1.400   3.979  12.189  1.1378  0.3674  0.2662
 5312SOL    HW227399   1.392   3.985  12.046 -0.2146 -1.4422 -2.1001
 5313SOL     OW27400   4.110   3.849   2.233 -0.1211  0.4303 -0.0390
 5313SOL    HW127401   4.086   3.835   2.141  1.1334 -1.4494 -0.0928
 5313SOL    HW227402   4.143   3.937   2.216 -0.4784  0.4371 -0.7139
 5314SOL     OW27403   4.038   3.706   0.217  0.3769  0.1191 -0.1845
 5314SOL    HW127404   3.976   3.773   0.185 -0.4281  0.1417  1.4619
 5314SOL    HW227405   4.112   3.756   0.252 -0.2775  2.0513 -1.5535
 5315SOL     OW27406   0.664   2.472  13.004  0.3979 -0.4498 -0.0758
 5315SOL    HW127407   0.579   2.444  13.037 -0.2786  2.0434  0.2804
 5315SOL    HW227408   0.650   2.566  12.992  1.0773 -0.4219 -0.6747
 5316SOL     OW27409   1.692   1.167   2.980  0.0251  0.0781  0.3653
 5316SOL    HW127410   1.636   1.196   2.909  2.1560  2.3802 -0.3547
 5316SOL    HW227411   1.768   1.130   2.935 -0.9129 -0.6246 -0.6501
 5317SOL     OW27412   1.146   0.455   8.389 -0.2732 -0.4612  0.5418
 5317SOL    HW127413   1.126   0.387   8.454  0.6224 -3.4652 -2.3585
 5317SOL    HW227414   1.224   0.499   8.422  0.2425 -0.7722 -0.2608
 5318SOL     OW27415   3.900   0.970   0.635 -0.2774  0.0065 -0.6540
 5318SOL    HW127416   3.821   0.921   0.614 -0.3567  0.3001 -1.0358
 5318SOL    HW227417   3.963   0.935   0.572  0.8503  2.2055 -0.7434
 5319SOL     OW27418   0.281   0.321   1.996 -0.4046 -0.1096  0.1591
 5319SOL    HW127419   0.299   0.415   2.002 -0.9432  0.0640 -0.8503
 5319SOL    HW227420   0.298   0.301   1.903  1.1989 -0.9552  0.6327
 5320SOL     OW27421   2.165   3.388  16.358  0.7302 -0.5175  0.4128
 5320SOL    HW127422   2.152   3.474  16.317 -0.0303 -1.5371 -1.4738
 5320SOL    HW227423   2.176   3.326  16.286 -0.6445 -0.1627 -0.0966
 5321SOL     OW27424   0.624   0.431   3.184  0.2087 -0.0490 -0.3515
 5321SOL    HW127425   0.619   0.375   3.107 -1.2056 -1.9653  1.1434
 5321SOL    HW227426   0.669   0.509   3.151 -0.9407  0.8431  0.2206
 5322SOL     OW27427   2.805   1.632   7.661  0.2611 -0.5739  0.1996
 5322SOL    HW127428   2.884   1.651   7.712  1.9700  0.5695 -2.9086
 5322SOL    HW227429   2.765   1.719   7.658  1.5463  0.0615  1.7577
 5323SOL     OW27430   2.019   1.188   1.881  0.0493 -0.5310  0.4436
 5323SOL    HW127431   2.071   1.217   1.956 -0.6597  1.4021  0.1695
 5323SOL    HW227432   1.933   1.211   1.916  0.2022 -0.4362  0.7656
 5324SOL     OW27433   1.252   2.942  11.545 -0.5123  0.1651  0.2389
 5324SOL    HW127434   1.278   3.034  11.535  2.7236 -0.9697 -1.6338
 5324SOL    HW227435   1.337   2.899  11.534 -1.0912 -0.4640 -1.7051
 5325SOL     OW27436   3.963   4.076  13.159 -0.2598  0.6305 -0.4085
 5325SOL    HW127437   4.029   4.110  13.220  0.2185 -1.5092  0.2659
 5325SOL    HW227438   3.979   3.982  13.165 -0.5153  0.7671  2.4739
 5326SOL     OW27439   0.128   0.261   1.740  0.2207 -0.7321 -1.0288
 5326SOL    HW127440   0.216   0.274   1.704  1.2270  0.2122  1.7553
 5326SOL    HW227441   0.135   0.168   1.763 -1.2644 -0.6790 -0.3606
 5327SOL     OW27442   1.681   1.985   7.643 -0.3667  0.0743 -0.0649
 5327SOL    HW127443   1.622   2.033   7.584  0.1041  1.0198  0.2320
 5327SOL    HW227444   1.746   2.055   7.642 -0.5774  0.2816  1.0880
 5328SOL     OW27445   2.456   2.003   5.974  0.4773 -0.1186 -0.2818
 5328SOL    HW127446   2.496   1.975   6.056  0.2780  2.1752  0.5816
 5328SOL    HW227447   2.410   2.082   6.003 -0.9383 -0.7927 -0.6581
 5329SOL     OW27448   3.102   0.382  12.855 -0.1023  0.1957  0.4541
 5329SOL    HW127449   3.084   0.311  12.916 -1.2228 -0.2135 -0.3738
 5329SOL    HW227450   3.022   0.399  12.806 -0.2275  1.1354  0.9881
 5330SOL     OW27451   0.719   3.730  10.929  0.0815 -0.1036  1.0507
 5330SOL    HW127452   0.763   3.713  11.012  0.4040 -3.0180  0.2570
 5330SOL    HW227453   0.715   3.652  10.875  0.9041 -0.6971  1.8617
 5331SOL     OW27454   4.208   3.546   2.650 -0.3545  0.3764  0.4279
 5331SOL    HW127455   4.264   3.556   2.573 -0.9915 -0.6704 -0.1709
 5331SOL    HW227456   4.158   3.626   2.635 -2.0592 -0.6247  0.7825
 5332SOL     OW27457   3.601   2.534  15.079  0.0894 -0.5388 -0.3192
 5332SOL    HW127458   3.516   2.544  15.036  0.2874  3.0204  0.1340
 5332SOL    HW227459   3.605   2.619  15.123  0.6307  0.5547 -2.4567
 5333SOL     OW27460   4.253   0.591   2.735  0.1252  0.3584  0.2490
 5333SOL    HW127461   4.288   0.525   2.795 -1.5385 -0.6871  0.0409
 5333SOL    HW227462   4.236   0.545   2.654  0.8595  0.6801 -0.0916
 5334SOL     OW27463   4.429   4.289   4.571  0.1812  0.1446 -0.2537
 5334SOL    HW127464   4.485   4.217   4.543 -0.1730  0.0023 -0.5873
 5334SOL    HW227465   4.347   4.244   4.588  0.8598  0.0363  2.7395
 5335SOL     OW27466   1.758   1.113   5.095 -0.3650 -0.1687 -0.0553
 5335SOL    HW127467   1.792   1.185   5.147 -0.0676 -1.2635  1.2730
 5335SOL    HW227468   1.666   1.130   5.074 -0.5881 -3.0329 -1.4687
 5336SOL     OW27469   2.709   3.900  15.191  0.1155  0.2632 -0.6812
 5336SOL    HW127470   2.798   3.882  15.164 -0.4442 -1.0819 -1.6344
 5336SOL    HW227471   2.676   3.958  15.122  2.0276  1.1619 -0.8376
 5337SOL     OW27472   3.120   0.633   4.318 -0.0568 -0.8826  0.0011
 5337SOL    HW127473   3.025   0.634   4.329 -0.1559 -0.5187 -0.8997
 5337SOL    HW227474   3.147   0.666   4.403  2.2481 -1.2980 -0.5817
 5338SOL     OW27475   3.420   1.525   6.540 -0.3798  0.4452 -0.4727
 5338SOL    HW127476   3.445   1.433   6.538 -0.7920  0.3241 -0.1734
 5338SOL    HW227477   3.462   1.552   6.622 -0.4771 -0.1537 -0.2233
 5339SOL     OW27478   3.290   2.393   3.500  0.1224  0.5174 -0.0541
 5339SOL    HW127479   3.379   2.411   3.470 -0.3181  0.7970 -1.2099
 5339SOL    HW227480   3.262   2.463   3.559  1.2410  0.0801  1.0053
 5340SOL     OW27481   3.229   1.025   9.544  0.1886 -0.0264 -0.3971
 5340SOL    HW127482   3.282   0.952   9.511  0.0002  0.1297 -1.0403
 5340SOL    HW227483   3.145   0.982   9.528 -0.6724  1.1446  1.0427
 5341SOL     OW27484   1.615   0.428  15.118 -0.3509  0.2833  0.0054
 5341SOL    HW127485   1.564   0.366  15.067 -0.0543  1.8682 -2.1820
 5341SOL    HW227486   1.704   0.400  15.095 -0.1728  2.8216 -2.3644
 5342SOL     OW27487   1.425   1.950  13.950 -0.2690 -0.0664  0.0832
 5342SOL    HW127488   1.385   1.863  13.949 -0.9281  0.2376 -0.1485
 5342SOL    HW227489   1.352   2.003  13.981 -1.1573 -0.6355 -1.0510
 5343SOL     OW27490   0.342   3.329   3.977  0.3608  0.2503 -0.0007
 5343SOL    HW127491   0.276   3.282   4.027 -0.2876 -0.2489 -1.3232
 5343SOL    HW227492   0.320   3.309   3.886 -0.7208  1.5492 -0.0131
 5344SOL     OW27493   3.542   2.516  12.722 -0.4059  0.1459 -0.5847
 5344SOL    HW127494   3.580   2.550  12.641  0.8498  1.0131  0.3546
 5344SOL    HW227495   3.607   2.545  12.786 -0.2342  2.9737 -2.0144
 5345SOL     OW27496   0.504   3.825   8.193  0.1829 -0.2025  0.3962
 5345SOL    HW127497   0.483   3.762   8.261 -1.2507 -0.5705 -0.3891
 5345SOL    HW227498   0.483   3.770   8.118  0.2434  1.3342 -0.7499
 5346SOL     OW27499   0.207   4.104   8.938 -0.2359 -0.0056 -0.5978
 5346SOL    HW127500   0.188   4.197   8.941 -2.4981 -0.5264  1.0019
 5346SOL    HW227501   0.240   4.096   9.028 -1.2891 -0.2370 -0.2383
 5347SOL     OW27502   0.140   1.009  11.853  0.4402 -0.2524  0.0509
 5347SOL    HW127503   0.181   0.979  11.934  0.7149  0.5499  0.2055
 5347SOL    HW227504   0.136   0.925  11.807 -0.9703 -1.7637  2.9630
 5348SOL     OW27505   2.825   1.132  14.618 -0.2829 -0.1008 -0.6048
 5348SOL    HW127506   2.792   1.170  14.537  1.1137  1.9599 -0.2041
 5348SOL    HW227507   2.886   1.200  14.645 -1.0320 -0.2771  1.5570
 5349SOL     OW27508   0.163   2.351   2.167 -0.1947 -0.2337  0.1437
 5349SOL    HW127509   0.243   2.300   2.160 -0.4443 -0.6227  0.0979
 5349SOL    HW227510   0.121   2.308   2.242 -0.2106 -0.5194 -0.0272
 5350SOL     OW27511   1.721   3.945   6.787  0.2230 -0.2930 -0.5522
 5350SOL    HW127512   1.658   3.960   6.857 -0.7038 -0.2978 -1.3903
 5350SOL    HW227513   1.676   3.973   6.708 -0.4664  1.4958  0.4853
 5351SOL     OW27514   4.668   3.769   4.767 -0.5498  0.0564 -0.2913
 5351SOL    HW127515   0.037   3.750   4.765 -0.3700  0.9569 -0.2926
 5351SOL    HW227516   4.646   3.744   4.678  3.8994  0.6648 -1.5930
 5352SOL     OW27517   2.820   0.410   1.452 -0.1361  0.0308 -0.0886
 5352SOL    HW127518   2.803   0.501   1.474 -2.4526 -1.1140  2.8786
 5352SOL    HW227519   2.739   0.396   1.403 -0.1102 -0.1543 -0.0816
 5353SOL     OW27520   4.563   1.836  14.805  0.1106 -0.4980 -0.6361
 5353SOL    HW127521   4.618   1.898  14.853 -1.4820 -0.9017  1.7247
 5353SOL    HW227522   4.635   1.791  14.763  0.4966 -0.5605  0.0884
 5354SOL     OW27523   4.575   2.285   6.924 -0.2805 -0.4570  0.1641
 5354SOL    HW127524   4.527   2.217   6.877  1.7099 -0.0228 -2.5368
 5354SOL    HW227525   4.661   2.243   6.928 -0.7543 -1.3232  1.1862
 5355SOL     OW27526   3.640   2.923  14.914 -0.0869 -0.9488  0.4169
 5355SOL    HW127527   3.645   2.880  14.999 -0.7474 -0.0250  0.9214
 5355SOL    HW227528   3.617   2.852  14.854  0.1240  0.8621 -1.8124
 5356SOL     OW27529   3.820   4.092  16.168 -0.3874  0.1361 -0.1129
 5356SOL    HW127530   3.827   4.079  16.263 -1.1910 -1.8201 -0.3180
 5356SOL    HW227531   3.914   4.089  16.147 -0.2413 -0.5884  0.6307
 5357SOL     OW27532   1.092   0.984  14.091  0.2045 -0.2252 -0.2951
 5357SOL    HW127533   1.136   1.051  14.039 -0.5788  1.4925  1.2437
 5357SOL    HW227534   1.160   0.918  14.081 -0.1598 -0.4286 -1.4251
 5358SOL     OW27535   2.272   0.484   3.729 -0.2441  0.4454  0.2548
 5358SOL    HW127536   2.226   0.444   3.803 -1.1585 -0.8747 -1.0153
 5358SOL    HW227537   2.346   0.423   3.727 -1.5700 -1.1232 -1.1510
 5359SOL     OW27538   3.703   4.619   8.647 -0.3242  0.4865 -0.9654
 5359SOL    HW127539   3.786   4.663   8.664 -0.8866  1.5550 -1.0156
 5359SOL    HW227540   3.668   4.678   8.580  0.2964  2.2373  0.2633
 5360SOL     OW27541   4.549   1.575  14.919  0.3851  0.3905 -0.0415
 5360SOL    HW127542   4.544   1.671  14.924  4.0124  0.5652 -0.0887
 5360SOL    HW227543   4.456   1.558  14.900  0.9215 -1.9011 -0.5136
 5361SOL     OW27544   2.297   3.350   5.402  0.5220 -0.2049  0.0351
 5361SOL    HW127545   2.388   3.336   5.378  0.5600  0.5367 -0.2708
 5361SOL    HW227546   2.255   3.393   5.327  2.0449  1.1375 -0.0583
 5362SOL     OW27547   2.352   4.477   1.689 -0.0212  0.6916  0.3443
 5362SOL    HW127548   2.381   4.567   1.705 -0.8642  1.1908 -0.9396
 5362SOL    HW227549   2.318   4.479   1.599  2.4982 -1.3268 -0.6835
 5363SOL     OW27550   4.335   0.463   9.949 -0.0718 -0.1720 -0.0593
 5363SOL    HW127551   4.242   0.477   9.929 -0.0905 -0.9079 -0.4733
 5363SOL    HW227552   4.368   0.544   9.987  2.1329 -1.2611  0.3681
 5364SOL     OW27553   2.995   3.892   4.028 -0.1977  0.0004 -0.0740
 5364SOL    HW127554   2.934   3.896   3.954  2.5756  2.6424 -2.2233
 5364SOL    HW227555   3.019   3.985   4.029 -0.3592  0.0349  0.8435
 5365SOL     OW27556   0.391   4.690   4.694 -0.0396 -0.8387 -0.6590
 5365SOL    HW127557   0.326   0.032   4.713  1.9118  0.3288  1.9850
 5365SOL    HW227558   0.428   4.671   4.781  0.1388 -1.4890 -0.8748
 5366SOL     OW27559   2.742   1.622  10.111  0.0607 -0.1210  0.4654
 5366SOL    HW127560   2.797   1.690  10.071 -0.3405 -0.8706 -1.3830
 5366SOL    HW227561   2.741   1.640  10.205  1.0000 -1.5287  0.7543
 5367SOL     OW27562   0.226   3.570   9.654 -0.0907  0.1765  0.2601
 5367SOL    HW127563   0.296   3.526   9.606  0.7931  0.9390  0.8473
 5367SOL    HW227564   0.160   3.599   9.591  2.3390  2.4327 -1.2746
 5368SOL     OW27565   2.229   0.268  16.913 -0.3040  0.5848  0.1625
 5368SOL    HW127566   2.220   0.322  16.835  1.4077 -1.3029 -1.3263
 5368SOL    HW227567   2.267   0.334  16.971 -0.1114  1.3518 -0.8600
 5369SOL     OW27568   3.550   2.118  17.371 -0.6019  0.0509 -0.1836
 5369SOL    HW127569   3.608   2.121  17.447  0.1966 -0.5685 -0.7708
 5369SOL    HW227570   3.518   2.029  17.387  0.3390  0.0827  1.9218
 5370SOL     OW27571   1.596   4.516  14.628 -0.3715  0.2679 -0.0318
 5370SOL    HW127572   1.549   4.455  14.572  0.0597 -0.5735  0.5281
 5370SOL    HW227573   1.671   4.465  14.660 -0.2227  1.6947  1.9475
 5371SOL     OW27574   2.342   4.588   3.604 -0.6671  0.4464 -0.0653
 5371SOL    HW127575   2.310   4.506   3.565  0.7057  0.3880 -1.0712
 5371SOL    HW227576   2.362   4.649   3.533  0.7788  0.5874  0.4679
 5372SOL     OW27577   0.227   1.568   7.574 -0.0185 -0.4752 -0.5123
 5372SOL    HW127578   0.230   1.541   7.666 -2.2128 -2.5030 -1.0230
 5372SOL    HW227579   0.208   1.488   7.526  1.1793 -1.0644  0.0038
 5373SOL     OW27580   3.723   2.303  16.591 -0.1937  0.2274 -0.2532
 5373SOL    HW127581   3.686   2.218  16.565  2.0180 -0.8733  0.1316
 5373SOL    HW227582   3.655   2.369  16.580 -0.8614 -0.0902  1.8395
 5374SOL     OW27583   0.512   0.782   9.529 -0.4678 -0.4013  0.1007
 5374SOL    HW127584   0.428   0.777   9.484 -0.8733  1.2054  0.6784
 5374SOL    HW227585   0.555   0.704   9.493 -0.8587 -1.1815  1.3181
 5375SOL     OW27586   1.376   0.311  10.966  0.1900  0.0311 -0.6980
 5375SOL    HW127587   1.415   0.357  10.891  0.5529 -2.1632 -1.8361
 5375SOL    HW227588   1.454   0.282  11.012  0.3178  2.1766  0.4691
 5376SOL     OW27589   2.598   0.823   4.885 -0.2693 -0.2750  0.4679
 5376SOL    HW127590   2.660   0.791   4.951  0.6669  1.7079  0.5688
 5376SOL    HW227591   2.533   0.754   4.878 -0.2224 -0.1643 -0.9414
 5377SOL     OW27592   0.701   0.544   1.341  0.7037  0.0093 -0.1777
 5377SOL    HW127593   0.755   0.621   1.360 -0.5094  0.1692  2.5949
 5377SOL    HW227594   0.726   0.484   1.411 -0.1717 -1.3085 -0.9991
 5378SOL     OW27595   0.232   0.905   0.509 -0.1107  0.1447 -0.5544
 5378SOL    HW127596   0.208   0.868   0.594 -0.4454  0.5961 -0.4547
 5378SOL    HW227597   0.168   0.975   0.516 -3.1642 -2.7591  0.7067
 5379SOL     OW27598   0.156   1.760   8.699 -0.5438  0.2022 -0.3799
 5379SOL    HW127599   0.206   1.838   8.675 -2.8852  1.5150 -0.9992
 5379SOL    HW227600   0.225   1.714   8.746 -1.5029  0.7084  1.4950
 5380SOL     OW27601   0.803   0.956   8.342 -0.3642 -0.2466 -0.3022
 5380SOL    HW127602   0.841   0.925   8.424  1.2016  0.0302 -0.9261
 5380SOL    HW227603   0.732   1.009   8.378 -0.0571 -0.3048  0.3965
 5381SOL     OW27604   4.185   2.880   4.487  0.0045  0.0061 -0.0730
 5381SOL    HW127605   4.164   2.788   4.506  0.2630 -0.1925 -0.7495
 5381SOL    HW227606   4.124   2.921   4.549  0.0918 -0.9001  0.6101
 5382SOL     OW27607   1.358   4.033   1.721  0.2238  0.1846 -0.4111
 5382SOL    HW127608   1.410   4.103   1.682 -0.3583  0.3869 -0.8215
 5382SOL    HW227609   1.278   4.031   1.670 -0.0456 -0.1089  0.0193
 5383SOL     OW27610   1.813   3.730  15.643 -0.4082 -0.2890 -0.4987
 5383SOL    HW127611   1.893   3.686  15.672 -1.6698 -2.1494  0.1193
 5383SOL    HW227612   1.756   3.720  15.718 -0.8602 -0.3225 -0.8456
 5384SOL     OW27613   2.034   3.474   1.906 -0.1482  0.1207 -0.3184
 5384SOL    HW127614   2.010   3.386   1.936 -1.9896  0.2599 -1.3656
 5384SOL    HW227615   1.990   3.526   1.973 -1.0844 -0.2463 -0.6462
 5385SOL     OW27616   4.204   4.406   3.413 -0.2180 -0.0502  0.5011
 5385SOL    HW127617   4.172   4.360   3.335 -0.2323  0.6158  0.1098
 5385SOL    HW227618   4.179   4.498   3.402 -1.4564 -0.3193  1.2044
 5386SOL     OW27619   4.149   2.690  11.839 -0.1272 -0.1932  0.0973
 5386SOL    HW127620   4.111   2.636  11.770  1.0690 -0.7147 -0.1395
 5386SOL    HW227621   4.077   2.753  11.842  1.8326  2.0313  0.4230
 5387SOL     OW27622   3.403   3.973   3.096  0.3123  0.0947 -0.3648
 5387SOL    HW127623   3.482   4.006   3.053  1.4605 -0.9289  0.9538
 5387SOL    HW227624   3.367   3.916   3.028 -0.8482  0.3839  0.0068
 5388SOL     OW27625   1.273   2.559  14.307 -0.2283 -0.1389 -0.5426
 5388SOL    HW127626   1.191   2.531  14.267 -1.0732  3.0893 -1.0811
 5388SOL    HW227627   1.282   2.650  14.278 -1.0372  0.6051  1.5455
 5389SOL     OW27628   3.042   0.882   0.230 -0.3739  0.4131 -0.3151
 5389SOL    HW127629   3.115   0.836   0.271 -1.6026  0.1665  1.6185
 5389SOL    HW227630   2.988   0.805   0.213 -2.5381  1.3242  2.3033
 5390SOL     OW27631   2.847   0.775   3.739  0.1700 -0.0335  0.2172
 5390SOL    HW127632   2.803   0.789   3.823 -1.3562  3.3911 -1.1652
 5390SOL    HW227633   2.919   0.717   3.765  1.0844  2.0067  2.2345
 5391SOL     OW27634   3.202   2.497   8.424  0.0874 -0.3872 -0.3954
 5391SOL    HW127635   3.268   2.458   8.481  0.1178 -0.1135 -0.2449
 5391SOL    HW227636   3.158   2.534   8.500 -1.8768 -1.4943 -0.9922
 5392SOL     OW27637   1.721   0.385  15.366  0.4882 -0.1429 -0.1372
 5392SOL    HW127638   1.662   0.407  15.294  1.2939  2.5229 -0.0131
 5392SOL    HW227639   1.659   0.355  15.432 -1.3246  1.0885 -1.2714
 5393SOL     OW27640   0.394   1.506   1.950 -0.2540  0.3758 -0.3649
 5393SOL    HW127641   0.344   1.586   1.964  1.4657  1.3822  0.0272
 5393SOL    HW227642   0.470   1.546   1.908 -0.3770 -0.3620 -1.2653
 5394SOL     OW27643   1.733   1.057   9.338 -0.4034  0.4459 -0.1182
 5394SOL    HW127644   1.737   1.025   9.248 -0.2294  0.5852 -0.1597
 5394SOL    HW227645   1.726   0.969   9.376 -1.9852  1.1622  1.2371
 5395SOL     OW27646   0.650   1.291  12.751  0.5982  0.5997 -0.2868
 5395SOL    HW127647   0.608   1.359  12.699 -1.9153 -0.6680  0.0740
 5395SOL    HW227648   0.615   1.312  12.838  1.9193 -1.0264  0.6241
 5396SOL     OW27649   4.089   2.019   6.180  0.1402 -0.3880 -0.3562
 5396SOL    HW127650   4.111   1.931   6.149  3.3240  0.0694  0.5773
 5396SOL    HW227651   4.165   2.069   6.149 -0.7650  0.8212 -0.6036
 5397SOL     OW27652   4.384   2.754  11.754 -0.3241  0.7389  0.5016
 5397SOL    HW127653   4.301   2.721  11.787  0.4078  0.0129  1.6165
 5397SOL    HW227654   4.364   2.843  11.726  1.0017  0.6897 -0.6034
 5398SOL     OW27655   2.670   4.017  10.602  0.2468 -0.2056  0.0073
 5398SOL    HW127656   2.722   4.075  10.547 -0.2998  1.4176  1.1727
 5398SOL    HW227657   2.594   4.073  10.618 -0.2909 -0.9393  0.0319
 5399SOL     OW27658   1.795   3.404   2.487  0.4382  0.5355 -0.5583
 5399SOL    HW127659   1.880   3.367   2.508 -1.5807 -1.5381  3.7792
 5399SOL    HW227660   1.739   3.327   2.497 -1.0671  1.6817 -0.2483
 5400SOL     OW27661   0.948   4.458   3.581  0.8420  0.8637  0.4199
 5400SOL    HW127662   0.880   4.500   3.528 -1.0729 -4.0123 -0.9861
 5400SOL    HW227663   0.943   4.368   3.550  1.4062  0.5846  1.1350
 5401SOL     OW27664   0.111   4.376   5.994  0.1343  0.1103  0.2957
 5401SOL    HW127665   0.153   4.458   6.019 -2.1895  0.4027  3.1723
 5401SOL    HW227666   0.157   4.321   6.057  0.2880 -1.8336 -1.5025
 5402SOL     OW27667   2.392   2.351   6.708  0.7689  0.8980 -0.2595
 5402SOL    HW127668   2.357   2.437   6.686 -0.4510  0.1539 -1.2572
 5402SOL    HW227669   2.471   2.377   6.754  0.5452 -3.0724  2.4010
 5403SOL     OW27670   2.590   3.790  15.405 -0.5653 -0.7560  0.3666
 5403SOL    HW127671   2.612   3.815  15.316  0.0571  0.5832  0.9026
 5403SOL    HW227672   2.589   3.875  15.448  2.0447 -0.9057  0.7026
 5404SOL     OW27673   2.110   1.609   3.645 -0.2762 -0.3941  0.5119
 5404SOL    HW127674   2.143   1.575   3.562  0.2230  0.6866  0.2633
 5404SOL    HW227675   2.099   1.702   3.623  0.3911 -0.5589 -0.4904
 5405SOL     OW27676   2.794   1.323   8.338 -0.0022 -0.2853 -0.5285
 5405SOL    HW127677   2.796   1.227   8.339 -2.5105 -0.3392 -0.5075
 5405SOL    HW227678   2.732   1.341   8.408 -0.2102  0.8638 -1.0088
 5406SOL     OW27679   0.368   1.586   7.984  0.1557 -0.4947 -0.6188
 5406SOL    HW127680   0.425   1.659   8.007 -2.8021  2.1811 -1.7365
 5406SOL    HW227681   0.354   1.549   8.071 -1.3840  1.8195  0.1210
 5407SOL     OW27682   1.300   1.676  10.922  0.1961 -0.4610 -0.5141
 5407SOL    HW127683   1.339   1.754  10.961  0.9544 -1.7098  1.2353
 5407SOL    HW227684   1.368   1.651  10.860  0.1662 -2.9266  0.4572
 5408SOL     OW27685   2.342   4.367  11.800 -0.5042  0.2947 -0.2666
 5408SOL    HW127686   2.270   4.414  11.843 -1.5882 -0.5304 -1.1908
 5408SOL    HW227687   2.382   4.438  11.750  0.8107 -1.6184 -1.9134
 5409SOL     OW27688   2.938   3.491   4.318 -0.1474 -0.4663 -0.1270
 5409SOL    HW127689   2.940   3.576   4.363 -1.9310  0.3122 -1.5443
 5409SOL    HW227690   2.906   3.436   4.390  1.5973 -2.2062 -0.6881
 5410SOL     OW27691   1.456   3.700   2.544 -0.7329 -0.1936 -0.3375
 5410SOL    HW127692   1.457   3.604   2.554 -0.2342 -0.0297  1.2413
 5410SOL    HW227693   1.529   3.705   2.482  0.0136 -0.6791  0.4905
 5411SOL     OW27694   2.236   0.771   4.901  0.0001 -0.2952  0.3071
 5411SOL    HW127695   2.223   0.864   4.922 -0.4703 -0.1553 -0.6359
 5411SOL    HW227696   2.159   0.757   4.847 -0.1332 -0.4308  0.5291
 5412SOL     OW27697   4.324   3.566  16.848 -0.1775 -0.3004  0.3346
 5412SOL    HW127698   4.292   3.559  16.937  1.0607  2.9228  1.0426
 5412SOL    HW227699   4.245   3.553  16.796 -0.2668  0.2210  0.3384
 5413SOL     OW27700   3.514   4.401  17.302 -0.1732 -0.1583 -0.3216
 5413SOL    HW127701   3.516   4.379  17.209  3.1252  0.7924 -0.4772
 5413SOL    HW227702   3.492   4.314  17.336  1.0221 -0.1694  0.3800
 5414SOL     OW27703   0.006   1.951  10.508 -0.3274  0.0230  0.4006
 5414SOL    HW127704   0.101   1.950  10.500 -0.2705 -0.7315  1.2229
 5414SOL    HW227705   4.700   2.007  10.437  1.5644 -1.6625 -1.7687
 5415SOL     OW27706   0.047   0.049   9.003 -0.1304 -0.0642  0.8425
 5415SOL    HW127707   4.679   0.071   9.015 -0.0096  1.3508 -0.8429
 5415SOL    HW227708   0.078   0.084   9.086 -0.3958 -2.0077  1.7506
 5416SOL     OW27709   3.537   1.005   2.919  0.4027  0.0594  0.1883
 5416SOL    HW127710   3.510   1.035   3.006 -0.3431 -0.8756  0.2689
 5416SOL    HW227711   3.632   1.017   2.921  0.2026  1.4474  1.3278
 5417SOL     OW27712   0.219   2.075  12.304 -0.4773  0.2096 -0.3343
 5417SOL    HW127713   0.299   2.034  12.337  1.1215  1.5760 -2.5263
 5417SOL    HW227714   0.229   2.050  12.212 -0.1629 -0.8254 -0.0264
 5418SOL     OW27715   4.115   0.846  10.971  0.4075 -0.3485  0.1916
 5418SOL    HW127716   4.059   0.877  10.900 -0.0493  1.2324  1.2284
 5418SOL    HW227717   4.079   0.897  11.044 -3.2480 -3.3584  0.4781
 5419SOL     OW27718   4.666   0.336  13.146  0.1686 -0.3468 -0.0615
 5419SOL    HW127719   4.720   0.290  13.082  1.3733  0.3399  0.4581
 5419SOL    HW227720   4.700   0.323  13.235  1.5696  0.5876 -0.4586
 5420SOL     OW27721   2.197   3.084   0.915 -0.6480  0.1959 -0.4132
 5420SOL    HW127722   2.128   3.058   0.976 -0.8933  0.4196 -0.5981
 5420SOL    HW227723   2.246   3.005   0.892  1.3632  1.6216 -1.0622
 5421SOL     OW27724   1.246   0.169   8.841  0.3579  0.2421  0.1424
 5421SOL    HW127725   1.158   0.205   8.848 -0.6977 -2.7529  1.9080
 5421SOL    HW227726   1.296   0.223   8.902 -0.0221  0.3137  0.3871
 5422SOL     OW27727   1.875   3.309   8.921 -0.2861 -0.2799 -0.0270
 5422SOL    HW127728   1.845   3.299   9.011 -1.4821 -0.0190 -0.3962
 5422SOL    HW227729   1.831   3.390   8.895 -1.0384 -0.2723  1.2617
 5423SOL     OW27730   2.362   2.753   6.979 -0.1357 -0.1278  0.3092
 5423SOL    HW127731   2.415   2.831   6.964  1.3530 -0.8747  1.7258
 5423SOL    HW227732   2.281   2.789   7.017  0.4277  0.1887  1.2215
 5424SOL     OW27733   0.665   2.816   2.102 -0.2846  0.4339 -0.0535
 5424SOL    HW127734   0.622   2.800   2.186  0.1437  0.7359  0.2281
 5424SOL    HW227735   0.604   2.875   2.058  0.3069  0.4173 -0.9031
 5425SOL     OW27736   2.521   3.986   7.310  0.4892 -0.5686 -0.1311
 5425SOL    HW127737   2.560   3.927   7.374 -0.1919 -1.7732 -0.8301
 5425SOL    HW227738   2.522   4.066   7.363  0.4623 -2.2316  2.3473
 5426SOL     OW27739   4.553   0.060   7.447  0.1294  0.0974  0.5296
 5426SOL    HW127740   4.547   0.030   7.356 -0.4427  3.4974 -0.5411
 5426SOL    HW227741   4.480   0.016   7.490 -0.1154 -0.5746 -0.5794
 5427SOL     OW27742   1.034   2.612   9.323 -0.1809  0.4898  0.0046
 5427SOL    HW127743   1.091   2.544   9.285  0.7654  0.5651  1.3006
 5427SOL    HW227744   0.989   2.629   9.240 -0.1824 -1.4387 -0.3986
 5428SOL     OW27745   2.924   0.454   2.480 -0.0086  0.2786  0.2558
 5428SOL    HW127746   2.997   0.510   2.455  0.4315  0.4406  1.9260
 5428SOL    HW227747   2.858   0.520   2.499  1.2265  1.5245  0.2040
 5429SOL     OW27748   0.876   4.586   5.167 -0.0059  0.3345  0.1865
 5429SOL    HW127749   0.798   4.541   5.131  0.2204  1.5331 -1.8379
 5429SOL    HW227750   0.868   4.553   5.256  1.9171  3.6707  1.6026
 5430SOL     OW27751   2.814   3.425  11.938  0.0128  0.1788  0.0815
 5430SOL    HW127752   2.798   3.428  11.844 -0.9063  1.1266  0.2649
 5430SOL    HW227753   2.747   3.359  11.958  0.8476 -0.4663  0.7402
 5431SOL     OW27754   1.567   4.441   4.579  0.1127 -0.3871 -0.2757
 5431SOL    HW127755   1.590   4.506   4.512  0.6361 -1.9447 -1.6291
 5431SOL    HW227756   1.566   4.486   4.663 -0.9970 -0.4152 -0.2763
 5432SOL     OW27757   1.053   4.595   9.322  0.0501  1.0552  0.4890
 5432SOL    HW127758   1.038   4.501   9.328  1.1072  0.7622 -1.3477
 5432SOL    HW227759   1.147   4.596   9.304  0.0259  0.2033  0.2899
 5433SOL     OW27760   2.795   3.914   8.949 -0.3089  0.6130  0.2441
 5433SOL    HW127761   2.727   3.901   9.015  0.0052  1.0601  0.6551
 5433SOL    HW227762   2.744   3.925   8.868 -0.5322 -0.7930  0.1850
 5434SOL     OW27763   2.725   3.652  10.220 -0.3678  0.7575 -0.2850
 5434SOL    HW127764   2.812   3.685  10.199 -0.2735  0.4706 -0.3499
 5434SOL    HW227765   2.697   3.702  10.297  0.1495 -1.6503  1.4695
 5435SOL     OW27766   1.752   1.060   8.088  0.1036 -0.0816  0.0955
 5435SOL    HW127767   1.763   1.056   7.993 -2.6847 -1.5975 -0.1559
 5435SOL    HW227768   1.661   1.083   8.107 -0.2769 -1.7150  0.3189
 5436SOL     OW27769   1.804   2.877   3.505  0.1462 -0.4638 -0.1710
 5436SOL    HW127770   1.840   2.878   3.594  0.1435  0.4033 -0.1803
 5436SOL    HW227771   1.810   2.785   3.479  0.0811 -0.4381 -0.2745
 5437SOL     OW27772   4.605   4.354   5.533  0.2460 -0.0640 -0.1248
 5437SOL    HW127773   4.668   4.365   5.604  2.2967 -2.0180 -1.6317
 5437SOL    HW227774   4.643   4.279   5.488  0.9748 -0.3667  0.9800
 5438SOL     OW27775   0.880   1.693  10.453 -0.6228 -0.2522 -0.3486
 5438SOL    HW127776   0.960   1.744  10.463  0.6162 -2.0452 -1.1255
 5438SOL    HW227777   0.909   1.626  10.391 -1.1759 -1.1646  0.3672
 5439SOL     OW27778   4.643   1.199   2.369 -0.0744 -0.4335 -0.2041
 5439SOL    HW127779   0.003   1.173   2.403 -0.0306 -0.6895 -0.5179
 5439SOL    HW227780   4.581   1.146   2.420 -0.3884 -1.7805 -2.0002
 5440SOL     OW27781   0.583   2.108   8.598  0.1358  0.3330 -0.8034
 5440SOL    HW127782   0.572   2.072   8.686  1.0995  0.3814 -0.6603
 5440SOL    HW227783   0.519   2.179   8.600  0.8790  0.9995 -0.6861
 5441SOL     OW27784   3.868   3.445   3.277 -0.5298 -0.6444 -0.5344
 5441SOL    HW127785   3.834   3.442   3.367  0.2848  0.2502 -0.1930
 5441SOL    HW227786   3.947   3.496   3.294 -1.1902  0.2831 -0.2245
 5442SOL     OW27787   2.183   3.486   5.180 -0.1816 -0.0505  0.0321
 5442SOL    HW127788   2.133   3.443   5.111  0.9425 -3.0260  1.0987
 5442SOL    HW227789   2.266   3.513   5.141 -0.9077  0.6586 -1.0610
 5443SOL     OW27790   4.601   0.993   4.553  0.0596  0.1197 -0.2750
 5443SOL    HW127791   4.677   0.982   4.611 -0.9768 -4.2442  0.2763
 5443SOL    HW227792   4.609   1.082   4.519 -0.3371 -0.6948 -2.4854
 5444SOL     OW27793   4.704   0.896   3.002 -0.0117 -0.1458 -0.0851
 5444SOL    HW127794   0.044   0.958   3.034  2.3249 -1.1321 -3.0302
 5444SOL    HW227795   0.032   0.854   2.935 -3.1967 -0.7911 -2.2098
 5445SOL     OW27796   3.320   4.398  15.521  0.4063 -0.1122  0.0952
 5445SOL    HW127797   3.330   4.477  15.574 -1.0110 -2.1923  3.4654
 5445SOL    HW227798   3.302   4.329  15.584  0.4772  0.4392  0.7139
 5446SOL     OW27799   4.625   1.633   6.930  0.0001  0.6424  0.2146
 5446SOL    HW127800   4.633   1.719   6.972  1.6449 -0.2530  1.7412
 5446SOL    HW227801   4.572   1.651   6.853 -0.8421  1.3206  0.9475
 5447SOL     OW27802   2.231   2.080   0.283  0.5797 -0.2680  0.6692
 5447SOL    HW127803   2.139   2.106   0.274  0.7732 -0.0257 -0.6721
 5447SOL    HW227804   2.267   2.103   0.197  1.3850  1.6010  1.5319
 5448SOL     OW27805   4.451   2.780   6.190 -0.0065  0.0140  0.0735
 5448SOL    HW127806   4.533   2.802   6.146 -0.6641  0.9735 -0.6486
 5448SOL    HW227807   4.400   2.856   6.162  0.0719  0.3412  0.8271
 5449SOL     OW27808   4.119   2.061  10.988 -0.3004  0.3593 -0.0832
 5449SOL    HW127809   4.176   1.995  10.949  1.7183  1.2041  1.4594
 5449SOL    HW227810   4.109   2.121  10.914  0.5243  1.6591  0.8655
 5450SOL     OW27811   2.802   4.416   9.552 -0.8247 -0.5837  0.5286
 5450SOL    HW127812   2.750   4.495   9.567  0.6829  0.5880 -0.4976
 5450SOL    HW227813   2.821   4.391   9.643 -0.1880  2.1866  1.1567
 5451SOL     OW27814   4.593   2.783  12.059 -0.2092  0.0645  0.7120
 5451SOL    HW127815   4.638   2.778  11.975 -0.9865 -2.0124  0.4382
 5451SOL    HW227816   4.540   2.860  12.038 -1.0125 -0.5615  0.4772
 5452SOL     OW27817   1.696   2.636   7.029 -0.1339  0.6538  0.8255
 5452SOL    HW127818   1.638   2.562   7.047 -0.7163  1.1800  1.1065
 5452SOL    HW227819   1.644   2.669   6.956  2.5279  1.2265 -0.8265
 5453SOL     OW27820   2.541   3.158   6.031  0.4002  0.2920  0.0034
 5453SOL    HW127821   2.619   3.209   6.014  0.2183  0.3720 -0.5671
 5453SOL    HW227822   2.592   3.082   6.060  0.7756  0.7813  0.6034
 5454SOL     OW27823   3.451   0.144   7.513  0.2836  0.1287  0.8076
 5454SOL    HW127824   3.545   0.162   7.509  0.0784  0.6822 -1.3978
 5454SOL    HW227825   3.433   0.081   7.583 -1.9085  0.0744  0.1949
 5455SOL     OW27826   0.973   4.226   3.432  0.2980  0.4467  0.5786
 5455SOL    HW127827   1.040   4.223   3.364 -0.8301 -0.9197 -0.4859
 5455SOL    HW227828   0.944   4.135   3.431  1.9846 -0.0772  0.2640
 5456SOL     OW27829   1.588   0.108   5.164  0.7822  0.0031  0.1363
 5456SOL    HW127830   1.547   0.147   5.087 -0.0071  0.5405  0.8332
 5456SOL    HW227831   1.609   0.184   5.219 -0.7209 -0.4419  1.3259
 5457SOL     OW27832   4.305   0.813   5.294 -0.2712  0.2588  0.6572
 5457SOL    HW127833   4.309   0.735   5.240  1.8132 -0.0602  1.2631
 5457SOL    HW227834   4.238   0.786   5.356 -1.1367 -0.8490 -0.7732
 5458SOL     OW27835   2.939   2.173  12.426 -0.6105  0.4039  0.1451
 5458SOL    HW127836   2.961   2.140  12.513  1.4306  3.2041  0.6979
 5458SOL    HW227837   3.024   2.214  12.412 -0.5079  0.2111  0.2063
 5459SOL     OW27838   2.374   3.016   8.453 -0.2154  0.4091  0.0119
 5459SOL    HW127839   2.339   3.096   8.491  1.6829  2.1293 -1.8832
 5459SOL    HW227840   2.418   2.964   8.521 -1.3726 -0.7659 -0.1305
 5460SOL     OW27841   4.430   3.224  11.612  0.5566  0.1315 -0.0070
 5460SOL    HW127842   4.484   3.171  11.553  0.4535 -1.9841  1.8030
 5460SOL    HW227843   4.456   3.307  11.571 -0.6511  0.4402 -0.1395
 5461SOL     OW27844   2.432   0.864  14.967 -0.0973  0.4952  0.0720
 5461SOL    HW127845   2.517   0.888  15.004  1.0032  0.8766 -2.6937
 5461SOL    HW227846   2.382   0.933  15.011  2.9260  1.8011  1.4246
 5462SOL     OW27847   3.468   3.984   2.241  0.4731 -0.1023 -0.5169
 5462SOL    HW127848   3.456   3.939   2.324 -1.2000  2.4524  0.6480
 5462SOL    HW227849   3.429   4.069   2.263 -2.5612 -1.5315 -0.2857
 5463SOL     OW27850   1.260   1.580  13.793  0.3243 -0.1893 -0.2325
 5463SOL    HW127851   1.189   1.552  13.735  0.8583  0.9355 -1.4187
 5463SOL    HW227852   1.327   1.511  13.783 -1.2965 -1.8065  0.0065
 5464SOL     OW27853   2.930   3.163   3.824 -0.2115 -0.4831  0.4088
 5464SOL    HW127854   2.881   3.099   3.876 -1.7623  0.1636 -0.2522
 5464SOL    HW227855   2.880   3.202   3.752 -1.2702 -0.1382  1.3308
 5465SOL     OW27856   0.263   1.943   7.485 -0.3673 -0.2356 -0.1760
 5465SOL    HW127857   0.302   2.030   7.485  1.5336 -1.0905 -2.5105
 5465SOL    HW227858   0.332   1.885   7.454 -0.7500 -1.6112  1.5935
 5466SOL     OW27859   1.011   2.556  11.077 -0.0746 -0.0258  0.3222
 5466SOL    HW127860   1.000   2.615  11.151 -1.6515 -0.0305  0.1029
 5466SOL    HW227861   1.042   2.485  11.134 -0.0212 -1.1295 -1.0833
 5467SOL     OW27862   4.539   3.304   7.047  0.4772 -0.3081  0.0607
 5467SOL    HW127863   4.448   3.328   7.061  0.3498 -0.6880 -0.1018
 5467SOL    HW227864   4.549   3.372   6.980 -1.6029 -0.1233 -0.0411
 5468SOL     OW27865   0.500   4.386  16.970 -0.3668 -0.6637  0.0081
 5468SOL    HW127866   0.498   4.350  16.882  4.7673  1.2010 -0.9065
 5468SOL    HW227867   0.535   4.475  16.958 -0.3007 -0.7545 -0.4643
 5469SOL     OW27868   0.703   1.583  11.511  0.1972  0.0389 -0.2577
 5469SOL    HW127869   0.740   1.557  11.595 -0.6878 -1.2099 -0.2496
 5469SOL    HW227870   0.616   1.566  11.546 -0.5562  0.7949 -1.7546
 5470SOL     OW27871   0.559   1.958   3.648 -0.2317  0.1047  0.2160
 5470SOL    HW127872   0.635   1.901   3.661 -0.7447 -0.7731 -0.6647
 5470SOL    HW227873   0.588   2.003   3.568 -0.6307  0.5142  0.3023
 5471SOL     OW27874   3.594   4.017   7.952  0.3293 -0.2833  0.1025
 5471SOL    HW127875   3.613   3.965   7.874 -0.9301 -0.9273  0.2230
 5471SOL    HW227876   3.509   3.979   7.975  1.5117 -2.4199  0.9611
 5472SOL     OW27877   0.082   1.760   6.688 -0.5602  0.0237 -0.6144
 5472SOL    HW127878   0.098   1.810   6.768  1.3732 -2.2775  0.4318
 5472SOL    HW227879   4.712   1.755   6.695 -0.2482 -3.0905  1.2351
 5473SOL     OW27880   1.149   0.294   5.875 -0.1869 -0.1277 -0.6664
 5473SOL    HW127881   1.169   0.375   5.921 -0.2764 -0.4343 -0.0755
 5473SOL    HW227882   1.233   0.248   5.879 -0.2365 -0.0576  1.1466
 5474SOL     OW27883   1.651   1.025  12.028  0.2980  0.1864 -0.5956
 5474SOL    HW127884   1.630   0.958  11.964  1.3306 -0.7694  0.0643
 5474SOL    HW227885   1.563   1.052  12.056  0.1250 -0.9749 -0.0019
 5475SOL     OW27886   4.558   3.930   8.733 -0.1187  0.4207  0.7476
 5475SOL    HW127887   4.570   4.013   8.778 -0.4297  0.8760 -0.0135
 5475SOL    HW227888   4.463   3.928   8.722 -0.3122  1.3915  2.2992
 5476SOL     OW27889   2.829   1.114   7.059 -0.5339 -0.4927 -0.1691
 5476SOL    HW127890   2.752   1.099   7.114 -0.6539  0.4115 -0.0902
 5476SOL    HW227891   2.850   1.202   7.089 -0.8959 -0.7505  0.8342
 5477SOL     OW27892   4.475   0.599   3.697  0.0276 -0.1155  0.1013
 5477SOL    HW127893   4.463   0.607   3.602  0.3752 -2.5014 -0.1547
 5477SOL    HW227894   4.542   0.532   3.712 -0.8110 -0.7437  1.0120
 5478SOL     OW27895   3.567   1.980   7.251  0.3636 -0.4186 -0.1987
 5478SOL    HW127896   3.519   2.044   7.197  0.8950 -0.0617 -0.2523
 5478SOL    HW227897   3.621   2.048   7.291  0.1189 -1.7068  2.3056
 5479SOL     OW27898   0.461   3.774   7.150 -0.5375 -0.1115 -0.1000
 5479SOL    HW127899   0.418   3.747   7.068  1.0616 -1.3370 -0.5294
 5479SOL    HW227900   0.417   3.723   7.218  0.1067  1.0443  1.1862
 5480SOL     OW27901   2.971   1.940  16.937 -0.1663 -0.2223 -0.1885
 5480SOL    HW127902   2.986   1.940  17.032 -0.1704 -1.9806 -0.1918
 5480SOL    HW227903   2.923   1.858  16.931  0.7099 -0.7206 -0.3972
 5481SOL     OW27904   3.462   2.938   3.566  0.0489 -0.2019 -0.4419
 5481SOL    HW127905   3.409   2.912   3.641  0.2238 -2.2929 -1.0403
 5481SOL    HW227906   3.479   2.850   3.531  1.0885 -0.5586  0.9364
 5482SOL     OW27907   3.884   2.054   2.473  0.4198  0.2708  0.3931
 5482SOL    HW127908   3.951   2.113   2.438  1.7476 -0.2165  2.0984
 5482SOL    HW227909   3.882   2.074   2.567 -1.3025  1.1447  0.1706
 5483SOL     OW27910   1.878   2.205   4.688 -0.2905 -0.0760 -0.0178
 5483SOL    HW127911   1.805   2.258   4.656 -1.1278 -0.4781  1.1983
 5483SOL    HW227912   1.869   2.123   4.641 -2.7725 -0.3283  0.8929
 5484SOL     OW27913   0.555   3.395   5.801  0.1210  0.0635 -0.8849
 5484SOL    HW127914   0.589   3.341   5.730 -0.0667  0.2051 -1.0840
 5484SOL    HW227915   0.626   3.460   5.807  0.3572 -0.1859 -1.0014
 5485SOL     OW27916   2.029   0.363   8.586  0.6047  0.3827 -0.1975
 5485SOL    HW127917   2.042   0.377   8.679  0.0998  1.3878 -0.2791
 5485SOL    HW227918   1.962   0.431   8.581 -3.6904 -3.5100  4.0228
 5486SOL     OW27919   0.574   4.213   7.373 -0.0768 -0.2033 -0.1042
 5486SOL    HW127920   0.583   4.298   7.416  0.1736 -0.6270  0.6944
 5486SOL    HW227921   0.633   4.237   7.302 -0.0650  0.0208 -0.0180
 5487SOL     OW27922   2.092   1.880   3.545 -0.3774  0.3459 -0.2966
 5487SOL    HW127923   2.172   1.898   3.596 -0.6896  0.7504  0.0535
 5487SOL    HW227924   2.117   1.925   3.464  0.3900 -0.0981 -0.3086
 5488SOL     OW27925   2.643   2.128   6.881  0.0899  0.2426  0.5920
 5488SOL    HW127926   2.683   2.204   6.924  2.2347 -0.8116  0.4843
 5488SOL    HW227927   2.572   2.105   6.940  1.8811 -1.7068  1.9881
 5489SOL     OW27928   0.856   0.756   6.371 -0.3354 -0.0928 -0.1475
 5489SOL    HW127929   0.935   0.726   6.416  1.2985  2.2763 -1.4820
 5489SOL    HW227930   0.791   0.688   6.390 -1.7168  0.5328 -2.6932
 5490SOL     OW27931   3.297   3.776   2.939  0.0670  0.3421 -0.3509
 5490SOL    HW127932   3.285   3.681   2.938  1.5209  0.1307  2.5446
 5490SOL    HW227933   3.216   3.805   2.895  1.1862  2.4668 -0.9927
 5491SOL     OW27934   3.045   0.245   8.564 -0.0685 -0.3137  0.1615
 5491SOL    HW127935   2.960   0.207   8.542 -0.3269 -0.2694  1.1169
 5491SOL    HW227936   3.034   0.257   8.658  0.3968  1.2986 -0.0009
 5492SOL     OW27937   3.173   4.690   3.051  0.4580 -0.4362  0.0984
 5492SOL    HW127938   3.214   4.629   3.111 -1.3232 -1.7165 -0.0034
 5492SOL    HW227939   3.246   0.003   3.002 -0.8027 -1.2754 -2.4427
 5493SOL     OW27940   0.627   2.357   6.291 -0.2446 -0.0660  0.0380
 5493SOL    HW127941   0.671   2.373   6.374  0.4351  0.7621 -0.4821
 5493SOL    HW227942   0.636   2.262   6.280 -2.2482 -0.4571  1.7665
 5494SOL     OW27943   4.041   3.020   7.758  0.2983 -0.8966 -0.6874
 5494SOL    HW127944   4.055   3.041   7.666  1.0524 -2.2784 -0.8816
 5494SOL    HW227945   4.111   2.964   7.792  1.4525  1.2110  0.3908
 5495SOL     OW27946   0.627   2.715   3.182 -0.0328 -0.3210  0.3670
 5495SOL    HW127947   0.568   2.764   3.124 -0.5322  0.2119  1.3331
 5495SOL    HW227948   0.647   2.776   3.252 -0.7823 -0.8293  1.0300
 5496SOL     OW27949   3.594   1.066  11.575  0.2085  0.1031 -0.0658
 5496SOL    HW127950   3.588   1.114  11.658 -0.2507 -1.1050  0.6058
 5496SOL    HW227951   3.530   1.113  11.523 -1.6273 -1.2692  0.9416
 5497SOL     OW27952   0.309   3.863   5.301  0.7589  0.1151 -0.5020
 5497SOL    HW127953   0.340   3.902   5.219  0.7719  1.5526  0.1861
 5497SOL    HW227954   0.223   3.838   5.267  0.0453  1.8844  0.0271
 5498SOL     OW27955   3.141   0.441  10.044  0.1581  0.3372 -0.0416
 5498SOL    HW127956   3.195   0.440   9.965  0.6166 -1.1720  0.2910
 5498SOL    HW227957   3.054   0.442  10.004 -0.0181  2.1704  0.3947
 5499SOL     OW27958   2.361   1.076   7.877  0.0651  0.1409 -0.6393
 5499SOL    HW127959   2.301   1.090   7.804  0.2903  0.0731 -0.8337
 5499SOL    HW227960   2.322   0.993   7.905 -1.9377  1.7789  1.5017
 5500SOL     OW27961   2.214   3.411   7.535 -0.2197 -1.1289  0.2581
 5500SOL    HW127962   2.140   3.434   7.479  1.9865  1.9136 -1.3660
 5500SOL    HW227963   2.270   3.488   7.534  0.6942 -1.8089 -0.6317
 5501SOL     OW27964   0.266   2.047  15.086 -0.2187 -0.7863  0.5315
 5501SOL    HW127965   0.308   2.080  15.166  0.4280 -0.6248  0.1291
 5501SOL    HW227966   0.226   1.966  15.115 -0.4188 -0.1232  2.1158
 5502SOL     OW27967   3.787   4.476   3.018  0.2528 -0.6577 -0.5817
 5502SOL    HW127968   3.881   4.492   3.009 -0.1137  1.0901 -1.2896
 5502SOL    HW227969   3.790   4.392   3.064 -2.0993  0.7113  2.1040
 5503SOL     OW27970   3.571   0.270   7.859  0.0659 -0.3401 -0.1040
 5503SOL    HW127971   3.571   0.331   7.933 -1.7892  0.1294 -0.4769
 5503SOL    HW227972   3.499   0.306   7.807  2.0811 -0.1441 -2.7347
 5504SOL     OW27973   4.703   3.213  17.336 -0.2094  0.2209  0.4517
 5504SOL    HW127974   0.020   3.249  17.258 -0.5482  0.5299  0.4121
 5504SOL    HW227975   4.639   3.282  17.352 -1.4349 -1.0357  0.9911
 5505SOL     OW27976   4.325   2.952   4.802 -0.3202 -0.6763  0.1264
 5505SOL    HW127977   4.296   3.043   4.806  1.2802 -0.0720 -2.5551
 5505SOL    HW227978   4.399   2.957   4.741 -0.5838  0.4758 -0.0896
 5506SOL     OW27979   3.089   3.597   1.188 -0.2706  0.4317 -0.3301
 5506SOL    HW127980   3.171   3.646   1.189  0.1142 -0.2598  1.7916
 5506SOL    HW227981   3.071   3.617   1.280  0.6357 -0.6318  0.0829
 5507SOL     OW27982   2.205   4.675  15.767 -0.1182  0.2003  0.2193
 5507SOL    HW127983   2.148   4.599  15.753  0.4784  0.0043 -1.1933
 5507SOL    HW227984   2.149   0.027  15.753  0.5892  1.0763  2.3345
 5508SOL     OW27985   1.409   0.652  10.056  0.2354  0.3918 -0.1630
 5508SOL    HW127986   1.375   0.616   9.974 -0.1484  0.8740 -0.2181
 5508SOL    HW227987   1.473   0.716  10.025  0.3080  0.4587  0.1227
 5509SOL     OW27988   1.145   3.253   4.542  0.7982  0.4359  0.5115
 5509SOL    HW127989   1.210   3.277   4.476 -1.6083  0.7731 -1.7127
 5509SOL    HW227990   1.065   3.269   4.494  0.8596 -1.4075 -0.1999
 5510SOL     OW27991   4.673   2.412  13.536 -0.0199  0.7339 -0.7966
 5510SOL    HW127992   4.695   2.388  13.445 -3.2480 -1.0810 -1.1006
 5510SOL    HW227993   4.623   2.490  13.514 -2.0741 -0.2310  0.5136
 5511SOL     OW27994   0.740   0.563   2.666  0.3550  0.0129  0.0957
 5511SOL    HW127995   0.794   0.517   2.601 -0.4016  0.5428 -0.9139
 5511SOL    HW227996   0.689   0.496   2.711  0.9650 -1.1890 -1.0260
 5512SOL     OW27997   3.796   1.460   2.200 -0.5557  0.3340 -0.3958
 5512SOL    HW127998   3.840   1.536   2.238  0.3280 -0.4047  0.0315
 5512SOL    HW227999   3.784   1.500   2.115  0.2218  0.3328 -0.5038
 5513SOL     OW28000   0.735   0.144  12.236  0.0092  0.4479 -0.2674
 5513SOL    HW128001   0.728   0.196  12.316 -0.9361  1.4313 -0.9956
 5513SOL    HW228002   0.739   0.056  12.275  1.4504  0.2730 -0.8260
 5514SOL     OW28003   3.094   3.065   5.271  0.1217  0.4156 -0.3129
 5514SOL    HW128004   3.186   3.093   5.267  0.5019 -1.0924 -2.3336
 5514SOL    HW228005   3.063   3.091   5.357 -0.8091 -1.5658 -0.0668
 5515SOL     OW28006   0.167   0.907   7.478  0.1285  0.1174 -0.3277
 5515SOL    HW128007   0.141   0.963   7.551 -0.1768  0.9678 -1.0906
 5515SOL    HW228008   0.244   0.866   7.517  1.0830 -1.8824 -4.3214
 5516SOL     OW28009   4.113   4.630   3.288 -0.1167  0.3326 -0.2798
 5516SOL    HW128010   4.133   4.599   3.199 -0.6961  0.6826 -0.5329
 5516SOL    HW228011   4.135   4.723   3.287 -0.3531  0.3878 -0.5268
 5517SOL     OW28012   0.531   0.802   3.082 -0.1914  0.3900  0.2808
 5517SOL    HW128013   0.451   0.780   3.130  0.0404 -1.9417 -0.3771
 5517SOL    HW228014   0.512   0.790   2.989  0.1481  1.7818  0.0408
 5518SOL     OW28015   0.794   2.354  13.328 -0.5930 -0.1516 -0.2983
 5518SOL    HW128016   0.788   2.264  13.360 -0.0505 -0.8543 -2.1591
 5518SOL    HW228017   0.816   2.360  13.235  0.1417  0.5254 -0.0805
 5519SOL     OW28018   1.110   3.075   2.908 -0.1984  0.1927 -0.3135
 5519SOL    HW128019   1.125   3.169   2.891  0.2642  0.3491  0.9288
 5519SOL    HW228020   1.179   3.041   2.850 -0.5172 -1.2301  0.1541
 5520SOL     OW28021   0.123   0.588   0.562 -0.0863  0.4524 -0.0333
 5520SOL    HW128022   0.120   0.666   0.617  0.8454 -0.3873  1.2104
 5520SOL    HW228023   0.147   0.530   0.634 -3.1952 -0.4457  0.2977
 5521SOL     OW28024   1.924   1.798   3.019  0.0642 -0.1164  0.5818
 5521SOL    HW128025   1.949   1.862   3.086 -0.9380 -0.5113  1.3403
 5521SOL    HW228026   1.980   1.820   2.945 -0.1286  2.3079  1.1487
 5522SOL     OW28027   2.500   3.258   2.640 -0.1907  0.1059  0.1159
 5522SOL    HW128028   2.489   3.352   2.631  0.7341 -0.0645 -2.6112
 5522SOL    HW228029   2.438   3.224   2.575  0.7458 -1.5800  0.0944
 5523SOL     OW28030   2.057   3.084  13.102  0.0015  0.0582 -0.6857
 5523SOL    HW128031   2.112   3.018  13.144  1.1005 -0.5885 -3.1721
 5523SOL    HW228032   2.119   3.114  13.036  1.5808  0.5966  1.0481
 5524SOL     OW28033   2.407   4.362   0.199 -0.4024 -0.7302 -0.0003
 5524SOL    HW128034   2.361   4.338   0.280  0.5660 -0.2955  0.6848
 5524SOL    HW228035   2.490   4.319   0.218  0.2499  0.8708  0.7637
 5525SOL     OW28036   3.596   2.143   5.060 -0.4890 -0.4101 -0.4261
 5525SOL    HW128037   3.558   2.086   4.994  0.4550 -0.4678 -0.9242
 5525SOL    HW228038   3.544   2.223   5.058 -0.8710 -0.6662 -0.6024
 5526SOL     OW28039   0.751   0.955  16.761  0.2571  0.2105 -0.2644
 5526SOL    HW128040   0.695   0.960  16.838 -1.0366 -0.1641 -1.1777
 5526SOL    HW228041   0.687   0.905  16.711  0.0461 -1.0241  1.2596
 5527SOL     OW28042   2.228   1.144   9.166  0.2932 -0.8320 -0.7084
 5527SOL    HW128043   2.166   1.092   9.116 -0.1993  0.3766 -1.3715
 5527SOL    HW228044   2.178   1.150   9.247  1.8915  0.1548  0.2200
 5528SOL     OW28045   4.502   3.918   4.564  0.0121 -0.9737  0.1369
 5528SOL    HW128046   4.567   3.899   4.496  0.7913 -0.8699  0.8610
 5528SOL    HW228047   4.423   3.873   4.531 -0.4695 -0.8304  1.1060
 5529SOL     OW28048   1.558   0.446  12.852  0.1363 -0.2483  0.3901
 5529SOL    HW128049   1.605   0.401  12.781 -1.8689 -3.2872  1.0134
 5529SOL    HW228050   1.515   0.511  12.796 -0.4166 -0.6285  0.3768
 5530SOL     OW28051   1.618   0.748   4.740  0.2673  0.0327 -0.2079
 5530SOL    HW128052   1.551   0.732   4.674  0.0185 -0.0418  0.0623
 5530SOL    HW228053   1.613   0.843   4.752  1.2237  0.0126  0.3189
 5531SOL     OW28054   0.673   3.452  11.475  0.8715  0.2410  0.2425
 5531SOL    HW128055   0.597   3.407  11.511 -0.2254  2.8340  1.2030
 5531SOL    HW228056   0.742   3.414  11.529 -0.3633  0.0090  1.6515
 5532SOL     OW28057   0.320   4.054  11.128  0.9879  0.3505 -0.3587
 5532SOL    HW128058   0.256   4.003  11.178  0.2448  0.5548 -1.1090
 5532SOL    HW228059   0.327   3.999  11.051  0.6363 -0.2136  0.0152
 5533SOL     OW28060   2.300   3.053   6.543  0.1855 -0.3770  0.0769
 5533SOL    HW128061   2.274   3.018   6.458  0.1478 -0.6075  0.1827
 5533SOL    HW228062   2.334   3.140   6.523 -3.8077  1.2774  0.4942
 5534SOL     OW28063   3.676   2.318  14.278  0.3664  0.5483 -0.3770
 5534SOL    HW128064   3.651   2.383  14.214  0.8483  2.0525  0.9492
 5534SOL    HW228065   3.699   2.243  14.223  0.5523  0.0485  0.3708
 5535SOL     OW28066   1.690   3.403   1.989 -0.4343  0.0620 -0.4402
 5535SOL    HW128067   1.654   3.388   1.901 -0.1783  4.0394 -1.2285
 5535SOL    HW228068   1.673   3.496   2.006  2.3183 -0.1137  3.1114
 5536SOL     OW28069   2.118   4.046   1.370  0.2927  0.4635  0.2165
 5536SOL    HW128070   2.208   4.054   1.339  0.7232  0.7581  1.5292
 5536SOL    HW228071   2.096   4.131   1.408  0.6084  0.7590 -0.2751
 5537SOL     OW28072   1.939   2.058  15.062 -0.4449  0.3035  0.2962
 5537SOL    HW128073   1.914   1.995  15.130  1.3325  1.5854  2.1435
 5537SOL    HW228074   1.943   2.001  14.985  1.1637  1.0498 -0.1722
 5538SOL     OW28075   0.761   0.043   9.020 -0.0427  0.3879 -0.3497
 5538SOL    HW128076   0.672   0.052   9.053  0.6539  1.0144  1.3292
 5538SOL    HW228077   0.821   0.012   9.088 -0.7375 -1.9752 -0.8180
 5539SOL     OW28078   2.923   3.682   3.028 -0.0506 -0.5079 -0.3354
 5539SOL    HW128079   2.830   3.662   3.011 -0.3752 -0.7183  1.6510
 5539SOL    HW228080   2.957   3.610   2.975 -1.2854 -1.0720 -0.3756
 5540SOL     OW28081   0.538   3.712   8.754 -0.3221 -0.3733  0.0244
 5540SOL    HW128082   0.458   3.664   8.733  0.0080 -0.8407 -0.1654
 5540SOL    HW228083   0.524   3.732   8.846 -1.0975  1.5756 -0.5185
 5541SOL     OW28084   2.166   1.783  13.208  0.0015  0.0493  0.0278
 5541SOL    HW128085   2.095   1.739  13.160 -0.9676  1.4667  0.1539
 5541SOL    HW228086   2.116   1.863  13.226 -0.6657 -0.4744  0.4917
 5542SOL     OW28087   2.091   0.313   4.956  0.0281  0.5712 -0.2427
 5542SOL    HW128088   2.068   0.329   4.864  0.6591  2.2722 -0.0887
 5542SOL    HW228089   2.165   0.372   4.966 -0.0952  0.6266  0.3273
 5543SOL     OW28090   2.656   2.730   4.630  0.0424 -0.1634  0.0764
 5543SOL    HW128091   2.593   2.677   4.679 -1.1055  0.6446 -0.5039
 5543SOL    HW228092   2.607   2.751   4.550 -3.6878 -0.5312  2.2416
 5544SOL     OW28093   1.191   4.153   5.276 -0.0987 -0.3144  0.3544
 5544SOL    HW128094   1.145   4.087   5.223 -0.4994  0.7076 -0.5659
 5544SOL    HW228095   1.276   4.107   5.273  0.1069  0.2646 -2.7434
 5545SOL     OW28096   1.568   1.773  16.287 -0.7779  0.3291 -0.0467
 5545SOL    HW128097   1.484   1.758  16.329 -1.2683  1.5929 -0.5855
 5545SOL    HW228098   1.581   1.684  16.254 -0.8689 -0.0088  0.8358
 5546SOL     OW28099   1.759   0.457   3.819  0.2316  0.1787  0.0582
 5546SOL    HW128100   1.805   0.496   3.894  0.7060  0.8016 -0.5603
 5546SOL    HW228101   1.777   0.519   3.748 -1.8360 -0.9951 -1.4733
 5547SOL     OW28102   0.373   2.916   8.054  0.3631  0.1494  0.1220
 5547SOL    HW128103   0.347   2.825   8.038 -1.1608  0.7045 -0.5934
 5547SOL    HW228104   0.313   2.936   8.125  0.7276  1.6977 -0.0141
 5548SOL     OW28105   3.120   1.500   8.116 -0.1290  0.2746  0.5105
 5548SOL    HW128106   3.101   1.543   8.032  0.5956 -4.0320 -1.8337
 5548SOL    HW228107   3.194   1.446   8.089 -1.0440 -0.0912 -1.2855
 5549SOL     OW28108   2.779   2.941   4.730  0.0392 -1.0827 -0.1570
 5549SOL    HW128109   2.743   2.858   4.698 -0.6923 -0.6336 -0.4984
 5549SOL    HW228110   2.849   2.918   4.790  0.3371 -0.6671 -0.3450
 5550SOL     OW28111   0.309   1.844   7.136 -0.4386  0.3075 -0.7688
 5550SOL    HW128112   0.394   1.842   7.092 -0.8511 -1.5301 -1.4857
 5550SOL    HW228113   0.293   1.751   7.153  2.0980 -0.2756 -1.7030
 5551SOL     OW28114   3.312   4.491   3.224 -0.2567  0.0605  0.4172
 5551SOL    HW128115   3.369   4.564   3.250  0.0564  0.6159 -1.8281
 5551SOL    HW228116   3.374   4.423   3.197  0.3495  0.5856  0.4909
 5552SOL     OW28117   2.078   0.516   6.457  0.2208 -0.1429 -0.0724
 5552SOL    HW128118   2.030   0.434   6.448 -0.0079 -0.1998  1.7600
 5552SOL    HW228119   2.044   0.544   6.542  2.8098  0.9950  0.5812
 5553SOL     OW28120   2.009   4.474   1.768  0.1694 -0.0410  0.0173
 5553SOL    HW128121   1.916   4.490   1.752 -0.3604 -1.6234  1.5672
 5553SOL    HW228122   2.025   4.516   1.853  1.3224  1.7259 -1.0738
 5554SOL     OW28123   3.941   2.568   0.614  0.4952 -0.3722  0.1238
 5554SOL    HW128124   4.012   2.567   0.549  1.5746  0.7808  1.2965
 5554SOL    HW228125   3.969   2.522   0.693 -2.3004 -1.7213  0.3244
 5555SOL     OW28126   0.116   1.494   3.127 -0.2695  0.2478  0.1904
 5555SOL    HW128127   0.039   1.497   3.184  0.8625  2.5646  1.6326
 5555SOL    HW228128   0.084   1.444   3.052  2.3362 -0.4783 -0.4173
 5556SOL     OW28129   2.373   3.315   8.338  0.4384 -0.0732  0.3451
 5556SOL    HW128130   2.284   3.342   8.314  0.8266  0.0904 -0.9510
 5556SOL    HW228131   2.375   3.280   8.426  0.3653  1.3817  0.9281
 5557SOL     OW28132   3.385   3.641  10.692 -0.3761  0.0856 -0.1914
 5557SOL    HW128133   3.447   3.655  10.620 -0.2614 -0.2811 -0.1617
 5557SOL    HW228134   3.382   3.732  10.723  0.2629  0.3422 -0.8627
 5558SOL     OW28135   3.372   2.394   9.670  0.3040  0.4103 -0.5544
 5558SOL    HW128136   3.458   2.359   9.647 -0.5966 -1.9993 -0.2264
 5558SOL    HW228137   3.329   2.398   9.585  1.6355  0.6825 -1.2191
 5559SOL     OW28138   2.306   1.703   3.822  0.2139  1.3013  0.3140
 5559SOL    HW128139   2.235   1.675   3.763  1.1579  1.6317 -0.9864
 5559SOL    HW228140   2.374   1.638   3.805  1.2708  3.0595 -2.1720
 5560SOL     OW28141   3.564   1.247   3.056 -0.2391 -0.0013 -0.2372
 5560SOL    HW128142   3.546   1.306   2.983  0.9366  1.6674  0.8447
 5560SOL    HW228143   3.622   1.306   3.104  0.1630  2.0135 -3.2003
 5561SOL     OW28144   3.676   0.024   7.949 -0.0283  0.1910 -0.7806
 5561SOL    HW128145   3.643   0.110   7.923 -0.5167  0.2860  0.1556
 5561SOL    HW228146   3.660   4.700   7.869  0.8260 -0.7064 -0.4030
 5562SOL     OW28147   2.649   3.099   3.983 -0.0816 -0.0030 -0.4393
 5562SOL    HW128148   2.615   3.033   3.923  2.0831 -0.7310 -0.8968
 5562SOL    HW228149   2.650   3.057   4.070 -0.4450  0.9223  0.0138
 5563SOL     OW28150   3.496   3.984  17.097 -0.2867 -0.1397  0.4102
 5563SOL    HW128151   3.527   3.940  17.017  0.1976  0.7621  0.1073
 5563SOL    HW228152   3.539   4.069  17.094 -0.1716 -0.2418 -1.0824
 5564SOL     OW28153   1.446   4.560   8.651  0.0984  0.2657  0.4099
 5564SOL    HW128154   1.516   4.589   8.591 -0.2840 -0.6671 -0.4810
 5564SOL    HW228155   1.425   4.473   8.616 -1.7909  1.4744 -1.3954
 5565SOL     OW28156   3.083   1.403   0.966  1.1045 -0.1698 -0.4387
 5565SOL    HW128157   3.155   1.417   0.905  0.0068  1.7295 -1.2871
 5565SOL    HW228158   3.058   1.311   0.968 -1.0099  0.3921 -1.0652
 5566SOL     OW28159   3.586   1.916  13.679  0.1903  0.2519 -0.6830
 5566SOL    HW128160   3.527   1.905  13.605 -0.5186  1.6836 -0.3327
 5566SOL    HW228161   3.564   1.833  13.722 -1.8028  0.1711 -1.8678
 5567SOL     OW28162   2.181   0.721   7.256  0.1443  0.4051  0.2604
 5567SOL    HW128163   2.259   0.679   7.293 -1.5478 -2.6073  0.4026
 5567SOL    HW228164   2.119   0.678   7.316  0.1078 -0.2616 -0.2448
 5568SOL     OW28165   2.792   1.499  11.912  0.5052  0.5264  0.0578
 5568SOL    HW128166   2.703   1.510  11.944  0.7034 -0.6890  1.0032
 5568SOL    HW228167   2.845   1.549  11.974  0.9088 -0.4945  0.5278
 5569SOL     OW28168   1.795   0.340   2.136 -0.3566 -0.0890 -0.6100
 5569SOL    HW128169   1.790   0.266   2.197 -1.0408  0.8133  0.4109
 5569SOL    HW228170   1.890   0.349   2.140 -0.5457  1.1476  0.8008
 5570SOL     OW28171   4.362   1.503   1.390  0.4250  0.2083 -0.4494
 5570SOL    HW128172   4.434   1.522   1.330  1.2228  0.2295  0.5067
 5570SOL    HW228173   4.358   1.581   1.445  0.9827 -1.7380  2.3977
 5571SOL     OW28174   0.126   2.823  17.422  0.8495  0.1170  0.4364
 5571SOL    HW128175   0.120   2.900  17.364  0.4798 -1.1303 -1.1817
 5571SOL    HW228176   0.082   2.757  17.368 -1.6431  1.0365  1.3359
 5572SOL     OW28177   3.204   1.914  11.397 -0.1918 -0.0218 -0.4297
 5572SOL    HW128178   3.220   1.847  11.331  0.8022 -1.5098  1.3092
 5572SOL    HW228179   3.110   1.913  11.411  0.1038  0.0463  1.5186
 5573SOL     OW28180   1.889   1.726   5.446  0.5777 -0.1496  0.3888
 5573SOL    HW128181   1.926   1.736   5.358  3.1232 -2.0356  1.2446
 5573SOL    HW228182   1.800   1.700   5.419  0.6053  0.9896 -0.7653
 5574SOL     OW28183   0.139   4.638  10.357 -0.1671 -0.4651 -0.2529
 5574SOL    HW128184   0.198   4.602  10.424 -1.6850  1.3816  2.0824
 5574SOL    HW228185   0.202   4.663  10.289  0.8379 -1.0515  0.4596
 5575SOL     OW28186   3.865   4.154   5.955 -0.5950  0.4744  0.2829
 5575SOL    HW128187   3.786   4.120   5.914 -0.6395 -1.5669  2.0783
 5575SOL    HW228188   3.871   4.101   6.034  2.4462 -0.7075 -0.7268
 5576SOL     OW28189   2.068   2.075   1.667 -0.0988 -0.3276  0.0027
 5576SOL    HW128190   2.095   2.133   1.596  0.5952  0.4173  0.8778
 5576SOL    HW228191   2.151   2.042   1.702  1.1670  2.0860 -0.7027
 5577SOL     OW28192   3.311   0.235   2.484 -0.2927 -0.7394  0.6639
 5577SOL    HW128193   3.278   0.267   2.400 -1.3295  0.0231  1.3690
 5577SOL    HW228194   3.368   0.164   2.453 -1.2491 -1.9866  1.7402
 5578SOL     OW28195   0.416   2.942   4.485  0.1595 -0.0211  0.0946
 5578SOL    HW128196   0.387   2.932   4.575 -0.3213 -1.2161 -0.1920
 5578SOL    HW228197   0.467   2.862   4.474  0.5320  0.3566 -1.0184
 5579SOL     OW28198   4.199   0.834   7.664  0.5669  0.2825 -0.1750
 5579SOL    HW128199   4.241   0.919   7.677  1.0341 -0.1148  0.9635
 5579SOL    HW228200   4.224   0.827   7.572 -0.2302 -1.0351 -0.2907
 5580SOL     OW28201   4.286   2.742   6.514  0.3793 -0.4394 -0.0032
 5580SOL    HW128202   4.227   2.676   6.479 -0.1798  1.5338 -2.7678
 5580SOL    HW228203   4.361   2.683   6.515  0.6268 -0.1389 -1.0522
 5581SOL     OW28204   2.211   2.001   3.311 -0.3006  0.0380 -0.1724
 5581SOL    HW128205   2.275   1.931   3.299  0.8424  1.3071 -1.5149
 5581SOL    HW228206   2.145   1.964   3.252  1.3882 -1.0095 -1.4050
 5582SOL     OW28207   2.259   1.153   7.088 -0.4550  0.0754 -0.4970
 5582SOL    HW128208   2.265   1.213   7.162  1.8392  0.0213 -0.6197
 5582SOL    HW228209   2.349   1.157   7.056 -0.1726 -1.5539  0.0466
 5583SOL     OW28210   2.600   1.050   2.355  0.2636 -1.1472  0.8245
 5583SOL    HW128211   2.683   1.093   2.377 -0.3546  0.6646 -0.3532
 5583SOL    HW228212   2.567   1.039   2.444 -2.6987 -1.5725 -0.3191
 5584SOL     OW28213   3.355   1.581  11.539 -0.1152  0.0279 -0.4615
 5584SOL    HW128214   3.269   1.566  11.499 -1.4206  1.3149  1.8223
 5584SOL    HW228215   3.411   1.607  11.466 -0.6520  1.4856 -0.3667
 5585SOL     OW28216   3.035   1.647   3.266  0.8024 -0.3299 -0.0512
 5585SOL    HW128217   3.027   1.559   3.230  2.1443  0.0428 -1.2857
 5585SOL    HW228218   3.105   1.640   3.331  1.7062  1.7867 -0.7898
 5586SOL     OW28219   2.316   3.323  10.847  0.2146 -0.0629  1.1859
 5586SOL    HW128220   2.263   3.306  10.925  1.1514 -4.4076  0.8600
 5586SOL    HW228221   2.270   3.396  10.805 -1.4246 -2.3710 -1.0157
 5587SOL     OW28222   2.366   3.696  10.383  0.2500 -0.1247  0.0315
 5587SOL    HW128223   2.404   3.640  10.451  0.3706  1.6071  1.3718
 5587SOL    HW228224   2.435   3.762  10.376 -0.9312  0.9824 -1.0856
 5588SOL     OW28225   3.818   1.657  14.715  0.2785 -0.4755  0.2484
 5588SOL    HW128226   3.857   1.581  14.756  0.6159  0.4027  1.5562
 5588SOL    HW228227   3.896   1.711  14.727  0.0883 -0.4584  1.3715
 5589SOL     OW28228   3.676   2.711   4.361 -0.3425 -0.7175  0.1761
 5589SOL    HW128229   3.599   2.706   4.303  0.1603  0.9844 -0.6310
 5589SOL    HW228230   3.727   2.641   4.319 -0.6936  0.1889 -1.7707
 5590SOL     OW28231   3.218   3.883   6.921  0.2541  0.8313 -0.5710
 5590SOL    HW128232   3.181   3.804   6.882  2.4403  0.0973 -1.1574
 5590SOL    HW228233   3.305   3.855   6.951 -0.5725 -3.2757 -2.0032
 5591SOL     OW28234   4.075   1.387   6.760 -0.2492 -0.2620 -0.9237
 5591SOL    HW128235   4.047   1.334   6.686 -0.1378  0.2720 -1.3526
 5591SOL    HW228236   4.000   1.398   6.818 -1.2308 -0.8579 -2.0800
 5592SOL     OW28237   1.819   3.340  17.391 -0.1330  0.4556  0.1028
 5592SOL    HW128238   1.724   3.345  17.378 -0.3940 -1.7623  1.1492
 5592SOL    HW228239   1.843   3.261  17.343 -1.3950  0.7666 -1.0433
 5593SOL     OW28240   1.598   1.244  15.562  0.4517 -0.3106  0.2604
 5593SOL    HW128241   1.584   1.182  15.634 -1.4786 -1.3557 -1.0084
 5593SOL    HW228242   1.645   1.315  15.607 -1.3897  0.9521  0.1724
 5594SOL     OW28243   3.538   1.984   1.334  0.0741  0.0799 -0.1991
 5594SOL    HW128244   3.518   1.924   1.405  0.6386  2.6060  2.0914
 5594SOL    HW228245   3.465   2.010   1.278  1.0547 -0.4316 -1.7163
 5595SOL     OW28246   3.292   1.580   1.332  0.2286  0.4914 -0.2674
 5595SOL    HW128247   3.283   1.485   1.335  1.9171  0.3227 -0.8757
 5595SOL    HW228248   3.302   1.604   1.240  2.0452  1.6700  0.2357
 5596SOL     OW28249   2.477   0.738  16.568  0.4109 -0.3336 -0.1423
 5596SOL    HW128250   2.396   0.784  16.546 -0.0641 -0.9430  0.3196
 5596SOL    HW228251   2.498   0.718  16.477  0.4677  0.0087 -0.2032
 5597SOL     OW28252   3.028   2.107  12.666 -0.3774  0.5422  0.6566
 5597SOL    HW128253   3.084   2.046  12.715  0.0775 -0.0319 -0.6012
 5597SOL    HW228254   2.994   2.159  12.739  1.4510  0.4083  1.6064
 5598SOL     OW28255   3.128   0.249   4.072 -0.0036  0.3528  0.0999
 5598SOL    HW128256   3.088   0.303   4.003  1.1950  1.1795  0.0509
 5598SOL    HW228257   3.062   0.181   4.085  0.6533 -0.2432  0.3399
 5599SOL     OW28258   2.265   2.654   8.687 -0.0168  0.4142  0.1918
 5599SOL    HW128259   2.302   2.630   8.772 -2.2233 -2.1681  0.4061
 5599SOL    HW228260   2.184   2.691   8.721 -0.6898 -1.8891  1.0462
 5600SOL     OW28261   4.484   0.737   4.471 -0.4140  0.0344  0.5072
 5600SOL    HW128262   4.526   0.823   4.470  0.1389 -0.2611 -1.0153
 5600SOL    HW228263   4.396   0.764   4.443  0.1130  2.3116  1.0315
 5601SOL     OW28264   4.132   3.484  16.669  0.2905 -0.1492  0.0330
 5601SOL    HW128265   4.078   3.441  16.602 -0.8739 -2.2338  2.3208
 5601SOL    HW228266   4.098   3.442  16.748 -1.6415 -1.9001 -1.7301
 5602SOL     OW28267   2.312   1.014   5.969 -0.0320  0.4412  0.2984
 5602SOL    HW128268   2.384   0.984   5.914 -1.4346 -0.3365 -1.0984
 5602SOL    HW228269   2.281   1.094   5.925  1.1676  0.0293 -1.2833
 5603SOL     OW28270   2.645   0.485  11.402 -0.5213 -0.1167  0.5823
 5603SOL    HW128271   2.739   0.499  11.393 -0.6084 -0.9480 -1.6857
 5603SOL    HW228272   2.652   0.390  11.413 -0.7751 -0.2403 -0.2761
 5604SOL     OW28273   1.896   4.417   9.018  0.1030  0.2761  0.5205
 5604SOL    HW128274   1.937   4.338   9.053  0.4625 -0.4302 -1.4584
 5604SOL    HW228275   1.806   4.387   9.003 -0.7032  1.8504  2.3010
 5605SOL     OW28276   1.133   3.357   9.575 -0.0580 -0.2000 -0.3789
 5605SOL    HW128277   1.180   3.274   9.580  3.2158  1.5831 -1.1223
 5605SOL    HW228278   1.200   3.422   9.553 -1.4917  1.2538 -0.5204
 5606SOL     OW28279   4.208   3.965   2.942 -0.8080  0.4450  0.0715
 5606SOL    HW128280   4.128   3.935   2.900  0.2803  1.0236 -2.4468
 5606SOL    HW228281   4.215   4.051   2.901  0.7018  0.2478 -0.0978
 5607SOL     OW28282   3.454   1.517   7.900  0.2060  0.2579 -0.2335
 5607SOL    HW128283   3.442   1.494   7.992 -0.9688  0.9421 -0.2067
 5607SOL    HW228284   3.520   1.586   7.908  0.1027  0.2469  0.6268
 5608SOL     OW28285   3.427   2.938   7.861  0.3558  0.3460  0.4720
 5608SOL    HW128286   3.416   3.031   7.883  1.9922 -0.3826  4.5278
 5608SOL    HW228287   3.502   2.912   7.914 -0.6778 -1.0399  1.2707
 5609SOL     OW28288   0.208   2.197   4.026  0.1788 -0.2280  0.4103
 5609SOL    HW128289   0.275   2.180   4.092  1.3688 -0.1985 -0.8032
 5609SOL    HW228290   0.276   2.234   3.971 -1.2107  0.5160 -0.8109
 5610SOL     OW28291   1.546   1.762   1.122 -0.8786 -0.5986 -0.1332
 5610SOL    HW128292   1.618   1.819   1.094  0.1565 -1.4725  0.7991
 5610SOL    HW228293   1.573   1.732   1.209 -0.2129  1.0464  0.2420
 5611SOL     OW28294   2.428   1.024   6.595  0.1231 -0.1017 -0.1278
 5611SOL    HW128295   2.516   0.991   6.613 -0.0178 -0.0484  0.6211
 5611SOL    HW228296   2.443   1.099   6.651  0.4687 -2.0493  2.3696
 5612SOL     OW28297   3.550   1.099   2.644 -0.0855  0.0164 -0.0240
 5612SOL    HW128298   3.543   1.006   2.662  2.0725 -0.2502 -0.5323
 5612SOL    HW228299   3.561   1.104   2.549 -2.2136  1.5952 -0.1885
 5613SOL     OW28300   4.033   4.560   2.987 -0.1456  0.0271 -0.1092
 5613SOL    HW128301   4.126   4.540   2.999 -0.0899  0.2724 -0.1294
 5613SOL    HW228302   4.035   4.655   2.973  3.9800  0.0463  0.5374
 5614SOL     OW28303   2.401   0.071   2.594 -0.0821 -0.1405 -0.4303
 5614SOL    HW128304   2.323   0.120   2.567 -0.5954 -1.0112 -0.5352
 5614SOL    HW228305   2.447   0.039   2.516 -1.1377  1.5441 -1.7344
 5615SOL     OW28306   3.130   4.269   6.683 -0.1818  0.4912 -0.3554
 5615SOL    HW128307   3.175   4.194   6.644 -1.0017  0.0796 -0.5272
 5615SOL    HW228308   3.104   4.240   6.771 -0.9673 -0.4350 -0.8869
 5616SOL     OW28309   0.192   1.827   2.594 -0.0953 -0.9383  0.0498
 5616SOL    HW128310   0.259   1.771   2.633  1.2371 -1.1066 -2.4630
 5616SOL    HW228311   0.150   1.838   2.679  2.8842  1.5011  1.2101
 5617SOL     OW28312   0.011   1.252   6.481  0.1186  0.1973 -0.4047
 5617SOL    HW128313   4.685   1.184   6.526  0.2507  2.3857  3.0383
 5617SOL    HW228314   0.098   1.213   6.485 -0.9905 -2.3210 -0.9232
 5618SOL     OW28315   1.507   2.685   8.386  0.0217 -0.5038 -0.1680
 5618SOL    HW128316   1.568   2.611   8.385 -0.1330 -0.6633  1.3430
 5618SOL    HW228317   1.475   2.682   8.296  0.4693  2.9343 -0.4130
 5619SOL     OW28318   2.262   2.870   0.675 -0.0042  0.1941 -0.6161
 5619SOL    HW128319   2.190   2.898   0.619 -2.2623  0.9919  2.7190
 5619SOL    HW228320   2.334   2.922   0.637  1.3358 -0.6373  0.8002
 5620SOL     OW28321   2.907   1.773  10.373 -0.3951  0.1461 -0.0881
 5620SOL    HW128322   2.970   1.844  10.385  2.9054 -2.5637 -1.8888
 5620SOL    HW228323   2.965   1.701  10.352  1.0251  1.2536  0.0057
 5621SOL     OW28324   2.221   2.572   3.442 -0.4656  0.6641  0.3896
 5621SOL    HW128325   2.297   2.533   3.486 -0.0856 -0.1509 -0.9464
 5621SOL    HW228326   2.247   2.663   3.431  1.2058  0.0379 -1.0151
 5622SOL     OW28327   3.048   1.525   4.369  0.5045 -0.8823 -0.3703
 5622SOL    HW128328   3.005   1.455   4.321 -0.5722 -1.6950  1.7605
 5622SOL    HW228329   2.988   1.525   4.444 -0.0627  3.1060 -0.8061
 5623SOL     OW28330   3.348   2.157   3.184 -0.3193 -0.1350  0.4404
 5623SOL    HW128331   3.297   2.130   3.107 -1.2552  1.8525  0.3777
 5623SOL    HW228332   3.304   2.241   3.192  0.0023  0.0913 -0.1555
 5624SOL     OW28333   0.153   1.527  16.555 -0.2228  0.1955 -0.4336
 5624SOL    HW128334   0.145   1.476  16.635  3.7264  1.1923  0.6062
 5624SOL    HW228335   0.114   1.473  16.486 -1.2704  0.1122  0.2370
 5625SOL     OW28336   2.117   3.884   5.760 -0.3467  0.1294 -0.4473
 5625SOL    HW128337   2.132   3.804   5.710 -0.4494  0.8788 -1.6815
 5625SOL    HW228338   2.108   3.948   5.689  2.3124 -0.6777 -1.5148
 5626SOL     OW28339   4.450   1.693   3.349 -0.2586 -0.2726 -0.3017
 5626SOL    HW128340   4.461   1.785   3.323  2.3593 -0.8909 -1.3371
 5626SOL    HW228341   4.361   1.707   3.381  0.7693 -0.5505  2.6462
 5627SOL     OW28342   3.528   0.282   5.321  0.7317 -0.0193  0.0167
 5627SOL    HW128343   3.498   0.354   5.267 -1.5470  0.1053  1.4667
 5627SOL    HW228344   3.488   0.312   5.403 -0.6435  0.9914 -1.0264
 5628SOL     OW28345   0.931   3.054   3.729  0.2090  0.0346 -0.4859
 5628SOL    HW128346   0.898   3.083   3.814 -0.0185  1.5758 -1.0896
 5628SOL    HW228347   0.856   3.069   3.671 -0.3591 -1.7428 -0.1977
 5629SOL     OW28348   4.187   0.395   8.142  0.4593  0.4677  0.0444
 5629SOL    HW128349   4.096   0.423   8.150  0.9437  1.9507  0.3966
 5629SOL    HW228350   4.227   0.449   8.210 -3.3407  2.4200  0.6916
 5630SOL     OW28351   0.899   3.661   3.895 -0.3359 -0.6554  0.8218
 5630SOL    HW128352   0.918   3.672   3.989  0.2613 -3.2055  0.9971
 5630SOL    HW228353   0.887   3.566   3.889 -0.3817 -0.6276  0.4729
 5631SOL     OW28354   4.133   3.751   7.372  0.3755 -0.0481  0.2066
 5631SOL    HW128355   4.128   3.846   7.384  0.1326 -0.1119  0.6337
 5631SOL    HW228356   4.154   3.722   7.461 -0.5077 -1.4901 -0.0636
 5632SOL     OW28357   3.851   1.714   0.370 -0.5429  0.3436  0.0663
 5632SOL    HW128358   3.823   1.637   0.321  2.3456  0.1318 -1.2137
 5632SOL    HW228359   3.870   1.770   0.295 -0.3897 -0.8332 -0.7621
 5633SOL     OW28360   4.454   0.702   2.031 -0.2515  0.2600  0.0475
 5633SOL    HW128361   4.512   0.740   2.096  1.8436 -0.9421 -1.0779
 5633SOL    HW228362   4.477   0.740   1.946 -0.2068 -0.6798 -0.3597
 5634SOL     OW28363   0.006   3.973   5.233  0.1512  0.6122 -0.8561
 5634SOL    HW128364   0.051   4.013   5.159  1.9099 -2.5707 -1.4725
 5634SOL    HW228365   4.672   3.912   5.191 -0.7781  1.1821 -0.3934
 5635SOL     OW28366   0.747   3.929   6.205  0.4603 -0.2997  0.3874
 5635SOL    HW128367   0.674   3.900   6.259  0.2866  1.5395  1.1296
 5635SOL    HW228368   0.709   3.916   6.118  1.3563  3.4159 -0.5711
 5636SOL     OW28369   2.627   3.575   9.254  0.0095  0.0106 -0.3285
 5636SOL    HW128370   2.686   3.636   9.298  0.3198 -2.6241  2.9224
 5636SOL    HW228371   2.675   3.578   9.171 -2.3997  1.6504 -1.6765
 5637SOL     OW28372   3.807   1.479   0.202 -0.6160  0.7618  0.0338
 5637SOL    HW128373   3.836   1.519   0.120 -0.1277  0.8335  0.2403
 5637SOL    HW228374   3.883   1.441   0.246 -0.2549  0.2090 -1.0606
 5638SOL     OW28375   0.125   1.654  14.973 -0.5986 -0.0151 -0.1257
 5638SOL    HW128376   0.081   1.569  14.976  0.5635 -0.6483 -1.0088
 5638SOL    HW228377   0.115   1.689  14.884  0.9184 -0.3085 -0.4145
 5639SOL     OW28378   0.605   2.838   6.042 -0.1770 -0.1113  0.4487
 5639SOL    HW128379   0.541   2.829   5.972  0.2762 -0.6415  0.1091
 5639SOL    HW228380   0.602   2.751   6.081  0.9913  0.1442  1.1098
 5640SOL     OW28381   3.363   3.278  16.387 -0.0248  0.2834  0.1683
 5640SOL    HW128382   3.433   3.214  16.373  1.7151  2.3369 -0.6407
 5640SOL    HW228383   3.380   3.327  16.307 -2.3574 -0.1749 -0.5886
 5641SOL     OW28384   2.686   3.124  12.445 -0.6444  0.2946 -0.2023
 5641SOL    HW128385   2.724   3.206  12.477 -0.0931 -0.5095  1.2235
 5641SOL    HW228386   2.733   3.058  12.497 -1.4319  0.1402  0.3118
 5642SOL     OW28387   4.294   3.875   6.107  0.4999 -0.2775 -0.2140
 5642SOL    HW128388   4.267   3.871   6.199 -1.4442  0.3443 -0.7578
 5642SOL    HW228389   4.380   3.915   6.121  0.9757 -2.0664  1.9436
 5643SOL     OW28390   1.582   1.360  12.033 -0.4555 -0.3137  0.3045
 5643SOL    HW128391   1.515   1.300  12.067  0.4152 -1.8085 -0.6311
 5643SOL    HW228392   1.591   1.311  11.952  2.1642 -1.0734  1.0573
 5644SOL     OW28393   4.472   3.157  15.025 -0.2148 -0.0169 -0.6702
 5644SOL    HW128394   4.475   3.065  15.049  0.7099  0.3142  0.4557
 5644SOL    HW228395   4.405   3.154  14.956  0.4061  0.2730 -1.2875
 5645SOL     OW28396   4.217   3.182   4.532 -0.6833 -0.0638  0.0893
 5645SOL    HW128397   4.227   3.203   4.625 -0.4858 -2.7176  0.6567
 5645SOL    HW228398   4.301   3.195   4.488 -1.9171 -0.8910 -2.5598
 5646SOL     OW28399   0.885   2.367   4.747  0.0161  0.0544  0.4194
 5646SOL    HW128400   0.872   2.446   4.694 -2.1793  0.5723  1.7595
 5646SOL    HW228401   0.955   2.403   4.802 -1.5686  0.9785  1.8190
 5647SOL     OW28402   2.664   4.652  12.745 -0.1600  0.3240 -0.0780
 5647SOL    HW128403   2.743   4.675  12.697 -0.3756  0.2236 -0.4822
 5647SOL    HW228404   2.613   4.598  12.684  0.1503 -1.4563  1.2346
 5648SOL     OW28405   1.698   1.127   2.273  0.7721  0.1282 -0.0760
 5648SOL    HW128406   1.616   1.130   2.223  1.1990 -3.2321 -0.9493
 5648SOL    HW228407   1.688   1.118   2.368  1.0597  1.7189  0.1066
 5649SOL     OW28408   2.863   1.123  13.403 -0.3283 -0.3460  0.1653
 5649SOL    HW128409   2.848   1.029  13.402  0.6676 -0.5038  0.6524
 5649SOL    HW228410   2.781   1.171  13.416  0.7193  2.2345 -2.6831
 5650SOL     OW28411   4.522   2.321   3.462  0.0065  0.5659 -0.3527
 5650SOL    HW128412   4.470   2.386   3.509 -0.9277 -1.5251  1.5086
 5650SOL    HW228413   4.596   2.379   3.448 -1.1817  2.2073  0.1731
 5651SOL     OW28414   0.449   3.104  17.490 -0.6193  0.0616  0.1274
 5651SOL    HW128415   0.363   3.145  17.479 -0.2215  0.1480 -2.6668
 5651SOL    HW228416   0.422   3.012  17.489  0.4409 -0.1865 -4.9652
 5652SOL     OW28417   1.038   4.663   2.250 -0.1204  0.6589 -0.0508
 5652SOL    HW128418   0.992   4.585   2.280  0.7286  0.4651  0.7717
 5652SOL    HW228419   1.100   4.623   2.188 -2.8717 -1.9049 -1.0990
 5653SOL     OW28420   4.472   0.354   7.704 -0.6264 -0.5994  0.1675
 5653SOL    HW128421   4.439   0.394   7.785 -0.3190 -0.8614  0.4186
 5653SOL    HW228422   4.402   0.381   7.644  0.1577  0.7583 -0.1559
 5654SOL     OW28423   2.964   0.607   0.569 -0.2762 -0.2055 -0.3490
 5654SOL    HW128424   3.023   0.662   0.517 -0.9918 -0.2097 -1.1619
 5654SOL    HW228425   3.022   0.562   0.631 -0.4328  1.0667  0.7086
 5655SOL     OW28426   2.684   2.809   9.205 -0.6385 -0.4457  0.1638
 5655SOL    HW128427   2.697   2.740   9.270 -0.5587  0.5208  1.1735
 5655SOL    HW228428   2.611   2.862   9.236 -2.1735 -1.6607 -1.4315
 5656SOL     OW28429   1.698   1.753   6.995  0.1635 -0.3405  0.5699
 5656SOL    HW128430   1.701   1.756   6.899 -0.1847 -1.5050  0.5332
 5656SOL    HW228431   1.690   1.658   6.999  2.0535 -0.4088  2.4371
 5657SOL     OW28432   4.190   3.714   7.859  0.0379 -0.4581  0.3190
 5657SOL    HW128433   4.179   3.775   7.786 -2.8986  0.1022  1.2111
 5657SOL    HW228434   4.128   3.755   7.919  1.3036  3.5765 -1.1546
 5658SOL     OW28435   1.171   2.878  14.589  0.7411 -0.4315 -0.2435
 5658SOL    HW128436   1.122   2.814  14.537 -1.3549  1.5269 -0.6495
 5658SOL    HW228437   1.222   2.825  14.650 -0.9145 -0.9120  0.6997
 5659SOL     OW28438   4.685   3.802   3.268  0.5656 -0.5534 -0.4829
 5659SOL    HW128439   4.597   3.833   3.249  0.5188 -0.6612 -0.4385
 5659SOL    HW228440   0.011   3.859   3.211 -0.9309  0.5129 -0.7492
 5660SOL     OW28441   1.766   2.524   5.478 -0.7846 -0.4819  0.3018
 5660SOL    HW128442   1.818   2.588   5.430  0.7093  0.5082  3.2466
 5660SOL    HW228443   1.782   2.546   5.570  2.0011 -1.3356 -0.0008
 5661SOL     OW28444   4.594   1.340   5.454 -0.1617 -0.3573  0.0976
 5661SOL    HW128445   4.601   1.383   5.369 -1.5092  0.7614  0.5381
 5661SOL    HW228446   4.505   1.308   5.467  0.7606 -1.8610  2.9078
 5662SOL     OW28447   3.532   3.385   6.323  0.5511  0.1699 -0.9973
 5662SOL    HW128448   3.562   3.298   6.297 -0.3319  0.0715 -1.7058
 5662SOL    HW228449   3.552   3.423   6.237  0.0133  1.8964 -0.3520
 5663SOL     OW28450   4.117   1.551  15.440  0.2208  0.1353 -0.2406
 5663SOL    HW128451   4.186   1.551  15.374  0.5905 -1.5642  0.1357
 5663SOL    HW228452   4.173   1.541  15.518  1.0716  1.2097 -0.7105
 5664SOL     OW28453   2.650   1.185   1.909 -0.2607 -0.1213 -0.1057
 5664SOL    HW128454   2.668   1.097   1.943 -0.0031 -0.0764 -0.1211
 5664SOL    HW228455   2.642   1.230   1.993  1.8504  0.8172 -0.3876
 5665SOL     OW28456   0.141   2.636   3.143  0.3335  0.7410  0.0079
 5665SOL    HW128457   0.132   2.624   3.049 -5.4368  1.8363  0.4083
 5665SOL    HW228458   0.096   2.719   3.158 -0.0988  0.5178 -0.0791
 5666SOL     OW28459   1.138   2.732   5.369 -0.1613  0.5104 -0.1093
 5666SOL    HW128460   1.189   2.658   5.335  0.5032  0.8026  0.2700
 5666SOL    HW228461   1.066   2.743   5.307 -1.6218 -0.3753  1.4375
 5667SOL     OW28462   2.791   1.457  12.201 -0.2511  0.0704 -0.0187
 5667SOL    HW128463   2.867   1.399  12.204 -0.0149  0.4287  0.8675
 5667SOL    HW228464   2.784   1.468  12.296 -3.2446  0.8345 -0.3101
 5668SOL     OW28465   2.102   0.793   6.816 -0.5146  0.3096 -0.1997
 5668SOL    HW128466   2.051   0.866   6.851  1.1607  0.6105  1.6700
 5668SOL    HW228467   2.179   0.798   6.873 -0.1652  0.5639 -0.6879
 5669SOL     OW28468   0.185   0.563   1.160 -0.3251 -0.3953  0.0230
 5669SOL    HW128469   0.222   0.633   1.107  0.7186 -1.0209 -0.0799
 5669SOL    HW228470   0.267   0.519   1.183 -0.2054 -0.8204 -1.1754
 5670SOL     OW28471   4.549   3.585  16.722 -0.1510 -0.5994 -0.1980
 5670SOL    HW128472   4.467   3.580  16.772  2.1169  0.3312  3.6158
 5670SOL    HW228473   4.558   3.681  16.719 -3.5535 -0.1971  2.4447
 5671SOL     OW28474   2.827   2.287   4.427  0.1167 -0.4060 -0.0525
 5671SOL    HW128475   2.892   2.246   4.484  1.3643 -1.4056 -2.2034
 5671SOL    HW228476   2.842   2.238   4.346  0.7315  1.0174 -0.8113
 5672SOL     OW28477   2.843   0.092   2.697 -0.4198  0.3705  0.2477
 5672SOL    HW128478   2.937   0.103   2.681 -0.9781  1.5413 -2.3053
 5672SOL    HW228479   2.847   0.094   2.792 -0.1466  0.8760  0.2264
 5673SOL     OW28480   0.001   4.143  13.759 -0.3883  0.5221  0.1899
 5673SOL    HW128481   0.029   4.055  13.783 -1.9757 -0.0335  0.0316
 5673SOL    HW228482   0.040   4.199  13.825 -1.0434  0.3625  0.7106
 5674SOL     OW28483   1.205   0.747  14.571 -0.1371  0.5829  0.1180
 5674SOL    HW128484   1.294   0.710  14.572  0.1176  1.2267  4.6301
 5674SOL    HW228485   1.150   0.676  14.605 -0.9624 -0.1701 -2.8429
 5675SOL     OW28486   0.820   2.339   1.154 -0.3619  0.5350 -0.5100
 5675SOL    HW128487   0.765   2.403   1.109 -0.6528  0.3588 -0.3994
 5675SOL    HW228488   0.853   2.285   1.082  3.3939  0.7159  1.0595
 5676SOL     OW28489   0.080   1.837   5.787  0.1255  0.2342  0.1942
 5676SOL    HW128490   0.063   1.835   5.881 -1.6098  0.2870 -0.1202
 5676SOL    HW228491   0.039   1.923   5.773 -1.2304 -0.2978  0.9732
 5677SOL     OW28492   2.787   3.262   5.993 -0.3729 -1.0102 -0.2412
 5677SOL    HW128493   2.780   3.353   6.020 -1.5212 -0.8156 -1.2195
 5677SOL    HW228494   2.879   3.243   5.976 -0.2030  0.8268 -1.2999
 5678SOL     OW28495   4.256   0.562   6.145  0.0024 -0.0806  0.8699
 5678SOL    HW128496   4.182   0.622   6.133 -0.2311 -0.5358  0.0014
 5678SOL    HW228497   4.307   0.602   6.075  0.0276 -2.8698 -0.6938
 5679SOL     OW28498   2.434   4.157  16.982 -0.2844 -0.0590  0.4300
 5679SOL    HW128499   2.412   4.084  17.040 -0.9027  1.0210  1.5394
 5679SOL    HW228500   2.409   4.227  17.042  0.0479 -0.6761  1.2965
 5680SOL     OW28501   1.309   1.578  15.692  0.2374 -0.1460  0.1432
 5680SOL    HW128502   1.361   1.510  15.648 -0.3782 -1.3103  1.1993
 5680SOL    HW228503   1.369   1.649  15.672 -0.3936 -0.3752 -2.5066
 5681SOL     OW28504   0.697   2.338   4.152  0.4538 -0.9623  0.0911
 5681SOL    HW128505   0.764   2.312   4.089 -0.4157 -1.5674 -0.5729
 5681SOL    HW228506   0.702   2.266   4.215 -1.5885 -0.0466  1.3103
 5682SOL     OW28507   0.582   1.736  16.233 -0.1424  0.5834  0.2617
 5682SOL    HW128508   0.514   1.796  16.264 -0.5561  0.9699 -1.3925
 5682SOL    HW228509   0.547   1.714  16.146  0.3582  0.0632  0.1879
 5683SOL     OW28510   2.137   1.964   7.670 -0.0939 -0.5897  0.5601
 5683SOL    HW128511   2.066   1.947   7.732  0.6893 -0.0113  1.6082
 5683SOL    HW228512   2.077   1.955   7.596 -1.3260  0.6962  1.3727
 5684SOL     OW28513   0.279   0.061   4.358 -0.3290  0.0121  1.1169
 5684SOL    HW128514   0.230   0.110   4.422 -1.3380 -0.9531  1.0829
 5684SOL    HW228515   0.226   0.076   4.279  0.9282 -2.2376 -0.1751
 5685SOL     OW28516   3.056   4.431   2.000 -0.0097 -0.4670  0.0202
 5685SOL    HW128517   3.045   4.431   2.095  3.0572  1.4624  0.3460
 5685SOL    HW228518   3.070   4.336   2.000  0.9346 -0.2990  4.2806
 5686SOL     OW28519   1.340   0.749   5.438  0.6578  0.6553 -0.5869
 5686SOL    HW128520   1.306   0.827   5.483 -1.6389 -0.5370 -0.2222
 5686SOL    HW228521   1.431   0.778   5.434  0.4313  1.0565 -2.6971
 5687SOL     OW28522   3.140   2.646  15.341  0.2034 -0.3916 -0.0998
 5687SOL    HW128523   3.111   2.571  15.393 -3.2380 -0.2839 -1.8933
 5687SOL    HW228524   3.201   2.614  15.275  0.4610 -2.6993  1.2486
 5688SOL     OW28525   3.809   0.191  17.574 -1.1417  0.5608 -0.2457
 5688SOL    HW128526   3.814   0.214  17.481  0.6512 -0.0581 -0.3052
 5688SOL    HW228527   3.743   0.122  17.571 -1.2686  0.6804 -0.1765
 5689SOL     OW28528   3.891   4.300  13.873 -0.5473  0.0035  0.0871
 5689SOL    HW128529   3.929   4.383  13.844  2.1981 -0.6880  1.6453
 5689SOL    HW228530   3.860   4.259  13.792 -0.1324  0.3547 -0.2462
 5690SOL     OW28531   2.071   1.153   0.687  0.1356  0.1405 -0.3837
 5690SOL    HW128532   1.983   1.171   0.655  0.1760  0.7003 -0.1719
 5690SOL    HW228533   2.125   1.149   0.608 -2.2611 -1.2804 -1.9637
 5691SOL     OW28534   4.009   2.316   5.352 -0.4784 -0.1737  0.0748
 5691SOL    HW128535   3.995   2.258   5.278 -1.8581  1.4459 -0.9240
 5691SOL    HW228536   3.932   2.314   5.409 -0.7408  1.6786 -0.2252
 5692SOL     OW28537   2.992   4.234   8.262 -0.1635  0.1987  0.0532
 5692SOL    HW128538   3.080   4.220   8.227 -0.2715 -0.4443  0.0423
 5692SOL    HW228539   3.015   4.288   8.338  2.4282 -0.9974  0.1314
 5693SOL     OW28540   4.273   2.228   0.445  0.4740  0.6332  0.0286
 5693SOL    HW128541   4.216   2.281   0.390 -0.1722  0.1285  0.2125
 5693SOL    HW228542   4.281   2.152   0.387 -0.6027  0.7997 -0.3321
 5694SOL     OW28543   4.160   3.415   8.433 -0.1100 -0.0509  0.3105
 5694SOL    HW128544   4.109   3.474   8.378  1.6783  2.0022  0.8706
 5694SOL    HW228545   4.175   3.469   8.511 -0.0827  1.0499 -0.4718
 5695SOL     OW28546   0.991   3.611   1.044  0.0763 -0.5794 -0.6730
 5695SOL    HW128547   1.061   3.599   1.109  1.1048  2.0330 -1.2901
 5695SOL    HW228548   0.950   3.694   1.068 -0.1228 -1.1127  0.8762
 5696SOL     OW28549   4.028   2.103  13.797 -0.0118 -0.3422 -0.6538
 5696SOL    HW128550   3.978   2.178  13.829  3.2955  1.5493  0.0373
 5696SOL    HW228551   4.112   2.142  13.775 -0.3416  1.2077  0.8460
 5697SOL     OW28552   1.749   2.834  15.263  0.0103 -0.2399  0.3358
 5697SOL    HW128553   1.755   2.742  15.239  0.4754  0.0505 -0.6837
 5697SOL    HW228554   1.654   2.841  15.272  0.1215  1.9119  0.0221
 5698SOL     OW28555   1.116   2.443   6.407 -0.3797 -0.3739  0.0044
 5698SOL    HW128556   1.084   2.528   6.375 -0.1848  0.6121  2.3855
 5698SOL    HW228557   1.054   2.380   6.370  0.4569 -1.0260 -0.2721
 5699SOL     OW28558   1.211   1.792   8.237  0.3498  0.1883 -0.1128
 5699SOL    HW128559   1.204   1.710   8.189  0.7312 -0.3139  0.6971
 5699SOL    HW228560   1.117   1.807   8.244  0.5535  0.9376  1.0395
 5700SOL     OW28561   2.351   0.644   2.017  0.5725 -0.2190 -0.9313
 5700SOL    HW128562   2.365   0.738   2.003  2.6208 -0.2821  0.6632
 5700SOL    HW228563   2.266   0.629   1.976 -0.5966  2.4943  0.4352
 5701SOL     OW28564   1.367   0.917   3.036 -0.0750 -0.5201  0.5902
 5701SOL    HW128565   1.438   0.888   2.979 -1.4960 -1.7108 -0.5791
 5701SOL    HW228566   1.290   0.894   2.983 -0.3696 -0.5897  1.0534
 5702SOL     OW28567   2.372   4.081   9.657  0.3372 -0.0241 -0.0850
 5702SOL    HW128568   2.450   4.093   9.712  1.7420 -1.0006 -1.8503
 5702SOL    HW228569   2.301   4.090   9.721 -0.2435 -0.2598 -0.6965
 5703SOL     OW28570   2.096   0.102   8.494 -0.8491  0.5124 -0.1147
 5703SOL    HW128571   2.177   0.120   8.448 -0.5324  0.3865  0.3989
 5703SOL    HW228572   2.084   0.190   8.528 -2.5789  0.0939  0.3630
 5704SOL     OW28573   4.511   3.452   6.633 -0.4267 -0.2821  0.4229
 5704SOL    HW128574   4.558   3.383   6.587 -1.6262  0.4358 -1.8329
 5704SOL    HW228575   4.420   3.452   6.603 -0.1829 -0.6265 -0.3090
 5705SOL     OW28576   2.387   1.626   2.991  0.6711 -0.1069  0.0175
 5705SOL    HW128577   2.417   1.579   3.069  1.0528 -1.1701 -0.7649
 5705SOL    HW228578   2.312   1.571   2.970 -0.7055  1.7798  0.0236
 5706SOL     OW28579   2.043   4.588   6.843 -0.4515  0.5892  0.0907
 5706SOL    HW128580   2.101   4.512   6.846  3.2013  3.4051  0.6741
 5706SOL    HW228581   2.105   4.660   6.831  0.0162  0.5307  2.1989
 5707SOL     OW28582   4.279   3.242  10.106  0.1269  0.0251  0.3326
 5707SOL    HW128583   4.278   3.150  10.081  0.6229  0.3713 -0.9549
 5707SOL    HW228584   4.373   3.258  10.105  0.8562 -4.4693  0.5357
 5708SOL     OW28585   4.623   4.221   6.406  0.0801  1.1034 -0.8593
 5708SOL    HW128586   4.643   4.257   6.319 -0.3973  1.9298 -0.6250
 5708SOL    HW228587   4.708   4.252   6.437  1.5255 -2.2240 -1.4645
 5709SOL     OW28588   1.199   3.098  14.294  0.2617 -0.8158  0.0424
 5709SOL    HW128589   1.212   3.021  14.240 -1.2077 -0.8099 -0.3186
 5709SOL    HW228590   1.265   3.159  14.262 -0.0088 -1.7768 -2.3056
 5710SOL     OW28591   1.130   1.309   0.552 -0.8664  0.2266 -0.0168
 5710SOL    HW128592   1.143   1.245   0.481 -2.0610  1.3834 -1.2721
 5710SOL    HW228593   1.037   1.331   0.551 -0.2300  2.7755 -1.9624
 5711SOL     OW28594   3.073   0.839  16.276 -0.3933  0.1321  0.3436
 5711SOL    HW128595   3.019   0.776  16.230 -1.9128  2.4629 -1.1013
 5711SOL    HW228596   3.011   0.874  16.340 -0.6035  0.4070 -0.0106
 5712SOL     OW28597   2.082   2.601   8.196 -0.0800 -0.2848  0.3218
 5712SOL    HW128598   2.078   2.609   8.291 -0.8904  0.7082  0.2051
 5712SOL    HW228599   2.067   2.507   8.202 -1.0013 -0.1188  0.6659
 5713SOL     OW28600   1.740   0.325   6.692  0.0093  0.2122  0.0204
 5713SOL    HW128601   1.794   0.351   6.766 -0.9936  2.4457 -0.0211
 5713SOL    HW228602   1.777   0.247   6.651 -0.3747  0.3427 -0.5845
 5714SOL     OW28603   1.985   1.863   4.510 -0.0151 -0.0330  0.1143
 5714SOL    HW128604   1.979   1.772   4.541 -0.6475 -0.0834 -0.1671
 5714SOL    HW228605   1.906   1.905   4.546 -0.4446 -0.3969 -0.4039
 5715SOL     OW28606   0.103   4.385   7.795  0.1624 -0.2243  0.2220
 5715SOL    HW128607   0.106   4.290   7.786 -1.8429 -0.1742 -0.7270
 5715SOL    HW228608   0.111   4.407   7.888 -2.3041 -1.0401  0.6225
 5716SOL     OW28609   4.443   1.454   4.244 -0.0142 -0.1281  0.3919
 5716SOL    HW128610   4.486   1.489   4.323 -0.0345  1.0829 -0.1344
 5716SOL    HW228611   4.379   1.392   4.279  1.5729 -1.4018  1.0508
 5717SOL     OW28612   1.908   0.552   2.324 -0.0769  0.4314  0.4908
 5717SOL    HW128613   1.889   0.487   2.391 -0.0012 -0.3070 -0.2087
 5717SOL    HW228614   1.989   0.510   2.295 -0.0525 -1.3206  3.1768
 5718SOL     OW28615   0.297   0.378   7.825  0.3292 -0.6585  0.1590
 5718SOL    HW128616   0.345   0.460   7.828  0.1489 -0.5635  0.3972
 5718SOL    HW228617   0.226   0.400   7.884  1.7884  2.4454  0.7395
 5719SOL     OW28618   3.779   0.695   8.840 -0.5388 -0.0128  0.0610
 5719SOL    HW128619   3.765   0.737   8.755 -0.6011 -1.4784 -0.6354
 5719SOL    HW228620   3.727   0.758   8.889  0.8100 -0.0251  1.5100
 5720SOL     OW28621   2.640   3.744   4.641  0.3908 -0.9139  0.2132
 5720SOL    HW128622   2.545   3.753   4.650  0.5088 -1.1568  1.6488
 5720SOL    HW228623   2.668   3.732   4.731  0.1102  1.7948  0.6719
 5721SOL     OW28624   2.417   2.410   3.611  0.3235  0.2810  0.2434
 5721SOL    HW128625   2.424   2.358   3.530  0.6291  0.9446 -0.1527
 5721SOL    HW228626   2.334   2.374   3.642 -0.3467  0.0234 -1.8234
 5722SOL     OW28627   0.961   3.610  16.828 -0.3808 -0.0250  0.3988
 5722SOL    HW128628   0.874   3.571  16.820 -1.1060  1.0157  3.1071
 5722SOL    HW228629   0.958   3.689  16.774 -0.4332  0.0082  0.4494
 5723SOL     OW28630   2.579   1.883   9.478  0.4531  0.3060 -0.3796
 5723SOL    HW128631   2.577   1.814   9.412 -1.0448  1.7547 -1.8330
 5723SOL    HW228632   2.524   1.951   9.440 -0.7663 -0.9190 -0.7946
 5724SOL     OW28633   1.647   3.890   6.488  0.1647 -0.8238  0.1639
 5724SOL    HW128634   1.660   3.848   6.402 -2.0287 -2.4174  0.6193
 5724SOL    HW228635   1.613   3.975   6.459  0.1469 -0.9510 -0.1959
 5725SOL     OW28636   3.099   1.076  13.320 -0.0978  0.5373  0.1908
 5725SOL    HW128637   3.110   0.985  13.345  0.3153  0.7612  0.7940
 5725SOL    HW228638   3.016   1.103  13.360  0.6523  2.8412  0.1889
 5726SOL     OW28639   3.209   2.801  16.858  0.2152  0.1434  0.1571
 5726SOL    HW128640   3.213   2.886  16.814  1.0115 -0.0862 -0.2306
 5726SOL    HW228641   3.119   2.774  16.839  1.0562 -2.9091  0.4539
 5727SOL     OW28642   2.127   4.035  17.134 -0.1532 -0.0350  0.0140
 5727SOL    HW128643   2.160   4.106  17.189  1.0326 -2.3344  2.2659
 5727SOL    HW228644   2.103   4.087  17.058  2.2784  0.4793 -0.3905
 5728SOL     OW28645   4.607   2.970   3.726  0.5137 -0.1473 -0.3071
 5728SOL    HW128646   4.608   2.886   3.681  0.1488 -0.6672  0.6496
 5728SOL    HW228647   4.512   2.975   3.738  0.5568  1.2212 -0.5442
 5729SOL     OW28648   0.575   2.045   4.010  0.1086  0.7606 -0.4218
 5729SOL    HW128649   0.558   1.963   3.962 -0.7477  0.3589  0.5714
 5729SOL    HW228650   0.512   2.041   4.081 -0.3239 -0.3397 -0.8699
 5730SOL     OW28651   1.549   1.572  13.334  0.0864  0.2024  0.5490
 5730SOL    HW128652   1.511   1.510  13.396  0.7781 -1.1970 -0.4118
 5730SOL    HW228653   1.592   1.633  13.393  0.0293  2.2659 -1.5570
 5731SOL     OW28654   3.019   0.479  12.287 -0.0695  0.0332 -0.4964
 5731SOL    HW128655   3.042   0.559  12.240 -2.1387  0.1613 -1.3104
 5731SOL    HW228656   3.021   0.417  12.213 -1.4529 -0.6321  0.0290
 5732SOL     OW28657   1.735   0.421   5.149  0.0329  0.8140  0.6074
 5732SOL    HW128658   1.709   0.496   5.095  1.2761  1.4192  0.8629
 5732SOL    HW228659   1.669   0.428   5.218  0.3454  0.1062  0.9752
 5733SOL     OW28660   3.697   3.475  14.851 -0.2539  0.3136  0.0721
 5733SOL    HW128661   3.714   3.415  14.924 -1.4573  0.1628  0.2226
 5733SOL    HW228662   3.700   3.559  14.895  3.1300 -0.9080  2.1989
 5734SOL     OW28663   3.212   1.471  15.237 -0.2087  0.0706 -0.5879
 5734SOL    HW128664   3.194   1.397  15.296  0.3636  0.4371  0.0442
 5734SOL    HW228665   3.287   1.440  15.186  0.5573  0.8101  0.1073
 5735SOL     OW28666   0.412   2.422   2.613 -0.0116 -0.4742  0.2590
 5735SOL    HW128667   0.373   2.418   2.701  0.0425 -1.2016  0.2490
 5735SOL    HW228668   0.345   2.474   2.567  0.9246  1.5001  1.1099
 5736SOL     OW28669   1.046   1.501  15.730  0.6147 -0.7015 -0.1532
 5736SOL    HW128670   1.139   1.523  15.728  0.6612 -0.9167 -0.3248
 5736SOL    HW228671   1.038   1.420  15.680 -0.9162  0.1811 -1.3770
 5737SOL     OW28672   0.890   4.436  10.483  0.4110  0.9447  0.4842
 5737SOL    HW128673   0.890   4.404  10.573  3.6724  0.0555  0.1667
 5737SOL    HW228674   0.976   4.411  10.449  0.6287  0.5914  1.3001
 5738SOL     OW28675   0.010   1.445  15.052  0.3188 -0.1539 -0.1475
 5738SOL    HW128676   4.710   1.492  15.131 -1.9166 -0.8426 -0.4433
 5738SOL    HW228677   4.661   1.466  14.996 -0.5491  0.0891  1.1029
 5739SOL     OW28678   1.302   3.766   4.771  0.0588  0.1270  0.1555
 5739SOL    HW128679   1.333   3.831   4.833  1.1757 -0.0740 -0.1892
 5739SOL    HW228680   1.338   3.688   4.812  1.1759  0.2959 -0.4808
 5740SOL     OW28681   3.410   4.628   7.680  0.1120 -0.0310 -0.5503
 5740SOL    HW128682   3.474   4.590   7.620 -0.7414 -0.3228 -1.2759
 5740SOL    HW228683   3.326   4.632   7.634  1.0059  1.9322 -2.0165
 5741SOL     OW28684   0.179   4.472   8.066 -0.2104  0.0155  0.2712
 5741SOL    HW128685   0.202   4.526   7.990 -0.0069 -0.1073  0.2449
 5741SOL    HW228686   0.164   4.532   8.139 -2.9633 -1.4359  0.9029
 5742SOL     OW28687   2.236   2.976  13.839 -0.6178 -0.0734 -0.9011
 5742SOL    HW128688   2.283   3.055  13.813  0.8199  0.9514  4.8347
 5742SOL    HW228689   2.179   2.969  13.762 -2.6588 -1.0134  0.7052
 5743SOL     OW28690   3.438   1.395   2.553  0.6310 -0.5320 -0.1619
 5743SOL    HW128691   3.470   1.306   2.563 -2.0147 -1.1681  2.5615
 5743SOL    HW228692   3.521   1.440   2.536  0.3112  0.4444  0.7958
 5744SOL     OW28693   2.358   0.057   8.858 -0.0799  0.2019  0.2484
 5744SOL    HW128694   2.325   4.704   8.813  0.5745 -0.9542  1.7840
 5744SOL    HW228695   2.377   0.114   8.783 -0.2027  1.6234  1.3010
 5745SOL     OW28696   3.212   1.747  15.203  0.0487 -0.4754 -0.4886
 5745SOL    HW128697   3.245   1.801  15.275 -0.3265  0.1209 -0.7607
 5745SOL    HW228698   3.227   1.658  15.232 -3.1840 -0.4726  1.2343
 5746SOL     OW28699   1.521   2.272   4.988 -0.1197  0.2912 -0.2915
 5746SOL    HW128700   1.443   2.243   4.940 -1.3447  0.1702  1.7549
 5746SOL    HW228701   1.528   2.365   4.963  0.1883  0.0541 -1.0786
 5747SOL     OW28702   2.189   2.368  11.572 -0.4971 -0.4997 -0.1983
 5747SOL    HW128703   2.188   2.290  11.517  2.0880 -0.9158  0.3577
 5747SOL    HW228704   2.155   2.429  11.506 -0.2806 -0.7485 -0.5365
 5748SOL     OW28705   4.061   2.257   1.718  0.5266  0.1627 -0.4646
 5748SOL    HW128706   4.128   2.241   1.651  1.2332  0.1945  0.2339
 5748SOL    HW228707   3.986   2.278   1.663 -0.9065  0.5475  1.6505
 5749SOL     OW28708   4.433   3.032   1.495  0.0874 -0.5183  0.7681
 5749SOL    HW128709   4.372   3.047   1.423  3.0555 -1.0750 -1.8635
 5749SOL    HW228710   4.383   2.975   1.554 -1.7972 -1.4562 -1.7091
 5750SOL     OW28711   3.658   3.849   7.442  0.1390 -0.0691  0.1333
 5750SOL    HW128712   3.720   3.775   7.442  2.0661  1.5591  0.4742
 5750SOL    HW228713   3.711   3.911   7.392 -0.2992 -0.9534 -1.4448
 5751SOL     OW28714   0.616   4.528   2.424  0.0196  0.1020 -0.0694
 5751SOL    HW128715   0.530   4.568   2.430  1.1156  2.5857 -0.9839
 5751SOL    HW228716   0.591   4.439   2.399  0.1122 -0.4354  1.7881
 5752SOL     OW28717   0.356   2.758   5.856  0.2006  0.0568  0.0053
 5752SOL    HW128718   0.348   2.827   5.790  0.1213 -0.0599 -0.1079
 5752SOL    HW228719   0.285   2.696   5.835 -0.2587  1.0869 -1.5071
 5753SOL     OW28720   2.958   2.905   1.105 -0.5965 -0.1479  0.0333
 5753SOL    HW128721   2.880   2.939   1.061  0.8016  1.2283 -1.3652
 5753SOL    HW228722   2.972   2.973   1.171 -2.6765  0.9538 -0.6492
 5754SOL     OW28723   2.450   0.438   7.167 -0.4296 -0.4779  0.4324
 5754SOL    HW128724   2.436   0.510   7.228  0.9438  1.5908 -1.6788
 5754SOL    HW228725   2.395   0.372   7.210 -3.5064  2.2910  0.6743
 5755SOL     OW28726   0.526   0.039   9.159  0.0190  0.3912 -0.4816
 5755SOL    HW128727   0.474   4.684   9.167  1.1719 -0.2375  0.8776
 5755SOL    HW228728   0.468   0.100   9.115  2.0023  0.5986 -2.8124
 5756SOL     OW28729   1.737   3.748  16.136 -0.0956 -0.0017  0.5273
 5756SOL    HW128730   1.796   3.780  16.068 -0.8284  0.0657 -0.0841
 5756SOL    HW228731   1.791   3.675  16.167 -0.4029  0.0384  1.1702
 5757SOL     OW28732   0.604   3.554   6.238 -0.2242 -0.3094  0.1779
 5757SOL    HW128733   0.652   3.616   6.293 -0.4512 -0.9331  1.0804
 5757SOL    HW228734   0.656   3.476   6.258  0.6889 -0.0227 -1.0569
 5758SOL     OW28735   1.474   1.582   7.590  0.8099 -0.0212 -0.2077
 5758SOL    HW128736   1.537   1.639   7.547 -0.3454  0.3049 -1.4691
 5758SOL    HW228737   1.478   1.632   7.671  0.0292  1.1107 -0.8706
 5759SOL     OW28738   1.323   1.935   9.040 -0.2900 -0.0161  0.0355
 5759SOL    HW128739   1.404   1.884   9.041  0.7444  1.6243 -1.3800
 5759SOL    HW228740   1.352   2.002   9.102 -3.2119  1.3135 -0.0158
 5760SOL     OW28741   3.944   2.134   3.907  0.2898 -0.5164  0.2944
 5760SOL    HW128742   3.969   2.226   3.905 -3.6262  0.5155 -1.3925
 5760SOL    HW228743   4.025   2.096   3.940  0.8458  2.9221  2.8636
 5761SOL     OW28744   1.019   0.218   6.798 -0.6599 -0.5488 -0.2016
 5761SOL    HW128745   1.104   0.179   6.816  0.5317  1.9822 -0.2662
 5761SOL    HW228746   0.959   0.168   6.854  1.3552 -0.5216  1.9930
 5762SOL     OW28747   1.362   2.286   5.452 -0.5232  0.9441 -0.3707
 5762SOL    HW128748   1.329   2.257   5.367 -0.3994  0.4527 -0.2475
 5762SOL    HW228749   1.286   2.334   5.486 -2.3591 -1.5031 -0.9684
 5763SOL     OW28750   0.188   2.582   2.419  0.7166 -0.2684  0.2235
 5763SOL    HW128751   0.115   2.547   2.369  2.3114 -1.6228 -1.1562
 5763SOL    HW228752   0.222   2.651   2.362 -2.9435  2.0034  0.7949
 5764SOL     OW28753   2.748   0.016   6.176 -0.8101  0.2987 -0.1259
 5764SOL    HW128754   2.829   4.713   6.219 -0.7327  0.3567 -0.2343
 5764SOL    HW228755   2.684   4.670   6.182 -0.7021  0.3729  2.0807
 5765SOL     OW28756   4.705   1.971   5.093  0.1893 -0.1158 -0.0667
 5765SOL    HW128757   4.627   2.019   5.122  1.2449  2.1406 -1.0108
 5765SOL    HW228758   4.666   1.884   5.098 -0.8959  0.4222  0.8094
 5766SOL     OW28759   4.163   0.550   6.558 -0.0415  0.1589  0.2666
 5766SOL    HW128760   4.252   0.569   6.588 -0.2049  1.7762 -0.2873
 5766SOL    HW228761   4.175   0.463   6.520 -1.0517  0.6432 -1.1547
 5767SOL     OW28762   2.519   4.170   3.802  0.4693 -0.4014  0.1847
 5767SOL    HW128763   2.457   4.177   3.874 -2.3361  1.6175 -2.3860
 5767SOL    HW228764   2.599   4.211   3.837  1.8667  0.3554 -3.8831
 5768SOL     OW28765   4.436   1.205   8.547 -0.1360 -0.2238  0.1733
 5768SOL    HW128766   4.457   1.230   8.457 -0.2403 -3.0189 -0.6144
 5768SOL    HW228767   4.366   1.267   8.566  0.7104  0.8518 -0.1948
 5769SOL     OW28768   3.426   3.709   0.653 -0.3388  0.4113 -0.1505
 5769SOL    HW128769   3.360   3.770   0.685 -1.4271  0.4183 -2.4331
 5769SOL    HW228770   3.457   3.760   0.578  0.2450 -0.6754 -0.6478
 5770SOL     OW28771   1.878   1.788   3.939 -0.3806  0.4072  0.0263
 5770SOL    HW128772   1.878   1.870   3.988 -1.5084 -0.3506  1.3138
 5770SOL    HW228773   1.963   1.745   3.954  0.7412  2.8417  0.5941
 5771SOL     OW28774   3.871   3.821   6.336 -0.5983  0.1191  0.0356
 5771SOL    HW128775   3.791   3.809   6.285 -0.3969  1.7340 -0.6836
 5771SOL    HW228776   3.850   3.792   6.424  0.4566  0.5099  0.4156
 5772SOL     OW28777   3.494   2.993   5.703  0.6015  0.1501 -0.7361
 5772SOL    HW128778   3.547   2.994   5.623 -2.3823 -2.9827 -2.7002
 5772SOL    HW228779   3.439   3.062   5.666  1.4814  0.1785 -1.9986
 5773SOL     OW28780   2.173   0.946   1.177  0.1517 -0.4224  1.0859
 5773SOL    HW128781   2.097   0.980   1.223 -0.8251  0.6717 -1.3524
 5773SOL    HW228782   2.159   0.955   1.083 -1.4345 -1.3444  1.2463
 5774SOL     OW28783   3.521   4.712   3.366 -0.3604 -0.3289  0.1701
 5774SOL    HW128784   3.511   0.013   3.458  1.9162  2.7165 -0.4542
 5774SOL    HW228785   3.604   4.665   3.378  1.3821  2.7393  0.1326
 5775SOL     OW28786   0.142   2.874  13.238  0.5191  0.0472 -0.3884
 5775SOL    HW128787   0.193   2.917  13.169  0.8623  0.7399  0.3014
 5775SOL    HW228788   0.082   2.943  13.265  0.0342 -0.8864  0.9058
 5776SOL     OW28789   2.012   3.860   0.485 -0.1613  0.2852 -0.6899
 5776SOL    HW128790   1.988   3.768   0.498 -1.3495  0.6316 -0.4648
 5776SOL    HW228791   1.924   3.896   0.474 -0.3995 -0.4822 -1.3481
 5777SOL     OW28792   3.263   2.778  17.121 -0.1831  0.2757  0.8224
 5777SOL    HW128793   3.356   2.759  17.132 -0.5002 -1.5451  0.3648
 5777SOL    HW228794   3.258   2.778  17.025  1.2851 -1.7845  0.7367
 5778SOL     OW28795   2.660   3.962  17.056  0.1239  0.3641 -0.7854
 5778SOL    HW128796   2.576   3.939  17.097  1.6791 -1.0963  1.5739
 5778SOL    HW228797   2.694   4.032  17.111  0.1329 -0.5670  0.3964
 5779SOL     OW28798   2.742   2.681   6.791  0.1712 -0.7857 -0.2461
 5779SOL    HW128799   2.798   2.615   6.831  1.7147  0.6767 -0.0248
 5779SOL    HW228800   2.734   2.639   6.705 -2.3542 -0.2748 -0.2557
 5780SOL     OW28801   4.105   1.149   4.826  0.2382  0.6446 -0.1415
 5780SOL    HW128802   4.067   1.237   4.828 -0.1964  0.4588 -0.2853
 5780SOL    HW228803   4.069   1.116   4.908 -0.9505  1.1689 -0.4512
 5781SOL     OW28804   4.431   0.539   6.660  0.2765 -0.2717 -0.3440
 5781SOL    HW128805   4.483   0.461   6.643 -1.4676 -1.5504  0.1101
 5781SOL    HW228806   4.456   0.551   6.752 -0.2269 -0.0342 -0.2352
 5782SOL     OW28807   2.128   0.828   2.192 -0.2054  0.4782  0.6516
 5782SOL    HW128808   2.208   0.833   2.244 -0.8132 -2.2819  1.8242
 5782SOL    HW228809   2.057   0.880   2.231 -0.5683  0.3808  0.1218
 5783SOL     OW28810   0.456   3.457   9.052  0.3773  0.0262 -0.0818
 5783SOL    HW128811   0.460   3.443   9.147 -2.1941  2.6783  0.4158
 5783SOL    HW228812   0.467   3.552   9.050  0.7871 -0.0666 -1.8046
 5784SOL     OW28813   1.343   1.484   7.124  0.5374  0.1965  0.3080
 5784SOL    HW128814   1.261   1.530   7.136  0.7705  0.5256  0.6276
 5784SOL    HW228815   1.357   1.446   7.211 -1.4962 -1.3841 -0.0581
 5785SOL     OW28816   1.572   3.310   5.737  0.2116  0.9131 -0.0085
 5785SOL    HW128817   1.556   3.254   5.661  2.0598  0.8353 -0.3276
 5785SOL    HW228818   1.667   3.318   5.729  0.1218  1.9177  0.0416
 5786SOL     OW28819   2.276   4.378  10.413  0.2355  0.0388  0.3411
 5786SOL    HW128820   2.307   4.465  10.439  1.2344  0.6349 -2.8361
 5786SOL    HW228821   2.202   4.362  10.472  0.0923  0.7666  0.3618
 5787SOL     OW28822   2.916   0.350   5.640  0.1248  0.1911  0.0683
 5787SOL    HW128823   2.927   0.445   5.651 -0.3346  0.2551  0.0026
 5787SOL    HW228824   2.822   0.350   5.619 -0.3386  2.0395  2.1811
 5788SOL     OW28825   3.244   1.469   7.484  0.5729 -0.4959  0.0874
 5788SOL    HW128826   3.286   1.537   7.537 -0.0455 -1.3678  1.7260
 5788SOL    HW228827   3.223   1.408   7.555  0.4182 -0.5700 -0.0224
 5789SOL     OW28828   0.656   3.866   3.766  0.2838  0.0753  0.3743
 5789SOL    HW128829   0.609   3.822   3.837  0.8188 -1.9822 -0.5382
 5789SOL    HW228830   0.739   3.880   3.811  1.5625 -1.3503 -1.4965
 5790SOL     OW28831   1.704   1.842   9.986 -0.1060  0.0207 -0.2036
 5790SOL    HW128832   1.683   1.881   9.901  0.2498  0.4445 -0.0972
 5790SOL    HW228833   1.614   1.831  10.015 -0.1740  0.2071 -0.3398
 5791SOL     OW28834   1.936   1.056   3.078 -0.1451  0.2732 -0.8821
 5791SOL    HW128835   2.029   1.034   3.087 -0.0044  1.1075 -0.3014
 5791SOL    HW228836   1.935   1.109   2.998  3.7097 -0.1181 -1.1712
 5792SOL     OW28837   3.217   2.359  15.092 -0.3026 -0.1818 -0.4435
 5792SOL    HW128838   3.227   2.371  14.998  1.9779 -0.4746 -0.2290
 5792SOL    HW228839   3.260   2.278  15.119  0.4196 -0.2771 -1.8886
 5793SOL     OW28840   4.107   0.710  11.682  0.1289  0.2724 -0.0329
 5793SOL    HW128841   4.032   0.714  11.623  0.6086 -1.0016 -0.7523
 5793SOL    HW228842   4.114   0.615  11.693 -1.5830  0.0089 -1.2465
 5794SOL     OW28843   2.179   1.029   4.936  0.4626  0.1899 -0.2187
 5794SOL    HW128844   2.157   1.091   4.867  2.5866  1.0930 -0.0591
 5794SOL    HW228845   2.146   1.077   5.012 -1.5344  1.4986 -1.9166
 5795SOL     OW28846   0.835   3.470   5.823  0.3066  0.9384  0.1794
 5795SOL    HW128847   0.908   3.521   5.786  0.2047 -0.0009 -1.3361
 5795SOL    HW228848   0.877   3.384   5.829 -0.8893  0.5735  3.1297
 5796SOL     OW28849   1.846   2.119   5.537 -0.1996 -0.4480 -0.0776
 5796SOL    HW128850   1.835   2.203   5.491  3.1316 -0.2270 -0.4809
 5796SOL    HW228851   1.758   2.124   5.575  0.5283 -0.3592  1.5746
 5797SOL     OW28852   2.867   3.084   2.835 -0.4783 -0.4821 -0.1965
 5797SOL    HW128853   2.826   3.162   2.797 -0.2354 -0.1228  0.2879
 5797SOL    HW228854   2.797   3.059   2.894  0.0112  0.7031  0.8871
 5798SOL     OW28855   4.208   1.542  13.315 -0.1153  0.1343 -0.6513
 5798SOL    HW128856   4.228   1.633  13.295  3.3850 -0.9057 -1.7937
 5798SOL    HW228857   4.244   1.532  13.403  0.0868  1.4394 -0.6001
 5799SOL     OW28858   0.736   1.408   1.592 -0.5082  0.1811 -0.1450
 5799SOL    HW128859   0.789   1.431   1.668  2.1167 -2.3423 -1.2159
 5799SOL    HW228860   0.656   1.368   1.627 -1.1730  0.7970 -0.9719
 5800SOL     OW28861   1.427   2.372  14.173  0.2464  0.4143  0.0009
 5800SOL    HW128862   1.382   2.423  14.240  1.1180  0.8913  0.2291
 5800SOL    HW228863   1.475   2.441  14.127  2.0147 -1.2134 -0.6072
 5801SOL     OW28864   4.147   2.398   0.266  0.2587  0.4385  0.7658
 5801SOL    HW128865   4.071   2.370   0.216  1.3846 -0.5106 -0.4107
 5801SOL    HW228866   4.103   2.477   0.299  0.1962  0.1528  1.3578
 5802SOL     OW28867   4.314   3.392   4.296 -1.0712 -0.2079  0.5391
 5802SOL    HW128868   4.334   3.350   4.379  0.8802 -0.3687 -0.0087
 5802SOL    HW228869   4.373   3.350   4.233 -1.3446  0.2021  0.0038
 5803SOL     OW28870   2.359   1.405   7.213  0.2768 -0.5340 -0.4782
 5803SOL    HW128871   2.266   1.417   7.190  0.1358  0.7537  0.7980
 5803SOL    HW228872   2.368   1.490   7.256  3.1728 -1.9821  1.7155
 5804SOL     OW28873   1.218   4.003   9.952 -0.5236 -0.3538  0.2223
 5804SOL    HW128874   1.221   4.089   9.912  1.5632 -0.7504 -0.4691
 5804SOL    HW228875   1.305   3.972   9.930 -0.4872 -2.2619  2.9697
 5805SOL     OW28876   2.043   0.029   1.968  0.1429 -0.0653  0.4451
 5805SOL    HW128877   2.086   0.111   1.944  2.4820 -1.7931 -1.2905
 5805SOL    HW228878   2.005   0.052   2.053  0.1560  1.1795  0.1082
 5806SOL     OW28879   4.276   3.371   5.684  0.6498  0.7958 -0.6951
 5806SOL    HW128880   4.356   3.329   5.652  0.9221 -0.4503  1.6725
 5806SOL    HW228881   4.211   3.302   5.670  0.0926  0.4849  3.4466
 5807SOL     OW28882   3.849   0.894  15.269 -0.4268 -0.1067 -0.2650
 5807SOL    HW128883   3.775   0.898  15.207 -1.3390  0.3053  0.8413
 5807SOL    HW228884   3.857   0.983  15.303  1.0120 -0.0700 -0.7045
 5808SOL     OW28885   1.971   2.161   0.197  0.3578 -0.1179  0.5691
 5808SOL    HW128886   1.920   2.094   0.150  1.1969 -0.7341  0.5300
 5808SOL    HW228887   1.899   2.189   0.254  0.9623 -1.6062  2.0630
 5809SOL     OW28888   4.364   2.828   5.520  0.8892 -0.0026 -0.5676
 5809SOL    HW128889   4.375   2.817   5.426 -0.3467 -1.7355 -0.5059
 5809SOL    HW228890   4.339   2.742   5.555 -1.6293  0.5775 -0.9008
 5810SOL     OW28891   0.143   2.123   7.964  0.6152 -0.1849  0.4306
 5810SOL    HW128892   0.228   2.080   7.963  0.3925 -0.5800 -1.2691
 5810SOL    HW228893   0.155   2.214   7.935  0.1488 -0.5567 -0.9454
 5811SOL     OW28894   0.390   1.938   6.308  0.4706  0.5850 -0.5827
 5811SOL    HW128895   0.391   1.905   6.218 -0.3811 -0.9840 -0.0317
 5811SOL    HW228896   0.321   1.888   6.353  0.4666  1.5346  0.4528
 5812SOL     OW28897   0.856   4.363   0.310  0.7172  0.3094  0.0103
 5812SOL    HW128898   0.878   4.287   0.256  2.5047  0.7501  0.0974
 5812SOL    HW228899   0.803   4.321   0.377  1.8976  1.3296  1.5802
 5813SOL     OW28900   1.067   0.201  14.364  0.3167 -0.0280  0.4682
 5813SOL    HW128901   1.088   0.226  14.274  0.7259 -1.9244  0.0322
 5813SOL    HW228902   1.130   0.253  14.415  1.8907 -0.1120 -1.3786
 5814SOL     OW28903   0.614   0.143   9.400 -0.4478 -0.4837  0.3456
 5814SOL    HW128904   0.678   0.072   9.406  0.2790  0.2889  1.6260
 5814SOL    HW228905   0.572   0.111   9.320  0.9741  1.6011 -1.2289
 5815SOL     OW28906   4.363   2.128   6.444 -0.4117 -0.7028  1.0692
 5815SOL    HW128907   4.267   2.121   6.446 -0.3652 -1.6548  0.0990
 5815SOL    HW228908   4.378   2.188   6.517  2.5529 -0.9312  0.6605
 5816SOL     OW28909   3.541   0.203  10.214  0.2317 -0.1345  0.5427
 5816SOL    HW128910   3.572   0.291  10.235  0.8388 -0.7198  2.0281
 5816SOL    HW228911   3.449   0.222  10.193 -0.0647 -0.5334  1.4849
 5817SOL     OW28912   0.252   0.956  16.038  0.0309  0.7555 -0.4526
 5817SOL    HW128913   0.316   0.982  16.105 -2.0122  0.5384  1.5613
 5817SOL    HW228914   0.255   1.039  15.989 -0.6537  1.9621  1.5583
 5818SOL     OW28915   3.832   2.381  16.927 -0.6496 -0.6452 -0.1284
 5818SOL    HW128916   3.823   2.409  16.836  1.4635 -2.5289 -0.9116
 5818SOL    HW228917   3.802   2.290  16.919 -2.4183 -0.1769  1.0262
 5819SOL     OW28918   3.801   0.225  10.366 -0.0380  0.6787  0.1324
 5819SOL    HW128919   3.781   0.151  10.310 -1.3190  0.3889  0.9698
 5819SOL    HW228920   3.784   0.300  10.309  0.4956  0.9872  0.3811
 5820SOL     OW28921   1.555   0.278   7.501 -0.2903 -0.1589  0.5349
 5820SOL    HW128922   1.582   0.188   7.520  0.4523 -0.0758 -0.1619
 5820SOL    HW228923   1.460   0.266   7.494 -0.2561 -0.1843  0.1467
 5821SOL     OW28924   3.392   0.466   7.732 -0.4187 -0.5165  0.6668
 5821SOL    HW128925   3.391   0.558   7.761 -0.7447 -0.1429 -0.5113
 5821SOL    HW228926   3.415   0.483   7.641 -2.1420 -0.7345  0.1889
 5822SOL     OW28927   4.665   0.132   7.684 -0.4784 -0.1558 -0.8029
 5822SOL    HW128928   4.622   0.122   7.600 -0.0551 -0.5334 -0.9711
 5822SOL    HW228929   4.606   0.189   7.734  2.9368  1.7127  1.1432
 5823SOL     OW28930   0.099   3.635   6.795  0.7984 -0.0148  0.1672
 5823SOL    HW128931   0.176   3.580   6.782 -0.3284 -1.3022 -1.1476
 5823SOL    HW228932   0.087   3.652   6.701  0.9759  1.8598  0.4844
 5824SOL     OW28933   0.392   0.806   1.018 -0.6819 -0.5872  0.4804
 5824SOL    HW128934   0.380   0.895   0.984 -0.9270 -0.5380  0.7032
 5824SOL    HW228935   0.447   0.768   0.949  1.0757  0.4776  1.2980
 5825SOL     OW28936   0.099   0.406  10.017 -0.0330 -0.4596  0.1262
 5825SOL    HW128937   0.013   0.398  10.058  0.6309 -0.9039  1.4566
 5825SOL    HW228938   0.156   0.378  10.089  2.2134 -1.9966 -2.2368
 5826SOL     OW28939   1.353   1.524  16.251 -0.2249  0.0131 -0.4002
 5826SOL    HW128940   1.276   1.500  16.303 -0.5885  0.1701 -0.8525
 5826SOL    HW228941   1.337   1.474  16.171  1.5141 -0.6881 -0.2863
 5827SOL     OW28942   1.656   2.202  16.121 -0.1107 -0.1568  0.9907
 5827SOL    HW128943   1.620   2.127  16.169 -0.7901 -1.1814 -1.1286
 5827SOL    HW228944   1.586   2.215  16.058  1.2475  2.2077 -0.0412
 5828SOL     OW28945   3.523   0.538   1.488  0.4967  0.7495 -0.4043
 5828SOL    HW128946   3.575   0.491   1.554  0.2068 -0.1824 -0.8320
 5828SOL    HW228947   3.458   0.469   1.470 -1.9941  2.8549  0.5692
 5829SOL     OW28948   4.056   1.326   5.878 -0.1938  0.2498 -0.6838
 5829SOL    HW128949   3.989   1.393   5.861 -0.7452  0.6462  3.2126
 5829SOL    HW228950   4.124   1.356   5.818  0.0543  3.8129  1.3974
 5830SOL     OW28951   0.221   2.087   7.212  0.0351 -0.2185  0.1746
 5830SOL    HW128952   0.188   2.046   7.291  0.6634 -2.5481 -0.7705
 5830SOL    HW228953   0.261   2.011   7.168  0.7747  0.6243 -0.6262
 5831SOL     OW28954   2.177   4.172   4.710  0.3632  0.3935 -0.3926
 5831SOL    HW128955   2.270   4.195   4.706  0.1244  1.5117  0.6104
 5831SOL    HW228956   2.160   4.122   4.631 -0.6502 -1.1382  0.8041
 5832SOL     OW28957   0.563   3.897   6.755  0.4266  0.1147 -0.9636
 5832SOL    HW128958   0.576   3.920   6.847 -0.7896  1.7320 -1.2001
 5832SOL    HW228959   0.474   3.863   6.760  1.4883 -2.4363  1.0337
 5833SOL     OW28960   4.399   0.700  10.848  0.4167 -0.0349 -0.0244
 5833SOL    HW128961   4.393   0.779  10.794  0.8345 -0.1563 -0.2511
 5833SOL    HW228962   4.394   0.739  10.935 -0.5744 -0.6649  0.1998
 5834SOL     OW28963   3.153   3.408   6.628 -0.2081  0.5952  0.3934
 5834SOL    HW128964   3.101   3.332   6.654  0.3837  0.1586  0.3080
 5834SOL    HW228965   3.157   3.391   6.534 -0.3383 -1.2932  0.7222
 5835SOL     OW28966   2.012   3.590   6.877 -0.1227  0.2247  0.2658
 5835SOL    HW128967   2.004   3.548   6.792 -0.3244 -2.3073  1.5226
 5835SOL    HW228968   1.929   3.635   6.894 -0.6320 -1.4169  2.2132
 5836SOL     OW28969   2.867   3.704   4.497 -0.5234  0.0410 -0.6928
 5836SOL    HW128970   2.797   3.740   4.552 -1.4430 -2.2266 -0.3987
 5836SOL    HW228971   2.899   3.775   4.442  1.0772  0.4139  0.7185
 5837SOL     OW28972   3.841   0.428   2.760  0.9190 -0.1499  0.4654
 5837SOL    HW128973   3.828   0.359   2.825  0.5700 -0.7709 -0.2511
 5837SOL    HW228974   3.795   0.495   2.811 -0.3608 -1.6612  1.3177
 5838SOL     OW28975   3.449   2.676   7.381  0.5611 -0.0571  0.4378
 5838SOL    HW128976   3.399   2.680   7.463  1.6376  2.8832  0.9455
 5838SOL    HW228977   3.529   2.718   7.412  0.5755  0.5204 -0.3748
 5839SOL     OW28978   2.770   0.559   6.229 -0.2685  0.4879 -0.0501
 5839SOL    HW128979   2.722   0.641   6.242  2.8951  2.8198 -2.8300
 5839SOL    HW228980   2.788   0.528   6.317 -3.8917 -2.2528 -0.2987
 5840SOL     OW28981   4.519   0.909   2.392 -0.3295 -0.8173 -0.9042
 5840SOL    HW128982   4.439   0.886   2.344 -0.2491 -3.1086  0.0222
 5840SOL    HW228983   4.592   0.851   2.368 -0.7214 -1.6832 -0.0353
 5841SOL     OW28984   4.304   0.072   4.715  0.5782  0.4597 -0.8491
 5841SOL    HW128985   4.388   0.115   4.728 -0.0926  1.7377 -0.7817
 5841SOL    HW228986   4.320   0.021   4.636  1.4843 -0.4469 -0.0863
 5842SOL     OW28987   0.470   4.598   7.625 -0.0266 -0.0515 -0.5611
 5842SOL    HW128988   0.429   4.617   7.541  2.3476  2.4865 -1.1451
 5842SOL    HW228989   0.503   4.687   7.637  1.2802 -0.7542  1.1499
 5843SOL     OW28990   1.674   0.290   6.113 -0.3930 -0.2941  0.0111
 5843SOL    HW128991   1.692   0.204   6.076 -1.3789 -0.9348  1.0179
 5843SOL    HW228992   1.649   0.340   6.035 -0.1935 -0.6432 -0.2752
 5844SOL     OW28993   3.851   0.912   5.180  0.4072 -0.1274  0.2860
 5844SOL    HW128994   3.884   0.822   5.187 -1.2062 -0.5854  2.0073
 5844SOL    HW228995   3.759   0.893   5.167  0.6122 -1.1733  0.3313
 5845SOL     OW28996   2.346   1.524  17.559  0.6267 -0.4158 -0.1374
 5845SOL    HW128997   2.380   1.502  17.646  0.1716 -0.3088  0.0677
 5845SOL    HW228998   2.257   1.499  17.584 -1.0365  2.4812 -3.1969
 5846SOL     OW28999   0.750   2.420  14.755 -0.4281  0.0797  0.2309
 5846SOL    HW129000   0.685   2.415  14.825  0.3929 -1.0504  0.9231
 5846SOL    HW229001   0.806   2.493  14.783  2.6302 -1.5034 -1.7594
 5847SOL     OW29002   1.160   3.318   5.417 -0.9608 -0.1434 -0.3616
 5847SOL    HW129003   1.193   3.406   5.399  0.9761 -0.7546  0.2441
 5847SOL    HW229004   1.121   3.298   5.331 -1.2514 -1.1192 -0.0019
 5848SOL     OW29005   3.876   3.770   3.434  0.4751  0.2292 -0.5547
 5848SOL    HW129006   3.830   3.814   3.363  1.1083  0.8654 -0.5607
 5848SOL    HW229007   3.807   3.782   3.500 -0.2110 -1.0326 -1.0441
 5849SOL     OW29008   4.097   3.256  10.317 -0.0112  0.1246  0.1011
 5849SOL    HW129009   4.112   3.332  10.373 -2.9460  1.4914 -0.9401
 5849SOL    HW229010   4.169   3.262  10.255  2.1501 -2.2851  2.3770
 5850SOL     OW29011   0.197   1.349   1.829 -0.3296  0.7158 -0.1547
 5850SOL    HW129012   0.273   1.396   1.861 -0.5680 -0.3999  2.0255
 5850SOL    HW229013   0.137   1.423   1.833 -0.6909  0.4635 -0.7188
 5851SOL     OW29014   4.000   2.460   8.974  0.1206  0.4451  0.0873
 5851SOL    HW129015   3.961   2.441   8.889  0.0887 -2.7106  0.8277
 5851SOL    HW229016   3.967   2.548   8.996 -0.2252  0.1086  0.9219
 5852SOL     OW29017   2.647   2.369  14.074 -0.0890  0.3582  0.3128
 5852SOL    HW129018   2.647   2.389  14.168  1.4756  0.6709  0.2429
 5852SOL    HW229019   2.721   2.309  14.071 -0.1151  0.3714 -0.4981
 5853SOL     OW29020   1.458   1.339  12.920 -0.1745  0.0145  0.2378
 5853SOL    HW129021   1.437   1.272  12.985 -3.2956  0.0569 -0.7501
 5853SOL    HW229022   1.492   1.407  12.978  2.4141 -0.5686 -0.6010
 5854SOL     OW29023   0.604   0.102   7.661 -0.3394 -0.0857  0.6181
 5854SOL    HW129024   0.560   0.175   7.617  1.2944 -0.0058 -0.8611
 5854SOL    HW229025   0.590   0.128   7.752  1.6573  0.2743  0.8102
 5855SOL     OW29026   4.085   3.213   4.180  0.3629  0.4015 -0.3346
 5855SOL    HW129027   4.117   3.230   4.092 -0.1279  0.8992 -0.4159
 5855SOL    HW229028   4.167   3.240   4.221  0.4373  0.5908 -0.6114
 5856SOL     OW29029   0.848   3.464   4.202  0.0678 -0.0152  0.3052
 5856SOL    HW129030   0.775   3.402   4.205  1.3396 -1.6099 -1.9565
 5856SOL    HW229031   0.803   3.548   4.198 -1.0167 -0.5173  1.7050
 5857SOL     OW29032   1.358   1.087  12.790 -0.0802  0.1516 -0.0443
 5857SOL    HW129033   1.434   1.085  12.847  1.0588 -1.6679 -1.6398
 5857SOL    HW229034   1.406   1.057  12.713  0.4320 -1.1758  0.8021
 5858SOL     OW29035   1.916   0.361   2.810 -0.5325  0.2049 -0.1101
 5858SOL    HW129036   1.904   0.274   2.773  0.3308 -1.1451  2.7506
 5858SOL    HW229037   1.994   0.387   2.761 -0.1359 -1.4371 -0.3485
 5859SOL     OW29038   4.127   4.185   5.984  0.0480 -0.6401  0.0419
 5859SOL    HW129039   4.034   4.204   5.986  0.3333  0.7494 -0.3886
 5859SOL    HW229040   4.139   4.116   6.050  0.0028  0.1611  0.8898
 5860SOL     OW29041   1.310   2.716  11.045  0.0307  0.7473 -0.3062
 5860SOL    HW129042   1.364   2.640  11.067  1.5718  2.2095  0.9668
 5860SOL    HW229043   1.309   2.752  11.133 -2.5169 -0.0287 -0.0131
 5861SOL     OW29044   2.014   0.473   5.237  0.0529 -0.1022 -0.7255
 5861SOL    HW129045   1.925   0.458   5.207 -0.3300 -0.5663  0.6869
 5861SOL    HW229046   2.067   0.429   5.170  0.1621  0.5888 -1.0996
 5862SOL     OW29047   3.459   4.338   7.519  0.3715  0.5056  0.0740
 5862SOL    HW129048   3.388   4.332   7.455 -0.3424 -0.4476  0.9526
 5862SOL    HW229049   3.416   4.305   7.598 -1.4065  0.0979 -1.0614
 5863SOL     OW29050   2.817   4.569   4.086 -0.7959 -0.4169 -0.6002
 5863SOL    HW129051   2.889   4.507   4.096 -1.2503 -1.1372 -1.6748
 5863SOL    HW229052   2.768   4.570   4.168 -2.5561  0.7738 -1.6690
 5864SOL     OW29053   2.412   1.805   5.009  0.2450  0.0496  0.3485
 5864SOL    HW129054   2.502   1.774   5.002 -0.4571 -1.6617 -1.1769
 5864SOL    HW229055   2.426   1.885   4.959 -2.2096  0.4307  0.2736
 5865SOL     OW29056   0.651   3.585   1.069 -0.2152 -0.2057  0.5554
 5865SOL    HW129057   0.744   3.600   1.052 -0.5889  2.6436  1.0377
 5865SOL    HW229058   0.635   3.516   1.004 -1.2656 -1.1326  1.7932
 5866SOL     OW29059   2.203   2.547  14.435 -0.5569 -0.1922 -0.6680
 5866SOL    HW129060   2.296   2.533  14.454 -0.8111 -1.1752 -0.1301
 5866SOL    HW229061   2.180   2.630  14.477 -0.8589 -1.4554  1.7057
 5867SOL     OW29062   2.488   2.303  14.448  0.1256  0.3769  0.2502
 5867SOL    HW129063   2.557   2.342  14.393 -0.7361  3.1332  1.1688
 5867SOL    HW229064   2.469   2.380  14.501 -0.3131  0.3736  0.0956
 5868SOL     OW29065   0.989   1.169   8.787 -0.5071  0.2280  0.1842
 5868SOL    HW129066   1.001   1.260   8.811  1.0472 -0.1060  0.6785
 5868SOL    HW229067   0.986   1.124   8.871  2.1324 -0.2209  0.0382
 5869SOL     OW29068   2.163   3.236   3.965  0.3774  0.0764 -0.0201
 5869SOL    HW129069   2.137   3.211   3.876 -1.9509  1.0616  0.3960
 5869SOL    HW229070   2.082   3.229   4.014  0.0619 -1.8803 -0.8351
 5870SOL     OW29071   1.913   1.863   5.200 -0.1390 -0.3454 -0.2103
 5870SOL    HW129072   1.992   1.915   5.186  0.6197 -1.5178 -0.3464
 5870SOL    HW229073   1.848   1.918   5.244 -0.1544  0.9580 -1.8664
 5871SOL     OW29074   0.863   2.537  15.972  0.0232 -0.5365 -0.1041
 5871SOL    HW129075   0.821   2.615  15.935 -0.4565 -0.4250  0.6761
 5871SOL    HW229076   0.799   2.496  16.030 -0.0695 -2.7312 -1.7749
 5872SOL     OW29077   1.750   2.562   1.872  0.1792 -0.7591  0.1248
 5872SOL    HW129078   1.723   2.580   1.782  0.3251  2.5668  0.7472
 5872SOL    HW229079   1.670   2.543   1.921  0.2885 -0.4344  0.4293
 5873SOL     OW29080   0.497   1.717   3.317 -0.2127 -0.6808  0.5188
 5873SOL    HW129081   0.437   1.760   3.378  0.0832 -0.0532  0.3688
 5873SOL    HW229082   0.571   1.720   3.377 -0.1646  2.6648  0.3130
 5874SOL     OW29083   0.163   4.448   7.034  0.1469  0.0080  0.3697
 5874SOL    HW129084   0.147   4.368   7.085  2.4591  0.4492  1.7802
 5874SOL    HW229085   0.111   4.427   6.957  0.9235 -1.9591  0.4031
 5875SOL     OW29086   0.192   3.285   5.282 -0.4601 -0.1070 -0.3261
 5875SOL    HW129087   0.205   3.190   5.282 -1.2965 -0.2238 -1.1610
 5875SOL    HW229088   0.128   3.303   5.350  0.9591 -0.0522  0.9821
 5876SOL     OW29089   2.901   3.380   1.225  0.2144  0.4255 -0.1515
 5876SOL    HW129090   2.835   3.448   1.235  1.5751  1.6207  0.7739
 5876SOL    HW229091   2.973   3.436   1.196  1.0912 -0.8552 -0.4219
 5877SOL     OW29092   1.453   4.069   5.282  0.1877  0.0121  0.0165
 5877SOL    HW129093   1.492   4.110   5.360  0.4355 -1.3457  0.6056
 5877SOL    HW229094   1.487   3.980   5.277 -0.7251 -0.3941  1.0833
 5878SOL     OW29095   1.432   3.697   0.418  0.7740 -0.1319  0.2781
 5878SOL    HW129096   1.396   3.672   0.503  0.0179  2.5578  0.7385
 5878SOL    HW229097   1.464   3.622   0.367 -0.9685  0.3385 -1.5234
 5879SOL     OW29098   0.173   3.610   3.301  0.3857  0.4392  0.0701
 5879SOL    HW129099   0.091   3.659   3.304 -0.2371 -0.5616 -0.3635
 5879SOL    HW229100   0.162   3.578   3.211  0.2362 -0.2373  0.3317
 5880SOL     OW29101   3.746   4.515   6.549 -0.5142  0.4286 -0.5942
 5880SOL    HW129102   3.651   4.525   6.545 -0.0119  4.2168 -3.1409
 5880SOL    HW229103   3.759   4.448   6.616  0.3688 -0.7266 -1.9263
 5881SOL     OW29104   2.977   1.187   0.678  0.1303  0.2032 -0.0217
 5881SOL    HW129105   2.991   1.157   0.767  1.1822  0.4466 -0.1116
 5881SOL    HW229106   3.028   1.118   0.636  0.5009  2.2309 -2.9552
 5882SOL     OW29107   0.977   1.280   4.541  0.4171  0.1877  0.8015
 5882SOL    HW129108   0.919   1.234   4.602 -1.2331  2.0991  0.7001
 5882SOL    HW229109   0.912   1.342   4.508 -0.4309 -1.3714 -0.4359
 5883SOL     OW29110   3.283   2.993   6.354  0.2283 -0.1511  0.2352
 5883SOL    HW129111   3.314   3.054   6.420  0.6230 -0.2866  0.1769
 5883SOL    HW229112   3.211   2.952   6.403 -1.9346  2.9231 -0.3506
 5884SOL     OW29113   0.928   2.853  10.999  0.5266 -0.2425 -0.0447
 5884SOL    HW129114   1.012   2.863  10.956  0.9074  0.8468  0.9588
 5884SOL    HW229115   0.895   2.771  10.962 -0.0794 -0.1336  0.2401
 5885SOL     OW29116   1.886   2.819  12.189 -0.0706  0.1020  0.2492
 5885SOL    HW129117   1.933   2.779  12.116  0.0553 -0.1809  0.4864
 5885SOL    HW229118   1.799   2.834  12.153  0.3056  0.2893 -0.5686
 5886SOL     OW29119   2.567   1.017   8.090  0.5621 -0.2820 -0.1533
 5886SOL    HW129120   2.557   1.057   8.003 -0.2649  0.6283  0.3621
 5886SOL    HW229121   2.530   0.930   8.076  1.8927 -0.4501 -2.7607
 5887SOL     OW29122   3.778   0.668   2.116 -0.2987  0.3629 -0.5966
 5887SOL    HW129123   3.704   0.608   2.102 -2.2177  2.2789  1.3149
 5887SOL    HW229124   3.733   0.743   2.156  1.1127 -1.0423  3.6834
 5888SOL     OW29125   0.432   0.136   5.447 -0.5546  0.1346 -0.0191
 5888SOL    HW129126   0.376   0.104   5.376  0.4125  0.5971 -0.9842
 5888SOL    HW229127   0.446   0.053   5.493 -1.2596  0.1758  0.2630
 5889SOL     OW29128   2.926   1.699   3.593 -0.2783  0.0797 -0.4850
 5889SOL    HW129129   2.971   1.783   3.582 -0.8863  0.3993 -0.5592
 5889SOL    HW229130   3.003   1.644   3.602 -0.3352 -0.0720 -0.9096
 5890SOL     OW29131   3.818   1.510  17.463  0.7118  0.4715  0.4960
 5890SOL    HW129132   3.773   1.585  17.424 -0.7310 -0.4555  0.4012
 5890SOL    HW229133   3.850   1.559  17.539  0.5926 -0.5197  1.1894
 5891SOL     OW29134   2.457   0.260   3.841 -0.2627 -0.2194 -0.5648
 5891SOL    HW129135   2.432   0.201   3.912 -1.9674 -0.3781 -1.2973
 5891SOL    HW229136   2.502   0.201   3.782  1.0615 -0.1724  0.4057
 5892SOL     OW29137   2.154   1.092  17.192 -0.3531  0.2535 -0.2648
 5892SOL    HW129138   2.217   1.164  17.195 -0.6074  0.5257 -1.3475
 5892SOL    HW229139   2.205   1.041  17.129  0.5389 -2.1412  2.4111
 5893SOL     OW29140   4.344   4.674   1.517 -0.7625  0.2577  0.0175
 5893SOL    HW129141   4.276   4.713   1.462 -2.1229 -1.3856  0.5360
 5893SOL    HW229142   4.346   4.711   1.605 -2.0257 -1.7180  0.8976
 5894SOL     OW29143   0.307   0.024   5.235  0.2551 -0.8956  0.2717
 5894SOL    HW129144   0.381   0.030   5.174 -1.3547  0.5066 -1.5282
 5894SOL    HW229145   0.231   0.043   5.180 -0.7713 -3.8799  0.6321
 5895SOL     OW29146   3.255   0.070   6.260  0.2983 -0.0938  0.1405
 5895SOL    HW129147   3.312   4.722   6.284 -0.6042 -0.8084  0.1370
 5895SOL    HW229148   3.169   0.031   6.242  0.1086  0.5974 -0.4378
 5896SOL     OW29149   3.139   3.424   9.403  0.0249  0.4062 -0.4770
 5896SOL    HW129150   3.124   3.519   9.409  1.5840  0.6091  0.1394
 5896SOL    HW229151   3.096   3.396   9.484 -3.1594 -2.2105 -3.0642
 5897SOL     OW29152   2.305   1.501   4.553 -0.1957  0.2718 -0.3703
 5897SOL    HW129153   2.300   1.562   4.627 -0.7055  1.8579 -1.7057
 5897SOL    HW229154   2.357   1.427   4.583  1.3196  0.9084 -1.4670
 5898SOL     OW29155   1.140   1.157   0.984  0.2918  0.4659  0.3930
 5898SOL    HW129156   1.170   1.240   0.947 -1.8359  1.4164  0.7923
 5898SOL    HW229157   1.123   1.174   1.077 -1.1676  0.6589  0.0890
 5899SOL     OW29158   3.183   3.494   5.066 -0.1016 -0.6036 -0.3263
 5899SOL    HW129159   3.144   3.460   5.146  0.5870 -0.3462  0.1172
 5899SOL    HW229160   3.262   3.534   5.103 -0.7791 -0.9025  1.4153
 5900SOL     OW29161   3.656   1.829  14.020  0.2818  0.2539  0.4001
 5900SOL    HW129162   3.634   1.915  13.985 -2.2868 -0.3568  0.4812
 5900SOL    HW229163   3.568   1.792  14.012 -0.0788  1.4718 -1.1793
 5901SOL     OW29164   2.802   3.382  12.352 -0.4359 -0.0593 -0.1361
 5901SOL    HW129165   2.806   3.459  12.295 -1.4266 -1.0049 -1.4903
 5901SOL    HW229166   2.861   3.323  12.305  0.5561 -0.7145  1.9648
 5902SOL     OW29167   2.644   0.093   9.029 -0.7648 -0.7677  0.5305
 5902SOL    HW129168   2.646   4.723   9.014  1.1078 -0.1709 -3.1787
 5902SOL    HW229169   2.697   0.109   8.951 -0.7685  2.7592  1.2704
 5903SOL     OW29170   0.647   4.553   0.446  0.2100 -0.1207 -0.1137
 5903SOL    HW129171   0.640   4.499   0.525  0.1309 -0.0637 -0.0807
 5903SOL    HW229172   0.565   4.532   0.401 -1.9737  0.5960  3.5030
 5904SOL     OW29173   1.273   3.141  11.868  0.5864  0.1960  0.1397
 5904SOL    HW129174   1.341   3.206  11.884 -0.1015  0.5491  1.6012
 5904SOL    HW229175   1.212   3.195  11.819  0.6137 -0.2260 -0.3563
 5905SOL     OW29176   1.220   2.937   1.062  0.5787  0.7364  0.2711
 5905SOL    HW129177   1.263   2.925   0.978 -0.8435 -1.9223 -0.0587
 5905SOL    HW229178   1.141   2.982   1.031  0.6079  0.7202  0.1723
 5906SOL     OW29179   0.873   4.125   2.300  0.0376  0.4646  0.3190
 5906SOL    HW129180   0.802   4.072   2.264  1.5160 -0.3852 -1.3544
 5906SOL    HW229181   0.911   4.073   2.370  0.9186  3.1192  1.8141
 5907SOL     OW29182   0.941   3.813   4.419 -0.0303 -0.0791 -0.0536
 5907SOL    HW129183   0.981   3.747   4.475  0.2851  0.0938 -0.0776
 5907SOL    HW229184   1.024   3.824   4.372 -0.1367  1.7870  0.2225
 5908SOL     OW29185   0.899   0.360   1.961 -0.4955  0.4739  0.6574
 5908SOL    HW129186   0.836   0.345   2.031 -0.5566 -3.3968 -0.1969
 5908SOL    HW229187   0.833   0.374   1.893 -0.9623  1.7492  1.3736
 5909SOL     OW29188   3.111   4.233  16.043  0.2168 -0.4685 -0.2066
 5909SOL    HW129189   3.117   4.193  16.129  0.4617  0.5388  0.2441
 5909SOL    HW229190   3.155   4.158  16.003 -1.6490 -1.3536 -0.5807
 5910SOL     OW29191   0.838   4.298   7.445 -0.6661 -0.2142  0.0026
 5910SOL    HW129192   0.783   4.357   7.496 -0.0758  1.8621 -1.7339
 5910SOL    HW229193   0.915   4.355   7.446 -1.1105  0.3618  0.6300
 5911SOL     OW29194   2.966   4.130   2.650 -0.2944 -0.0728 -0.2198
 5911SOL    HW129195   2.946   4.047   2.695  2.0645 -0.1683  0.6814
 5911SOL    HW229196   3.008   4.101   2.569  0.9943 -0.5142  0.5980
 5912SOL     OW29197   0.707   1.370   4.778 -0.3778  0.1527 -0.0047
 5912SOL    HW129198   0.762   1.295   4.799  1.2224  1.2880 -0.2034
 5912SOL    HW229199   0.622   1.331   4.755  0.5095  0.4415 -3.6763
 5913SOL     OW29200   1.551   2.645  17.094  0.2891 -0.3695 -0.3326
 5913SOL    HW129201   1.628   2.591  17.109  1.2291  1.5770  1.9092
 5913SOL    HW229202   1.512   2.584  17.031  2.0393 -0.2505 -1.5183
 5914SOL     OW29203   1.475   1.249   6.462  0.1462  0.1962 -0.4885
 5914SOL    HW129204   1.400   1.297   6.425  0.4085  1.0629  0.0989
 5914SOL    HW229205   1.543   1.314   6.443 -0.3600  0.6226 -0.8365
 5915SOL     OW29206   0.293   3.923   4.863 -0.6108  0.0272 -0.0937
 5915SOL    HW129207   0.376   3.886   4.894 -1.0439 -1.0654 -0.2390
 5915SOL    HW229208   0.264   3.994   4.920  2.2643  0.5341  0.7377
 5916SOL     OW29209   2.947   2.908   6.788  0.2035 -0.4805 -0.5893
 5916SOL    HW129210   2.876   2.852   6.757 -0.1538 -0.3870  0.0454
 5916SOL    HW229211   3.010   2.838   6.803 -0.8147 -0.8460  1.9952
 5917SOL     OW29212   0.468   1.640   8.899 -0.0101 -0.2787  0.0233
 5917SOL    HW129213   0.501   1.587   8.972 -1.1250 -0.2464  0.5450
 5917SOL    HW229214   0.546   1.671   8.854 -0.2930  1.0216  0.4418
 5918SOL     OW29215   2.844   4.155   4.009 -0.0708 -0.5230 -0.2186
 5918SOL    HW129216   2.758   4.172   4.048  0.7997  1.7926  0.7212
 5918SOL    HW229217   2.891   4.220   4.062 -0.2413  0.1340 -0.8750
 5919SOL     OW29218   1.050   4.633   1.804  0.6684 -0.0799  0.2819
 5919SOL    HW129219   1.084   4.544   1.820 -1.6329 -0.9833  0.1366
 5919SOL    HW229220   1.070   4.635   1.710 -0.6738  0.1914  0.0079
 5920SOL     OW29221   1.793   0.347   0.643  0.0925  0.3529  0.2819
 5920SOL    HW129222   1.740   0.268   0.638 -1.4206  1.4321 -1.1268
 5920SOL    HW229223   1.810   0.345   0.737  1.3082  0.4017  0.0665
 5921SOL     OW29224   4.296   2.215  16.018  0.0715 -0.3292 -0.2153
 5921SOL    HW129225   4.385   2.250  16.022 -1.2088  2.7959  1.0914
 5921SOL    HW229226   4.272   2.250  15.932  1.9926  0.1319 -0.5623
 5922SOL     OW29227   3.005   3.934   3.002  0.9329  0.1237  0.2330
 5922SOL    HW129228   2.961   3.855   3.032  0.1767  0.5757  0.3235
 5922SOL    HW229229   3.022   3.912   2.911 -1.5189 -1.2789  0.1150
 5923SOL     OW29230   4.692   1.253   6.211 -0.2344  0.1078 -0.6571
 5923SOL    HW129231   4.640   1.173   6.218  0.4145 -0.3426 -0.9291
 5923SOL    HW229232   4.708   1.270   6.304  0.7290  0.4694 -0.8904
 5924SOL     OW29233   0.983   0.899  12.736 -0.3151 -0.9078 -0.3215
 5924SOL    HW129234   1.011   0.941  12.655 -1.3893 -0.9429 -0.7105
 5924SOL    HW229235   0.888   0.906  12.744 -0.2852 -2.1136  1.2077
 5925SOL     OW29236   3.929   2.474   6.908 -0.0169  0.2987  0.0112
 5925SOL    HW129237   3.901   2.539   6.972 -2.7546  0.9847 -1.8884
 5925SOL    HW229238   4.021   2.463   6.933 -1.2906 -1.6391  3.8480
 5926SOL     OW29239   1.612   3.113   8.079  0.7893 -0.3260  0.6620
 5926SOL    HW129240   1.671   3.136   8.150 -0.2503  1.0058  1.1140
 5926SOL    HW229241   1.644   3.029   8.049  1.7561 -0.9757  3.5577
 5927SOL     OW29242   0.291   2.902  11.591  0.4255  0.1780 -0.6010
 5927SOL    HW129243   0.357   2.966  11.620 -1.3356  2.9745 -2.7824
 5927SOL    HW229244   0.219   2.964  11.575  1.1663  0.5487 -2.4748
 5928SOL     OW29245   2.618   2.695  17.494  0.1125 -0.0168 -0.0098
 5928SOL    HW129246   2.662   2.652  17.421  1.2398 -1.3088  1.4267
 5928SOL    HW229247   2.686   2.732  17.551  0.4905 -1.0608  0.2109
 5929SOL     OW29248   2.600   2.262  17.213  1.2197  0.4304 -0.0823
 5929SOL    HW129249   2.517   2.288  17.253  0.8864  1.7555 -1.6395
 5929SOL    HW229250   2.582   2.177  17.173 -0.8363  0.6314  0.4203
 5930SOL     OW29251   2.230   0.594   9.139 -0.6800 -0.5589 -0.2055
 5930SOL    HW129252   2.259   0.631   9.055  2.3332 -0.1535  1.0482
 5930SOL    HW229253   2.285   0.649   9.194 -3.7011  2.7927 -0.5465
 5931SOL     OW29254   1.404   2.201   3.096 -0.8491 -0.3208 -0.2565
 5931SOL    HW129255   1.482   2.245   3.062 -0.3312 -1.7478 -0.8883
 5931SOL    HW229256   1.333   2.249   3.053  0.5161  1.0661 -0.9650
 5932SOL     OW29257   4.459   3.941  11.415 -0.2794 -0.6952 -0.6368
 5932SOL    HW129258   4.448   3.972  11.505  1.0345  2.3077 -1.5118
 5932SOL    HW229259   4.397   3.999  11.372 -0.3723  0.4633  1.0537
 5933SOL     OW29260   2.177   4.439   3.951 -0.0252 -0.5405 -0.4787
 5933SOL    HW129261   2.106   4.462   3.891 -0.2835 -1.5901 -0.5736
 5933SOL    HW229262   2.250   4.490   3.915 -1.5842  0.8843 -1.6302
 5934SOL     OW29263   1.412   4.201   3.714 -0.2573  0.4686  0.0742
 5934SOL    HW129264   1.464   4.227   3.791  1.4215 -2.0665 -0.1984
 5934SOL    HW229265   1.372   4.283   3.685 -0.8794 -0.1350 -0.7462
 5935SOL     OW29266   0.429   3.468   2.133 -0.0501  0.7282 -0.1767
 5935SOL    HW129267   0.480   3.469   2.053  1.4217 -0.9311  0.7582
 5935SOL    HW229268   0.494   3.407   2.166  0.9520  1.6634 -0.4163
 5936SOL     OW29269   1.715   2.646  14.676 -0.1347 -0.0748  0.0743
 5936SOL    HW129270   1.717   2.553  14.656 -0.2695 -0.2969  1.0894
 5936SOL    HW229271   1.752   2.653  14.764 -0.3397 -0.0538  0.1606
 5937SOL     OW29272   0.257   2.202   7.689  0.1020 -0.2343  0.1873
 5937SOL    HW129273   0.167   2.236   7.689 -0.6988 -2.3985 -2.6523
 5937SOL    HW229274   0.244   2.115   7.727  1.6301 -0.3326  0.4652
 5938SOL     OW29275   4.156   4.436   9.163  0.1289  0.1783 -0.1315
 5938SOL    HW129276   4.199   4.521   9.170 -0.1654  0.3263 -0.1381
 5938SOL    HW229277   4.068   4.447   9.199  0.0575  0.0996 -0.2850
 5939SOL     OW29278   1.051   2.878   7.487  0.2196 -0.2668 -0.1443
 5939SOL    HW129279   0.980   2.928   7.527  0.4273  0.6913 -0.9681
 5939SOL    HW229280   1.040   2.794   7.531  2.8020  0.1193  1.2293
 5940SOL     OW29281   1.972   2.764   0.322 -0.7045  0.1822 -0.5585
 5940SOL    HW129282   1.912   2.750   0.395  1.5121  1.3375  1.4601
 5940SOL    HW229283   1.918   2.746   0.244  2.5970 -1.3420 -2.4824
 5941SOL     OW29284   0.910   1.423   0.349  0.5288  0.9200 -0.6084
 5941SOL    HW129285   0.927   1.340   0.305 -0.4184  1.4518 -1.9868
 5941SOL    HW229286   0.996   1.464   0.342  0.7677  0.6077  0.6136
 5942SOL     OW29287   0.756   4.644   8.730 -0.2388 -0.1869  0.0380
 5942SOL    HW129288   0.721   0.008   8.734  1.9253  0.6147  0.9907
 5942SOL    HW229289   0.788   4.643   8.820  0.2918  0.0042 -0.1509
 5943SOL     OW29290   3.730   0.442  15.854  0.1202 -0.2833 -0.8055
 5943SOL    HW129291   3.767   0.357  15.878  1.6398  0.9686  1.2453
 5943SOL    HW229292   3.639   0.415  15.845 -0.0489 -0.6540  2.2055
 5944SOL     OW29293   2.962   0.904  12.103  0.1002  0.8810 -0.0591
 5944SOL    HW129294   3.033   0.967  12.113  0.1656  0.4885  1.9368
 5944SOL    HW229295   2.972   0.878  12.012 -0.7963 -0.8863  0.3505
 5945SOL     OW29296   2.523   1.793   1.067  0.2431 -0.4206 -0.0869
 5945SOL    HW129297   2.596   1.845   1.102  1.2736  0.0862 -3.0409
 5945SOL    HW229298   2.507   1.736   1.143 -1.3180 -1.5357 -1.2524
 5946SOL     OW29299   1.561   0.641   3.494 -0.0525  0.1040  0.0743
 5946SOL    HW129300   1.565   0.725   3.447  2.0008 -0.0796 -0.0683
 5946SOL    HW229301   1.482   0.603   3.455 -0.8619  1.8528 -0.0275
 5947SOL     OW29302   1.844   1.332   7.799  0.1974  0.2865  0.4014
 5947SOL    HW129303   1.937   1.324   7.820  0.3011  2.1330  0.6364
 5947SOL    HW229304   1.859   1.393   7.727  0.2705 -0.1933  0.0059
 5948SOL     OW29305   1.848   1.102   4.640 -0.2886  0.6012 -0.0940
 5948SOL    HW129306   1.773   1.157   4.664  0.0989  0.3023  1.8245
 5948SOL    HW229307   1.867   1.068   4.727  0.1523 -1.5687 -1.0305
 5949SOL     OW29308   2.574   3.478   8.116  0.0381 -0.2994  0.0191
 5949SOL    HW129309   2.592   3.396   8.161 -0.9881  0.2541  1.4223
 5949SOL    HW229310   2.596   3.468   8.023  0.9609 -1.3888  0.3492
 5950SOL     OW29311   3.210   0.786   3.555  0.1869  0.5282 -0.5258
 5950SOL    HW129312   3.149   0.734   3.503  0.0607  0.9338 -0.7899
 5950SOL    HW229313   3.288   0.789   3.501  0.2157  4.0324 -0.3244
 5951SOL     OW29314   4.653   1.009   6.563  0.2303  0.2863 -0.2055
 5951SOL    HW129315   4.559   0.994   6.564  0.5487 -1.6182 -0.3020
 5951SOL    HW229316   4.672   0.959   6.642  0.0613 -1.5407 -1.3229
 5952SOL     OW29317   1.370   1.312   3.508  0.1286  0.3355  0.2032
 5952SOL    HW129318   1.384   1.335   3.600  0.8963  0.8964 -0.0537
 5952SOL    HW229319   1.278   1.288   3.514  0.3845 -1.3123 -2.7984
 5953SOL     OW29320   3.304   0.439   6.105 -0.1597 -0.2787  0.0552
 5953SOL    HW129321   3.253   0.394   6.038  1.7266  0.4002 -1.8351
 5953SOL    HW229322   3.235   0.488   6.150  0.7625  3.3373 -2.5044
 5954SOL     OW29323   1.895   4.017  11.600  0.1966  0.9178 -0.0480
 5954SOL    HW129324   1.876   3.924  11.590  2.1682  0.4537  0.5005
 5954SOL    HW229325   1.809   4.049  11.627 -0.9672 -0.4285 -2.1981
 5955SOL     OW29326   2.208   0.162   0.783  0.5998  0.6226  0.0248
 5955SOL    HW129327   2.228   0.110   0.705  0.6336  0.3018  0.2525
 5955SOL    HW229328   2.285   0.218   0.788  0.5256  0.8974 -1.7181
 5956SOL     OW29329   0.104   2.866   0.104  0.3888 -0.3434 -0.1931
 5956SOL    HW129330   0.158   2.906   0.172  0.9067 -0.5797 -0.4666
 5956SOL    HW229331   0.110   2.932   0.035  3.6743 -0.2543  0.1675
 5957SOL     OW29332   3.094   1.637   6.208  0.3330 -0.2343  0.1728
 5957SOL    HW129333   3.113   1.576   6.279  0.8517  0.9958  1.0881
 5957SOL    HW229334   3.139   1.716   6.236  0.4172  0.3452 -1.5516
 5958SOL     OW29335   2.075   1.469   9.364  0.5657  0.5900  0.3591
 5958SOL    HW129336   2.114   1.456   9.278  1.6955 -0.8907  1.0994
 5958SOL    HW229337   2.137   1.414   9.411 -0.4786  0.8785  2.0744
 5959SOL     OW29338   3.713   4.321   9.863  0.1150  0.5862  0.0547
 5959SOL    HW129339   3.728   4.408   9.899 -0.2338  1.1456 -1.1677
 5959SOL    HW229340   3.793   4.309   9.812 -0.8956  0.2148 -1.4424
 5960SOL     OW29341   1.475   4.377   2.697 -0.3891  0.0991 -0.3651
 5960SOL    HW129342   1.438   4.416   2.618  0.6522  2.4058  0.2776
 5960SOL    HW229343   1.414   4.418   2.759  0.4843 -0.7430  1.0493
 5961SOL     OW29344   0.178   3.487   2.753  0.0380  0.2665  0.1073
 5961SOL    HW129345   0.152   3.579   2.761 -0.5125  0.1909 -0.8581
 5961SOL    HW229346   0.155   3.456   2.665 -1.3133 -4.7088  2.1816
 5962SOL     OW29347   3.929   2.509   7.894 -0.0125  0.3464  0.4833
 5962SOL    HW129348   3.915   2.598   7.863 -1.3787 -0.0703 -0.1124
 5962SOL    HW229349   3.985   2.521   7.970 -1.3536  1.0320  1.3638
 5963SOL     OW29350   4.272   3.886   0.071 -0.1189  0.0328  0.1898
 5963SOL    HW129351   4.247   3.802   0.033  0.4652  0.2979 -0.7750
 5963SOL    HW229352   4.287   3.860   0.162 -0.7915 -1.6743 -0.1733
 5964SOL     OW29353   4.255   4.698   9.116  1.0428 -0.0446  0.3365
 5964SOL    HW129354   4.201   0.052   9.118 -0.0898 -0.7968  0.0756
 5964SOL    HW229355   4.243   4.663   9.027  1.1667 -1.1653  0.7551
 5965SOL     OW29356   2.964   4.401   2.646  0.0664 -0.4405  0.1644
 5965SOL    HW129357   2.956   4.436   2.735  2.0824  0.3855  0.0316
 5965SOL    HW229358   2.936   4.311   2.665  0.5423 -0.4005  1.0719
 5966SOL     OW29359   3.696   0.877  11.962 -0.7021  1.4211 -0.7945
 5966SOL    HW129360   3.704   0.903  12.054  0.7311  1.4645 -0.9259
 5966SOL    HW229361   3.608   0.839  11.959 -0.1209  0.0141 -0.0814
 5967SOL     OW29362   3.640   1.019   4.046 -0.1902 -0.0154  0.3708
 5967SOL    HW129363   3.556   1.062   4.064  1.8761  4.3223 -0.4996
 5967SOL    HW229364   3.615   0.953   3.981  1.3831 -1.9996  1.8043
 5968SOL     OW29365   3.580   4.619   2.199 -0.3180 -0.5075  0.2554
 5968SOL    HW129366   3.588   4.524   2.191  2.4921 -0.3679  1.1705
 5968SOL    HW229367   3.655   4.647   2.145  0.3764 -3.0766 -0.1137
 5969SOL     OW29368   3.331   2.498  13.669 -0.2951 -0.3256  0.1621
 5969SOL    HW129369   3.356   2.582  13.630  0.4207 -0.5497  0.1383
 5969SOL    HW229370   3.276   2.459  13.601  1.7490 -1.0395 -1.1025
 5970SOL     OW29371   1.375   0.253  13.833 -0.0101 -0.1420 -0.4625
 5970SOL    HW129372   1.420   0.312  13.893  1.3940 -0.0027 -1.6417
 5970SOL    HW229373   1.307   0.308  13.793  0.1366  1.0613  0.9651
 5971SOL     OW29374   0.331   3.393   8.415  0.0465 -0.0255  0.3064
 5971SOL    HW129375   0.400   3.386   8.481  0.1155 -0.2561  0.2124
 5971SOL    HW229376   0.288   3.471   8.448  1.2280  1.2983 -1.3009
 5972SOL     OW29377   2.266   4.006   2.573 -0.9559  0.3268  0.5633
 5972SOL    HW129378   2.273   3.926   2.520 -0.3270  1.8561 -1.6190
 5972SOL    HW229379   2.359   3.998   2.596 -0.9693 -1.2612  0.0681
 5973SOL     OW29380   4.412   1.000   8.099 -0.1084 -0.0333  0.4766
 5973SOL    HW129381   4.334   1.004   8.155 -0.6981  0.7725 -0.4145
 5973SOL    HW229382   4.384   1.064   8.034 -0.6422  2.0569  2.7861
 5974SOL     OW29383   3.857   0.631  16.475  0.3956 -0.3646 -0.1531
 5974SOL    HW129384   3.917   0.652  16.547  1.5390  0.3707 -1.3182
 5974SOL    HW229385   3.797   0.576  16.526 -0.6568  1.6144  0.7373
 5975SOL     OW29386   1.331   3.338   0.771  0.0162 -0.0475  0.0915
 5975SOL    HW129387   1.313   3.424   0.731 -0.4973  0.2150  0.9055
 5975SOL    HW229388   1.373   3.374   0.849 -0.1770  0.9869 -0.2747
 5976SOL     OW29389   2.286   2.600  10.170 -0.0236 -0.0230 -0.5187
 5976SOL    HW129390   2.222   2.592  10.099  0.4156 -0.2464 -0.8911
 5976SOL    HW229391   2.305   2.693  10.174  0.0338 -0.2063  3.4937
 5977SOL     OW29392   4.212   2.436   4.662  0.8506 -0.2960 -0.3751
 5977SOL    HW129393   4.139   2.408   4.717  1.4752  0.4750  0.8606
 5977SOL    HW229394   4.233   2.513   4.715  1.8585 -0.9283  0.1464
 5978SOL     OW29395   0.621   4.139  11.420  0.1751  0.1046 -0.2893
 5978SOL    HW129396   0.711   4.169  11.407 -0.6936  1.8637 -2.2722
 5978SOL    HW229397   0.589   4.188  11.496  0.5507 -0.8408  0.4749
 5979SOL     OW29398   0.183   3.247   2.871 -0.3812  0.0873 -0.4695
 5979SOL    HW129399   0.093   3.221   2.851  0.3739 -2.1121 -1.0700
 5979SOL    HW229400   0.186   3.339   2.844  1.2581  0.5673  1.2991
 5980SOL     OW29401   1.194   1.443   2.248 -0.2007 -0.0440  0.3074
 5980SOL    HW129402   1.098   1.446   2.251 -0.2504 -2.1957  0.9690
 5980SOL    HW229403   1.194   1.369   2.309  0.4960  0.5396  1.0160
 5981SOL     OW29404   0.267   3.668   4.360 -0.1337  0.2013 -0.2658
 5981SOL    HW129405   0.346   3.615   4.350 -0.7388 -0.6871 -0.3142
 5981SOL    HW229406   0.288   3.730   4.430  0.7081 -1.3656  0.8675
 5982SOL     OW29407   1.851   2.757   7.739 -0.3805 -0.0202 -0.4287
 5982SOL    HW129408   1.874   2.850   7.734  0.1610 -0.1556 -0.4134
 5982SOL    HW229409   1.884   2.747   7.829  1.2637  0.4757 -0.9752
 5983SOL     OW29410   1.670   3.057  17.480 -0.3074  0.2924  0.0443
 5983SOL    HW129411   1.693   3.114  17.406  2.5446  0.5991  1.1796
 5983SOL    HW229412   1.631   2.984  17.432  0.3831 -0.6715  0.9759
 5984SOL     OW29413   2.072   0.788   0.657 -0.7665 -0.5339  0.1836
 5984SOL    HW129414   2.120   0.768   0.577 -1.2998 -0.1971 -0.2141
 5984SOL    HW229415   1.985   0.774   0.619 -0.1236 -1.0268 -1.0858
 5985SOL     OW29416   4.297   4.582   6.312 -0.0530 -0.7655  0.2529
 5985SOL    HW129417   4.277   4.531   6.390  1.7339 -1.3001  0.3542
 5985SOL    HW229418   4.386   4.612   6.331 -0.5461  1.4812 -0.9245
 5986SOL     OW29419   4.659   1.929   2.932 -0.4146  0.4400  0.2716
 5986SOL    HW129420   4.670   2.019   2.902 -0.4917  0.7704  1.2525
 5986SOL    HW229421   4.618   1.887   2.856  0.6069  0.2689 -0.1850
 5987SOL     OW29422   0.232   1.709  12.091 -0.3172 -0.1980  0.6284
 5987SOL    HW129423   0.162   1.735  12.151 -1.2051  0.1327 -0.5410
 5987SOL    HW229424   0.291   1.656  12.144  2.1885  0.7475 -1.2169
 5988SOL     OW29425   2.183   0.870   7.830  0.6454  0.4418  0.3406
 5988SOL    HW129426   2.229   0.810   7.772  2.4276  2.3850 -0.2625
 5988SOL    HW229427   2.102   0.880   7.780  1.3343 -0.5569 -0.9635
 5989SOL     OW29428   3.501   1.276   5.367  0.0708  0.5288  0.0212
 5989SOL    HW129429   3.431   1.323   5.324 -0.3377 -1.4220 -1.4397
 5989SOL    HW229430   3.525   1.220   5.293 -2.9653 -0.9405  0.1483
 5990SOL     OW29431   1.889   3.307   3.795 -0.6192 -0.9046  0.1431
 5990SOL    HW129432   1.931   3.246   3.734 -0.8192  0.4366 -1.3252
 5990SOL    HW229433   1.916   3.390   3.757  3.1890 -3.8552 -3.5370
 5991SOL     OW29434   1.610   4.171   0.686 -0.2574  0.3728 -0.1378
 5991SOL    HW129435   1.624   4.078   0.706  0.7388  0.5936  0.1412
 5991SOL    HW229436   1.534   4.154   0.629  1.0685 -0.1220 -1.7527
 5992SOL     OW29437   0.159   2.603   8.389  0.0993  0.2596  0.3074
 5992SOL    HW129438   0.112   2.544   8.449  1.0707 -0.4725  0.3457
 5992SOL    HW229439   0.190   2.674   8.446 -0.8634 -0.6909  2.0215
 5993SOL     OW29440   0.726   4.060   0.390  0.0047 -0.7175 -0.6794
 5993SOL    HW129441   0.677   3.979   0.379  0.9535 -1.4045  0.2232
 5993SOL    HW229442   0.648   4.114   0.378  0.3463 -0.1394 -0.3083
 5994SOL     OW29443   3.151   2.844   7.837  0.1120  0.0901 -0.2498
 5994SOL    HW129444   3.130   2.855   7.930 -1.3068 -1.2200 -0.4182
 5994SOL    HW229445   3.243   2.870   7.840 -0.0861  0.7851 -0.2819
 5995SOL     OW29446   2.493   0.405  11.184 -0.5657  0.1810  0.4500
 5995SOL    HW129447   2.446   0.486  11.165  1.7684  1.2820 -0.6029
 5995SOL    HW229448   2.537   0.430  11.265  0.1116  0.4110  0.0174
 5996SOL     OW29449   3.007   1.591   1.137  0.2106  0.1886  0.1199
 5996SOL    HW129450   3.093   1.633   1.135  0.9485 -1.2955  0.7356
 5996SOL    HW229451   3.029   1.516   1.082  2.0766  0.9247 -0.1377
 5997SOL     OW29452   3.245   0.350  17.668  0.6113 -0.1062  0.3203
 5997SOL    HW129453   3.265   0.443  17.656 -1.2930  0.3990  1.1145
 5997SOL    HW229454   3.223   0.345   0.059 -0.1769 -0.5459  0.1083
 5998SOL     OW29455   3.039   4.422   8.456 -0.9314 -0.0025 -0.3936
 5998SOL    HW129456   3.106   4.461   8.399 -0.4074 -0.7002 -0.2596
 5998SOL    HW229457   3.038   4.484   8.530 -1.6596 -0.9729  0.4090
 5999SOL     OW29458   1.517   3.312   9.054 -0.5157 -0.2083 -0.1388
 5999SOL    HW129459   1.609   3.322   9.081 -0.3865 -1.5492 -0.0469
 5999SOL    HW229460   1.507   3.385   8.994  0.7809 -0.5054 -0.7185
 6000SOL     OW29461   0.835   3.413   2.793 -0.1687 -0.5734  0.2951
 6000SOL    HW129462   0.747   3.450   2.784  0.6669  1.0936 -1.0790
 6000SOL    HW229463   0.824   3.321   2.817 -0.5507 -0.7504 -0.5520
 6001SOL     OW29464   2.526   1.083   4.819 -0.0470 -0.8033 -0.1978
 6001SOL    HW129465   2.554   0.998   4.852 -1.2502 -1.3987 -0.7601
 6001SOL    HW229466   2.519   1.131   4.902  0.2029 -0.5225 -0.3383
 6002SOL     OW29467   2.449   2.312   3.085 -0.6129  0.0285  0.5291
 6002SOL    HW129468   2.542   2.335   3.076 -0.3606 -1.0366  0.4515
 6002SOL    HW229469   2.454   2.224   3.047  1.3990  1.3848 -2.3574
 6003SOL     OW29470   4.227   3.719  16.574  0.6924  0.0965 -0.2098
 6003SOL    HW129471   4.176   3.646  16.608  2.8108 -1.4821 -0.4113
 6003SOL    HW229472   4.221   3.709  16.479  1.7334 -1.7187 -0.0836
 6004SOL     OW29473   4.056   1.000  11.600  0.8098 -0.3022  0.2038
 6004SOL    HW129474   3.972   1.033  11.632 -1.6631 -4.8167 -1.5332
 6004SOL    HW229475   4.078   0.944  11.675 -1.6028 -0.5247  0.7470
 6005SOL     OW29476   1.980   3.361   9.379  0.3209  0.2394  0.6589
 6005SOL    HW129477   2.046   3.338   9.314 -1.1090 -0.6362 -0.4989
 6005SOL    HW229478   1.970   3.274   9.416  0.5743  0.6707  1.7320
 6006SOL     OW29479   2.702   2.525  13.001 -0.3505 -0.0848 -0.3280
 6006SOL    HW129480   2.707   2.455  12.936 -1.9981  2.4476 -3.1961
 6006SOL    HW229481   2.607   2.532  13.016  0.2446  1.3280  2.7281
 6007SOL     OW29482   0.344   4.017  13.809  0.0774 -0.2685 -0.2531
 6007SOL    HW129483   0.284   4.072  13.757 -1.9878  0.9123  3.4213
 6007SOL    HW229484   0.278   3.953  13.834 -1.4004  1.0068 -0.8223
 6008SOL     OW29485   0.279   4.086   8.617  0.6773 -0.4824 -0.0658
 6008SOL    HW129486   0.236   4.069   8.701  2.1455  0.4366  0.8749
 6008SOL    HW229487   0.298   4.180   8.621  2.0319 -0.6684 -2.2169
 6009SOL     OW29488   3.673   0.578  14.570  0.3163 -0.2051 -0.4527
 6009SOL    HW129489   3.736   0.506  14.566  0.6853  0.0549  0.7975
 6009SOL    HW229490   3.701   0.627  14.493 -1.8530  0.1389 -1.0262
 6010SOL     OW29491   4.374   3.902   2.650 -0.2232  0.6498 -0.0703
 6010SOL    HW129492   4.305   3.840   2.624  0.7365 -0.3703 -0.1728
 6010SOL    HW229493   4.330   3.980   2.617  1.1457  1.1096 -0.7960
 6011SOL     OW29494   2.510   4.191   4.713 -0.2811  0.1470 -0.3277
 6011SOL    HW129495   2.516   4.104   4.674 -1.2013  0.7171 -1.7398
 6011SOL    HW229496   2.597   4.226   4.691  0.6070 -1.8277 -0.0216
 6012SOL     OW29497   2.205   3.818   8.970  0.9194 -0.1618  0.2948
 6012SOL    HW129498   2.265   3.886   9.000 -0.2745  0.7173  0.6462
 6012SOL    HW229499   2.221   3.747   9.032  1.2558 -1.4432 -1.2395
 6013SOL     OW29500   0.371   4.342   4.876  0.4065  0.3425 -0.3493
 6013SOL    HW129501   0.328   4.366   4.794 -2.4349  1.7087  1.5381
 6013SOL    HW229502   0.320   4.395   4.937  0.3971  0.1378 -0.1762
 6014SOL     OW29503   3.661   3.284   3.491  0.2826 -0.2323  0.0784
 6014SOL    HW129504   3.610   3.309   3.569  2.1208 -2.4477  1.9993
 6014SOL    HW229505   3.628   3.352   3.432 -0.7790 -1.4807 -0.7734
 6015SOL     OW29506   3.095   2.363   1.258 -0.1659  0.2893 -0.1352
 6015SOL    HW129507   3.158   2.433   1.238 -0.0706  0.2053 -0.1318
 6015SOL    HW229508   3.087   2.376   1.353 -1.4735  0.2165 -0.2471
 6016SOL     OW29509   0.670   2.668   6.590  0.3925 -0.0731  0.3467
 6016SOL    HW129510   0.674   2.671   6.494 -2.5137  1.9300  0.2987
 6016SOL    HW229511   0.751   2.718   6.605 -0.3654  1.3389 -0.2378
 6017SOL     OW29512   1.805   4.696   0.940  0.6144  0.2114 -0.3089
 6017SOL    HW129513   1.830   4.621   0.994 -3.7044 -0.4637  0.7457
 6017SOL    HW229514   1.860   4.663   0.869  1.3658 -1.9089  1.2423
 6018SOL     OW29515   2.404   3.230  10.252  0.6492 -0.0450  1.0115
 6018SOL    HW129516   2.481   3.286  10.259  0.7500 -0.0297 -0.1969
 6018SOL    HW229517   2.386   3.242  10.159  1.4585 -0.8187  0.7499
 6019SOL     OW29518   4.365   3.094   3.517 -0.3893 -0.2321  0.1621
 6019SOL    HW129519   4.381   3.000   3.522  0.2055 -0.1347  0.1370
 6019SOL    HW229520   4.406   3.113   3.433  1.0772 -1.8003  0.5303
 6020SOL     OW29521   4.493   1.921   8.071  0.2802 -0.2536  0.2465
 6020SOL    HW129522   4.506   1.867   8.148 -2.7996  3.0856  3.0882
 6020SOL    HW229523   4.474   1.848   8.011  0.1716  0.4637 -0.6039
 6021SOL     OW29524   3.501   1.523   1.657  0.2279 -0.0562 -0.3605
 6021SOL    HW129525   3.491   1.460   1.728 -0.1420  0.0083 -0.3578
 6021SOL    HW229526   3.583   1.491   1.619 -0.4672 -1.9552 -0.2341
 6022SOL     OW29527   4.353   4.580   0.113  0.4013 -0.2916  0.5827
 6022SOL    HW129528   4.320   4.491   0.099 -0.1384  0.0205 -0.1147
 6022SOL    HW229529   4.431   4.571   0.059 -1.5543  0.1948 -2.3208
 6023SOL     OW29530   1.760   0.841  17.291 -0.8084  0.3109 -0.1976
 6023SOL    HW129531   1.711   0.760  17.280  0.2598 -0.4002  0.2846
 6023SOL    HW229532   1.725   0.903  17.227  3.6360  1.7748 -1.2023
 6024SOL     OW29533   1.647   4.376   4.221 -0.1858  0.4859 -0.1961
 6024SOL    HW129534   1.650   4.468   4.196  0.1657  0.9853  1.7000
 6024SOL    HW229535   1.571   4.369   4.279  3.2637  0.4250  4.3379
 6025SOL     OW29536   2.227   1.602   1.186  0.1282  0.1138 -0.7641
 6025SOL    HW129537   2.185   1.624   1.269 -1.5198  2.3395 -2.1747
 6025SOL    HW229538   2.260   1.512   1.191 -0.9393 -0.1108  2.1877
 6026SOL     OW29539   4.106   1.143   3.635  0.3854 -0.1606 -0.2075
 6026SOL    HW129540   4.109   1.212   3.568  1.4116 -0.1986 -0.1990
 6026SOL    HW229541   4.032   1.169   3.691 -0.1509 -0.6149 -0.7138
 6027SOL     OW29542   3.615   3.746   9.632  0.1870  0.7994  0.3993
 6027SOL    HW129543   3.560   3.689   9.686  0.0537 -0.6327 -1.2406
 6027SOL    HW229544   3.563   3.737   9.552  0.3428 -1.3716  0.5421
 6028SOL     OW29545   0.111   4.548   1.326  0.3069 -0.3341  0.2687
 6028SOL    HW129546   0.162   4.491   1.268 -1.0959 -1.9489  0.6267
 6028SOL    HW229547   0.130   4.496   1.404 -1.9621 -1.9130 -0.2396
 6029SOL     OW29548   1.041   3.595   5.696 -0.2457  0.1683 -0.1371
 6029SOL    HW129549   1.062   3.689   5.692  0.4162 -0.0328 -1.2355
 6029SOL    HW229550   1.129   3.559   5.687 -1.5960 -2.5005 -2.4318
 6030SOL     OW29551   1.064   2.405   6.955  0.1568  0.5446  0.3365
 6030SOL    HW129552   0.978   2.372   6.982  0.5107 -0.5882  0.0712
 6030SOL    HW229553   1.110   2.413   7.039 -0.6543 -0.0563  0.8449
 6031SOL     OW29554   4.039   0.590   8.986  0.0091 -0.9473  0.6756
 6031SOL    HW129555   4.005   0.503   8.966 -0.0136 -1.4174  2.6888
 6031SOL    HW229556   3.987   0.647   8.931 -0.6939 -2.7429 -0.5257
 6032SOL     OW29557   4.361   3.736   5.825  0.5192 -0.3784 -0.0797
 6032SOL    HW129558   4.398   3.726   5.913 -0.8478 -0.7807  0.4524
 6032SOL    HW229559   4.392   3.652   5.792 -0.4392 -1.0616  0.7428
 6033SOL     OW29560   2.299   2.754   2.078  0.2897 -0.0229 -0.0506
 6033SOL    HW129561   2.272   2.841   2.047  0.8966 -0.1818 -1.0420
 6033SOL    HW229562   2.234   2.697   2.038 -0.6155  0.8551  0.1581
 6034SOL     OW29563   2.380   0.493   3.092 -0.1515  0.0630  0.6835
 6034SOL    HW129564   2.318   0.434   3.051  0.7503  0.0621 -0.6561
 6034SOL    HW229565   2.460   0.443   3.079 -0.9408 -0.3570 -2.3285
 6035SOL     OW29566   3.371   3.132   9.652 -0.4467  0.7921  0.3039
 6035SOL    HW129567   3.320   3.145   9.732  0.7514 -1.6547  1.4435
 6035SOL    HW229568   3.460   3.162   9.672  0.6008 -1.2979 -1.1964
 6036SOL     OW29569   2.150   3.610  12.186  0.1802 -0.2247  0.5051
 6036SOL    HW129570   2.075   3.562  12.220 -0.1256  0.1827  0.3960
 6036SOL    HW229571   2.142   3.692  12.234 -0.1897 -0.8079  1.4394
 6037SOL     OW29572   4.660   3.259   8.009  0.3118 -0.5020  0.5457
 6037SOL    HW129573   4.625   3.344   7.981  1.0033 -0.5471 -0.4410
 6037SOL    HW229574   4.600   3.201   7.963  1.0777 -0.5088 -0.4358
 6038SOL     OW29575   2.339   0.338   9.026  0.0997 -0.2800 -0.0434
 6038SOL    HW129576   2.299   0.410   9.075  1.3268  1.7816 -2.1189
 6038SOL    HW229577   2.391   0.386   8.962 -0.9379  1.1040  0.1507
 6039SOL     OW29578   1.600   3.201   4.167  0.1257 -0.3754  0.0344
 6039SOL    HW129579   1.545   3.133   4.127  0.1167 -0.5043  0.2642
 6039SOL    HW229580   1.654   3.210   4.088  1.3514 -1.3867  0.7606
 6040SOL     OW29581   0.347   3.509   6.147  0.8002  0.1767  0.6106
 6040SOL    HW129582   0.354   3.423   6.188 -0.7917  0.1253  0.8055
 6040SOL    HW229583   0.440   3.528   6.151  1.1391 -1.9515  2.7872
 6041SOL     OW29584   2.346   3.923   9.191 -0.1122 -0.0847  0.6399
 6041SOL    HW129585   2.390   3.847   9.231  1.2656 -0.9268 -2.5217
 6041SOL    HW229586   2.350   3.987   9.263  0.2879 -1.2521  1.6624
 6042SOL     OW29587   2.328   4.296   5.697 -0.1968  0.3522  0.3426
 6042SOL    HW129588   2.371   4.258   5.620 -0.2865 -0.6964  0.8134
 6042SOL    HW229589   2.302   4.221   5.750 -0.2794 -0.3039 -0.6168
 6043SOL     OW29590   2.874   1.730   6.705 -0.5776 -0.3159 -0.1473
 6043SOL    HW129591   2.859   1.787   6.630 -1.2329 -0.0121  0.2173
 6043SOL    HW229592   2.801   1.757   6.761 -0.9807  0.1554 -0.9032
 6044SOL     OW29593   0.117   3.636   8.436 -0.3905 -0.3185  0.3328
 6044SOL    HW129594   0.052   3.575   8.471  0.1570 -1.0833  0.0182
 6044SOL    HW229595   0.093   3.714   8.486 -2.5083 -0.1206 -0.9989
 6045SOL     OW29596   4.323   0.586   8.292 -0.6289  0.5873 -0.5342
 6045SOL    HW129597   4.250   0.644   8.271 -0.8565  0.9641  1.3310
 6045SOL    HW229598   4.366   0.644   8.355 -0.4735 -0.3001  0.1876
 6046SOL     OW29599   0.343   0.593   8.107 -0.0237 -0.3892  0.9197
 6046SOL    HW129600   0.430   0.603   8.144  1.0338 -1.9775 -1.1868
 6046SOL    HW229601   0.349   0.655   8.034 -0.3823  0.6960  1.8175
 6047SOL     OW29602   2.365   2.648  13.904  0.2830  0.1455  0.5542
 6047SOL    HW129603   2.277   2.686  13.913  0.1181 -0.5211  1.8584
 6047SOL    HW229604   2.384   2.658  13.998 -1.6872 -1.2676  1.1235
 6048SOL     OW29605   1.311   4.619   6.670 -0.2786  0.3972  0.3510
 6048SOL    HW129606   1.393   4.652   6.635  0.7512  0.4826  2.8566
 6048SOL    HW229607   1.281   4.688   6.729 -0.1710 -0.4261  1.3719
 6049SOL     OW29608   4.301   1.239   7.132 -0.4467 -0.0834  0.1110
 6049SOL    HW129609   4.352   1.187   7.071 -2.0016 -0.0822 -1.2098
 6049SOL    HW229610   4.270   1.308   7.073  0.0804 -1.7002 -2.0768
 6050SOL     OW29611   3.433   2.180   4.272  0.0806  0.1562  0.3524
 6050SOL    HW129612   3.393   2.094   4.266  1.4844 -0.5774  1.4668
 6050SOL    HW229613   3.503   2.171   4.207 -0.2252  1.5891 -0.1889
 6051SOL     OW29614   2.553   3.078   4.761  0.1810 -0.2784  0.1725
 6051SOL    HW129615   2.550   3.091   4.666 -1.4791  0.2626  0.3030
 6051SOL    HW229616   2.622   3.011   4.760  1.0471  0.6161  0.4629
 6052SOL     OW29617   1.864   0.541   1.846  0.4980 -0.1582 -0.0024
 6052SOL    HW129618   1.860   0.490   1.927 -2.9681 -0.4386 -0.3498
 6052SOL    HW229619   1.908   0.617   1.883 -0.0099 -1.0499  2.4677
 6053SOL     OW29620   1.881   4.172   3.823 -0.0871  0.8715  0.5405
 6053SOL    HW129621   1.918   4.087   3.845 -1.4368 -0.1027 -0.9485
 6053SOL    HW229622   1.951   4.223   3.781  0.1223 -0.0172 -0.1922
 6054SOL     OW29623   3.258   2.654   9.677 -0.5521  0.8094  0.0139
 6054SOL    HW129624   3.282   2.564   9.652 -1.0632  0.4461  0.8093
 6054SOL    HW229625   3.236   2.638   9.769 -0.5246 -0.2782 -0.1652
 6055SOL     OW29626   4.450   2.697   3.988 -0.2110 -0.2175  0.2575
 6055SOL    HW129627   4.521   2.637   3.963  0.3204 -0.0622  1.3773
 6055SOL    HW229628   4.492   2.742   4.061  0.2475 -2.8537  1.6314
 6056SOL     OW29629   2.510   1.752  10.752  0.2244 -0.0733 -0.5137
 6056SOL    HW129630   2.440   1.703  10.707  1.9825 -0.4627 -2.8747
 6056SOL    HW229631   2.520   1.710  10.837  0.2332 -0.5273 -0.7387
 6057SOL     OW29632   2.518   0.800   2.582 -0.1458 -0.3712  0.2596
 6057SOL    HW129633   2.512   0.704   2.584 -1.1051 -0.2582  2.5983
 6057SOL    HW229634   2.603   0.809   2.539 -0.3157 -0.6452 -0.1256
 6058SOL     OW29635   2.748   1.735   8.273 -0.7152 -0.2437 -0.4560
 6058SOL    HW129636   2.777   1.826   8.283 -0.1731 -0.5745  1.0099
 6058SOL    HW229637   2.830   1.691   8.250  0.2365  2.0244 -1.3572
 6059SOL     OW29638   3.360   0.817   7.657  0.1366 -0.0719  0.1294
 6059SOL    HW129639   3.330   0.751   7.594 -0.2841  0.8580 -0.6486
 6059SOL    HW229640   3.275   0.830   7.698  0.6844  5.2077 -0.4035
 6060SOL     OW29641   2.621   3.234  11.868  0.2234 -0.7390  0.7282
 6060SOL    HW129642   2.676   3.264  11.795  0.3819 -1.9704  0.3335
 6060SOL    HW229643   2.650   3.145  11.888  1.6007 -0.2929  0.7129
 6061SOL     OW29644   3.174   2.639   2.966 -0.0612  0.0982  0.8610
 6061SOL    HW129645   3.155   2.589   2.887  0.4323 -0.5656  1.1613
 6061SOL    HW229646   3.081   2.642   2.991 -0.3364  0.6031 -0.2362
 6062SOL     OW29647   3.101   1.575  11.447 -0.0806  0.2423 -0.5278
 6062SOL    HW129648   3.023   1.551  11.397 -0.6266 -0.4524  0.6536
 6062SOL    HW229649   3.070   1.556  11.536  1.9385  0.5364  0.2497
 6063SOL     OW29650   0.383   1.511   9.167  0.1949 -0.2706 -0.3053
 6063SOL    HW129651   0.362   1.526   9.260 -1.0443 -0.4674 -0.5470
 6063SOL    HW229652   0.470   1.550   9.161 -0.6220  1.0985 -2.9487
 6064SOL     OW29653   0.963   1.268  15.600 -0.2923 -0.0412  0.8452
 6064SOL    HW129654   0.883   1.286  15.550 -0.1965 -0.8961  0.3820
 6064SOL    HW229655   0.995   1.186  15.564 -0.0272 -0.5209  2.1730
 6065SOL     OW29656   3.242   1.429   5.682 -0.2939  0.3466 -0.5542
 6065SOL    HW129657   3.183   1.503   5.670 -1.9583 -0.9726 -0.6269
 6065SOL    HW229658   3.224   1.375   5.605  2.0783 -2.4562  0.8675
 6066SOL     OW29659   4.462   1.732   9.017 -0.0873 -0.0301  0.0718
 6066SOL    HW129660   4.470   1.816   9.062  0.9588 -1.3122  2.2789
 6066SOL    HW229661   4.522   1.749   8.944  0.8218  1.6934  1.2117
 6067SOL     OW29662   3.082   2.471   0.120 -0.6625  0.0073 -0.1626
 6067SOL    HW129663   3.051   2.517   0.197  0.2949 -1.2058  0.9525
 6067SOL    HW229664   2.997   2.446   0.083 -1.2931 -1.6674  2.4518
 6068SOL     OW29665   1.938   1.967   8.139 -0.3287 -0.0258  0.0051
 6068SOL    HW129666   1.965   1.977   8.230  0.3093 -0.8601 -0.0906
 6068SOL    HW229667   1.946   1.872   8.130  1.3697  0.0834  0.3775
 6069SOL     OW29668   4.483   1.540   2.080  0.3618  0.2377  0.4546
 6069SOL    HW129669   4.419   1.560   2.148 -1.7566 -1.9917 -0.8771
 6069SOL    HW229670   4.550   1.517   2.144  1.2895 -0.7599 -0.8668
 6070SOL     OW29671   1.830   1.166   8.934  0.4580  0.0390  0.0351
 6070SOL    HW129672   1.826   1.223   8.857 -1.9512 -0.3487 -0.1295
 6070SOL    HW229673   1.743   1.126   8.938 -0.3156  1.6191 -0.6710
 6071SOL     OW29674   2.548   1.955  17.151 -0.1751 -0.5276 -0.5593
 6071SOL    HW129675   2.541   1.862  17.128 -2.0756 -0.7385  0.9089
 6071SOL    HW229676   2.534   1.982  17.060 -0.1844 -1.7737 -0.9295
 6072SOL     OW29677   0.471   1.408  12.980 -0.3374 -0.1945 -0.2060
 6072SOL    HW129678   0.414   1.424  13.056 -0.8622 -0.8230 -0.4711
 6072SOL    HW229679   0.419   1.439  12.906 -0.0800 -1.5978 -0.9704
 6073SOL     OW29680   4.057   0.585  13.086 -0.0693 -0.2145 -0.6474
 6073SOL    HW129681   4.068   0.494  13.059 -0.5318 -0.2249 -0.8013
 6073SOL    HW229682   3.975   0.584  13.135 -0.9510 -2.2666 -2.1414
 6074SOL     OW29683   0.452   0.509  11.721 -0.4819  0.1167 -0.6072
 6074SOL    HW129684   0.528   0.471  11.765 -1.9507 -1.6834  0.3615
 6074SOL    HW229685   0.432   0.444  11.653  2.1901 -1.3984  0.0417
 6075SOL     OW29686   4.265   1.873  11.862  0.3534 -0.1753  0.3003
 6075SOL    HW129687   4.328   1.917  11.919 -0.4897  0.9728  0.3510
 6075SOL    HW229688   4.310   1.870  11.778  0.0846 -2.2585  0.2368
 6076SOL     OW29689   3.438   0.001  10.386  0.0290  0.2145  0.2623
 6076SOL    HW129690   3.471   0.077  10.338  1.3186 -2.3593 -2.8830
 6076SOL    HW229691   3.408   0.042  10.467  1.6646 -0.3506  1.1543
 6077SOL     OW29692   2.781   0.759   7.899  0.4510  0.1396 -0.2155
 6077SOL    HW129693   2.847   0.828   7.908  0.0286  0.5295 -0.0849
 6077SOL    HW229694   2.779   0.736   7.992  2.1672  1.7950  0.2384
 6078SOL     OW29695   1.708   4.387   7.585 -0.0984  0.3097 -0.0243
 6078SOL    HW129696   1.732   4.434   7.666 -0.5644  2.6119 -1.2148
 6078SOL    HW229697   1.641   4.327   7.618  0.9502 -1.0475 -0.3633
 6079SOL     OW29698   2.206   1.082   5.343  0.2424 -0.3071 -0.7311
 6079SOL    HW129699   2.176   1.138   5.272 -0.8940  0.7240  0.5560
 6079SOL    HW229700   2.184   0.996   5.306  0.9334 -1.1494  0.7764
 6080SOL     OW29701   3.957   1.842   4.463  0.2646 -0.3626  0.4245
 6080SOL    HW129702   4.018   1.910   4.434 -0.2898  0.9025  2.2081
 6080SOL    HW229703   3.913   1.890   4.533 -1.0650 -1.4034  0.3097
 6081SOL     OW29704   0.715   0.825  17.628 -0.5059  0.5986 -0.4316
 6081SOL    HW129705   0.801   0.868  17.628 -0.4557  0.5095  0.6081
 6081SOL    HW229706   0.664   0.889  17.679 -0.3812 -1.0798  1.8039
 6082SOL     OW29707   0.175   4.009   6.396  0.2635  0.4019  0.0172
 6082SOL    HW129708   0.261   4.015   6.437 -0.5590  1.6441  1.5830
 6082SOL    HW229709   0.121   3.985   6.471  0.8272 -1.3666 -0.1405
 6083SOL     OW29710   2.328   4.055   5.828 -0.7888 -0.4029  0.7541
 6083SOL    HW129711   2.345   4.034   5.920  1.8872 -1.4665  0.0300
 6083SOL    HW229712   2.258   3.990   5.824 -0.1447 -0.8588 -3.0771
 6084SOL     OW29713   0.505   0.361   9.748  0.2920 -0.2115 -0.4185
 6084SOL    HW129714   0.544   0.299   9.810  3.0217  1.6306 -0.2398
 6084SOL    HW229715   0.458   0.299   9.694 -2.1605  0.2030  1.2465
 6085SOL     OW29716   1.457   3.642   7.328  0.2813  0.0671  0.1789
 6085SOL    HW129717   1.416   3.728   7.343 -0.8465 -0.5153  0.4671
 6085SOL    HW229718   1.440   3.598   7.411  2.8859 -1.8312 -0.3172
 6086SOL     OW29719   0.506   1.819   6.679 -0.4545 -0.5847 -0.5809
 6086SOL    HW129720   0.512   1.911   6.655 -0.5493 -0.5413 -0.4358
 6086SOL    HW229721   0.491   1.824   6.773  1.1237  0.6802 -0.4059
 6087SOL     OW29722   2.645   3.383  10.218 -0.3094  0.6234 -0.0983
 6087SOL    HW129723   2.714   3.353  10.278 -0.2621 -0.0632 -0.4916
 6087SOL    HW229724   2.668   3.475  10.209 -1.5816  0.8341 -1.2207
 6088SOL     OW29725   0.726   4.497   0.080 -0.7762 -0.0579 -0.7936
 6088SOL    HW129726   0.744   4.502   0.174  1.9578  0.6694 -1.3674
 6088SOL    HW229727   0.815   4.486   0.048 -0.8478  0.9565 -1.3469
 6089SOL     OW29728   1.719   2.565   4.173 -0.4763  0.0382  0.0235
 6089SOL    HW129729   1.759   2.486   4.211 -1.8926 -0.3937  0.5932
 6089SOL    HW229730   1.784   2.585   4.106  0.9307 -0.2731  1.2783
 6090SOL     OW29731   2.167   0.720   2.776  0.3215 -0.8945  0.8040
 6090SOL    HW129732   2.133   0.697   2.863 -0.1166  0.4124  0.9804
 6090SOL    HW229733   2.244   0.771   2.801  0.6808 -1.3810  0.6938
 6091SOL     OW29734   3.005   4.578   2.446  0.0628  0.1143  0.2098
 6091SOL    HW129735   3.045   4.643   2.503  0.9422 -1.1692  1.0436
 6091SOL    HW229736   2.976   4.512   2.508  0.0552  0.4041  0.5132
 6092SOL     OW29737   0.881   2.164   8.735 -0.1943  0.2584 -0.2833
 6092SOL    HW129738   0.938   2.196   8.805 -0.6052  0.1690  0.0920
 6092SOL    HW229739   0.802   2.216   8.748 -1.0117 -1.1562  0.4513
 6093SOL     OW29740   3.561   3.945   4.522 -0.0150 -0.0040 -0.6077
 6093SOL    HW129741   3.472   3.974   4.501  0.1914 -0.2979 -1.8421
 6093SOL    HW229742   3.588   4.020   4.576  1.3240  0.1660 -1.5204
 6094SOL     OW29743   4.062   4.384   4.559  0.3179  0.3170 -0.5680
 6094SOL    HW129744   4.141   4.419   4.599 -0.1339  0.9590 -0.2450
 6094SOL    HW229745   4.085   4.422   4.474  3.8174 -0.2863  0.0995
 6095SOL     OW29746   1.636   0.085  13.195 -0.4599  0.3145  0.3276
 6095SOL    HW129747   1.550   0.045  13.208  0.1084 -0.2762  2.2677
 6095SOL    HW229748   1.674   0.059  13.111 -0.7272  0.1032  0.2703
 6096SOL     OW29749   3.479   1.487   2.902 -0.7473  0.1165  0.3877
 6096SOL    HW129750   3.441   1.569   2.933 -1.3400  0.1063 -0.3037
 6096SOL    HW229751   3.559   1.518   2.861 -0.9384 -1.0907 -0.9184
 6097SOL     OW29752   2.094   1.007   7.407 -0.0333  0.4821  0.2486
 6097SOL    HW129753   2.057   0.981   7.323 -2.2093  1.1169  1.0296
 6097SOL    HW229754   2.060   1.096   7.415 -1.3223 -0.0429  0.6487
 6098SOL     OW29755   1.225   2.985  16.349  0.2713  0.2163 -0.1392
 6098SOL    HW129756   1.301   2.933  16.375 -2.2308 -2.2711  2.1694
 6098SOL    HW229757   1.250   3.073  16.377  0.4070  0.2626 -0.4032
 6099SOL     OW29758   4.016   1.827  14.731  0.5318 -0.0173 -0.0323
 6099SOL    HW129759   3.949   1.878  14.776 -1.0479 -1.4915 -0.7334
 6099SOL    HW229760   4.081   1.894  14.706  2.1692 -2.0825 -1.2937
 6100SOL     OW29761   4.089   2.190   6.391 -0.3278  0.3897  0.1072
 6100SOL    HW129762   4.011   2.244   6.378 -0.6365 -0.2497 -0.7268
 6100SOL    HW229763   4.075   2.117   6.330  0.2376  0.9780 -0.7148
 6101SOL     OW29764   2.947   3.734   3.303 -0.3538 -0.1197 -0.3212
 6101SOL    HW129765   2.926   3.726   3.210 -4.5415 -0.8251  0.6886
 6101SOL    HW229766   3.032   3.779   3.303  0.1567 -1.0805  0.7419
 6102SOL     OW29767   1.462   0.841  13.053 -0.2257 -0.9922  0.7449
 6102SOL    HW129768   1.391   0.777  13.045  0.9229 -2.2284  0.4473
 6102SOL    HW229769   1.406   0.912  13.084 -0.8091  0.1082 -2.7725
 6103SOL     OW29770   2.654   0.921   6.688 -0.1574 -0.2176 -0.3027
 6103SOL    HW129771   2.727   0.981   6.706  1.5034 -1.8888 -1.5406
 6103SOL    HW229772   2.660   0.857   6.759 -1.0869 -1.2896 -1.2066
 6104SOL     OW29773   3.338   1.865   8.858 -0.1048  0.1408  0.5214
 6104SOL    HW129774   3.308   1.776   8.879 -1.1708  0.2321 -0.6056
 6104SOL    HW229775   3.422   1.869   8.902  0.6875 -3.4210 -0.6262
 6105SOL     OW29776   3.804   1.171   4.478 -0.0852 -0.4546 -0.4954
 6105SOL    HW129777   3.777   1.244   4.534  0.3892 -0.6906  0.0402
 6105SOL    HW229778   3.864   1.110   4.520 -1.5617  1.1261  3.9225
 6106SOL     OW29779   4.064   2.071   5.195 -0.3687 -0.3467  0.7478
 6106SOL    HW129780   4.096   1.986   5.167  0.1998 -0.6807  2.3874
 6106SOL    HW229781   4.102   2.134   5.134 -0.9196  0.2110  0.9740
 6107SOL     OW29782   2.057   1.465   5.795 -0.0512 -0.0566 -0.1309
 6107SOL    HW129783   2.011   1.456   5.879 -0.3620 -0.3068 -0.3276
 6107SOL    HW229784   1.979   1.464   5.739  0.2854 -3.2733 -0.5391
 6108SOL     OW29785   2.002   0.797   8.021 -0.2909  0.6641  0.1077
 6108SOL    HW129786   1.982   0.709   7.988  0.9943 -1.2215  4.2740
 6108SOL    HW229787   2.064   0.825   7.954 -0.5720 -1.8423 -1.1977
 6109SOL     OW29788   0.492   2.201   9.513  0.0165  0.1480  0.2655
 6109SOL    HW129789   0.419   2.255   9.543  0.2905  0.6154  0.0906
 6109SOL    HW229790   0.444   2.134   9.463  2.0847  1.0579 -2.9224
 6110SOL     OW29791   3.438   0.022   2.965 -0.6052  0.1470 -0.0062
 6110SOL    HW129792   3.486   4.669   2.940  0.0846 -0.1257  2.1479
 6110SOL    HW229793   3.487   0.046   3.044 -2.0414 -2.8670  1.8075
 6111SOL     OW29794   0.569   2.322   2.403 -0.1229  0.4354  0.1239
 6111SOL    HW129795   0.511   2.356   2.471  0.4697  0.8401  0.4268
 6111SOL    HW229796   0.639   2.387   2.404  0.6307 -0.3743 -1.8534
 6112SOL     OW29797   1.069   3.675  11.566  0.0392  0.1681 -0.4878
 6112SOL    HW129798   1.120   3.667  11.486  1.2013 -0.7338  0.3523
 6112SOL    HW229799   0.987   3.711  11.531 -0.1943  2.7167  2.5905
 6113SOL     OW29800   0.147   0.710  15.732  0.2147  0.2180  0.2761
 6113SOL    HW129801   0.089   0.747  15.665 -0.3848  1.0397  1.2638
 6113SOL    HW229802   0.219   0.717  15.668 -0.6820 -1.3573 -0.9035
 6114SOL     OW29803   2.526   2.232   8.553 -0.8101 -0.0644 -0.6308
 6114SOL    HW129804   2.479   2.268   8.478 -1.1386 -0.2994 -0.5369
 6114SOL    HW229805   2.593   2.299   8.568 -1.4582  0.3995  0.2550
 6115SOL     OW29806   1.808   2.957   7.189 -0.0584 -0.2514  0.2800
 6115SOL    HW129807   1.806   2.999   7.275 -2.9184  0.6786 -0.2575
 6115SOL    HW229808   1.789   3.034   7.136 -0.4655 -0.4510  0.1381
 6116SOL     OW29809   3.436   3.485   5.695 -0.1941  0.0952  0.1794
 6116SOL    HW129810   3.430   3.411   5.635  0.8641 -0.0460  0.2580
 6116SOL    HW229811   3.527   3.515   5.690 -0.0138 -0.0578  2.4930
 6117SOL     OW29812   2.850   4.010   3.778 -0.0910  0.1119  0.2461
 6117SOL    HW129813   2.816   4.059   3.703 -2.5518  0.0987  1.3737
 6117SOL    HW229814   2.853   4.078   3.846  2.1036 -1.0277  1.2839
 6118SOL     OW29815   0.809   0.414   1.545  0.0532 -0.1813  0.4154
 6118SOL    HW129816   0.772   0.391   1.630 -1.6226 -1.8544 -0.7870
 6118SOL    HW229817   0.848   0.497   1.575  2.3730 -0.4312 -1.9377
 6119SOL     OW29818   3.125   0.317  12.532 -0.4216 -0.5807 -0.3965
 6119SOL    HW129819   3.135   0.347  12.623 -1.2850  0.3522 -0.6054
 6119SOL    HW229820   3.205   0.268  12.514 -0.4189 -0.4260 -0.7908
 6120SOL     OW29821   2.547   3.043   5.515 -0.3922 -0.4439 -0.3467
 6120SOL    HW129822   2.464   3.080   5.485 -0.4519  0.5421  1.0007
 6120SOL    HW229823   2.593   3.038   5.431 -0.5752 -0.9231 -0.4156
 6121SOL     OW29824   3.907   4.431   7.394  0.2150 -0.2390  0.0720
 6121SOL    HW129825   3.841   4.493   7.424  0.6272  0.9021 -1.4035
 6121SOL    HW229826   3.977   4.491   7.370  0.7078 -1.3542 -1.2943
 6122SOL     OW29827   3.846   3.746   3.969 -0.4026 -0.4937 -0.7267
 6122SOL    HW129828   3.786   3.815   3.943 -0.6361 -1.1042 -1.7833
 6122SOL    HW229829   3.823   3.721   4.059  1.1164 -1.4430 -0.5868
 6123SOL     OW29830   1.269   3.031   6.253  0.2277 -0.5788 -0.1055
 6123SOL    HW129831   1.336   3.095   6.276 -0.7191 -0.0222  1.1280
 6123SOL    HW229832   1.197   3.093   6.245  1.4807  0.7637 -0.9921
 6124SOL     OW29833   1.233   2.490  13.954  0.1145  0.7744 -0.1019
 6124SOL    HW129834   1.178   2.485  14.032  0.7758  3.3675  0.5218
 6124SOL    HW229835   1.240   2.585  13.950  1.3300  0.6643 -0.7162
 6125SOL     OW29836   2.520   1.334   8.140 -0.5849  0.3448  0.3851
 6125SOL    HW129837   2.439   1.285   8.151 -2.9004  3.8207 -1.1842
 6125SOL    HW229838   2.572   1.285   8.076  0.6740  1.4934  0.5237
 6126SOL     OW29839   3.063   1.918   3.161  0.9485 -0.4388 -0.0781
 6126SOL    HW129840   3.141   1.915   3.106  1.4177  0.6526  0.5330
 6126SOL    HW229841   3.041   1.826   3.170 -0.4338 -0.1066 -0.0316
 6127SOL     OW29842   3.324   1.397   4.472 -0.2261  0.1427 -0.5286
 6127SOL    HW129843   3.297   1.472   4.420  0.7109  0.0441 -1.1611
 6127SOL    HW229844   3.242   1.373   4.516  0.5553 -3.1531 -0.8140
 6128SOL     OW29845   0.250   4.393   4.656 -0.4545  0.3733 -0.5979
 6128SOL    HW129846   0.271   4.353   4.572 -1.9463 -1.0690 -0.3014
 6128SOL    HW229847   0.195   4.465   4.626 -0.0220  0.8868 -0.1561
 6129SOL     OW29848   4.723   3.586   3.747 -0.2797 -0.0482 -0.4998
 6129SOL    HW129849   4.716   3.514   3.810  2.5340  1.3212  1.3619
 6129SOL    HW229850   0.043   3.656   3.795 -1.5126  0.4066 -0.0151
 6130SOL     OW29851   4.404   0.821   8.411 -0.2697  0.1924  0.3738
 6130SOL    HW129852   4.374   0.882   8.478  0.5064  1.3554 -0.3385
 6130SOL    HW229853   4.492   0.853   8.391 -0.0843 -0.3560  0.3121
 6131SOL     OW29854   1.937   1.302   3.866  0.1569 -0.8097 -0.0989
 6131SOL    HW129855   1.843   1.314   3.881  0.4549 -0.1660  1.2237
 6131SOL    HW229856   1.933   1.323   3.773  0.1782  3.3992  0.8496
 6132SOL     OW29857   2.191   1.696   4.351 -0.0832  0.0930  0.1295
 6132SOL    HW129858   2.228   1.626   4.404  1.9855  1.5436  0.6051
 6132SOL    HW229859   2.243   1.775   4.367  0.7343 -0.1736 -1.1914
 6133SOL     OW29860   3.876   1.182   2.520  0.1684 -0.4745  0.0356
 6133SOL    HW129861   3.845   1.093   2.505  0.6764 -0.4695 -1.0301
 6133SOL    HW229862   3.964   1.170   2.486  1.0776  1.5649  1.6715
 6134SOL     OW29863   2.864   2.929   5.465 -0.5365 -0.0717  0.1530
 6134SOL    HW129864   2.898   2.939   5.376  0.6180 -3.4541  0.2221
 6134SOL    HW229865   2.771   2.947   5.454  0.0056  1.3475 -2.0714
 6135SOL     OW29866   0.777   3.208  16.248  0.2302  0.5669 -0.1906
 6135SOL    HW129867   0.759   3.215  16.342 -0.2661  1.2591 -0.3402
 6135SOL    HW229868   0.712   3.271  16.217 -1.9893 -0.2626  2.8114
 6136SOL     OW29869   2.142   1.686   6.148  0.3996 -0.0160  0.5017
 6136SOL    HW129870   2.152   1.764   6.093  1.0733 -0.1878  0.3849
 6136SOL    HW229871   2.167   1.725   6.231 -1.7565  1.0585  0.6525
 6137SOL     OW29872   4.564   3.466   4.120  0.0052 -0.3408  0.6537
 6137SOL    HW129873   4.654   3.450   4.151 -0.1307 -1.7296  0.3372
 6137SOL    HW229874   4.548   3.381   4.078  1.8704  0.1409 -1.0645
 6138SOL     OW29875   1.574   3.045   7.509  0.0850 -0.1732 -0.1612
 6138SOL    HW129876   1.555   3.073   7.598 -1.1240 -2.4649  0.2876
 6138SOL    HW229877   1.658   3.089   7.496  0.1284 -0.3202 -0.3932
 6139SOL     OW29878   3.573   4.063  14.591  0.5524  0.0313 -0.7066
 6139SOL    HW129879   3.529   4.054  14.676 -0.3563  1.2934 -1.0435
 6139SOL    HW229880   3.497   4.055  14.533 -1.2742  1.6658  1.4288
 6140SOL     OW29881   3.831   4.301  13.312  0.5249  0.0803 -0.1561
 6140SOL    HW129882   3.926   4.292  13.324  0.4894 -0.2005 -0.0698
 6140SOL    HW229883   3.806   4.222  13.264 -0.2035  0.2080  0.0217
 6141SOL     OW29884   3.276   3.938   7.554 -0.0658  0.6074  0.1257
 6141SOL    HW129885   3.320   3.948   7.469  1.6378 -1.3269  0.7723
 6141SOL    HW229886   3.327   3.861   7.580  1.6930  2.1558  1.2157
 6142SOL     OW29887   3.670   1.268   0.285 -0.2618  0.4278 -0.3184
 6142SOL    HW129888   3.602   1.294   0.223 -0.5077  1.2328  0.2912
 6142SOL    HW229889   3.735   1.336   0.265 -0.6399  1.1186  0.8462
 6143SOL     OW29890   2.984   1.275  15.097 -0.3605 -0.5500 -0.6588
 6143SOL    HW129891   3.034   1.202  15.060 -0.7550 -1.2242  0.1318
 6143SOL    HW229892   3.047   1.293  15.167 -0.7352 -1.1603 -0.1671
 6144SOL     OW29893   2.180   1.667   1.951  0.5377  0.0092 -0.0804
 6144SOL    HW129894   2.131   1.593   1.987 -0.0801  0.3040 -0.3104
 6144SOL    HW229895   2.233   1.689   2.028 -0.3323  1.0589  0.2234
 6145SOL     OW29896   0.858   1.019   6.637 -0.5459  0.0335 -0.5914
 6145SOL    HW129897   0.907   0.937   6.630 -0.9242 -0.0137 -2.5864
 6145SOL    HW229898   0.788   0.979   6.688  1.5128 -1.9603  0.6695
 6146SOL     OW29899   1.138   1.855   6.929 -0.1994  0.3408 -1.0432
 6146SOL    HW129900   1.143   1.824   6.839 -1.8150 -0.2814 -0.9123
 6146SOL    HW229901   1.108   1.946   6.925  0.8297  0.7470  0.3248
 6147SOL     OW29902   0.776   4.397   5.399 -0.1451  0.2202 -0.1012
 6147SOL    HW129903   0.736   4.482   5.419  0.1472  0.1738  0.6438
 6147SOL    HW229904   0.695   4.346   5.400 -0.2862  0.4338 -0.2711
 6148SOL     OW29905   0.541   1.193   6.541  0.4602  0.3255  0.0831
 6148SOL    HW129906   0.601   1.244   6.596 -0.6141  1.2618  0.3889
 6148SOL    HW229907   0.483   1.148   6.602  2.0021 -1.3811  0.2875
 6149SOL     OW29908   2.934   1.254   6.243 -0.1222  0.2022  0.5377
 6149SOL    HW129909   3.012   1.202   6.262  1.4487  2.1169 -0.6299
 6149SOL    HW229910   2.917   1.229   6.152 -2.3259 -0.2029  1.0745
 6150SOL     OW29911   4.119   3.949   3.998 -0.1927  0.0547  0.0860
 6150SOL    HW129912   4.093   4.034   3.964  0.9706 -0.6870 -2.7050
 6150SOL    HW229913   4.038   3.907   4.027  1.0362 -1.5008  1.2926
 6151SOL     OW29914   1.290   2.533   5.819 -0.0681 -0.5643  0.4421
 6151SOL    HW129915   1.250   2.447   5.831 -3.0491  0.8033  0.3696
 6151SOL    HW229916   1.346   2.523   5.743  2.0098  1.8003  1.6230
 6152SOL     OW29917   0.675   3.930   2.234  0.3502 -0.2451 -0.1030
 6152SOL    HW129918   0.665   3.841   2.199  0.0938 -0.8788  1.5980
 6152SOL    HW229919   0.611   3.980   2.182 -0.1952 -1.4359 -0.5813
 6153SOL     OW29920   1.391   2.384   8.687 -0.2739 -0.4026  0.7303
 6153SOL    HW129921   1.390   2.290   8.673  1.3666 -0.2290 -0.6904
 6153SOL    HW229922   1.482   2.391   8.715  0.6297 -4.0109 -1.3132
 6154SOL     OW29923   3.462   4.716  12.457  0.5832  0.1075 -0.2436
 6154SOL    HW129924   3.440   4.640  12.404  0.6958  0.7145 -1.1616
 6154SOL    HW229925   3.552   4.723  12.427 -0.1759  1.0305 -2.2675
 6155SOL     OW29926   4.392   3.655  11.421 -0.2912  0.0479  0.1043
 6155SOL    HW129927   4.307   3.688  11.392 -0.3686 -0.5682 -0.3512
 6155SOL    HW229928   4.434   3.737  11.448  3.3189 -2.4620  2.0277
 6156SOL     OW29929   3.466   2.577   6.595 -0.4256 -0.2202 -0.2089
 6156SOL    HW129930   3.398   2.516   6.626 -0.6446  0.1954  0.1278
 6156SOL    HW229931   3.473   2.623   6.678  0.3623  0.8622 -0.8726
 6157SOL     OW29932   4.681   1.140  11.450 -0.0060  0.2842 -0.8405
 6157SOL    HW129933   4.661   1.223  11.495 -0.2852  0.5540 -1.4686
 6157SOL    HW229934   4.608   1.129  11.390  0.6833  2.6732 -2.1453
 6158SOL     OW29935   4.693   2.191   4.396  0.1516 -0.5770  0.2918
 6158SOL    HW129936   4.603   2.159   4.405  0.3863 -0.8201  1.7623
 6158SOL    HW229937   0.024   2.146   4.460  0.6395  0.2275  0.4244
 6159SOL     OW29938   0.545   3.108   7.926  0.2566 -0.1080  0.2606
 6159SOL    HW129939   0.590   3.104   7.842 -1.8650 -0.5262 -0.8495
 6159SOL    HW229940   0.481   3.037   7.919 -0.8266  1.0638 -1.6126
 6160SOL     OW29941   3.923   1.966   8.942  0.0750  0.1256 -0.2028
 6160SOL    HW129942   3.880   2.043   8.979  0.9696 -0.2351  1.5635
 6160SOL    HW229943   3.923   1.913   9.022 -1.8347 -1.1937 -1.0697
 6161SOL     OW29944   0.801   1.234   8.558  0.3008  0.1077 -0.0750
 6161SOL    HW129945   0.825   1.182   8.635  0.6639 -0.6989 -0.7266
 6161SOL    HW229946   0.811   1.325   8.585  1.2926 -0.1879  0.5691
 6162SOL     OW29947   0.041   4.702   7.881 -0.3564 -0.2275 -0.4181
 6162SOL    HW129948   0.014   0.059   7.839 -0.7059 -1.3461 -2.3639
 6162SOL    HW229949   0.057   4.645   7.805 -2.3884  1.0081 -1.7803
 6163SOL     OW29950   4.131   1.578  17.344  0.3524 -0.5873  0.1139
 6163SOL    HW129951   4.157   1.670  17.345 -0.4784 -0.3522 -0.4783
 6163SOL    HW229952   4.072   1.578  17.419  1.2917 -2.0979  0.8626
 6164SOL     OW29953   3.537   3.419   7.475 -0.1698  0.1198  0.1903
 6164SOL    HW129954   3.559   3.475   7.401 -0.5241  1.5716  1.1893
 6164SOL    HW229955   3.573   3.337   7.442 -3.7047 -1.3372 -0.0344
 6165SOL     OW29956   1.970   3.215   4.165 -0.1178  0.1673 -0.3860
 6165SOL    HW129957   1.947   3.305   4.189 -0.0725 -0.0569  0.4676
 6165SOL    HW229958   1.979   3.170   4.248 -1.4425 -1.4720 -1.1358
 6166SOL     OW29959   4.325   3.422   9.373  0.0471  0.3745  0.0860
 6166SOL    HW129960   4.418   3.401   9.383 -0.0209 -0.7802 -1.7039
 6166SOL    HW229961   4.291   3.337   9.403 -0.7797  1.8217  3.3111
 6167SOL     OW29962   4.652   2.539   3.925  0.4614  0.1686 -0.0239
 6167SOL    HW129963   4.647   2.444   3.935 -0.8853  0.3128  0.7380
 6167SOL    HW229964   4.661   2.546   3.830 -0.3539  1.6375 -0.0082
 6168SOL     OW29965   3.020   3.635   2.553 -0.1742  0.1687 -0.4146
 6168SOL    HW129966   3.010   3.602   2.464 -0.7928  0.8389 -0.5955
 6168SOL    HW229967   3.074   3.713   2.545  2.0361 -1.3488 -0.1611
 6169SOL     OW29968   0.371   2.518   8.778  0.3342 -0.3736 -0.3668
 6169SOL    HW129969   0.417   2.558   8.853  0.0174  1.0334 -0.9240
 6169SOL    HW229970   0.279   2.539   8.791  0.3679 -1.1573  1.1874
 6170SOL     OW29971   2.454   2.337   7.367 -0.2561 -0.4481 -0.1545
 6170SOL    HW129972   2.455   2.384   7.284 -2.3001  1.4145  0.8922
 6170SOL    HW229973   2.417   2.410   7.416 -0.1171  0.5741 -1.5583
 6171SOL     OW29974   2.970   2.936  16.628  0.1508  0.1928  0.0086
 6171SOL    HW129975   2.988   2.983  16.710  0.2408 -0.7053  0.5079
 6171SOL    HW229976   2.877   2.954  16.617 -0.0203 -2.0708 -2.1802
 6172SOL     OW29977   1.269   1.737   6.124  0.5970  0.0806 -0.3261
 6172SOL    HW129978   1.175   1.720   6.135  1.0641 -1.3923  1.4525
 6172SOL    HW229979   1.303   1.662   6.172 -0.1311  0.1407  0.2895
 6173SOL     OW29980   3.272   1.851   4.715  1.2689  0.2849 -0.4348
 6173SOL    HW129981   3.247   1.894   4.633  0.7969  1.5479  0.3546
 6173SOL    HW229982   3.201   1.787   4.724  0.6623  1.1354  0.9324
 6174SOL     OW29983   3.989   0.361   3.589  0.1477  0.1798  0.1498
 6174SOL    HW129984   4.057   0.428   3.583  0.9784 -0.7418 -0.7934
 6174SOL    HW229985   4.021   0.303   3.658  0.7623  0.2763 -0.0523
 6175SOL     OW29986   0.836   1.299   3.305  0.9831  0.5901  0.2698
 6175SOL    HW129987   0.809   1.232   3.243  1.9238 -0.1222  0.6225
 6175SOL    HW229988   0.875   1.365   3.248 -2.0534 -0.7011 -3.2787
 6176SOL     OW29989   2.028   1.271   7.338  0.4757  0.4403 -0.2530
 6176SOL    HW129990   2.063   1.360   7.338  2.3145 -0.2743  2.0805
 6176SOL    HW229991   1.962   1.268   7.269 -0.1155  1.9070  0.2420
 6177SOL     OW29992   0.400   1.359   2.197 -0.0058 -0.0190  0.1176
 6177SOL    HW129993   0.383   1.414   2.121 -1.9777 -0.1322  0.4627
 6177SOL    HW229994   0.477   1.307   2.174  0.0562 -0.2482  0.8403
 6178SOL     OW29995   2.429   0.723   9.290  0.4598 -0.2486  0.0268
 6178SOL    HW129996   2.500   0.659   9.297  1.5335  1.0660  1.2751
 6178SOL    HW229997   2.483   0.802   9.297 -1.1476  0.8358  0.0716
 6179SOL     OW29998   4.427   3.199   4.106 -0.2871  0.3834  0.0637
 6179SOL    HW129999   4.498   3.139   4.080  0.1463  0.5481  0.8750
 6179SOL    HW230000   4.367   3.160   4.042  0.4512 -2.7352  1.2531
 6180SOL     OW30001   3.566   4.681   5.586  0.4034 -0.2694  0.0018
 6180SOL    HW130002   3.630   0.021   5.556  1.2554 -0.6884  0.9265
 6180SOL    HW230003   3.486   4.701   5.539 -0.6069  2.9049  3.1363
 6181SOL     OW30004   3.968   1.088   6.886 -0.3452 -0.6069 -0.4255
 6181SOL    HW130005   3.887   1.044   6.859 -0.2770 -0.1347 -1.4152
 6181SOL    HW230006   3.940   1.179   6.887  0.6773 -0.2933 -0.3210
 6182SOL     OW30007   0.478   2.507  15.452 -0.4706  0.1596 -0.6886
 6182SOL    HW130008   0.557   2.537  15.405 -0.4819 -1.1160 -1.5136
 6182SOL    HW230009   0.439   2.433  15.407  0.3821 -1.9074  2.0053
 6183SOL     OW30010   1.023   1.275   3.898 -0.0169 -0.0102 -0.4196
 6183SOL    HW130011   0.974   1.297   3.978  1.3409  2.6054 -0.2998
 6183SOL    HW230012   1.060   1.360   3.871  0.8207 -0.2887 -0.1293
 6184SOL     OW30013   0.476   3.198   5.974 -0.0669  0.6989 -0.3355
 6184SOL    HW130014   0.486   3.272   5.915 -0.6968 -0.0748 -1.4185
 6184SOL    HW230015   0.529   3.135   5.925 -2.1995 -0.9943 -0.4896
 6185SOL     OW30016   1.552   4.002  14.538 -0.1417  0.0353  0.3368
 6185SOL    HW130017   1.494   3.968  14.469 -0.2324  0.6429  0.1164
 6185SOL    HW230018   1.534   3.951  14.617  0.8355 -1.1951 -0.2278
 6186SOL     OW30019   3.241   1.842   6.269 -0.0340 -0.5585  0.6766
 6186SOL    HW130020   3.191   1.860   6.348  1.4186  0.0739  1.4468
 6186SOL    HW230021   3.312   1.906   6.265  0.4671 -1.2019 -0.8633
 6187SOL     OW30022   0.826   2.648  13.238 -0.0141  0.5834  0.0405
 6187SOL    HW130023   0.739   2.665  13.202 -0.1318  1.7615  0.8675
 6187SOL    HW230024   0.896   2.663  13.175  0.0958 -1.3875 -0.3040
 6188SOL     OW30025   2.460   1.526   9.320 -0.8057  0.4852  0.4700
 6188SOL    HW130026   2.537   1.503   9.267 -1.8562  1.7335 -1.5956
 6188SOL    HW230027   2.504   1.558   9.399  0.9611  0.8576 -0.6543
 6189SOL     OW30028   1.051   1.817   8.600  0.3836  0.1711  0.8468
 6189SOL    HW130029   0.974   1.867   8.629 -0.5032 -0.3936 -0.4919
 6189SOL    HW230030   1.121   1.861   8.648  2.4122 -2.6478  0.4643
 6190SOL     OW30031   2.837   0.532   6.503 -0.0717 -0.2869 -0.5041
 6190SOL    HW130032   2.841   0.627   6.496  0.5633 -0.3051 -0.4104
 6190SOL    HW230033   2.762   0.514   6.560 -1.9212 -0.6522 -3.0682
 6191SOL     OW30034   0.507   1.321   8.257  0.4516  0.2380  0.4851
 6191SOL    HW130035   0.566   1.388   8.222 -1.2733  0.8912 -1.1918
 6191SOL    HW230036   0.470   1.353   8.339 -2.1540  3.5368 -1.9666
 6192SOL     OW30037   3.431   3.281  13.746  0.4543  0.3163  0.1092
 6192SOL    HW130038   3.391   3.236  13.820 -1.9145  0.2275 -1.2359
 6192SOL    HW230039   3.457   3.208  13.690  1.2847  1.8406 -1.5029
 6193SOL     OW30040   1.115   3.036   9.389  0.0431  0.2983 -0.0400
 6193SOL    HW130041   1.059   2.986   9.448 -0.1784  1.0917  0.4065
 6193SOL    HW230042   1.188   3.059   9.447  1.5067 -2.4103 -0.7909
 6194SOL     OW30043   2.533   2.065   7.300  0.4280 -0.5167  0.5261
 6194SOL    HW130044   2.510   2.158   7.287  1.4484 -0.3620 -0.1462
 6194SOL    HW230045   2.520   2.029   7.212 -2.3159 -1.5874  1.3688
 6195SOL     OW30046   1.255   2.377   6.657  0.3801  0.5036  1.0313
 6195SOL    HW130047   1.224   2.397   6.569 -1.1730 -1.6444  1.0963
 6195SOL    HW230048   1.255   2.282   6.665 -0.2132  0.4230 -0.0194
 6196SOL     OW30049   4.529   1.485  13.312  0.0081  0.2865  0.7143
 6196SOL    HW130050   4.487   1.493  13.398  0.7098 -1.2924  1.2101
 6196SOL    HW230051   4.454   1.487  13.252 -0.7098 -2.2317  1.5049
 6197SOL     OW30052   2.897   2.586   2.967 -0.6148 -0.0014 -0.1560
 6197SOL    HW130053   2.832   2.653   2.990  1.2606  1.4096  1.0170
 6197SOL    HW230054   2.859   2.552   2.886 -0.5123  0.9282 -0.5943
 6198SOL     OW30055   0.962   0.629   5.319  0.1440  0.6838  0.2785
 6198SOL    HW130056   1.055   0.608   5.312 -0.2405 -1.0324  0.0785
 6198SOL    HW230057   0.936   0.575   5.244  1.7049  2.7415 -1.7486
 6199SOL     OW30058   2.248   4.675   5.751  0.0013 -0.2902 -0.4420
 6199SOL    HW130059   2.339   4.664   5.724  0.3246  1.7529 -0.2016
 6199SOL    HW230060   2.210   0.019   5.697  1.0268  0.6534  0.0465
 6200SOL     OW30061   1.266   0.704   6.133  0.0252 -0.1109  0.2334
 6200SOL    HW130062   1.196   0.679   6.194  0.0518 -1.1293 -0.1563
 6200SOL    HW230063   1.336   0.734   6.191 -1.0484 -0.1136  1.5350
 6201SOL     OW30064   0.291   0.105   2.179  0.1570 -0.2040  0.3117
 6201SOL    HW130065   0.373   0.130   2.222  0.3291  0.9400 -0.6589
 6201SOL    HW230066   0.278   0.168   2.108 -0.7993 -2.7539 -1.7546
 6202SOL     OW30067   2.668   2.961   1.404 -0.0699  0.4255 -0.0329
 6202SOL    HW130068   2.612   3.019   1.353 -0.0829 -0.7044 -1.2952
 6202SOL    HW230069   2.685   2.896   1.335  3.8420  0.3968  0.9532
 6203SOL     OW30070   2.358   4.039   8.651  0.1532 -0.2390  0.1609
 6203SOL    HW130071   2.426   4.088   8.699  0.9687  0.7826 -2.0483
 6203SOL    HW230072   2.407   3.967   8.611  1.3102 -0.7747  2.5502
 6204SOL     OW30073   3.052   3.663   9.515  0.3910 -0.5707 -0.6173
 6204SOL    HW130074   3.123   3.702   9.567 -0.3481 -0.5911  0.4087
 6204SOL    HW230075   2.988   3.623   9.573 -0.3037  3.4841  1.3852
 6205SOL     OW30076   0.057   3.475  11.322  0.3886  0.0610 -0.1860
 6205SOL    HW130077   0.127   3.476  11.386 -1.3604  0.3295  1.7280
 6205SOL    HW230078   4.708   3.444  11.375  1.6123 -0.4610  1.1976
 6206SOL     OW30079   2.700   4.298   8.182  0.2012  0.2531 -0.2166
 6206SOL    HW130080   2.672   4.388   8.168 -0.7535  0.5568  3.8495
 6206SOL    HW230081   2.777   4.307   8.238 -1.7311 -1.3162  2.6857
 6207SOL     OW30082   0.945   4.535   7.925  0.2980 -0.0265 -0.3957
 6207SOL    HW130083   1.011   4.576   7.980 -0.1515 -0.3438  0.3800
 6207SOL    HW230084   0.922   4.612   7.873  0.7880 -2.2010 -3.7971
 6208SOL     OW30085   0.697   4.290   3.556  0.1969 -0.0458 -0.1516
 6208SOL    HW130086   0.742   4.239   3.624 -0.5671 -1.9076 -1.0426
 6208SOL    HW230087   0.645   4.225   3.508 -0.8421 -0.2140  1.1794
 6209SOL     OW30088   2.403   2.993   3.020 -0.0975  0.0603  0.2142
 6209SOL    HW130089   2.376   2.995   2.928  2.8699 -2.0001 -0.6901
 6209SOL    HW230090   2.362   2.915   3.059 -1.7336  1.2956  1.0100
 6210SOL     OW30091   3.387   3.197  14.671  0.4086 -0.4208 -0.0310
 6210SOL    HW130092   3.365   3.120  14.725 -1.1077  0.2118  0.2503
 6210SOL    HW230093   3.378   3.167  14.580 -1.5011 -2.1753  0.7003
 6211SOL     OW30094   1.148   3.993   6.410 -0.1302 -0.1892  0.0973
 6211SOL    HW130095   1.122   4.000   6.502  0.7130 -0.9324  0.3941
 6211SOL    HW230096   1.126   4.078   6.373 -0.3475 -0.5092 -0.5059
 6212SOL     OW30097   2.715   3.324   9.004 -0.5610  0.3162  0.0915
 6212SOL    HW130098   2.649   3.311   9.071  1.2599  0.3380  1.8974
 6212SOL    HW230099   2.791   3.309   9.061 -0.3868 -0.5699 -0.3768
 6213SOL     OW30100   2.067   1.698  16.780 -0.3866 -0.0501 -0.5627
 6213SOL    HW130101   1.994   1.759  16.792 -0.0193  0.5048 -1.2042
 6213SOL    HW230102   2.041   1.637  16.849  2.8570 -0.4026  0.3320
 6214SOL     OW30103   0.816   3.379   7.766 -0.6356 -0.2402  0.1922
 6214SOL    HW130104   0.880   3.395   7.697  2.5803 -0.6073  3.0821
 6214SOL    HW230105   0.742   3.357   7.708 -0.9266 -0.3110  0.5888
 6215SOL     OW30106   4.333   1.759   7.613  0.7819  0.7575  0.2118
 6215SOL    HW130107   4.282   1.839   7.622  0.3039  0.0771  3.2781
 6215SOL    HW230108   4.404   1.780   7.552  0.1877 -1.6864 -1.3480
 6216SOL     OW30109   3.081   2.256   5.152  0.3166 -0.1587 -0.1117
 6216SOL    HW130110   3.084   2.248   5.056 -1.6911 -1.9929 -0.0108
 6216SOL    HW230111   3.169   2.229   5.179  1.1575  1.4132 -1.2393
 6217SOL     OW30112   2.472   3.558   6.106 -0.4639 -0.4333 -0.0737
 6217SOL    HW130113   2.563   3.559   6.079  0.0104 -2.7324  1.5106
 6217SOL    HW230114   2.482   3.577   6.199  2.3159  3.7158 -1.2080
 6218SOL     OW30115   0.346   0.997   5.333 -0.2670 -0.3796  0.0735
 6218SOL    HW130116   0.352   0.944   5.254  0.2830  1.6119 -1.2268
 6218SOL    HW230117   0.251   1.002   5.343 -0.3028 -1.0595  0.1096
 6219SOL     OW30118   2.542   2.365   2.028  0.1555 -0.2010  0.0873
 6219SOL    HW130119   2.513   2.403   1.945 -1.0082 -1.1496  0.0617
 6219SOL    HW230120   2.537   2.442   2.085  2.0150  0.2094 -0.2852
 6220SOL     OW30121   3.406   2.911  10.595  0.2411 -0.2193  0.0283
 6220SOL    HW130122   3.474   2.881  10.656  0.5227 -1.1434 -0.7374
 6220SOL    HW230123   3.382   2.825  10.560 -1.7443 -0.8059  2.8169
 6221SOL     OW30124   2.842   1.301   8.057 -0.1870  0.0916  0.1146
 6221SOL    HW130125   2.824   1.317   8.150 -0.7206 -0.1876  0.0610
 6221SOL    HW230126   2.804   1.381   8.022 -0.8834 -0.2700  0.0326
 6222SOL     OW30127   3.419   0.577  12.998  0.2772 -0.0398  0.0964
 6222SOL    HW130128   3.472   0.543  13.070  1.3452 -0.5306 -0.9159
 6222SOL    HW230129   3.424   0.672  13.009  0.6879 -0.2606  1.7775
 6223SOL     OW30130   0.867   1.196   0.863  0.2077 -0.1733 -0.4582
 6223SOL    HW130131   0.922   1.196   0.941  2.3626 -0.4386 -1.9897
 6223SOL    HW230132   0.804   1.263   0.893  1.6999  0.7409  0.6215
 6224SOL     OW30133   3.010   0.977   5.049  0.9328 -0.1639  0.0343
 6224SOL    HW130134   2.992   0.887   5.073  0.4851  0.1552  0.8826
 6224SOL    HW230135   3.091   0.982   5.100  1.5493 -2.1802 -0.7633
 6225SOL     OW30136   4.476   2.179   7.905  0.0903  0.2558 -0.3604
 6225SOL    HW130137   4.486   2.095   7.949 -0.0679  0.2653 -0.3056
 6225SOL    HW230138   4.462   2.237   7.980 -2.5456  1.4143 -1.7034
 6226SOL     OW30139   2.872   0.053   1.756  0.4134 -0.1677  0.1221
 6226SOL    HW130140   2.904   0.084   1.841 -0.2195  0.9176 -0.0326
 6226SOL    HW230141   2.839   0.134   1.715 -1.2240 -1.5431 -1.2819
 6227SOL     OW30142   1.825   1.240  12.120  1.3025  0.5931 -0.4193
 6227SOL    HW130143   1.808   1.154  12.081 -0.4618  1.6939 -2.0463
 6227SOL    HW230144   1.752   1.300  12.105  1.6491  0.8716 -1.0167
 6228SOL     OW30145   3.370   2.323  12.825  0.0024 -0.0049  0.2404
 6228SOL    HW130146   3.448   2.377  12.814 -0.1114  0.0415 -0.3166
 6228SOL    HW230147   3.367   2.277  12.741  0.6209 -0.1078  0.2682
 6229SOL     OW30148   1.366   2.113   2.302  0.6181  0.0240 -0.3302
 6229SOL    HW130149   1.343   2.167   2.377  3.4547  0.1707  0.4149
 6229SOL    HW230150   1.353   2.170   2.226 -1.5323  0.9262  0.7018
 6230SOL     OW30151   0.272   2.105   5.589 -0.4629 -0.1771 -0.3045
 6230SOL    HW130152   0.310   2.020   5.565 -1.7330 -1.2148  1.3178
 6230SOL    HW230153   0.352   2.150   5.617  0.1559  0.3445 -2.8952
 6231SOL     OW30154   3.026   0.809   3.139 -0.3067 -0.5941  0.8526
 6231SOL    HW130155   2.989   0.761   3.065  0.6687  0.9019 -0.6084
 6231SOL    HW230156   2.956   0.811   3.204  0.7120 -2.8817  2.0352
 6232SOL     OW30157   0.913   0.575   6.017 -0.2333 -0.5229 -0.8756
 6232SOL    HW130158   0.888   0.666   6.035 -2.5166 -0.8707 -2.4004
 6232SOL    HW230159   0.970   0.554   6.091 -1.6317 -0.1005  0.3163
 6233SOL     OW30160   3.454   0.282   9.836 -0.0327  0.1716 -0.4766
 6233SOL    HW130161   3.362   0.280   9.807  0.0251  0.2442 -0.6632
 6233SOL    HW230162   3.465   0.369   9.874  1.5984  0.2238 -1.0785
 6234SOL     OW30163   0.504   0.748   2.830 -0.4199  0.2093 -0.6928
 6234SOL    HW130164   0.528   0.799   2.753  1.1105 -2.3521 -1.9130
 6234SOL    HW230165   0.429   0.699   2.795  1.4293 -2.5134 -0.8819
 6235SOL     OW30166   0.668   3.106  10.854 -0.2079  0.0259  0.6089
 6235SOL    HW130167   0.655   3.179  10.915 -0.3721  0.3949  0.1314
 6235SOL    HW230168   0.705   3.040  10.913 -1.9228 -2.2169 -0.8007
 6236SOL     OW30169   2.309   1.447  11.170 -0.1314  0.0837  0.4411
 6236SOL    HW130170   2.331   1.433  11.262 -0.5895 -2.6977  0.1325
 6236SOL    HW230171   2.213   1.447  11.175 -0.1213 -0.2021  0.6217
 6237SOL     OW30172   1.356   2.359   7.517  0.0358  0.0709  0.3292
 6237SOL    HW130173   1.388   2.416   7.448  1.2704 -1.6189 -0.4977
 6237SOL    HW230174   1.362   2.412   7.596 -1.4259  0.5843  0.0972
 6238SOL     OW30175   0.581   0.522   9.515 -0.0810 -0.3797 -0.2482
 6238SOL    HW130176   0.507   0.477   9.555 -0.0203 -1.3215 -1.1688
 6238SOL    HW230177   0.631   0.561   9.586  0.1349  0.2170 -0.7254
 6239SOL     OW30178   4.417   2.928   4.338 -0.4194 -0.6869 -0.2889
 6239SOL    HW130179   4.331   2.930   4.381  0.3500  2.6240  1.0613
 6239SOL    HW230180   4.438   3.015   4.305 -1.0208 -0.1404  0.7713
 6240SOL     OW30181   0.145   2.961  12.353 -0.1709  0.2824  0.2371
 6240SOL    HW130182   0.236   2.970  12.383  0.0295  0.7545 -0.4960
 6240SOL    HW230183   0.142   2.871  12.322  4.0761 -0.2565  1.2879
 6241SOL     OW30184   1.531   0.433  13.998 -0.6068 -0.2966  0.1347
 6241SOL    HW130185   1.493   0.520  14.006  2.1801  0.9366 -0.0039
 6241SOL    HW230186   1.493   0.383  14.070  1.8967 -0.4763  1.3638
 6242SOL     OW30187   1.178   1.397   0.837  0.2892 -0.0677  0.2610
 6242SOL    HW130188   1.155   1.395   0.744 -1.8064 -0.1680  0.7904
 6242SOL    HW230189   1.094   1.404   0.881 -0.3864 -1.0152 -0.8868
 6243SOL     OW30190   2.929   1.802   1.299 -0.3239  0.1501 -0.4330
 6243SOL    HW130191   2.834   1.796   1.307 -0.5562  3.2900 -0.8290
 6243SOL    HW230192   2.938   1.714   1.263  0.6235 -1.8650  4.6956
 6244SOL     OW30193   2.495   2.726   2.724  0.3034 -0.0513 -0.6218
 6244SOL    HW130194   2.578   2.722   2.676  0.0980 -0.7822 -0.9033
 6244SOL    HW230195   2.490   2.660   2.793  0.0328 -2.3198 -2.8107
 6245SOL     OW30196   0.531   3.414   8.578  0.1794 -0.2991  0.1908
 6245SOL    HW130197   0.518   3.395   8.671  1.5742  0.2145  0.5043
 6245SOL    HW230198   0.622   3.444   8.568  0.7643 -2.5752 -1.3288
 6246SOL     OW30199   4.100   4.147   3.785  0.0505 -0.5685  0.2483
 6246SOL    HW130200   4.109   4.072   3.727 -1.1741 -0.1139 -0.5272
 6246SOL    HW230201   4.063   4.216   3.730  0.1751  0.7216  1.7653
 6247SOL     OW30202   2.538   1.732  16.985  0.2495  0.1904  0.3427
 6247SOL    HW130203   2.499   1.781  16.913 -2.5191 -1.0239  1.0177
 6247SOL    HW230204   2.501   1.644  16.982  0.6359 -0.0203  1.7368
 6248SOL     OW30205   0.532   2.279   7.745 -0.3868 -0.0879  0.4968
 6248SOL    HW130206   0.521   2.299   7.838  0.3635  1.2462  0.2851
 6248SOL    HW230207   0.444   2.285   7.708  0.0947  1.5032 -0.3932
 6249SOL     OW30208   3.269   1.760   3.450 -0.5957 -0.6741 -0.5865
 6249SOL    HW130209   3.331   1.698   3.487 -0.0063  0.4789  0.3443
 6249SOL    HW230210   3.312   1.789   3.369  1.5574 -0.6947  0.5660
 6250SOL     OW30211   2.611   3.841   6.176  0.0489  0.2358  0.6794
 6250SOL    HW130212   2.603   3.763   6.231 -0.9938 -0.6828 -0.7619
 6250SOL    HW230213   2.598   3.810   6.086 -0.0238  2.6964 -0.1614
 6251SOL     OW30214   2.630   1.817   0.782 -0.0731  0.8036  0.2510
 6251SOL    HW130215   2.681   1.895   0.806  1.9647 -0.4382 -0.0719
 6251SOL    HW230216   2.580   1.817   0.863  0.7473  0.5306  0.7480
 6252SOL     OW30217   3.641   3.942   5.615  1.0201 -0.9137 -0.8665
 6252SOL    HW130218   3.691   4.003   5.561  0.6577  0.4160  0.3055
 6252SOL    HW230219   3.706   3.878   5.643  0.1774 -1.4794 -0.2090
 6253SOL     OW30220   0.333   1.228   3.195  0.2383  0.0222 -0.2955
 6253SOL    HW130221   0.377   1.238   3.110  1.4024  0.3045  0.3466
 6253SOL    HW230222   0.368   1.307   3.235  0.4744 -0.0250 -0.4037
 6254SOL     OW30223   1.949   4.267  16.177  0.3367 -0.6768 -0.4470
 6254SOL    HW130224   1.975   4.357  16.158 -1.4571  0.4321  2.2195
 6254SOL    HW230225   1.860   4.276  16.142 -1.3073 -2.8927  3.1923
 6255SOL     OW30226   4.565   0.657   1.307 -0.6393 -0.3955 -0.2197
 6255SOL    HW130227   4.623   0.600   1.357  0.2922  0.4098 -0.3761
 6255SOL    HW230228   4.554   0.600   1.231  1.5144  1.2195 -1.7790
 6256SOL     OW30229   0.804   2.576   8.244  0.3801 -0.1996  0.4354
 6256SOL    HW130230   0.772   2.593   8.333  0.1688  1.2024  0.0895
 6256SOL    HW230231   0.878   2.515   8.248  3.1285  3.1553  0.3300
 6257SOL     OW30232   1.462   3.264   3.205  0.1346 -0.1275  0.0784
 6257SOL    HW130233   1.467   3.209   3.127  0.5994 -0.2228  0.1741
 6257SOL    HW230234   1.509   3.211   3.270  0.3229  0.9971  0.8562
 6258SOL     OW30235   2.865   1.112   2.992  0.2342  0.2592  0.4171
 6258SOL    HW130236   2.878   1.207   2.991 -0.5007  0.3536 -0.1245
 6258SOL    HW230237   2.783   1.110   2.942  0.3626  1.2617  0.1625
 6259SOL     OW30238   1.458   2.513  11.115  0.1862  0.3002  0.1236
 6259SOL    HW130239   1.453   2.417  11.112  2.8812  0.1466  0.8486
 6259SOL    HW230240   1.485   2.524  11.206  0.1793 -0.7872  0.2638
 6260SOL     OW30241   1.273   2.867  11.875  0.0601  0.1543  0.4814
 6260SOL    HW130242   1.268   2.961  11.856  2.2035 -0.1805 -1.7335
 6260SOL    HW230243   1.366   2.851  11.892 -0.4850 -0.8837  2.5030
 6261SOL     OW30244   0.282   2.889   6.220 -0.2452  0.0662 -0.0578
 6261SOL    HW130245   0.341   2.837   6.166  2.8550  0.1020  3.3091
 6261SOL    HW230246   0.336   2.898   6.299  3.5129  0.5645 -2.6541
 6262SOL     OW30247   3.285   1.863  10.316  0.2199 -0.3747 -0.5304
 6262SOL    HW130248   3.217   1.924  10.346  1.5487  1.7835 -1.8612
 6262SOL    HW230249   3.263   1.858  10.223 -0.4748 -0.3498 -0.3631
 6263SOL     OW30250   3.290   0.644   6.813 -0.0006 -0.4661 -0.4694
 6263SOL    HW130251   3.292   0.716   6.876  0.8051 -0.3915 -0.5790
 6263SOL    HW230252   3.218   0.592   6.848 -1.0860  0.1156 -1.7980
 6264SOL     OW30253   3.213   3.647  10.381  0.7073  0.1950  0.2056
 6264SOL    HW130254   3.261   3.590  10.441  1.1817 -0.3491 -0.6948
 6264SOL    HW230255   3.133   3.596  10.369  0.2959  0.9513 -0.2195
 6265SOL     OW30256   2.788   2.003  15.180  0.6889  0.0573  0.5490
 6265SOL    HW130257   2.759   1.956  15.258 -0.2200 -0.7292 -0.2641
 6265SOL    HW230258   2.754   1.948  15.109 -2.0908  0.7205  1.3883
 6266SOL     OW30259   1.857   1.930   0.407  0.2925  0.2947 -0.4801
 6266SOL    HW130260   1.941   1.966   0.437 -0.6933  0.8322  1.6023
 6266SOL    HW230261   1.799   2.005   0.419  0.1895  0.1290  0.0769
 6267SOL     OW30262   4.204   3.640   5.119 -0.0812  0.4969 -0.8248
 6267SOL    HW130263   4.174   3.729   5.134  1.3848  0.5056  2.1783
 6267SOL    HW230264   4.296   3.649   5.092 -0.5553  3.0146 -1.5540
 6268SOL     OW30265   3.571   3.202  15.930  0.1553 -0.4948 -0.4450
 6268SOL    HW130266   3.484   3.230  15.956  0.7886  1.9657 -0.9539
 6268SOL    HW230267   3.588   3.126  15.985  2.8299 -0.6860 -1.5120
 6269SOL     OW30268   0.942   3.563   7.279 -0.2167  0.1532  0.3845
 6269SOL    HW130269   1.008   3.568   7.209 -1.0315 -0.7080 -0.4505
 6269SOL    HW230270   0.932   3.656   7.299  2.6030  0.1388  1.8538
 6270SOL     OW30271   0.084   3.271   6.312 -0.0332 -0.6861  1.0372
 6270SOL    HW130272   0.168   3.258   6.268 -0.9320 -0.9434 -0.5984
 6270SOL    HW230273   0.034   3.204   6.265  0.4518  0.6590 -1.3939
 6271SOL     OW30274   1.162   2.988   3.651 -0.3697  0.3737  0.2282
 6271SOL    HW130275   1.199   3.071   3.622  1.0870  0.2065  1.5663
 6271SOL    HW230276   1.068   3.003   3.657 -0.0453  1.8986  1.3931
 6272SOL     OW30277   0.798   2.944   4.210  0.0758  0.2871  0.2122
 6272SOL    HW130278   0.830   2.871   4.156  1.2004 -0.1812  1.5232
 6272SOL    HW230279   0.879   2.974   4.251  0.7308  0.9627 -1.5769
 6273SOL     OW30280   2.751   4.093  15.960  0.2751  0.0161 -0.0682
 6273SOL    HW130281   2.699   4.093  16.041  0.3103 -1.2779 -0.0428
 6273SOL    HW230282   2.806   4.017  15.980  1.3110  0.7187 -0.2551
 6274SOL     OW30283   3.193   4.272  11.889  0.3433  0.7852 -0.2068
 6274SOL    HW130284   3.113   4.306  11.848  0.5396  0.5963 -0.7511
 6274SOL    HW230285   3.222   4.204  11.828  0.2388  0.4005  0.1757
 6275SOL     OW30286   1.152   1.306   5.365 -0.3876 -0.4226  0.5105
 6275SOL    HW130287   1.192   1.259   5.292  1.5335  1.5824  0.2947
 6275SOL    HW230288   1.083   1.243   5.388 -0.7343  0.3282  1.5150
 6276SOL     OW30289   2.860   4.575  16.702  0.1548 -0.1798  0.0057
 6276SOL    HW130290   2.831   4.645  16.761  1.7193 -0.9725  1.7219
 6276SOL    HW230291   2.809   4.503  16.739  2.4315 -2.8720 -2.1250
 6277SOL     OW30292   4.302   4.329   8.874  0.1670  0.2012 -0.3615
 6277SOL    HW130293   4.229   4.267   8.864 -1.0628  1.8232 -1.4197
 6277SOL    HW230294   4.259   4.412   8.897 -0.3933 -0.9122  2.6846
 6278SOL     OW30295   1.693   1.005   3.203 -0.0669 -0.4318 -0.2559
 6278SOL    HW130296   1.783   1.037   3.205 -0.5950  1.2339 -2.7271
 6278SOL    HW230297   1.664   1.067   3.135  0.4536 -1.1079 -1.0837
 6279SOL     OW30298   1.102   1.328   7.398 -0.2429 -0.6965 -0.0287
 6279SOL    HW130299   1.019   1.316   7.351  0.4272 -2.4992 -0.7361
 6279SOL    HW230300   1.114   1.421   7.383  0.3484 -0.4892  1.7977
 6280SOL     OW30301   2.715   1.337  17.035  0.0573 -0.3517  0.1653
 6280SOL    HW130302   2.671   1.255  17.011 -0.9424 -0.0043  0.8256
 6280SOL    HW230303   2.689   1.395  16.964 -0.6495 -0.7121  0.1374
 6281SOL     OW30304   3.509   4.036   0.837  0.5912 -0.8509  0.2207
 6281SOL    HW130305   3.435   4.096   0.839  0.6225 -0.8884  2.6476
 6281SOL    HW230306   3.502   3.990   0.753 -1.9825  0.8670 -0.4982
 6282SOL     OW30307   4.085   0.556   7.338 -0.2493  0.7962  0.5203
 6282SOL    HW130308   4.024   0.542   7.410 -1.9844 -1.2263 -1.3654
 6282SOL    HW230309   4.066   0.643   7.302  0.8439  0.5015 -0.7831
 6283SOL     OW30310   3.600   0.519   7.455  0.0499 -0.5870  0.0153
 6283SOL    HW130311   3.571   0.443   7.406 -3.4416  0.8045 -0.0924
 6283SOL    HW230312   3.610   0.569   7.374 -1.1924 -2.0755 -1.0372
 6284SOL     OW30313   3.126   3.166  11.532 -0.4608  0.0525  0.2196
 6284SOL    HW130314   3.213   3.204  11.543 -0.3059 -0.2086 -0.0909
 6284SOL    HW230315   3.072   3.243  11.549  1.2793  1.7222 -1.8247
 6285SOL     OW30316   2.289   1.336  17.192 -0.2845 -0.3568 -0.0773
 6285SOL    HW130317   2.227   1.378  17.252  0.3683 -0.4822  0.6933
 6285SOL    HW230318   2.368   1.330  17.246 -0.1278 -0.9592 -0.3769
 6286SOL     OW30319   0.284   1.818  12.572  0.8667  0.5538  0.1741
 6286SOL    HW130320   0.342   1.806  12.647 -1.4859 -0.5771  1.8398
 6286SOL    HW230321   0.351   1.823  12.504 -0.6087 -1.2828 -1.4027
 6287SOL     OW30322   0.133   3.471   7.733  0.1913 -0.3212 -0.3639
 6287SOL    HW130323   0.038   3.477   7.724  0.1638 -0.1465  0.0453
 6287SOL    HW230324   0.152   3.532   7.805  0.3295  1.5699 -1.9847
 6288SOL     OW30325   4.546   2.712  17.201  0.0001 -0.0311 -0.3355
 6288SOL    HW130326   4.615   2.689  17.263 -0.5965  1.5873  0.9327
 6288SOL    HW230327   4.571   2.804  17.186 -1.1522  0.2231 -0.7441
 6289SOL     OW30328   1.609   0.166   8.370  0.0826  0.3572  0.0045
 6289SOL    HW130329   1.522   0.154   8.409 -0.2545 -1.3928 -1.2749
 6289SOL    HW230330   1.592   0.199   8.282 -2.9449  1.7536  1.1114
 6290SOL     OW30331   1.756   1.993   2.509 -0.1980  0.0686  0.6978
 6290SOL    HW130332   1.851   2.006   2.500 -0.5937  2.1079 -0.4228
 6290SOL    HW230333   1.727   2.048   2.437  0.0915  0.3333  0.7820
 6291SOL     OW30334   2.779   0.711   0.803  0.3956  0.5342  0.1467
 6291SOL    HW130335   2.705   0.650   0.806  0.2660  0.7133  0.7183
 6291SOL    HW230336   2.810   0.693   0.715 -1.1258  1.0005 -0.4892
 6292SOL     OW30337   2.268   1.278  13.561  0.3140 -0.0686  0.0803
 6292SOL    HW130338   2.234   1.308  13.645 -0.3097 -0.4117 -0.0493
 6292SOL    HW230339   2.363   1.284  13.575 -0.0268 -0.3847  2.4384
 6293SOL     OW30340   4.717   2.993   2.715  0.2951 -0.1288 -0.2113
 6293SOL    HW130341   4.640   2.987   2.658 -1.2116 -0.2382  1.8106
 6293SOL    HW230342   4.680   3.026   2.798 -1.2764 -1.3578 -0.4262
 6294SOL     OW30343   2.562   3.454   1.520 -0.5152 -0.3545 -0.3275
 6294SOL    HW130344   2.620   3.385   1.488  0.8136  0.6235 -0.0246
 6294SOL    HW230345   2.619   3.531   1.528  0.8732 -1.5300  0.9792
 6295SOL     OW30346   2.448   3.163   7.771 -0.1691  0.0563 -0.1801
 6295SOL    HW130347   2.447   3.233   7.705  0.0153 -0.8722 -1.1720
 6295SOL    HW230348   2.541   3.148   7.788  0.1782  1.4467 -0.8241
 6296SOL     OW30349   1.085   1.710   8.945 -0.3295  0.9608  0.5702
 6296SOL    HW130350   1.134   1.765   9.005 -0.1200  0.1715  1.1227
 6296SOL    HW230351   1.138   1.707   8.864 -2.3035 -0.4166 -0.6669
 6297SOL     OW30352   2.347   2.440   1.462 -0.0380  0.1885 -0.1517
 6297SOL    HW130353   2.263   2.394   1.453 -0.0699  0.1610  0.3093
 6297SOL    HW230354   2.391   2.369   1.508 -1.5409  0.0066  0.9950
 6298SOL     OW30355   0.873   3.788   6.984 -0.1422  0.5830 -0.1606
 6298SOL    HW130356   0.919   3.848   7.042  1.6151 -1.7623  0.8425
 6298SOL    HW230357   0.785   3.812   7.013 -0.5143  0.4104 -1.1480
 6299SOL     OW30358   3.939   2.818   5.673 -0.1804 -0.2838  0.6935
 6299SOL    HW130359   3.940   2.734   5.719  0.0129 -0.2604  0.7312
 6299SOL    HW230360   3.977   2.788   5.590  0.0107  0.5128  0.4975
 6300SOL     OW30361   3.545   0.005   5.188  0.0159 -0.4401  0.6568
 6300SOL    HW130362   3.619   4.689   5.232  0.8286 -0.5493 -0.8082
 6300SOL    HW230363   3.582   0.091   5.166  1.4353 -1.4598 -0.9096
 6301SOL     OW30364   3.107   2.856  12.360  0.7791 -0.1175  0.3401
 6301SOL    HW130365   3.027   2.804  12.349  0.8984 -0.9176  3.2091
 6301SOL    HW230366   3.114   2.895  12.273  2.7178 -3.7147 -1.0906
 6302SOL     OW30367   1.369   0.278   9.203  0.1592  0.1825 -0.2938
 6302SOL    HW130368   1.295   0.258   9.261  0.9594 -0.3374  0.5389
 6302SOL    HW230369   1.409   0.339   9.265  1.0687  0.1892 -0.8941
 6303SOL     OW30370   3.633   2.443   5.679 -0.4031  0.3047  0.7280
 6303SOL    HW130371   3.564   2.509   5.674 -3.6149 -3.1585 -0.7802
 6303SOL    HW230372   3.598   2.390   5.751 -1.9765  0.9674  0.4509
 6304SOL     OW30373   1.727   2.437   4.585 -0.6652 -0.3223 -0.5412
 6304SOL    HW130374   1.748   2.529   4.598 -1.1308  0.1186 -2.9345
 6304SOL    HW230375   1.632   2.449   4.579 -0.6700 -1.2964 -2.3004
 6305SOL     OW30376   2.376   1.340   5.423  0.3013  0.2065 -0.5881
 6305SOL    HW130377   2.449   1.305   5.475 -1.3643 -0.6551  1.1818
 6305SOL    HW230378   2.327   1.387   5.491  0.3838  0.9363 -1.0321
 6306SOL     OW30379   1.615   1.486   7.041 -0.2931  0.2021 -0.5910
 6306SOL    HW130380   1.592   1.403   6.999 -2.6767  0.8287 -0.5171
 6306SOL    HW230381   1.535   1.509   7.089  0.4365 -1.9444  1.6744
 6307SOL     OW30382   1.708   4.116   5.409  0.0331 -0.0174 -0.0862
 6307SOL    HW130383   1.786   4.116   5.465 -1.3977  0.7217  1.8941
 6307SOL    HW230384   1.740   4.136   5.321  0.3959  0.2356  0.1031
 6308SOL     OW30385   2.936   4.357   0.613 -0.0347 -0.0989 -0.2191
 6308SOL    HW130386   2.954   4.446   0.581  2.0397 -0.3800  0.1342
 6308SOL    HW230387   2.918   4.319   0.527 -0.7811  0.8920 -0.5060
 6309SOL     OW30388   1.398   4.429   0.431  0.4757  1.1148  0.0509
 6309SOL    HW130389   1.450   4.506   0.455  0.8276  1.2726 -1.2382
 6309SOL    HW230390   1.370   4.408   0.520  1.7338 -0.5475  0.0618
 6310SOL     OW30391   1.928   3.977   6.229 -0.2820 -0.3323  0.0754
 6310SOL    HW130392   1.963   4.019   6.151  0.5263 -0.1232  0.5437
 6310SOL    HW230393   1.947   4.039   6.300  0.3723 -1.2721  0.7339
 6311SOL     OW30394   1.021   3.673   7.936 -0.1647  0.1583 -0.1880
 6311SOL    HW130395   0.988   3.736   8.000 -0.5035 -0.4209  0.2008
 6311SOL    HW230396   0.960   3.674   7.862 -0.2965  1.8163 -0.0575
 6312SOL     OW30397   3.664   1.771   2.638  0.2855 -0.0873 -0.0966
 6312SOL    HW130398   3.758   1.753   2.631  0.6514  0.8796  2.6047
 6312SOL    HW230399   3.650   1.766   2.732 -0.7730  2.0799 -0.1480
 6313SOL     OW30400   2.420   3.715   4.436 -0.3182  0.3498 -0.2268
 6313SOL    HW130401   2.466   3.634   4.458 -1.7204 -0.9170 -1.8906
 6313SOL    HW230402   2.459   3.733   4.351 -2.8571  2.5587 -0.9136
 6314SOL     OW30403   2.195   0.575   5.624  0.5572  0.3423 -0.4989
 6314SOL    HW130404   2.163   0.534   5.544  2.6159  0.9899 -1.6621
 6314SOL    HW230405   2.135   0.530   5.684  1.2431 -0.8188 -0.6978
 6315SOL     OW30406   0.275   2.674   4.574 -0.1051  0.7030  0.4249
 6315SOL    HW130407   0.325   2.642   4.499  1.5249  1.5378  1.1543
 6315SOL    HW230408   0.186   2.646   4.551  1.2186 -2.7614 -0.4568
 6316SOL     OW30409   1.657   2.760   5.140  0.2610 -0.4444 -0.4025
 6316SOL    HW130410   1.662   2.782   5.233  1.4909  2.0241 -1.0650
 6316SOL    HW230411   1.711   2.681   5.145 -0.3564 -1.0033 -2.8692
 6317SOL     OW30412   3.997   2.537   2.976 -0.1206 -0.0753  0.8764
 6317SOL    HW130413   4.018   2.499   3.061  1.2202  1.3599  1.1708
 6317SOL    HW230414   4.007   2.631   2.993 -3.8701 -0.1188  3.3085
 6318SOL     OW30415   0.177   2.752   4.996  0.2825 -0.7104  0.4482
 6318SOL    HW130416   0.244   2.820   4.988 -0.5311 -0.1607 -1.6299
 6318SOL    HW230417   0.208   2.686   4.934  1.6895 -0.9731  1.4193
 6319SOL     OW30418   4.409   2.982  12.011  0.4845  0.0358 -0.0871
 6319SOL    HW130419   4.340   2.945  12.066 -1.3933  0.1454 -2.3837
 6319SOL    HW230420   4.351   3.033  11.954  1.1192  1.1882  0.3032
 6320SOL     OW30421   3.952   1.214   7.565 -0.6852 -0.4799  0.2943
 6320SOL    HW130422   3.900   1.136   7.545  0.4911 -1.1866 -0.0193
 6320SOL    HW230423   3.958   1.244   7.474  0.9336 -2.0477 -0.1046
 6321SOL     OW30424   3.203   2.289  16.995 -0.8875 -0.3020  0.1850
 6321SOL    HW130425   3.273   2.272  16.933 -0.7966  2.3783 -0.4249
 6321SOL    HW230426   3.232   2.348  17.064  0.4135  0.6970 -1.2497
 6322SOL     OW30427   3.030   0.651   4.843 -0.0688 -0.7961  0.3775
 6322SOL    HW130428   3.076   0.731   4.818 -0.2266 -0.7838  0.1308
 6322SOL    HW230429   3.004   0.612   4.760 -0.4543  0.2877 -0.0100
 6323SOL     OW30430   4.377   0.898   7.398  0.0453  0.4769 -0.0970
 6323SOL    HW130431   4.396   0.991   7.393 -1.2328  0.5569 -3.4136
 6323SOL    HW230432   4.286   0.897   7.368 -0.7121 -0.4017  2.2039
 6324SOL     OW30433   0.456   2.671   6.770 -0.1798  0.1264 -0.0702
 6324SOL    HW130434   0.395   2.665   6.697  1.9345  1.6672 -1.9669
 6324SOL    HW230435   0.541   2.663   6.726 -1.0887 -1.8285 -1.4838
 6325SOL     OW30436   3.441   2.736  13.525  0.2197 -0.0574 -0.3408
 6325SOL    HW130437   3.403   2.740  13.438  0.6721 -0.2701 -0.5512
 6325SOL    HW230438   3.401   2.814  13.563  2.0918 -0.1858  1.9345
 6326SOL     OW30439   4.018   0.523  13.930 -0.3898  0.0352  0.2073
 6326SOL    HW130440   4.023   0.428  13.930  2.1174  0.1745 -2.3255
 6326SOL    HW230441   4.099   0.546  13.884  0.1104 -1.4195  0.3793
 6327SOL     OW30442   3.804   1.152  13.247 -0.2034 -0.0465 -0.6984
 6327SOL    HW130443   3.801   1.244  13.221  0.5224 -0.0512 -0.7982
 6327SOL    HW230444   3.790   1.162  13.341  0.1279 -2.5057 -0.3722
 6328SOL     OW30445   1.009   1.436  14.856  0.1485  0.0491 -0.0337
 6328SOL    HW130446   1.099   1.410  14.876 -0.6640 -2.9190 -0.2005
 6328SOL    HW230447   1.000   1.523  14.896 -0.1211  0.2283 -0.4880
 6329SOL     OW30448   1.523   2.136   7.450  0.2698  0.7110  0.4108
 6329SOL    HW130449   1.470   2.210   7.478  0.3048  1.1113 -0.6110
 6329SOL    HW230450   1.461   2.089   7.394  1.5814  1.1831 -1.4380
 6330SOL     OW30451   4.706   0.960  17.260  1.0333  0.3175 -0.4881
 6330SOL    HW130452   0.020   0.886  17.306  0.9015  0.0062 -0.8725
 6330SOL    HW230453   4.631   0.977  17.318  0.0399 -0.6962 -1.4716
 6331SOL     OW30454   0.734   4.607   1.199 -0.1397  0.3321  0.6359
 6331SOL    HW130455   0.802   4.542   1.215 -1.1191 -0.5966  1.0224
 6331SOL    HW230456   0.770   4.672   1.138  0.2846 -1.6764 -1.2401
 6332SOL     OW30457   0.548   3.674   9.419 -0.0295 -0.0295 -0.0577
 6332SOL    HW130458   0.602   3.660   9.497 -0.0571 -0.4076 -0.1070
 6332SOL    HW230459   0.476   3.716   9.466 -0.1857 -0.3528 -0.0108
 6333SOL     OW30460   2.528   2.640   2.157  0.2578  0.4976 -0.0775
 6333SOL    HW130461   2.582   2.703   2.203  0.3446  1.1754 -1.1045
 6333SOL    HW230462   2.447   2.690   2.145 -0.4468 -0.9833 -1.6780
 6334SOL     OW30463   0.811   1.892   5.325 -0.1420  0.0026 -0.1226
 6334SOL    HW130464   0.803   1.797   5.323 -3.5976  0.3031 -0.2667
 6334SOL    HW230465   0.862   1.900   5.405 -2.4355  0.1719  1.3352
 6335SOL     OW30466   3.881   2.791  12.534 -0.1080 -0.0377  0.3118
 6335SOL    HW130467   3.852   2.849  12.464 -0.7980  1.1554  1.5810
 6335SOL    HW230468   3.924   2.727  12.478  0.6480  1.2643 -0.5952
 6336SOL     OW30469   3.404   0.467   8.156  0.0971  0.4256 -0.0816
 6336SOL    HW130470   3.338   0.422   8.103  0.5338 -0.2718 -0.0291
 6336SOL    HW230471   3.463   0.503   8.090 -0.1318  0.3035 -0.3534
 6337SOL     OW30472   2.436   4.013   1.795  0.0993 -0.1403 -0.1892
 6337SOL    HW130473   2.475   4.046   1.714 -1.1025 -0.5324 -0.9277
 6337SOL    HW230474   2.342   4.030   1.784  0.2366  1.2086  0.7918
 6338SOL     OW30475   2.151   3.162   3.715 -0.1369 -0.4645 -0.0258
 6338SOL    HW130476   2.151   3.068   3.734  0.8552 -1.0065 -2.6898
 6338SOL    HW230477   2.184   3.154   3.626 -0.6490 -1.9824 -0.0738
 6339SOL     OW30478   3.525   1.301  12.970 -0.6545 -0.4688  0.1537
 6339SOL    HW130479   3.581   1.347  13.033 -2.9633  1.2146  0.9932
 6339SOL    HW230480   3.438   1.325  13.003 -0.4029  0.5345  0.0894
 6340SOL     OW30481   1.137   3.599  11.308 -0.0245  0.6153  0.3317
 6340SOL    HW130482   1.133   3.509  11.340  0.5305  1.1121  1.8108
 6340SOL    HW230483   1.220   3.593  11.261 -0.5089  1.5366 -0.6400
 6341SOL     OW30484   3.611   2.635  13.716 -0.9755  0.2582 -0.1354
 6341SOL    HW130485   3.572   2.683  13.643 -2.3878 -1.4399 -0.4841
 6341SOL    HW230486   3.551   2.563  13.730  0.4668 -0.5136  2.0351
 6342SOL     OW30487   3.375   4.411   5.067 -0.0818  0.3723  0.5384
 6342SOL    HW130488   3.384   4.321   5.099  1.3863 -0.0028 -0.9211
 6342SOL    HW230489   3.466   4.437   5.055  0.0021 -0.0030  0.3552
 6343SOL     OW30490   3.073   1.327   4.821  0.1607  0.1986 -0.2261
 6343SOL    HW130491   3.077   1.263   4.749 -3.5066 -0.2801  0.0402
 6343SOL    HW230492   3.005   1.290   4.876 -0.3201  0.7069 -0.4810
 6344SOL     OW30493   3.248   3.515   2.866  0.5648 -0.0117 -0.0796
 6344SOL    HW130494   3.275   3.428   2.897  0.7593 -0.3020 -1.0451
 6344SOL    HW230495   3.153   3.504   2.861  0.6678 -1.4100  0.9911
 6345SOL     OW30496   3.230   2.187  11.450  0.4055 -0.1788 -0.5473
 6345SOL    HW130497   3.270   2.178  11.536  0.0600 -2.9240 -0.7020
 6345SOL    HW230498   3.222   2.099  11.414 -1.1218 -0.4490  0.4717
 6346SOL     OW30499   2.265   3.134   4.937 -0.4577  0.6259  0.3710
 6346SOL    HW130500   2.310   3.164   5.016  0.1139 -0.7320  0.5595
 6346SOL    HW230501   2.265   3.209   4.878  1.2958  0.0696 -0.3449
 6347SOL     OW30502   2.344   2.558   7.210 -0.7039 -0.3370  0.5036
 6347SOL    HW130503   2.308   2.523   7.128  0.2359  0.9989 -0.4822
 6347SOL    HW230504   2.273   2.527   7.266 -2.6152  1.8476 -0.6853
 6348SOL     OW30505   0.872   1.896   4.273 -0.3220  0.8168 -0.2837
 6348SOL    HW130506   0.787   1.857   4.294 -0.0937  1.5770  2.0075
 6348SOL    HW230507   0.840   1.964   4.214 -0.0398  0.7672 -0.4935
 6349SOL     OW30508   1.814   4.518   6.701 -0.1863  0.0321  0.5697
 6349SOL    HW130509   1.884   4.535   6.764 -1.5800  0.1024  2.0924
 6349SOL    HW230510   1.767   4.601   6.691 -1.0951 -0.5520 -0.1114
 6350SOL     OW30511   3.070   0.989  17.433  0.7957 -0.1471 -0.1578
 6350SOL    HW130512   3.146   1.010  17.486 -0.1715  0.3048  1.0440
 6350SOL    HW230513   3.114   0.998  17.348 -1.5110 -0.4388 -1.3896
 6351SOL     OW30514   1.725   0.868  12.229  0.0436 -0.2530  0.1854
 6351SOL    HW130515   1.704   0.916  12.149 -0.9354 -0.7273  0.1592
 6351SOL    HW230516   1.778   0.926  12.284 -0.4899  0.0449  0.3848
 6352SOL     OW30517   2.907   3.898  11.037 -0.3320  0.4970 -0.3507
 6352SOL    HW130518   2.825   3.898  10.987  0.3468  0.2308 -1.4552
 6352SOL    HW230519   2.977   3.883  10.974  0.9682  0.6056  1.0675
 6353SOL     OW30520   1.698   3.803   1.189  0.4181 -0.5439  0.8226
 6353SOL    HW130521   1.777   3.854   1.207 -1.3897  2.4329  0.3758
 6353SOL    HW230522   1.735   3.715   1.193  0.9382 -0.3367  0.4631
 6354SOL     OW30523   3.502   1.276   4.910  0.4955  0.5234 -0.0587
 6354SOL    HW130524   3.479   1.343   4.846  0.9615 -0.3521 -1.1308
 6354SOL    HW230525   3.475   1.316   4.993  1.7108 -0.6001  0.8826
 6355SOL     OW30526   4.601   4.710   1.279  0.0670  0.4451 -0.6088
 6355SOL    HW130527   4.528   4.684   1.335  2.0196  1.9119  2.5864
 6355SOL    HW230528   4.655   4.633   1.295  0.0025  0.0063 -2.4215
 6356SOL     OW30529   3.816   2.036   9.342 -0.1639 -0.3804  0.1169
 6356SOL    HW130530   3.728   2.002   9.324 -0.8626 -0.3807  3.5782
 6356SOL    HW230531   3.870   1.975   9.292 -1.1891 -0.6807 -0.6393
 6357SOL     OW30532   3.518   4.674   6.657 -0.2106 -0.2596  0.2744
 6357SOL    HW130533   3.432   4.701   6.687 -1.4373 -2.7160 -1.0689
 6357SOL    HW230534   3.504   4.644   6.567 -0.9730  0.8501  0.0128
 6358SOL     OW30535   2.144   3.125  17.521  0.5938  0.6549 -0.2557
 6358SOL    HW130536   2.174   3.060  17.457  0.5627  0.8120 -0.4312
 6358SOL    HW230537   2.066   3.077  17.547  0.4961  0.0183 -1.6999
 6359SOL     OW30538   0.165   2.623  17.633 -0.0027  0.3507 -0.4749
 6359SOL    HW130539   0.166   2.683   0.006 -1.4977 -1.3365  0.9207
 6359SOL    HW230540   0.082   2.652  17.596  0.4429  0.5064 -1.3290
 6360SOL     OW30541   4.421   3.293  10.880  0.0900 -0.2557  0.8188
 6360SOL    HW130542   4.455   3.213  10.921  0.0607 -0.3467  0.6654
 6360SOL    HW230543   4.465   3.305  10.796 -1.7643 -1.1604 -0.2862
 6361SOL     OW30544   4.622   3.949   0.350 -0.2824  0.3169  0.2046
 6361SOL    HW130545   4.585   4.016   0.292 -0.2154 -2.3576 -2.8993
 6361SOL    HW230546   4.553   3.897   0.390  0.8085 -2.0014 -0.9554
 6362SOL     OW30547   1.883   1.372   0.550  0.0827  0.0811 -0.3086
 6362SOL    HW130548   1.788   1.384   0.548  0.2233  1.4974  1.1284
 6362SOL    HW230549   1.911   1.458   0.581 -0.2405  0.1629 -0.2457
 6363SOL     OW30550   3.732   1.657  17.046  0.2943 -0.3510 -0.7283
 6363SOL    HW130551   3.766   1.575  17.010 -0.6173 -1.5605  1.1334
 6363SOL    HW230552   3.638   1.642  17.047 -0.1667  2.4456 -1.0042
 6364SOL     OW30553   0.850   4.486   1.432  0.3811 -0.2785  0.0197
 6364SOL    HW130554   0.775   4.463   1.486  0.0326  1.3287  0.2216
 6364SOL    HW230555   0.899   4.536   1.498  1.4249  0.7601 -1.5346
 6365SOL     OW30556   4.391   1.695   9.488 -0.2234  0.7505  0.4631
 6365SOL    HW130557   4.484   1.688   9.510 -0.5714  0.2957  1.7862
 6365SOL    HW230558   4.375   1.616   9.437  0.5181 -0.3435  1.9274
 6366SOL     OW30559   3.742   3.461   4.601  0.2218  0.6039 -0.4067
 6366SOL    HW130560   3.737   3.556   4.612 -3.2505  0.3337  0.5253
 6366SOL    HW230561   3.775   3.431   4.685 -0.9777 -1.4196 -0.6544
 6367SOL     OW30562   3.933   1.807   9.167  0.4986  0.5006 -0.1320
 6367SOL    HW130563   4.018   1.778   9.201  0.1009  0.3686  0.7696
 6367SOL    HW230564   3.881   1.747   9.221  2.1462 -0.0912  0.8173
 6368SOL     OW30565   2.636   3.814   7.739 -0.6208  0.0316 -0.3497
 6368SOL    HW130566   2.674   3.883   7.793  1.8680 -2.3790  0.9741
 6368SOL    HW230567   2.607   3.760   7.812  2.6988 -2.1599 -0.6392
 6369SOL     OW30568   0.506   3.155   4.850  0.2098 -0.2143  0.2534
 6369SOL    HW130569   0.471   3.174   4.937 -1.4017 -0.9574 -0.2443
 6369SOL    HW230570   0.577   3.091   4.859 -0.0682 -0.5250  0.2208
 6370SOL     OW30571   0.660   1.536   9.065 -0.6348  0.6077 -0.1180
 6370SOL    HW130572   0.676   1.629   9.081 -1.0242  0.6450  0.0502
 6370SOL    HW230573   0.744   1.494   9.084 -0.3720  0.7693 -0.9270
 6371SOL     OW30574   0.649   1.408   6.347  0.2118 -0.3814  0.6507
 6371SOL    HW130575   0.617   1.318   6.341 -1.5760  0.2212  0.9953
 6371SOL    HW230576   0.577   1.445   6.398  1.2948  0.9986  1.1853
 6372SOL     OW30577   0.892   1.875   6.424 -0.4179  0.2495 -0.3288
 6372SOL    HW130578   0.833   1.949   6.432 -1.6571 -0.6213 -1.4246
 6372SOL    HW230579   0.846   1.809   6.372  2.6627 -2.2127  0.0304
 6373SOL     OW30580   4.192   4.146   4.309  0.3352 -0.2566  0.1785
 6373SOL    HW130581   4.120   4.209   4.314 -0.3641 -0.7706 -3.9781
 6373SOL    HW230582   4.250   4.193   4.249 -1.3562 -0.0084 -1.2817
 6374SOL     OW30583   0.650   2.745   8.604 -0.1259 -0.3852 -0.3965
 6374SOL    HW130584   0.719   2.800   8.566  0.4249 -1.4758 -0.9669
 6374SOL    HW230585   0.654   2.671   8.545  1.7710 -0.1638 -0.5598
 6375SOL     OW30586   1.953   0.308  13.417 -0.8918  0.5240 -0.8809
 6375SOL    HW130587   1.946   0.364  13.495  1.0846  0.7127 -0.8435
 6375SOL    HW230588   1.895   0.234  13.435  1.9412 -1.6101 -0.6248
 6376SOL     OW30589   3.844   2.840   8.459 -0.3123  0.0303  0.3363
 6376SOL    HW130590   3.903   2.769   8.435  0.3702  0.7102  0.0179
 6376SOL    HW230591   3.795   2.859   8.378 -1.4313 -1.4277  0.6678
 6377SOL     OW30592   4.669   0.387   3.764  0.5450 -0.1510  0.0238
 6377SOL    HW130593   0.004   0.315   3.783  0.2636 -0.5583 -0.6191
 6377SOL    HW230594   4.629   0.388   3.851  0.2009  0.8998 -0.1488
 6378SOL     OW30595   3.254   0.912   7.269 -0.2440 -0.5555 -0.1194
 6378SOL    HW130596   3.215   0.989   7.227  0.3752 -0.5144 -0.6169
 6378SOL    HW230597   3.226   0.926   7.359  1.2364  0.5825  0.1475
 6379SOL     OW30598   1.146   0.476   9.577 -0.0664 -0.1741  0.3581
 6379SOL    HW130599   1.067   0.488   9.630 -2.1592 -0.1302 -2.7972
 6379SOL    HW230600   1.190   0.405   9.623  1.1152  0.7396  0.6283
 6380SOL     OW30601   4.128   3.787   6.301  0.3811  0.8645 -0.2633
 6380SOL    HW130602   4.033   3.790   6.308  0.4313  1.0597  0.3539
 6380SOL    HW230603   4.149   3.702   6.339  1.9143  0.7429 -1.3824
 6381SOL     OW30604   0.812   4.327   5.772  0.7337  0.1473 -0.5249
 6381SOL    HW130605   0.836   4.241   5.805 -1.5260 -0.9570 -1.7573
 6381SOL    HW230606   0.897   4.358   5.740  1.6215 -2.1848 -0.4319
 6382SOL     OW30607   3.510   1.718   4.630 -0.0946 -0.1318  0.1266
 6382SOL    HW130608   3.457   1.783   4.677  0.4121 -0.0257  0.5451
 6382SOL    HW230609   3.516   1.756   4.542 -1.6255 -0.5345 -0.1685
 6383SOL     OW30610   3.842   1.992   1.314 -0.2806 -0.5129  0.2023
 6383SOL    HW130611   3.826   2.082   1.285  0.7241  0.2698  2.1161
 6383SOL    HW230612   3.750   1.965   1.307  0.0103 -1.7303  0.9754
 6384SOL     OW30613   4.314   2.569   1.777  0.0940  0.5009  0.1031
 6384SOL    HW130614   4.404   2.602   1.782 -0.5532  2.1530  0.8921
 6384SOL    HW230615   4.331   2.475   1.781 -0.3467  0.3427 -1.6964
 6385SOL     OW30616   3.232   1.033   2.821 -0.6783 -0.3400 -0.4400
 6385SOL    HW130617   3.216   1.000   2.732 -0.4424 -2.0739  0.1565
 6385SOL    HW230618   3.327   1.041   2.820 -0.6355 -0.6447  1.0085
 6386SOL     OW30619   1.734   1.191   1.092  0.2536  0.2455 -0.1131
 6386SOL    HW130620   1.694   1.173   1.007 -2.5422  1.3984  0.9495
 6386SOL    HW230621   1.668   1.246   1.135 -1.0187 -0.9560 -0.4997
 6387SOL     OW30622   4.659   1.840  17.698 -0.2915 -0.1595 -0.2805
 6387SOL    HW130623   0.010   1.796   0.035  1.0466  1.0304 -1.5543
 6387SOL    HW230624   4.692   1.922  17.662 -0.2242  0.6858  1.7293
 6388SOL     OW30625   4.372   3.436   2.375 -0.2719  0.4413 -0.5686
 6388SOL    HW130626   4.355   3.454   2.283  0.4593 -0.0254 -0.7923
 6388SOL    HW230627   4.461   3.470   2.383  0.4370 -1.1884 -1.4172
 6389SOL     OW30628   3.140   0.745   5.910 -0.1026 -0.6806 -0.0945
 6389SOL    HW130629   3.195   0.823   5.925  1.0083 -1.1589 -1.6806
 6389SOL    HW230630   3.167   0.696   5.988  1.0191  1.8727  1.1544
 6390SOL     OW30631   1.169   2.127   8.592 -0.4301 -0.2924  0.2940
 6390SOL    HW130632   1.173   2.034   8.615  1.1813  0.0715  1.4453
 6390SOL    HW230633   1.137   2.163   8.675 -1.6562  0.2292 -0.3970
 6391SOL     OW30634   1.488   4.506  10.992 -0.3552  0.1144  0.0815
 6391SOL    HW130635   1.562   4.459  10.954  0.0263  0.5359  0.2932
 6391SOL    HW230636   1.532   4.583  11.029 -0.8981  0.7440 -0.5883
 6392SOL     OW30637   1.815   1.482   3.645  0.3016  0.2855  0.0535
 6392SOL    HW130638   1.792   1.547   3.579  0.1405 -1.2853 -1.4725
 6392SOL    HW230639   1.889   1.532   3.680 -1.0076  1.1601  1.5371
 6393SOL     OW30640   1.823   0.593   2.661 -0.6472 -0.0634  0.1574
 6393SOL    HW130641   1.832   0.526   2.728  0.2985  0.3189  0.4068
 6393SOL    HW230642   1.792   0.530   2.595  1.0848  1.5827 -2.2268
 6394SOL     OW30643   0.743   2.995   8.103 -0.8254 -0.2650 -0.0278
 6394SOL    HW130644   0.722   2.994   8.197  2.1732  0.4484  0.6556
 6394SOL    HW230645   0.654   3.002   8.067 -0.5669  0.7197 -0.4665
 6395SOL     OW30646   2.416   1.035  10.711 -0.3851 -0.3097  0.6433
 6395SOL    HW130647   2.370   1.050  10.793 -1.2049 -0.0574  0.1411
 6395SOL    HW230648   2.426   0.940  10.702  0.2819 -0.2567  0.8502
 6396SOL     OW30649   4.477   1.720   7.856 -0.5350  0.6176  0.2815
 6396SOL    HW130650   4.441   1.723   7.768 -1.1595  3.1791  0.6317
 6396SOL    HW230651   4.550   1.780   7.848  0.6283 -1.0387 -1.4378
 6397SOL     OW30652   3.244   0.848   3.892 -0.4473 -0.0838  0.3771
 6397SOL    HW130653   3.166   0.892   3.927 -1.3152  0.6546 -2.4335
 6397SOL    HW230654   3.200   0.764   3.873  0.1311 -0.2633 -0.1647
 6398SOL     OW30655   0.085   1.618   3.470  0.1631  0.2459 -0.2989
 6398SOL    HW130656   0.059   1.683   3.536 -0.0039  0.7148 -0.8287
 6398SOL    HW230657   0.176   1.598   3.490  0.1297  1.6809  1.3130
 6399SOL     OW30658   2.547   1.481   5.746 -0.2234 -0.1955  0.1766
 6399SOL    HW130659   2.567   1.502   5.837 -1.4400  1.2226  0.1195
 6399SOL    HW230660   2.453   1.494   5.741 -0.3167 -0.4957  1.1831
 6400SOL     OW30661   2.280   1.724   7.293 -0.1412  0.2366  0.4786
 6400SOL    HW130662   2.239   1.794   7.243 -1.0767 -1.0768 -0.5858
 6400SOL    HW230663   2.334   1.777   7.352  1.9791 -3.3566  1.8025
 6401SOL     OW30664   1.701   2.619   6.409 -0.0585 -0.7480  0.3768
 6401SOL    HW130665   1.784   2.666   6.415 -0.4475 -0.2337  1.7021
 6401SOL    HW230666   1.639   2.692   6.398  3.9684  2.2568 -2.3557
 6402SOL     OW30667   1.049   0.659  12.575 -0.2077 -0.1092 -0.3670
 6402SOL    HW130668   0.983   0.630  12.638 -1.7372 -0.2872 -2.0582
 6402SOL    HW230669   1.063   0.750  12.601  1.5006 -0.0218 -1.5466
 6403SOL     OW30670   2.620   0.211   7.670  0.0472  0.2864 -0.2114
 6403SOL    HW130671   2.669   0.136   7.705 -0.1022 -0.1099 -0.8540
 6403SOL    HW230672   2.676   0.278   7.709  1.0535 -0.2154 -0.7811
 6404SOL     OW30673   0.158   0.774   2.810 -0.5065 -0.1768  0.2051
 6404SOL    HW130674   0.141   0.840   2.742  0.1446 -1.2185 -0.9550
 6404SOL    HW230675   0.209   0.712   2.759  0.0655 -0.4796  1.1560
 6405SOL     OW30676   1.872   3.091  14.791 -0.4711 -0.0124  0.1150
 6405SOL    HW130677   1.891   3.184  14.779  0.8157 -0.5026 -1.5153
 6405SOL    HW230678   1.802   3.087  14.726  0.5205 -1.1838 -0.8697
 6406SOL     OW30679   0.288   0.670   7.686 -0.8915  0.2508  0.2186
 6406SOL    HW130680   0.209   0.631   7.725 -0.4628  0.9385  1.7952
 6406SOL    HW230681   0.314   0.737   7.748  0.3628  1.3810 -1.5490
 6407SOL     OW30682   1.256   2.066   7.746 -0.5603 -0.1751  0.0577
 6407SOL    HW130683   1.327   2.002   7.743 -2.5094 -2.3497  1.0868
 6407SOL    HW230684   1.294   2.142   7.790 -0.6992  0.0600 -0.2282
 6408SOL     OW30685   0.970   1.466   5.108 -0.4756 -0.4059 -0.9215
 6408SOL    HW130686   1.020   1.447   5.029  0.3825  1.9529 -0.9376
 6408SOL    HW230687   0.921   1.384   5.118 -0.6046 -0.3667 -1.2352
 6409SOL     OW30688   3.025   2.153   4.597  0.0260  0.0442  1.0627
 6409SOL    HW130689   3.065   2.071   4.628 -0.0153  0.9284  3.4595
 6409SOL    HW230690   3.096   2.191   4.545  0.4901 -1.1632  0.8064
 6410SOL     OW30691   0.591   3.248   5.567  0.2862  0.2306 -0.0069
 6410SOL    HW130692   0.660   3.191   5.534 -0.8362 -0.1817 -1.5983
 6410SOL    HW230693   0.515   3.190   5.565 -0.4403  1.0889  1.8300
 6411SOL     OW30694   3.902   0.262   4.736  0.0237  0.2841 -0.1631
 6411SOL    HW130695   3.886   0.208   4.659 -0.2603 -0.7772  0.6423
 6411SOL    HW230696   3.958   0.210   4.794 -0.1425 -0.5071 -0.7242
 6412SOL     OW30697   4.075   0.408   2.591  0.3540  0.1849 -0.0658
 6412SOL    HW130698   4.002   0.416   2.652  0.7002 -1.7837  0.6005
 6412SOL    HW230699   4.064   0.316   2.568  2.5471  0.1700 -1.0623
 6413SOL     OW30700   0.079   4.185   8.391  0.5406  0.0421 -0.2800
 6413SOL    HW130701   0.166   4.168   8.427  0.5881 -1.2601 -0.9981
 6413SOL    HW230702   0.021   4.195   8.466  3.3388 -0.2793  1.9210
 6414SOL     OW30703   0.062   3.632  17.269 -0.0777 -0.1206  0.0023
 6414SOL    HW130704   4.705   3.604  17.230 -0.8178 -0.5521  1.8656
 6414SOL    HW230705   0.102   3.694  17.208  0.2031  0.7863  1.1144
 6415SOL     OW30706   2.257   1.707   4.719  0.5653  0.1547 -0.3474
 6415SOL    HW130707   2.167   1.735   4.706  0.1970 -0.5768  0.6016
 6415SOL    HW230708   2.270   1.719   4.813 -3.5066  0.5682  0.1554
 6416SOL     OW30709   1.084   2.429   3.776  0.4655 -0.6178  0.0002
 6416SOL    HW130710   1.097   2.487   3.852  0.3912 -0.7211  0.0925
 6416SOL    HW230711   1.130   2.486   3.714  1.0498  1.6165  2.4450
 6417SOL     OW30712   0.850   3.862   1.065 -0.3994  0.4355  0.4423
 6417SOL    HW130713   0.864   3.888   1.156  0.3750 -0.4564  0.5824
 6417SOL    HW230714   0.837   3.947   1.023 -4.0365 -0.4460 -0.2246
 6418SOL     OW30715   4.280   1.569   2.710  0.0158  0.2227  0.0975
 6418SOL    HW130716   4.250   1.652   2.746  1.2500  2.0783 -3.2611
 6418SOL    HW230717   4.229   1.559   2.630  1.0455 -0.5830 -0.4622
 6419SOL     OW30718   1.483   1.109   9.412  0.2056  0.0663 -0.1611
 6419SOL    HW130719   1.442   1.025   9.430 -0.6518  0.0794 -1.9775
 6419SOL    HW230720   1.570   1.085   9.379 -0.0718 -1.6110  0.3396
 6420SOL     OW30721   1.249   1.712  13.490 -0.1545 -0.4646  0.0368
 6420SOL    HW130722   1.332   1.708  13.538 -0.1855  0.2783  0.1400
 6420SOL    HW230723   1.232   1.806  13.496  0.0290 -0.3345 -1.4689
 6421SOL     OW30724   1.120   0.273   3.827 -0.4116  0.0484  0.1198
 6421SOL    HW130725   1.143   0.364   3.847 -1.2626  0.2721  0.0710
 6421SOL    HW230726   1.110   0.244   3.918 -1.7677 -2.5484 -0.8438
 6422SOL     OW30727   4.415   2.800   5.268  0.3922 -0.0622 -0.6024
 6422SOL    HW130728   4.505   2.791   5.235 -0.5412  1.2074 -3.4894
 6422SOL    HW230729   4.362   2.824   5.192  0.6894 -2.5962 -1.6366
 6423SOL     OW30730   4.515   4.667  12.930 -0.4730 -0.0048  0.2172
 6423SOL    HW130731   4.559   4.583  12.943  2.5708  1.4277 -0.9488
 6423SOL    HW230732   4.521   4.687  12.836  1.6012 -2.7316 -0.2245
 6424SOL     OW30733   3.262   1.241   5.884  0.4300 -0.0041 -0.0208
 6424SOL    HW130734   3.352   1.258   5.914 -0.0958  0.2486  1.4347
 6424SOL    HW230735   3.252   1.300   5.810  0.0351  0.1997  0.1949
 6425SOL     OW30736   2.112   1.305   7.860 -0.6362 -0.4772 -0.0618
 6425SOL    HW130737   2.109   1.224   7.911  1.6294  1.1921  2.7909
 6425SOL    HW230738   2.177   1.282   7.794  1.1844  1.4555  1.0363
 6426SOL     OW30739   3.375   1.696   8.230 -0.1791 -0.1498 -0.1460
 6426SOL    HW130740   3.338   1.695   8.318 -0.6497  2.2279 -0.3063
 6426SOL    HW230741   3.419   1.781   8.237 -0.9551  0.1802  0.7240
 6427SOL     OW30742   4.446   0.171   8.561  0.6121  0.2301  0.2029
 6427SOL    HW130743   4.425   0.194   8.471  0.3464 -0.4166  0.0992
 6427SOL    HW230744   4.534   0.209   8.567 -0.1769  2.3714 -1.7475
 6428SOL     OW30745   1.558   0.692  15.124 -0.1014 -0.1831  0.4789
 6428SOL    HW130746   1.598   0.612  15.157  1.6632  0.9763  1.1535
 6428SOL    HW230747   1.563   0.746  15.203  2.7765 -0.3176  0.3841
 6429SOL     OW30748   3.489   0.307  12.235  0.0195 -0.0111  0.1034
 6429SOL    HW130749   3.482   0.353  12.152  0.7147  1.2091  0.7154
 6429SOL    HW230750   3.583   0.321  12.250 -0.3654  0.6584  1.8891
 6430SOL     OW30751   0.651   4.541   8.088 -0.2433 -0.3045  0.4001
 6430SOL    HW130752   0.680   4.618   8.039 -1.3170 -0.6451 -0.7680
 6430SOL    HW230753   0.562   4.528   8.055  0.5546 -0.5288 -1.6384
 6431SOL     OW30754   0.137   0.243  11.619  0.2914  0.2206 -0.2769
 6431SOL    HW130755   0.131   0.297  11.698 -0.7587  1.0217 -0.9000
 6431SOL    HW230756   0.144   0.319  11.561 -0.3352  0.1210 -0.4775
 6432SOL     OW30757   2.663   4.157  11.006 -0.4036 -0.0447 -0.1048
 6432SOL    HW130758   2.667   4.246  11.041 -0.9819 -0.0618  0.0050
 6432SOL    HW230759   2.642   4.110  11.087 -0.4075  1.9342  1.0364
 6433SOL     OW30760   0.962   0.445   5.113 -0.5742 -0.3390  0.7228
 6433SOL    HW130761   0.885   0.390   5.104 -0.4120 -0.4420 -0.0145
 6433SOL    HW230762   1.027   0.378   5.137  0.6427  0.7616  0.4967
 6434SOL     OW30763   3.636   0.036   9.071 -0.2755  0.0865 -0.1791
 6434SOL    HW130764   3.602   0.015   8.984 -1.3332 -0.0154  0.2603
 6434SOL    HW230765   3.718   4.711   9.077  0.2358  0.8997 -0.3388
 6435SOL     OW30766   1.624   2.949   6.900  0.1018 -0.4093 -0.1029
 6435SOL    HW130767   1.575   2.909   6.828 -1.5493  0.3299  0.6131
 6435SOL    HW230768   1.553   2.997   6.942 -1.3918 -0.7034 -2.3104
 6436SOL     OW30769   2.953   1.910   4.333  0.3585  0.8321 -0.2433
 6436SOL    HW130770   2.956   1.870   4.246 -0.4045  0.7186 -0.2197
 6436SOL    HW230771   2.928   1.999   4.306  0.3501  0.9540  0.1582
 6437SOL     OW30772   0.220   3.799   3.648  0.1024 -0.3999  0.2736
 6437SOL    HW130773   0.194   3.865   3.712  0.2340 -2.7673  2.7433
 6437SOL    HW230774   0.286   3.761   3.706  0.3166 -0.7059 -0.1730
 6438SOL     OW30775   2.549   0.173   4.650 -0.0844  0.3933  0.2819
 6438SOL    HW130776   2.527   0.203   4.738  0.9760  0.2352  0.5973
 6438SOL    HW230777   2.501   0.235   4.595  0.3192 -1.4668 -2.1525
 6439SOL     OW30778   4.599   4.189   4.336 -0.1068 -0.1481 -0.1739
 6439SOL    HW130779   4.627   4.098   4.320  1.7295  0.2323  0.8070
 6439SOL    HW230780   4.624   4.232   4.255  0.9321 -1.1408 -0.3912
 6440SOL     OW30781   0.344   3.691   5.498 -0.5291 -0.2789  0.0477
 6440SOL    HW130782   0.348   3.755   5.427 -0.1277  0.5950  0.8596
 6440SOL    HW230783   0.265   3.641   5.475 -0.6478  0.2416 -0.6564
 6441SOL     OW30784   4.043   2.839   8.692  0.5510  1.0834 -0.9962
 6441SOL    HW130785   3.981   2.866   8.625 -1.8164  0.2732  0.8916
 6441SOL    HW230786   4.117   2.871   8.640  1.9730  0.5649  0.7126
 6442SOL     OW30787   0.676   0.074   4.184 -0.6281  0.1854 -0.0375
 6442SOL    HW130788   0.694   0.148   4.125  0.5843  1.6557  2.1822
 6442SOL    HW230789   0.644   0.008   4.121  1.5102  0.9768 -1.9556
 6443SOL     OW30790   2.600   3.037   4.468 -0.3462 -0.3501 -0.6506
 6443SOL    HW130791   2.683   3.084   4.477 -1.4677  1.8066 -1.4676
 6443SOL    HW230792   2.635   2.954   4.435 -0.5745 -1.4328  1.8827
 6444SOL     OW30793   2.348   0.935   3.022 -0.0120  0.1785 -0.4583
 6444SOL    HW130794   2.441   0.915   3.025  0.1284  0.9899  0.6053
 6444SOL    HW230795   2.326   0.952   2.930 -0.0119  1.4719 -0.2138
 6445SOL     OW30796   3.419   3.788   8.314  0.2778  0.2091 -0.6765
 6445SOL    HW130797   3.506   3.778   8.276  2.0355 -0.0761  3.4107
 6445SOL    HW230798   3.363   3.824   8.246 -0.8993 -0.5238 -0.0956
 6446SOL     OW30799   4.050   4.536   7.151 -0.5411  0.4353 -0.0108
 6446SOL    HW130800   4.113   4.599   7.187 -1.6437  2.0074 -0.8374
 6446SOL    HW230801   4.077   4.455   7.194 -1.3915  1.8530  3.2534
 6447SOL     OW30802   2.473   1.009   8.869  0.1597  0.0903 -0.0449
 6447SOL    HW130803   2.511   1.030   8.783  0.5824 -1.5786 -0.2677
 6447SOL    HW230804   2.408   1.079   8.865  0.9839  0.8059 -1.2220
 6448SOL     OW30805   3.348   0.849   7.003 -0.2354  0.0735  0.1574
 6448SOL    HW130806   3.326   0.914   7.069 -1.8552 -0.3792  0.0642
 6448SOL    HW230807   3.378   0.915   6.940 -0.1262 -0.8002 -0.7220
 6449SOL     OW30808   4.020   1.740   6.802  0.3117 -0.0900  0.2554
 6449SOL    HW130809   3.958   1.804   6.769 -0.2681  1.0428  3.5294
 6449SOL    HW230810   3.971   1.703   6.875  0.0576  2.6637  1.4629
 6450SOL     OW30811   2.194   1.825   8.072  0.1462  0.2348  0.3102
 6450SOL    HW130812   2.125   1.761   8.087  1.0239 -0.6644  0.5413
 6450SOL    HW230813   2.194   1.886   8.145  0.5215  0.0087  0.4976
 6451SOL     OW30814   0.591   0.404   8.533  0.0768  0.1757  0.2324
 6451SOL    HW130815   0.571   0.353   8.454 -0.9470  1.6028 -0.4186
 6451SOL    HW230816   0.641   0.475   8.493 -1.5875  1.8884  1.2411
 6452SOL     OW30817   1.141   2.233   1.859 -0.4918 -0.2246  0.1701
 6452SOL    HW130818   1.190   2.202   1.935  0.6729  2.2920  0.4523
 6452SOL    HW230819   1.206   2.255   1.792  0.2397 -0.7677  0.7055
 6453SOL     OW30820   1.853   2.354  10.896  0.1040  0.1673  0.1385
 6453SOL    HW130821   1.918   2.324  10.959  0.1495 -0.2745 -0.1192
 6453SOL    HW230822   1.777   2.306  10.930 -1.3571 -0.0386 -3.4482
 6454SOL     OW30823   1.523   0.440   2.100 -0.2490  0.2710  0.1345
 6454SOL    HW130824   1.572   0.521   2.084 -0.7027  0.2307 -1.4889
 6454SOL    HW230825   1.596   0.382   2.117  0.0110  0.4553 -0.3460
 6455SOL     OW30826   2.965   1.442   7.419  0.3687  0.1143  0.1969
 6455SOL    HW130827   2.914   1.483   7.489  0.9412  2.5452 -0.7977
 6455SOL    HW230828   3.040   1.500   7.408  1.6112 -1.4329  0.5305
 6456SOL     OW30829   1.901   4.138   4.494  0.2508 -0.3660  0.0843
 6456SOL    HW130830   1.859   4.083   4.427  0.6934 -1.5087  0.7566
 6456SOL    HW230831   1.974   4.079   4.511 -0.7452 -0.9412  2.3107
 6457SOL     OW30832   3.525   1.667  11.908 -0.6699 -0.4566  0.0916
 6457SOL    HW130833   3.585   1.607  11.864 -1.5518 -0.2884 -1.3354
 6457SOL    HW230834   3.523   1.624  11.994  0.8666 -0.5486  0.0821
 6458SOL     OW30835   4.391   0.714   6.380 -0.1462 -0.5624 -0.1615
 6458SOL    HW130836   4.480   0.711   6.345  1.1254  4.3531  2.6797
 6458SOL    HW230837   4.340   0.643   6.342 -2.8032  0.2851  1.7421
 6459SOL     OW30838   0.909   0.558  15.575 -0.0983  0.4797  0.4627
 6459SOL    HW130839   0.827   0.605  15.562  0.0908  0.7280  0.1687
 6459SOL    HW230840   0.962   0.616  15.521 -1.1185  0.4421 -0.5732
 6460SOL     OW30841   4.445   2.471   6.575 -0.2141 -0.2699  0.5095
 6460SOL    HW130842   4.479   2.480   6.664  0.2910 -0.3972  0.3312
 6460SOL    HW230843   4.363   2.425   6.591  0.1746 -1.1837 -0.1164
 6461SOL     OW30844   1.607   4.357   0.877  0.3004 -0.2181  0.3786
 6461SOL    HW130845   1.615   4.288   0.811  0.1819 -0.3237  0.4727
 6461SOL    HW230846   1.511   4.367   0.880  0.1813 -1.4501  0.9319
 6462SOL     OW30847   0.928   1.572   3.171  0.7534 -0.4057  0.4209
 6462SOL    HW130848   0.898   1.663   3.165  0.2662 -0.5684  0.3887
 6462SOL    HW230849   1.014   1.592   3.208  1.7552  0.5126 -2.4577
 6463SOL     OW30850   1.939   1.023   2.272  0.2506  0.0846  0.0658
 6463SOL    HW130851   1.854   1.053   2.241  0.2438 -0.1782 -0.1745
 6463SOL    HW230852   1.899   0.969   2.340  0.9826  0.6249  0.9219
 6464SOL     OW30853   1.875   3.604   7.632 -0.2675  0.5424  0.4670
 6464SOL    HW130854   1.877   3.534   7.566 -0.1160 -0.1262  1.1831
 6464SOL    HW230855   1.783   3.620   7.652 -0.6353  0.6919 -1.2792
 6465SOL     OW30856   4.207   3.793   5.499 -0.4000 -0.3394  0.5790
 6465SOL    HW130857   4.300   3.804   5.521 -0.1729  3.2383 -2.0997
 6465SOL    HW230858   4.172   3.865   5.552  1.4672  1.6047 -0.8347
 6466SOL     OW30859   2.746   2.046   8.565  1.0484  0.3862  0.1904
 6466SOL    HW130860   2.689   1.969   8.561 -0.2591  1.2528  1.9526
 6466SOL    HW230861   2.681   2.111   8.539  1.0035  0.1985 -0.1624
 6467SOL     OW30862   0.855   4.056   5.811  0.3160 -0.5438  0.2829
 6467SOL    HW130863   0.786   4.000   5.846  0.0289  1.3076  2.6412
 6467SOL    HW230864   0.931   4.025   5.860  0.4248  0.0744  0.5141
 6468SOL     OW30865   4.097   3.015   9.302 -0.1276 -0.0403 -0.7804
 6468SOL    HW130866   4.161   3.071   9.259  0.2626  0.3971  0.3844
 6468SOL    HW230867   4.122   2.933   9.260  0.4182  0.1981 -0.9215
 6469SOL     OW30868   3.429   2.536   5.203  0.1835 -0.3146 -0.4029
 6469SOL    HW130869   3.512   2.488   5.206 -0.9091 -2.3323 -2.7719
 6469SOL    HW230870   3.401   2.511   5.291  1.0026 -0.6791 -0.2452
 6470SOL     OW30871   1.384   2.549   8.911  0.1857  0.3301 -0.0622
 6470SOL    HW130872   1.432   2.611   8.857 -0.4327  0.0804 -0.9075
 6470SOL    HW230873   1.382   2.473   8.853 -0.4723  1.0041 -0.9266
 6471SOL     OW30874   0.988   2.659   2.807  0.1398 -0.0821 -0.0630
 6471SOL    HW130875   0.935   2.736   2.824  0.8056  0.4306 -0.3267
 6471SOL    HW230876   0.920   2.591   2.808 -0.4593  0.5075 -0.5558
 6472SOL     OW30877   1.083   3.098   2.361 -0.1371  0.2786 -0.0985
 6472SOL    HW130878   1.000   3.103   2.316  0.1312 -2.1887 -0.8762
 6472SOL    HW230879   1.058   3.092   2.453  1.5233 -2.8761  0.1779
 6473SOL     OW30880   1.529   0.101   6.816 -0.2085 -0.3180 -0.1472
 6473SOL    HW130881   1.515   0.068   6.727 -0.6743 -1.1626  0.2392
 6473SOL    HW230882   1.572   0.029   6.861 -2.1351 -1.0135  0.6002
 6474SOL     OW30883   2.726   3.997   4.291  0.1259 -0.1684  0.6368
 6474SOL    HW130884   2.815   3.969   4.271  0.4169 -0.4033  2.2418
 6474SOL    HW230885   2.744   4.092   4.292  1.5197 -0.4157 -0.1725
 6475SOL     OW30886   2.142   1.937  11.060 -1.3484  0.4319 -0.1263
 6475SOL    HW130887   2.069   1.961  11.117 -1.7415  1.3550 -1.0203
 6475SOL    HW230888   2.198   2.013  11.075  0.2059 -0.6165 -0.5323
 6476SOL     OW30889   1.836   3.663  13.626 -0.4281 -0.1807 -0.2358
 6476SOL    HW130890   1.791   3.710  13.556 -1.3477 -0.9173 -0.1342
 6476SOL    HW230891   1.822   3.572  13.600 -3.0725 -0.0650  0.8038
 6477SOL     OW30892   3.664   2.552   8.440  0.1884  0.6697  0.3724
 6477SOL    HW130893   3.667   2.482   8.374 -1.4359 -0.8574  1.9211
 6477SOL    HW230894   3.620   2.505   8.511 -0.7957 -0.7471 -1.1374
 6478SOL     OW30895   0.824   2.219   5.488 -0.5769  0.3788  0.5402
 6478SOL    HW130896   0.863   2.276   5.421 -0.0829 -1.0781 -0.4213
 6478SOL    HW230897   0.760   2.172   5.435 -0.1223  0.0463  0.2915
 6479SOL     OW30898   2.875   2.929   9.015  0.2744  0.1577 -0.0140
 6479SOL    HW130899   2.828   2.881   9.084  0.4771  1.7281  1.2005
 6479SOL    HW230900   2.938   2.985   9.059  0.4217  1.1946 -1.5539
 6480SOL     OW30901   3.292   0.832   3.040  0.2811 -0.5587 -0.0150
 6480SOL    HW130902   3.265   0.871   2.957  3.2251 -3.3648 -2.3133
 6480SOL    HW230903   3.205   0.832   3.080 -0.1701 -0.3808 -0.9894
 6481SOL     OW30904   2.313   0.118   5.308  0.2492  0.3165  1.0021
 6481SOL    HW130905   2.238   0.098   5.251  0.1173  1.4235  0.7778
 6481SOL    HW230906   2.284   0.198   5.351 -1.4907  1.0950 -1.6103
 6482SOL     OW30907   4.178   1.450  15.902  0.4443  0.2033 -0.1933
 6482SOL    HW130908   4.157   1.470  15.993 -1.4137 -0.7392 -0.4187
 6482SOL    HW230909   4.218   1.365  15.920  1.8291  0.7129 -0.8714
 6483SOL     OW30910   4.091   1.608   2.450 -0.3328 -0.6458 -0.2069
 6483SOL    HW130911   4.009   1.639   2.413 -0.4152 -1.6014 -0.8218
 6483SOL    HW230912   4.125   1.693   2.479  0.6276 -0.9259 -0.5159
 6484SOL     OW30913   4.531   3.139   5.109  0.0262  0.1435  0.1447
 6484SOL    HW130914   4.618   3.158   5.075 -0.0590 -1.3174 -0.8906
 6484SOL    HW230915   4.480   3.111   5.033  0.2612 -1.1777  0.4755
 6485SOL     OW30916   0.358   0.268   8.172 -0.2566 -0.1093 -0.0785
 6485SOL    HW130917   0.347   0.352   8.127 -0.5439 -0.0827  0.0412
 6485SOL    HW230918   0.306   0.292   8.248  2.1618 -1.4869  2.0088
 6486SOL     OW30919   3.293   0.104   8.754  0.2666  0.0949  0.4356
 6486SOL    HW130920   3.226   0.104   8.823 -1.6178 -1.2616 -1.3998
 6486SOL    HW230921   3.365   0.052   8.791  1.3009  0.1623 -1.4815
 6487SOL     OW30922   3.460   3.411   4.749  0.0574  0.0717 -0.1070
 6487SOL    HW130923   3.487   3.343   4.687  0.6530  0.5944 -0.4175
 6487SOL    HW230924   3.437   3.480   4.687 -1.8697  0.8402  1.4221
 6488SOL     OW30925   2.081   0.752   4.454  0.5258  0.0446 -0.0586
 6488SOL    HW130926   2.011   0.747   4.389  0.8334  1.3591 -0.4876
 6488SOL    HW230927   2.143   0.703   4.399 -0.4419 -0.4606 -0.6922
 6489SOL     OW30928   3.016   1.809   0.641  0.1960  0.0272 -0.2454
 6489SOL    HW130929   2.958   1.881   0.666  0.8112  0.8622 -1.2180
 6489SOL    HW230930   2.987   1.787   0.552 -1.0002 -1.1338  0.4283
 6490SOL     OW30931   0.413   0.995   9.113  0.6138  0.3499 -0.1673
 6490SOL    HW130932   0.415   1.077   9.065  1.1475  0.7592  0.5526
 6490SOL    HW230933   0.323   0.963   9.114  0.2063  1.6003  1.4842
 6491SOL     OW30934   0.601   0.142   6.236  0.0710  0.2053 -0.4714
 6491SOL    HW130935   0.528   0.144   6.174  0.2109  1.2936 -0.5864
 6491SOL    HW230936   0.648   0.218   6.204  0.2810  0.1376 -0.3254
 6492SOL     OW30937   0.751   3.961   4.125 -0.1632  0.1851  0.2493
 6492SOL    HW130938   0.826   3.978   4.068 -0.4060  3.2735  0.8553
 6492SOL    HW230939   0.762   4.025   4.196  2.5438 -0.0869  0.0856
 6493SOL     OW30940   2.501   0.435  11.648 -0.6560  0.3897 -0.7098
 6493SOL    HW130941   2.580   0.408  11.696  0.4942  2.3986 -1.4597
 6493SOL    HW230942   2.534   0.466  11.563 -2.3318 -0.6481 -1.7284
 6494SOL     OW30943   2.529   3.974   5.116  0.0631 -1.2376 -0.5889
 6494SOL    HW130944   2.529   3.946   5.024 -0.7064  0.5765 -1.1568
 6494SOL    HW230945   2.491   3.895   5.154 -1.5410 -0.9365 -1.5579
 6495SOL     OW30946   0.909   3.458  11.684  0.1841 -0.0515  0.3128
 6495SOL    HW130947   0.965   3.531  11.659  1.2235 -0.9264  0.0925
 6495SOL    HW230948   0.858   3.486  11.760 -0.0670 -2.0972  0.8933
 6496SOL     OW30949   1.176   4.394   2.464 -0.0000 -0.2166 -0.2465
 6496SOL    HW130950   1.089   4.387   2.504 -0.1118 -0.8902 -0.6052
 6496SOL    HW230951   1.191   4.329   2.396  2.4745  1.4269 -1.2460
 6497SOL     OW30952   1.266   4.671  15.200  0.6679 -0.0173  0.5128
 6497SOL    HW130953   1.315   4.722  15.265 -0.2001  1.1234  0.2455
 6497SOL    HW230954   1.337   4.613  15.170  1.4039  1.9612 -1.4957
 6498SOL     OW30955   0.806   4.567  14.554 -0.1555 -0.1762  0.7513
 6498SOL    HW130956   0.813   4.487  14.605 -0.4287 -1.1371 -0.7293
 6498SOL    HW230957   0.807   4.531  14.465  3.1108  0.2367  0.6233
 6499SOL     OW30958   2.146   0.711   0.386  0.5632  0.0057  0.0329
 6499SOL    HW130959   2.102   0.655   0.321  0.2099 -0.5717  0.7682
 6499SOL    HW230960   2.126   0.788   0.333 -2.7045 -1.4876 -0.9213
 6500SOL     OW30961   1.688   3.476   2.750  0.1702 -0.2167 -0.5004
 6500SOL    HW130962   1.718   3.522   2.672  1.1610 -0.0033  0.0090
 6500SOL    HW230963   1.599   3.512   2.754 -0.0609 -0.7911 -0.4087
 6501SOL     OW30964   3.185   3.391   4.152 -0.2831  0.5710  0.2949
 6501SOL    HW130965   3.186   3.484   4.129 -1.1776  0.9565  1.7712
 6501SOL    HW230966   3.183   3.404   4.247 -0.1319  0.6057  0.2935
 6502SOL     OW30967   4.209   3.328  11.752 -0.0980  0.0721  0.0066
 6502SOL    HW130968   4.190   3.369  11.668  0.9031 -3.2881 -1.8383
 6502SOL    HW230969   4.293   3.291  11.725 -0.3164 -0.2099 -0.2786
 6503SOL     OW30970   1.007   2.128   8.246  0.0466  0.7182 -0.0491
 6503SOL    HW130971   0.954   2.133   8.326  0.7076  0.4449  0.4021
 6503SOL    HW230972   1.093   2.098   8.274  0.3013  0.8059 -0.7381
 6504SOL     OW30973   2.727   4.270  12.177  0.1914  0.5780 -0.3867
 6504SOL    HW130974   2.714   4.179  12.151 -0.5469  1.1456 -1.9946
 6504SOL    HW230975   2.794   4.292  12.112  0.7197 -0.0481 -0.0575
 6505SOL     OW30976   0.930   0.932   4.180  0.3666  0.4045 -0.1326
 6505SOL    HW130977   0.900   0.878   4.253 -0.5104  0.4175 -0.4816
 6505SOL    HW230978   0.950   0.863   4.117 -2.5167  1.3605 -2.0739
 6506SOL     OW30979   0.478   3.540   3.026  0.3680  1.1237 -0.7990
 6506SOL    HW130980   0.516   3.555   3.113 -0.3365 -0.0470 -0.2925
 6506SOL    HW230981   0.441   3.625   3.001  1.2484  2.0486  1.1016
 6507SOL     OW30982   3.779   0.768  11.344  0.1249  0.0088 -0.2550
 6507SOL    HW130983   3.801   0.861  11.336  0.9819 -0.0738  1.0789
 6507SOL    HW230984   3.684   0.765  11.331 -0.1656  1.0590  1.6893
 6508SOL     OW30985   4.069   1.954   7.481  0.6078  0.0364  0.3132
 6508SOL    HW130986   4.120   1.974   7.560  0.9051  0.9535 -0.1148
 6508SOL    HW230987   4.029   1.868   7.493  1.5262 -0.3409  0.6367
 6509SOL     OW30988   3.108   0.512  10.308 -0.1529 -0.1322  0.2042
 6509SOL    HW130989   3.042   0.444  10.317 -0.3342  0.2956  2.1292
 6509SOL    HW230990   3.099   0.517  10.213  0.2309 -1.1042  0.1250
 6510SOL     OW30991   3.113   0.077   2.648  0.9826 -0.0975  0.4980
 6510SOL    HW130992   3.177   0.015   2.684  1.2616 -0.3877 -0.4926
 6510SOL    HW230993   3.173   0.145   2.617 -1.7718  1.7036 -0.8886
 6511SOL     OW30994   3.175   3.698   4.716 -0.7349  0.6698  0.3060
 6511SOL    HW130995   3.144   3.616   4.679 -0.4183 -1.2217  4.2157
 6511SOL    HW230996   3.189   3.742   4.632 -0.6963  0.0726 -0.0033
 6512SOL     OW30997   3.104   2.609   6.382 -0.3219 -0.5494  0.2219
 6512SOL    HW130998   3.188   2.581   6.344 -0.5806 -1.8594  0.6279
 6512SOL    HW230999   3.078   2.544   6.447 -1.0428  1.4458  1.9173
 6513SOL     OW31000   2.131   3.643  13.693 -0.4792 -0.5415 -0.1216
 6513SOL    HW131001   2.036   3.651  13.681 -0.3777 -0.6289 -0.9712
 6513SOL    HW231002   2.159   3.657  13.603  0.6794  1.0190  0.4843
 6514SOL     OW31003   1.562   0.419   9.622 -0.1560  0.1317  0.3373
 6514SOL    HW131004   1.634   0.432   9.684 -1.0073 -0.9327  1.5443
 6514SOL    HW231005   1.603   0.369   9.551 -0.1888 -1.0928  1.1851
 6515SOL     OW31006   2.031   2.768  14.556 -0.2162 -0.3606 -0.1744
 6515SOL    HW131007   1.959   2.707  14.572 -0.5660  0.7074  2.4567
 6515SOL    HW231008   1.996   2.817  14.482  1.3340 -0.3756 -0.9100
 6516SOL     OW31009   0.893   3.001  11.415 -0.1480  0.2956 -0.3171
 6516SOL    HW131010   0.873   3.084  11.458  1.8780  0.5615  0.1188
 6516SOL    HW231011   0.941   2.945  11.476  1.0172  0.4655 -1.0604
 6517SOL     OW31012   0.094   4.431   2.086  0.2079 -0.5690  0.4847
 6517SOL    HW131013   0.090   4.448   2.180  0.0513 -0.4985  0.4653
 6517SOL    HW231014   0.177   4.477   2.072 -1.0835  2.5177  2.9468
 6518SOL     OW31015   1.099   0.237   4.099  0.2447 -0.1369  0.4206
 6518SOL    HW131016   1.088   0.181   4.176  1.6277  0.9673  1.4139
 6518SOL    HW231017   1.173   0.294   4.121 -0.1638  0.3772  0.4646
 6519SOL     OW31018   0.647   3.937   7.035  0.2870 -0.8620 -0.0024
 6519SOL    HW131019   0.693   3.999   7.091 -2.0375 -0.9754  2.0599
 6519SOL    HW231020   0.572   3.912   7.089 -0.4208 -0.4005 -0.7699
 6520SOL     OW31021   2.726   2.188   5.693 -0.7282  0.0681 -0.3470
 6520SOL    HW131022   2.760   2.277   5.699 -2.0166  0.5132  0.4895
 6520SOL    HW231023   2.761   2.153   5.775 -0.5380  2.3707  0.5408
 6521SOL     OW31024   1.608   1.161   9.683 -0.5527 -0.7114 -0.1207
 6521SOL    HW131025   1.573   1.182   9.596 -1.3679  1.4857  0.7252
 6521SOL    HW231026   1.660   1.236   9.711 -2.7323  1.2482 -1.3053
 6522SOL     OW31027   3.913   1.444  14.880  0.0459 -0.6003  0.9354
 6522SOL    HW131028   3.941   1.530  14.911 -0.2523  0.1876 -1.0125
 6522SOL    HW231029   3.979   1.386  14.919 -1.7508 -1.1320  3.2194
 6523SOL     OW31030   2.829   2.109   4.217  0.0888 -0.8244 -0.0199
 6523SOL    HW131031   2.869   2.145   4.138  1.5122  0.4764  1.2830
 6523SOL    HW231032   2.737   2.103   4.195  0.2151 -0.7178 -0.5660
 6524SOL     OW31033   1.657   3.997   8.262 -0.3193  0.1106  0.1813
 6524SOL    HW131034   1.738   3.953   8.288 -0.5045 -0.2068  0.2195
 6524SOL    HW231035   1.606   3.926   8.222 -1.5125  0.9252  0.2530
 6525SOL     OW31036   3.609   0.464   4.394  0.2765  0.8662  0.1228
 6525SOL    HW131037   3.570   0.510   4.469 -0.6789  1.5544 -0.7890
 6525SOL    HW231038   3.553   0.488   4.321  0.8710  1.1916 -0.2209
 6526SOL     OW31039   4.664   1.256   4.482 -0.1072  0.0824 -0.7517
 6526SOL    HW131040   0.034   1.268   4.490 -0.1714  0.6960 -0.8955
 6526SOL    HW231041   4.634   1.307   4.557  2.1801  0.1411  0.1392
 6527SOL     OW31042   0.469   3.943   4.359 -0.2882  0.7401  0.0953
 6527SOL    HW131043   0.483   4.002   4.434 -0.0555 -1.0512  1.4537
 6527SOL    HW231044   0.537   3.877   4.373 -2.0555 -0.8665  1.0755
 6528SOL     OW31045   1.698   1.491   1.536 -0.2967  0.0964  0.5456
 6528SOL    HW131046   1.785   1.510   1.571 -0.1197 -1.3819  0.8799
 6528SOL    HW231047   1.670   1.424   1.597  0.9843 -1.9404 -1.1262
 6529SOL     OW31048   1.015   3.342  13.921 -0.2457 -0.2325 -0.3268
 6529SOL    HW131049   1.034   3.258  13.963 -2.4027 -0.8636 -0.5852
 6529SOL    HW231050   1.028   3.315  13.830 -1.0323 -1.9091  0.0653
 6530SOL     OW31051   2.186   4.066   8.424 -0.3547  0.1154 -0.6077
 6530SOL    HW131052   2.243   4.045   8.498 -1.3179 -0.8681 -0.1550
 6530SOL    HW231053   2.184   4.161   8.438 -1.7672 -0.3980  2.5514
 6531SOL     OW31054   2.745   1.405   9.771  0.1275 -0.1400  0.2654
 6531SOL    HW131055   2.836   1.381   9.750 -0.2570 -0.2293 -1.3376
 6531SOL    HW231056   2.727   1.445   9.686 -1.5152 -0.8294  0.3028
 6532SOL     OW31057   0.169   2.600  16.756 -0.0547  0.1604 -0.0805
 6532SOL    HW131058   0.081   2.588  16.720 -1.2653  0.5264  2.7438
 6532SOL    HW231059   0.224   2.598  16.678  0.4337  1.6589  0.2264
 6533SOL     OW31060   1.254   4.254   4.660 -0.2757  0.2243  0.4990
 6533SOL    HW131061   1.337   4.276   4.702  1.4959 -1.2407 -2.1730
 6533SOL    HW231062   1.272   4.163   4.636 -0.7103  0.8606 -2.2515
 6534SOL     OW31063   2.727   3.720  10.522 -0.5355 -0.0814  0.3243
 6534SOL    HW131064   2.795   3.711  10.589 -0.0816  0.9034 -0.0146
 6534SOL    HW231065   2.684   3.803  10.540  0.3473  0.6426 -0.8793
 6535SOL     OW31066   0.749   0.807   6.114  0.2523 -0.4156  0.2267
 6535SOL    HW131067   0.786   0.784   6.199  0.4452 -0.9888 -0.0123
 6535SOL    HW231068   0.681   0.741   6.105  0.0811 -0.3197  0.8174
 6536SOL     OW31069   3.857   2.321   4.494 -0.2107 -0.2773  0.4829
 6536SOL    HW131070   3.899   2.293   4.575 -0.7051  2.4413  1.6738
 6536SOL    HW231071   3.782   2.367   4.531  0.8039  0.8704  1.0980
 6537SOL     OW31072   4.013   3.326   6.394  0.3152  0.0116 -0.0716
 6537SOL    HW131073   4.016   3.397   6.329  1.8548  0.4907  0.5212
 6537SOL    HW231074   4.090   3.274   6.372  1.7587  1.4202  1.6575
 6538SOL     OW31075   2.434   0.345  10.085  0.1319  0.1911 -0.0461
 6538SOL    HW131076   2.401   0.377  10.168  0.9105 -2.9821  1.4912
 6538SOL    HW231077   2.381   0.268  10.063 -0.5608 -0.0827  2.7019
 6539SOL     OW31078   1.026   1.432  16.616 -0.0207 -0.5253  0.2461
 6539SOL    HW131079   1.018   1.499  16.684  2.7871  2.9768 -2.8438
 6539SOL    HW231080   1.017   1.352  16.667 -0.3007 -0.2044  0.6967
 6540SOL     OW31081   0.185   0.439   3.597 -0.2167  0.0938  0.0369
 6540SOL    HW131082   0.140   0.467   3.518  0.9123  3.4964  0.5963
 6540SOL    HW231083   0.114   0.439   3.661 -0.2972 -1.4410 -0.0582
 6541SOL     OW31084   2.497   1.674   8.366  0.0784  0.0974  0.5078
 6541SOL    HW131085   2.584   1.693   8.330 -0.3737  1.2134  0.0325
 6541SOL    HW231086   2.432   1.669   8.297  0.0421  0.1376  0.5397
 6542SOL     OW31087   3.211   1.345   3.455 -0.0422  0.1412  0.1261
 6542SOL    HW131088   3.185   1.328   3.365 -1.4956  1.9806  0.2184
 6542SOL    HW231089   3.191   1.258   3.491 -3.0339  0.3032 -1.1365
 6543SOL     OW31090   3.071   1.376   6.954  0.2164  0.1387  0.1163
 6543SOL    HW131091   3.138   1.435   6.918 -0.2268  1.6393  1.7178
 6543SOL    HW231092   3.087   1.305   6.892  0.2580  0.5710 -0.3734
 6544SOL     OW31093   0.527   2.463   7.320  0.2247  0.5478 -0.4467
 6544SOL    HW131094   0.533   2.511   7.238 -1.8026  2.4776  0.4895
 6544SOL    HW231095   0.563   2.529   7.380  0.2579 -0.3557  0.5250
 6545SOL     OW31096   1.205   4.481  17.698 -0.0620  0.0859  0.5955
 6545SOL    HW131097   1.280   4.523   0.037  1.0375 -1.8898  0.5824
 6545SOL    HW231098   1.258   4.426  17.640  0.8872  1.4192  0.2228
 6546SOL     OW31099   3.975   0.792  16.273 -0.4558  0.2963 -0.6770
 6546SOL    HW131100   3.885   0.801  16.243 -0.6341  0.6623 -0.0365
 6546SOL    HW231101   3.951   0.733  16.345  0.4563 -0.6052 -1.1075
 6547SOL     OW31102   4.168   1.943   3.150 -0.4975 -1.0869  0.6833
 6547SOL    HW131103   4.185   1.925   3.243  2.7982 -3.2629 -0.3496
 6547SOL    HW231104   4.259   1.948   3.120  0.1608  2.6722  3.1954
 6548SOL     OW31105   1.884   0.130   6.588  0.4310  0.1229 -0.7221
 6548SOL    HW131106   1.847   0.086   6.512  0.0525 -2.0125  0.6626
 6548SOL    HW231107   1.974   0.098   6.584 -0.6933 -2.8539 -1.8922
 6549SOL     OW31108   4.081   0.505   4.488  0.2413 -0.4286  0.1716
 6549SOL    HW131109   3.997   0.495   4.443  1.4646  1.8649 -2.5875
 6549SOL    HW231110   4.131   0.483   4.409 -0.8317 -0.5939 -0.4648
 6550SOL     OW31111   4.248   3.272   7.813  0.3218 -0.1509  0.3765
 6550SOL    HW131112   4.326   3.218   7.806 -0.2297 -0.8712 -0.1474
 6550SOL    HW231113   4.215   3.244   7.898  0.5456 -1.6701 -0.0429
 6551SOL     OW31114   1.931   2.500  14.578  0.2968 -0.7424  0.1432
 6551SOL    HW131115   2.025   2.481  14.578 -0.3342 -3.9845  0.3850
 6551SOL    HW231116   1.885   2.425  14.541 -1.4730  0.6075 -0.3732
 6552SOL     OW31117   0.612   1.536   5.161  0.3412  0.4501  0.3541
 6552SOL    HW131118   0.673   1.571   5.227  0.5575  0.2977  0.2375
 6552SOL    HW231119   0.557   1.476   5.212 -0.0846 -2.0790 -3.0989
 6553SOL     OW31120   3.230   0.524  11.231  0.0139 -0.3955  0.6549
 6553SOL    HW131121   3.292   0.459  11.265  0.0418 -1.3777 -1.2756
 6553SOL    HW231122   3.276   0.605  11.251  2.5189 -2.0385  1.5225
 6554SOL     OW31123   1.909   4.011   1.205 -0.3840 -0.2056 -0.4740
 6554SOL    HW131124   1.982   4.012   1.267 -2.0195 -2.4000  1.4775
 6554SOL    HW231125   1.911   4.104   1.182 -0.2417 -1.0861 -3.9925
 6555SOL     OW31126   3.149   0.258   5.303  0.0488  0.6358 -0.1344
 6555SOL    HW131127   3.074   0.318   5.304 -0.5952 -0.1556 -1.3538
 6555SOL    HW231128   3.211   0.318   5.260 -1.7223  1.2539 -1.8589
 6556SOL     OW31129   2.129   1.161   4.592 -0.5757  0.3434  0.3961
 6556SOL    HW131130   2.123   1.245   4.637  1.1403 -0.1123  1.4801
 6556SOL    HW231131   2.035   1.150   4.598 -0.5364  0.0149  0.3999
 6557SOL     OW31132   3.239   3.626   8.705 -0.0182  0.1238 -0.2975
 6557SOL    HW131133   3.147   3.624   8.680 -0.2501 -3.0812  0.8545
 6557SOL    HW231134   3.267   3.704   8.657 -0.1630  1.2006  1.3340
 6558SOL     OW31135   3.401   1.847   3.226 -0.7525 -0.0187  0.5789
 6558SOL    HW131136   3.372   1.938   3.221 -0.2947  0.0901 -0.1560
 6558SOL    HW231137   3.496   1.838   3.219 -0.6706  2.0321 -0.9553
 6559SOL     OW31138   3.910   1.561   5.769  0.4070  0.7430 -0.0485
 6559SOL    HW131139   3.949   1.646   5.751 -1.5248  1.7690  0.6333
 6559SOL    HW231140   3.821   1.598   5.776  0.3067  0.1850  1.8727
 6560SOL     OW31141   4.030   0.740   6.373  0.1666  0.1833  0.0806
 6560SOL    HW131142   4.080   0.784   6.305  0.0086  0.4139  0.1126
 6560SOL    HW231143   4.091   0.674   6.407  0.2290 -0.4690 -1.2986
 6561SOL     OW31144   1.657   0.598   4.963  0.2891 -0.1575  0.1660
 6561SOL    HW131145   1.661   0.668   4.899  0.3578 -1.5288 -1.3269
 6561SOL    HW231146   1.672   0.525   4.903  0.9730 -1.7167  2.2177
 6562SOL     OW31147   0.796   4.325  13.512 -0.2923  0.6001 -0.0088
 6562SOL    HW131148   0.859   4.387  13.474  0.4467 -0.4658 -0.5062
 6562SOL    HW231149   0.720   4.381  13.529 -0.2855  0.8121 -0.6725
 6563SOL     OW31150   0.958   0.647   9.286 -0.5831 -0.2354  0.5270
 6563SOL    HW131151   0.867   0.672   9.270 -0.6396 -1.4169 -1.0873
 6563SOL    HW231152   0.945   0.552   9.283  1.8395 -0.5215 -1.0751
 6564SOL     OW31153   0.356   0.231   5.964 -0.0753  0.8260  0.4398
 6564SOL    HW131154   0.320   0.252   5.878  0.9112 -2.2970 -0.7371
 6564SOL    HW231155   0.343   0.136   5.965  0.6449  0.7601  2.6536
 6565SOL     OW31156   3.053   3.242  12.583 -0.0922  0.1855  0.0201
 6565SOL    HW131157   3.129   3.283  12.625  1.0283 -1.3810 -0.4605
 6565SOL    HW231158   3.033   3.172  12.645 -1.0374  1.2822  0.9535
 6566SOL     OW31159   4.536   0.404  15.149  0.1278  0.4142 -0.0691
 6566SOL    HW131160   4.547   0.431  15.058 -0.3699  0.7222 -0.0426
 6566SOL    HW231161   4.506   0.317  15.125 -1.0974  0.4550  1.2883
 6567SOL     OW31162   3.835   1.447  16.901 -0.8250  0.3611 -0.2909
 6567SOL    HW131163   3.887   1.390  16.957 -1.3473  0.5360  0.3884
 6567SOL    HW231164   3.876   1.437  16.815 -0.6140  2.9320 -0.4962
 6568SOL     OW31165   4.233   2.193   5.847 -0.1704 -0.4160 -0.2426
 6568SOL    HW131166   4.281   2.189   5.930 -1.2796 -0.1223  0.4112
 6568SOL    HW231167   4.270   2.118   5.801 -0.3203 -0.9448  0.5003
 6569SOL     OW31168   0.277   1.106  17.286  0.2887  0.3363 -0.4625
 6569SOL    HW131169   0.305   1.167  17.354  0.4175 -1.1759  0.8615
 6569SOL    HW231170   0.192   1.139  17.258 -0.3010  1.1085  2.2140
 6570SOL     OW31171   0.986   4.340   9.240 -0.3550 -0.5875 -0.0522
 6570SOL    HW131172   0.902   4.325   9.196  0.5810  0.1995 -2.0652
 6570SOL    HW231173   0.994   4.253   9.279 -1.7666 -0.6201  0.1701
 6571SOL     OW31174   4.111   1.913   7.953 -1.0146 -0.1549 -0.1534
 6571SOL    HW131175   4.129   1.893   8.045  0.0226  1.0945 -0.0979
 6571SOL    HW231176   4.055   1.841   7.925 -2.7161  1.4360 -0.8028
 6572SOL     OW31177   0.163   4.388   7.531 -0.1137  0.0756  0.5962
 6572SOL    HW131178   0.107   4.317   7.500  1.0813  0.4764 -2.4309
 6572SOL    HW231179   0.151   4.392   7.626  0.1252 -1.0557  0.6689
 6573SOL     OW31180   1.910   1.544   6.159  0.0942 -0.0123  0.3499
 6573SOL    HW131181   1.978   1.607   6.134 -2.5652  2.3703 -0.9380
 6573SOL    HW231182   1.885   1.597   6.235  0.7810 -1.7199  1.7694
 6574SOL     OW31183   3.606   2.171   7.597 -0.0050  1.1042 -0.6429
 6574SOL    HW131184   3.644   2.189   7.511  1.6311  1.2485  0.1076
 6574SOL    HW231185   3.671   2.118   7.644  1.4680  1.8999 -1.8003
 6575SOL     OW31186   0.742   1.814   7.235 -0.1256 -0.0273  0.4218
 6575SOL    HW131187   0.721   1.848   7.148  0.6778  1.1544  0.6737
 6575SOL    HW231188   0.659   1.790   7.274 -1.6340  0.8971 -2.1794
 6576SOL     OW31189   1.633   0.830   5.380  0.0073 -0.2310 -0.0176
 6576SOL    HW131190   1.663   0.838   5.289 -0.7680  0.1663 -0.2290
 6576SOL    HW231191   1.697   0.883   5.428 -0.0762 -1.1152  1.0921
 6577SOL     OW31192   0.258   1.181   6.496 -0.0098 -0.0224 -0.2091
 6577SOL    HW131193   0.337   1.221   6.458  0.5735 -2.2664 -1.3881
 6577SOL    HW231194   0.285   1.173   6.587  0.4978 -1.1300 -0.4614
 6578SOL     OW31195   3.996   3.777  10.136  0.2007 -0.3810  0.0432
 6578SOL    HW131196   4.055   3.701  10.136  1.5696  0.6759 -2.8018
 6578SOL    HW231197   4.065   3.844  10.138  0.9644 -1.2384  2.7967
 6579SOL     OW31198   0.901   2.726   6.730  0.5743 -0.2347 -0.1771
 6579SOL    HW131199   0.989   2.761   6.745  1.5147 -3.1205  0.9740
 6579SOL    HW231200   0.920   2.634   6.714 -0.0239 -0.6689  1.5986
 6580SOL     OW31201   2.254   2.447   6.948  0.8661  0.1318  0.2049
 6580SOL    HW131202   2.181   2.509   6.940 -0.6491 -1.7012 -0.1349
 6580SOL    HW231203   2.309   2.485   6.880 -2.6350  0.8631 -2.2373
 6581SOL     OW31204   1.450   3.665   7.044 -0.3821  0.2372  1.1619
 6581SOL    HW131205   1.356   3.655   7.030 -0.2460 -0.2042  0.5280
 6581SOL    HW231206   1.447   3.644   7.137  1.8927  3.0377  1.8497
 6582SOL     OW31207   4.574   3.260   1.130  0.1019  0.3068  0.2049
 6582SOL    HW131208   4.483   3.247   1.103  0.2522 -1.2824  0.4761
 6582SOL    HW231209   4.568   3.303   1.215 -2.6220  2.5416 -1.0969
 6583SOL     OW31210   4.481   1.262   3.879  0.6381 -0.2880 -0.5793
 6583SOL    HW131211   4.517   1.275   3.791 -0.2374  2.4349 -0.5501
 6583SOL    HW231212   4.523   1.327   3.936  1.2402 -1.4831  0.3229
 6584SOL     OW31213   2.574   4.130  15.745  0.1819  0.1044 -0.2307
 6584SOL    HW131214   2.623   4.126  15.828  0.0439 -2.5110 -0.2668
 6584SOL    HW231215   2.539   4.219  15.747  0.7404  0.2904  1.4697
 6585SOL     OW31216   1.707   0.461  13.695  0.3710  0.3899  0.5583
 6585SOL    HW131217   1.656   0.501  13.766 -1.6169 -0.0795 -0.6023
 6585SOL    HW231218   1.634   0.433  13.639  0.2439 -0.3520  1.1029
 6586SOL     OW31219   1.816   2.632  15.474  0.0295 -0.0806 -0.2156
 6586SOL    HW131220   1.820   2.726  15.457  1.3322  0.5545  3.5436
 6586SOL    HW231221   1.862   2.627  15.558 -0.0739 -0.2296 -0.1677
 6587SOL     OW31222   1.905   2.336   2.639 -0.3799  0.1456  0.1677
 6587SOL    HW131223   1.969   2.276   2.601 -0.2197  0.4098  0.0197
 6587SOL    HW231224   1.861   2.283   2.705  1.9466 -1.2493  0.5912
 6588SOL     OW31225   1.468   2.031   6.306 -1.1365  0.0928 -0.2576
 6588SOL    HW131226   1.451   2.111   6.357  0.3010 -0.4997  1.1444
 6588SOL    HW231227   1.404   2.042   6.236 -1.1839 -1.3624 -0.4307
 6589SOL     OW31228   1.224   3.371   3.167  0.0662 -0.5235 -0.0715
 6589SOL    HW131229   1.314   3.346   3.184  0.8721  2.3003 -0.1109
 6589SOL    HW231230   1.235   3.398   3.076 -0.4834  0.9327  0.2851
 6590SOL     OW31231   3.258   2.974   4.794 -0.2194 -0.2525 -0.3141
 6590SOL    HW131232   3.175   2.931   4.775 -0.6020 -0.5968  2.1282
 6590SOL    HW231233   3.251   3.039   4.724  0.9406 -0.1803 -0.3644
 6591SOL     OW31234   0.967   4.492  17.589  0.1999  0.2079 -1.1060
 6591SOL    HW131235   1.049   4.491  17.639  0.0261  0.6779 -0.8204
 6591SOL    HW231236   0.934   4.582  17.594 -1.2817 -0.3440 -1.0899
 6592SOL     OW31237   2.069   4.441   6.245  0.3146 -0.6920  0.2350
 6592SOL    HW131238   2.158   4.457   6.212  0.5135 -1.4977  0.3785
 6592SOL    HW231239   2.054   4.354   6.209 -0.4305 -0.2496 -0.5199
 6593SOL     OW31240   4.652   0.847   2.146  0.0328 -0.0086  0.5645
 6593SOL    HW131241   4.725   0.887   2.193  0.5903 -0.7827  0.3636
 6593SOL    HW231242   4.658   0.903   2.069  0.3317 -2.7896 -1.4139
 6594SOL     OW31243   0.498   2.944   0.113 -0.1886  0.0051  0.1521
 6594SOL    HW131244   0.472   2.894   0.035 -0.0553 -1.0142  0.7516
 6594SOL    HW231245   0.427   3.006   0.127  0.9041  1.4000 -0.5000
 6595SOL     OW31246   1.276   2.273   2.478 -0.0933  1.2032  0.0892
 6595SOL    HW131247   1.318   2.293   2.561 -0.1739 -0.6719  0.5716
 6595SOL    HW231248   1.229   2.357   2.470 -1.7261  0.1888 -0.9053
 6596SOL     OW31249   3.559   0.108  12.717 -0.8368 -0.1285  0.1491
 6596SOL    HW131250   3.572   0.099  12.622 -0.5505  1.4395  0.0422
 6596SOL    HW231251   3.612   0.188  12.725 -0.9483  0.2266 -2.5069
 6597SOL     OW31252   1.471   1.975  15.772 -0.1659  0.6198 -0.2854
 6597SOL    HW131253   1.459   2.039  15.842  0.4696  0.5978 -0.1609
 6597SOL    HW231254   1.411   2.009  15.705 -0.5844 -1.8039 -1.1705
 6598SOL     OW31255   2.596   2.885   7.268 -0.4880 -0.1939  0.6888
 6598SOL    HW131256   2.551   2.965   7.294 -0.0285  0.7527 -1.3924
 6598SOL    HW231257   2.572   2.874   7.176  2.4544  0.4195 -0.1775
 6599SOL     OW31258   0.207   4.024  15.070  0.0803  0.2085 -0.0199
 6599SOL    HW131259   0.225   3.977  15.152 -1.2481 -0.9714 -0.3929
 6599SOL    HW231260   0.239   4.112  15.088  0.5194  0.2124 -0.8066
 6600SOL     OW31261   2.413   3.414  11.862 -1.0327 -0.0764 -0.3590
 6600SOL    HW131262   2.447   3.454  11.781  1.2956 -0.5767  0.3766
 6600SOL    HW231263   2.480   3.346  11.864  1.1249  2.0120 -1.1912
 6601SOL     OW31264   0.843   1.200   7.910 -0.2061 -0.4056 -0.2951
 6601SOL    HW131265   0.913   1.136   7.898 -0.5498 -0.5424 -1.5305
 6601SOL    HW231266   0.852   1.203   8.005  0.5153  1.9657 -0.4393
 6602SOL     OW31267   3.423   2.041   1.750  0.3825 -0.4210 -0.0085
 6602SOL    HW131268   3.502   2.025   1.698 -1.6624 -0.2110 -3.1817
 6602SOL    HW231269   3.452   2.002   1.832 -0.1914 -0.7777  0.0191
 6603SOL     OW31270   1.174   2.296   5.810 -0.4843 -0.4876  0.7068
 6603SOL    HW131271   1.110   2.255   5.752 -0.4298 -1.3408  1.2610
 6603SOL    HW231272   1.242   2.229   5.809 -0.2813 -0.3041  3.6240
 6604SOL     OW31273   0.441   0.881   8.314 -0.0188 -0.0596  0.0133
 6604SOL    HW131274   0.495   0.934   8.372  0.8629  1.2120 -1.9475
 6604SOL    HW231275   0.373   0.857   8.377 -0.8163  0.3690 -0.6700
 6605SOL     OW31276   1.202   3.342   6.557 -0.3969 -0.5182 -0.0073
 6605SOL    HW131277   1.142   3.410   6.587  0.4388 -0.9448  2.6408
 6605SOL    HW231278   1.149   3.264   6.571 -0.1065 -0.7120  0.0293
 6606SOL     OW31279   4.520   3.999   6.154  0.4348 -0.1499 -0.1892
 6606SOL    HW131280   4.577   4.009   6.079  1.0845  0.5678  0.4001
 6606SOL    HW231281   4.583   3.987   6.225  2.0460 -2.4285 -2.0335
 6607SOL     OW31282   4.125   1.712  14.502  0.1724 -0.6543  0.2385
 6607SOL    HW131283   4.212   1.731  14.537 -0.9412  0.7121  2.3492
 6607SOL    HW231284   4.073   1.732  14.581  0.3140 -0.4679  0.2841
 6608SOL     OW31285   0.960   4.670  11.994  0.2803  0.2105  0.6966
 6608SOL    HW131286   1.039   4.714  11.962 -0.2862  2.0860  1.8437
 6608SOL    HW231287   0.889   0.008  12.006  0.1549  0.6300 -2.2177
 6609SOL     OW31288   1.918   4.234   6.684 -0.2292 -0.6025 -0.3322
 6609SOL    HW131289   1.883   4.323   6.692  1.3012  0.2394 -2.7816
 6609SOL    HW231290   1.964   4.216   6.765 -0.3054  2.2076  0.3448
 6610SOL     OW31291   3.447   3.801   7.048  0.5227  0.0493 -0.4072
 6610SOL    HW131292   3.524   3.835   7.003  0.2765  0.4915 -0.4992
 6610SOL    HW231293   3.462   3.707   7.037 -1.3798 -0.3144 -0.0516
 6611SOL     OW31294   1.490   2.729   0.484  0.0472  0.9348  0.2934
 6611SOL    HW131295   1.443   2.774   0.554  3.0758  0.3973  2.6595
 6611SOL    HW231296   1.431   2.655   0.468  1.8609 -0.0358 -1.8275
 6612SOL     OW31297   3.238   1.349   0.718  0.1143  0.2992 -0.2210
 6612SOL    HW131298   3.188   1.430   0.721 -0.8738 -0.2782 -1.1711
 6612SOL    HW231299   3.170   1.286   0.695  1.0354 -0.2337 -1.5570
 6613SOL     OW31300   1.962   4.696   0.431 -0.5504 -0.2737 -0.1924
 6613SOL    HW131301   1.888   4.646   0.466  0.4750 -1.8761 -0.3186
 6613SOL    HW231302   1.944   4.689   0.337  1.7590  2.2232 -0.8231
 6614SOL     OW31303   0.073   4.207   4.779 -0.1188 -0.2008 -0.4922
 6614SOL    HW131304   0.149   4.253   4.744 -0.8487 -0.0731 -1.9215
 6614SOL    HW231305   0.085   4.126   4.728 -1.2778 -1.7926  1.7429
 6615SOL     OW31306   2.905   4.184   2.343  0.0468  0.4746  0.2495
 6615SOL    HW131307   2.941   4.123   2.407  1.1627  1.2680  0.3875
 6615SOL    HW231308   2.816   4.149   2.343  0.9074 -1.6832  0.9801
 6616SOL     OW31309   0.135   0.248   0.039  0.0101  0.2556 -0.7855
 6616SOL    HW131310   0.148   0.336   0.073 -0.3480 -0.4886  1.2711
 6616SOL    HW231311   0.066   0.203   0.087  0.4795 -1.1455 -1.4227
 6617SOL     OW31312   2.780   2.714  12.778 -0.4171  0.2840 -0.0640
 6617SOL    HW131313   2.852   2.653  12.793  1.4142  1.5187 -3.6892
 6617SOL    HW231314   2.771   2.758  12.862 -1.9368 -1.1464  0.5185
 6618SOL     OW31315   4.298   3.911  11.693 -0.2059  0.0010  0.1844
 6618SOL    HW131316   4.233   3.843  11.711  2.1085 -2.3350 -0.3423
 6618SOL    HW231317   4.252   3.963  11.627 -0.9303 -1.5403 -0.5469
 6619SOL     OW31318   2.833   3.216   9.820 -0.2712 -0.1584  0.1178
 6619SOL    HW131319   2.901   3.149   9.826 -0.2840 -0.3171 -1.6987
 6619SOL    HW231320   2.775   3.185   9.890 -0.1565  0.3122  0.4230
 6620SOL     OW31321   1.706   3.643   0.539  0.2454  0.4297  0.0929
 6620SOL    HW131322   1.631   3.681   0.494 -0.1787 -0.3875  0.1075
 6620SOL    HW231323   1.665   3.575   0.593  2.3046 -0.2218  0.8350
 6621SOL     OW31324   1.045   0.713   0.260  0.2414 -0.1652  0.1061
 6621SOL    HW131325   0.960   0.671   0.249 -0.6959  1.3159  1.7369
 6621SOL    HW231326   1.041   0.784   0.197  1.5733 -2.1141 -2.1529
 6622SOL     OW31327   0.220   3.649   7.301 -0.2702  0.6385 -0.6641
 6622SOL    HW131328   0.268   3.567   7.292 -1.0991  0.0069  0.6813
 6622SOL    HW231329   0.141   3.624   7.349  0.3341 -1.0546 -0.5696
 6623SOL     OW31330   2.359   4.366   9.449  0.3149 -0.0148 -0.1611
 6623SOL    HW131331   2.391   4.395   9.364  2.5415  1.4640  1.1803
 6623SOL    HW231332   2.352   4.271   9.441 -2.5491  0.0901  1.0061
 6624SOL     OW31333   3.036   3.908  11.338  0.6418  0.4879 -0.3706
 6624SOL    HW131334   3.083   3.943  11.262  0.1647 -2.3455 -1.9723
 6624SOL    HW231335   3.018   3.815  11.325 -0.2146  0.6901 -0.6238
 6625SOL     OW31336   0.669   2.776  13.722 -0.1770  1.0683  0.2184
 6625SOL    HW131337   0.603   2.707  13.722  0.4887  0.4292  0.2944
 6625SOL    HW231338   0.738   2.729  13.675 -1.4596 -1.1517  0.5490
 6626SOL     OW31339   3.128   0.142  10.415 -0.0629  0.8375  0.0143
 6626SOL    HW131340   3.126   0.046  10.408  1.3596  0.7861  0.2468
 6626SOL    HW231341   3.129   0.160  10.509 -1.5122  2.3218 -0.2649
 6627SOL     OW31342   1.811   2.227   2.322  0.8903  0.0068 -0.1460
 6627SOL    HW131343   1.856   2.302   2.284  0.9070 -0.7507 -1.6740
 6627SOL    HW231344   1.889   2.193   2.365  1.6043 -0.3389 -1.6826
 6628SOL     OW31345   1.469   1.932   7.830 -0.3612 -0.7435  0.3839
 6628SOL    HW131346   1.477   1.978   7.913  0.1132  2.2996 -1.3715
 6628SOL    HW231347   1.559   1.943   7.800 -0.3400 -0.3262  0.6016
 6629SOL     OW31348   3.269   0.142  12.714 -0.4256  0.0350  0.3397
 6629SOL    HW131349   3.349   0.145  12.662 -2.0329  3.0539 -1.9570
 6629SOL    HW231350   3.303   0.177  12.797  2.5657 -3.7477  0.7204
 6630SOL     OW31351   2.538   4.025  15.507  0.1743  0.0816  0.6506
 6630SOL    HW131352   2.523   4.053  15.597  1.3023 -0.5041  1.0114
 6630SOL    HW231353   2.468   4.062  15.453  0.9993  0.5575 -0.1015
 6631SOL     OW31354   2.647   0.994  14.783  0.3997  0.0930 -0.2675
 6631SOL    HW131355   2.713   1.041  14.731 -1.1895  1.0453 -1.4391
 6631SOL    HW231356   2.630   0.912  14.736  1.4538 -0.9596  1.2342
 6632SOL     OW31357   3.997   1.057   8.537  0.1654 -0.1152 -0.1627
 6632SOL    HW131358   4.038   1.140   8.560 -3.4647  1.1518  1.7185
 6632SOL    HW231359   4.049   1.001   8.594 -0.0776 -1.5762 -1.3655
 6633SOL     OW31360   2.450   4.226   8.869  0.3492 -0.5611  0.2220
 6633SOL    HW131361   2.495   4.144   8.888 -0.4970 -0.2270  3.6514
 6633SOL    HW231362   2.369   4.211   8.918 -0.1769 -0.7091 -0.6903
 6634SOL     OW31363   4.278   4.717   4.309  0.0002  0.2741 -0.2151
 6634SOL    HW131364   4.355   0.047   4.316  2.3490 -2.6219 -3.0764
 6634SOL    HW231365   4.298   4.654   4.379 -0.7267  2.2275  1.7452
 6635SOL     OW31366   0.442   0.804   1.279  0.4713 -0.5994  0.5588
 6635SOL    HW131367   0.396   0.887   1.294 -0.5050 -1.1578  0.6848
 6635SOL    HW231368   0.447   0.799   1.184  3.5941 -0.1044  0.7103
 6636SOL     OW31369   4.660   4.604  10.539 -0.9791 -0.6165  0.3333
 6636SOL    HW131370   4.714   4.622  10.463 -1.1129  0.2875  0.4537
 6636SOL    HW231371   4.678   4.510  10.546  0.6612 -0.2088  1.6712
 6637SOL     OW31372   3.443   4.378   4.003 -0.2508  0.2768  0.2909
 6637SOL    HW131373   3.424   4.453   4.060 -0.5962  1.0756 -0.8672
 6637SOL    HW231374   3.458   4.307   4.065  2.0633 -1.5775 -2.3550
 6638SOL     OW31375   3.364   4.481   6.216 -0.3494  0.2124  0.3556
 6638SOL    HW131376   3.435   4.427   6.181  0.0133  0.4313  0.7559
 6638SOL    HW231377   3.292   4.461   6.157  0.8432  0.8942 -1.3223
 6639SOL     OW31378   1.853   0.231   0.890  0.3161 -0.1555  0.1406
 6639SOL    HW131379   1.948   0.230   0.897  0.1899 -0.1097  2.0260
 6639SOL    HW231380   1.831   0.141   0.916  2.0231 -0.4279  0.6335
 6640SOL     OW31381   0.331   4.553   2.051 -0.2334 -0.3664  1.2358
 6640SOL    HW131382   0.400   4.598   2.099 -2.2439  3.3682  0.6721
 6640SOL    HW231383   0.358   4.572   1.961 -0.9360 -2.5853  0.5380
 6641SOL     OW31384   4.105   1.087   2.385  0.0932  0.2350  0.9005
 6641SOL    HW131385   4.144   1.133   2.311 -0.4356  0.9061  1.0406
 6641SOL    HW231386   4.068   1.012   2.338  2.1100  0.6737 -1.3693
 6642SOL     OW31387   0.745   0.621   7.796  0.5271  0.0896 -0.5305
 6642SOL    HW131388   0.686   0.667   7.857  1.8126 -0.7740  1.3499
 6642SOL    HW231389   0.825   0.599   7.844 -0.3495  1.6645  1.6664
 6643SOL     OW31390   2.358   3.868   0.737 -0.5987  0.0456 -0.6440
 6643SOL    HW131391   2.430   3.901   0.790 -0.2103  2.5794 -2.7573
 6643SOL    HW231392   2.355   3.783   0.781  1.7606  0.6253  0.6178
 6644SOL     OW31393   0.458   0.648   8.818 -0.0445 -0.2274 -0.9801
 6644SOL    HW131394   0.491   0.646   8.908 -3.6553  0.0190  0.3384
 6644SOL    HW231395   0.534   0.680   8.770  0.9081 -1.3381 -0.2290
 6645SOL     OW31396   0.080   3.365   4.206 -0.1113  0.0126 -0.0489
 6645SOL    HW131397   0.134   3.287   4.197  0.3356  0.5152 -1.6519
 6645SOL    HW231398   0.056   3.348   4.297 -0.0333 -1.0502 -0.2346
 6646SOL     OW31399   1.203   0.896   9.188 -0.1315 -0.2620 -0.0373
 6646SOL    HW131400   1.244   0.834   9.248  0.6536  0.0975 -0.1970
 6646SOL    HW231401   1.153   0.945   9.253 -0.9299  0.2290 -1.0052
 6647SOL     OW31402   3.301   4.062   4.529  0.5534  0.1411 -0.7663
 6647SOL    HW131403   3.346   4.146   4.538 -0.9129  1.0003 -1.3674
 6647SOL    HW231404   3.224   4.085   4.581 -0.6688 -1.7684 -1.7205
 6648SOL     OW31405   0.262   1.745   5.049  0.5892  0.0763  0.7173
 6648SOL    HW131406   0.318   1.807   5.096  1.1386 -0.5733  0.9180
 6648SOL    HW231407   0.216   1.691   5.113  0.2809 -2.3614 -1.5752
 6649SOL     OW31408   1.321   4.430  10.698 -0.1925 -0.5621  0.1215
 6649SOL    HW131409   1.371   4.422  10.779  0.6395  0.0880 -0.3249
 6649SOL    HW231410   1.317   4.337  10.675  1.7042 -0.7741  0.6497
 6650SOL     OW31411   4.493   3.836   4.076 -0.2004  0.6217 -0.2096
 6650SOL    HW131412   4.570   3.879   4.112 -0.3831  0.3359  0.5228
 6650SOL    HW231413   4.479   3.773   4.147  0.9918  2.1684  1.3984
 6651SOL     OW31414   1.629   2.517  11.348 -0.2850  0.2199 -0.4127
 6651SOL    HW131415   1.706   2.504  11.293 -0.5735  0.4416 -0.8658
 6651SOL    HW231416   1.666   2.549  11.431 -0.3784  0.4174 -0.4480
 6652SOL     OW31417   3.643   4.541  11.910 -0.1328  0.6152 -0.1319
 6652SOL    HW131418   3.621   4.592  11.832  3.3830 -0.2599 -1.6957
 6652SOL    HW231419   3.615   4.603  11.977  0.7019 -1.4227  2.0925
 6653SOL     OW31420   3.637   2.351   5.257 -0.2918  0.6561 -0.4316
 6653SOL    HW131421   3.687   2.354   5.339  0.6756  1.6126 -1.0559
 6653SOL    HW231422   3.678   2.279   5.211 -0.5993  0.2140 -0.0142
 6654SOL     OW31423   0.728   4.157  17.516  0.2560  0.4453  0.6566
 6654SOL    HW131424   0.689   4.160  17.603  0.3805  1.5861  0.6696
 6654SOL    HW231425   0.666   4.098  17.472  1.2299  0.1986 -0.3911
 6655SOL     OW31426   4.275   2.387   6.901  0.9027  0.7709  0.4895
 6655SOL    HW131427   4.264   2.382   6.806 -1.6042  1.7033  0.7462
 6655SOL    HW231428   4.261   2.296   6.926 -1.4369  1.3351  1.1373
 6656SOL     OW31429   0.455   2.585   9.702 -0.3864 -0.4459  0.0913
 6656SOL    HW131430   0.378   2.535   9.673 -1.2476  0.9461 -0.0299
 6656SOL    HW231431   0.514   2.513   9.721  0.4142 -0.0619 -0.9762
 6657SOL     OW31432   2.729   4.512  12.958  0.6114 -0.1673  0.0312
 6657SOL    HW131433   2.700   4.555  12.877  0.5228  0.9601  0.6561
 6657SOL    HW231434   2.754   4.425  12.929  1.9013  1.0889 -2.6412
 6658SOL     OW31435   3.300   2.294   3.826  0.1078  0.2598 -0.5112
 6658SOL    HW131436   3.270   2.207   3.799  0.5839 -0.1916  0.4131
 6658SOL    HW231437   3.385   2.298   3.783  0.5209  2.0534  0.4573
 6659SOL     OW31438   0.989   0.118   0.183  0.8408  0.6984 -0.5726
 6659SOL    HW131439   1.007   0.190   0.243 -1.9890  1.4485 -0.6242
 6659SOL    HW231440   0.973   0.049   0.247 -1.6479  1.6588 -0.1724
 6660SOL     OW31441   1.873   2.926   6.794  0.2363  0.3669  0.4723
 6660SOL    HW131442   1.794   2.908   6.845 -1.4326  0.7886 -1.9645
 6660SOL    HW231443   1.910   2.992   6.852 -1.5416  0.0512  1.9727
 6661SOL     OW31444   0.904   0.207   8.419 -0.9419 -0.1248 -0.4059
 6661SOL    HW131445   0.823   0.245   8.385 -0.1860  0.6857 -1.2875
 6661SOL    HW231446   0.927   0.264   8.492  0.6773 -2.3373  0.8450
 6662SOL     OW31447   3.527   2.678  17.137  0.2978 -0.1779 -0.3502
 6662SOL    HW131448   3.562   2.617  17.201 -3.0025 -2.4450 -0.6889
 6662SOL    HW231449   3.612   2.701  17.101  0.3536 -2.5374 -1.7505
 6663SOL     OW31450   0.135   2.405   4.425 -0.0467  0.4311  0.1253
 6663SOL    HW131451   0.209   2.363   4.468 -0.0867  0.4096  0.1740
 6663SOL    HW231452   0.076   2.329   4.418  1.7421 -1.1257  1.8509
 6664SOL     OW31453   0.507   3.432   0.133  0.3922  0.3855  0.5402
 6664SOL    HW131454   0.455   3.471   0.063 -0.6402 -2.7191 -0.4251
 6664SOL    HW231455   0.544   3.358   0.085 -0.7715  0.2053 -0.0653
 6665SOL     OW31456   0.569   2.717   2.722  0.9791 -0.4755 -0.5292
 6665SOL    HW131457   0.477   2.719   2.695  1.0570  4.1431 -0.5045
 6665SOL    HW231458   0.616   2.733   2.640  1.7474  1.5811  0.3207
 6666SOL     OW31459   2.459   0.782   1.129  0.7665  0.2777  0.9705
 6666SOL    HW131460   2.478   0.735   1.048  1.3527 -1.2845  2.0104
 6666SOL    HW231461   2.425   0.866   1.096 -1.6496 -0.5162  1.4895
 6667SOL     OW31462   3.568   0.814  11.666 -0.7541 -0.0953  0.4039
 6667SOL    HW131463   3.481   0.811  11.707 -0.3423  1.8360  1.3906
 6667SOL    HW231464   3.584   0.902  11.634  0.0153 -0.7276 -0.9299
 6668SOL     OW31465   3.933   3.881  13.440 -0.2389 -0.0155  0.6675
 6668SOL    HW131466   3.974   3.857  13.357  0.6475  1.7310  0.6066
 6668SOL    HW231467   3.992   3.949  13.472  0.1705  0.5613 -1.3230
 6669SOL     OW31468   1.554   1.103   6.060  0.0296  0.1438  0.0796
 6669SOL    HW131469   1.469   1.085   6.100  1.4826 -0.0280  3.0376
 6669SOL    HW231470   1.529   1.085   5.969 -1.2562  0.5132  0.3532
 6670SOL     OW31471   0.742   2.495   2.751  0.0618 -0.3211  0.6859
 6670SOL    HW131472   0.675   2.560   2.733 -0.1259 -1.0307 -1.1557
 6670SOL    HW231473   0.699   2.452   2.825  1.0694 -0.2368  1.3357
 6671SOL     OW31474   0.991   2.216   8.993 -0.6725 -0.1360  0.0361
 6671SOL    HW131475   0.959   2.306   8.988 -1.2682 -0.5228 -2.8139
 6671SOL    HW231476   1.087   2.225   8.988 -0.6669  0.5180  1.3267
 6672SOL     OW31477   4.678   3.179  13.000  0.1757  0.2960 -0.1918
 6672SOL    HW131478   0.038   3.178  13.043  0.0854 -1.0174 -0.0269
 6672SOL    HW231479   4.646   3.269  12.992 -3.0072 -0.8763 -0.5775
 6673SOL     OW31480   4.638   2.751   3.582  0.2910 -0.1588 -0.0072
 6673SOL    HW131481   0.001   2.722   3.604  0.6371 -0.7892 -2.2190
 6673SOL    HW231482   4.638   2.771   3.488  2.4439 -2.5883 -0.5352
 6674SOL     OW31483   4.449   2.183  12.722 -0.6193  0.2603  0.1673
 6674SOL    HW131484   4.538   2.151  12.728 -0.9114 -0.2767  1.4481
 6674SOL    HW231485   4.418   2.143  12.641 -1.0921  0.4993  0.2255
 6675SOL     OW31486   1.639   1.057   0.713 -0.2173 -0.5952 -0.2162
 6675SOL    HW131487   1.646   1.136   0.659  2.5556 -0.8713 -0.2584
 6675SOL    HW231488   1.543   1.057   0.716 -0.1791  1.3517  1.1399
 6676SOL     OW31489   0.428   0.917  11.411  0.0222 -0.6400  0.2304
 6676SOL    HW131490   0.349   0.960  11.444 -0.3307 -1.2594  0.1886
 6676SOL    HW231491   0.426   0.844  11.472 -0.2575  0.0604  1.0562
 6677SOL     OW31492   0.874   3.706   3.082 -0.1423 -0.3219  0.3718
 6677SOL    HW131493   0.781   3.692   3.101 -0.7816  0.8389 -1.8345
 6677SOL    HW231494   0.922   3.672   3.157 -2.0685 -1.5432  1.0400
 6678SOL     OW31495   0.052   1.078   7.666 -0.3332 -0.0054  0.5302
 6678SOL    HW131496   4.696   1.037   7.635  0.1920 -1.1016  0.6460
 6678SOL    HW231497   0.064   1.055   7.758  0.2564 -0.1490  0.4120
 6679SOL     OW31498   2.664   4.659   2.543  0.0197 -0.6292 -0.0484
 6679SOL    HW131499   2.753   4.694   2.542 -1.0886  2.2365 -0.5228
 6679SOL    HW231500   2.659   4.609   2.624  1.4367 -1.4721 -0.4942
 6680SOL     OW31501   0.488   1.401   6.770 -0.3930 -0.1009  0.2332
 6680SOL    HW131502   0.410   1.421   6.718 -0.2977 -0.2893  0.0205
 6680SOL    HW231503   0.456   1.370   6.855 -2.6305  1.1486 -0.1597
 6681SOL     OW31504   0.000   1.460   6.656 -0.0640 -0.1590 -0.0056
 6681SOL    HW131505   4.711   1.403   6.581  0.6536 -0.2676 -0.0560
 6681SOL    HW231506   4.649   1.450   6.713  1.5159 -2.3350  1.7453
 6682SOL     OW31507   1.323   0.857   2.004  0.0079 -0.3361 -0.2914
 6682SOL    HW131508   1.240   0.859   1.955 -0.1501  1.0049  0.0393
 6682SOL    HW231509   1.286   0.850   2.092  0.4327  0.6296 -0.0445
 6683SOL     OW31510   0.492   1.814  12.372  0.0524  0.6573 -0.6699
 6683SOL    HW131511   0.574   1.774  12.345 -0.1138 -1.6272  2.3205
 6683SOL    HW231512   0.519   1.905  12.388 -1.7918  1.2296 -0.8501
 6684SOL     OW31513   4.529   0.375   4.361 -0.0041  0.1950  0.8378
 6684SOL    HW131514   4.591   0.433   4.318 -0.5373  0.0022 -0.1730
 6684SOL    HW231515   4.498   0.430   4.434  0.0826  2.3765 -0.7777
 6685SOL     OW31516   2.679   0.250   8.666 -0.1339 -0.0079  0.1856
 6685SOL    HW131517   2.587   0.225   8.654 -0.2663  0.6347 -0.1238
 6685SOL    HW231518   2.709   0.173   8.715  0.2818 -0.0102 -0.0736
 6686SOL     OW31519   0.955   1.872   5.080 -0.1706 -0.4343  0.4399
 6686SOL    HW131520   0.951   1.967   5.076 -0.3192 -0.3392  3.1750
 6686SOL    HW231521   0.877   1.852   5.131 -2.3131  1.8343 -1.9482
 6687SOL     OW31522   3.441   1.533   0.857  0.1678 -0.3469 -0.6923
 6687SOL    HW131523   3.381   1.464   0.827  2.3314 -2.9190  0.8957
 6687SOL    HW231524   3.502   1.547   0.785  0.3669  0.5456 -0.3551
 6688SOL     OW31525   3.891   4.234   4.231  0.0851  0.7153  0.1659
 6688SOL    HW131526   3.962   4.296   4.212 -0.0950  0.6880 -0.6130
 6688SOL    HW231527   3.878   4.200   4.142  2.7974 -3.3781  1.3017
 6689SOL     OW31528   1.517   2.756  13.547 -0.3531 -0.3153 -0.3142
 6689SOL    HW131529   1.562   2.791  13.623 -2.2605 -0.6033  0.9601
 6689SOL    HW231530   1.540   2.822  13.482  3.2267 -0.8250  0.4540
 6690SOL     OW31531   3.988   3.495   5.170  0.2112  0.0790 -0.5946
 6690SOL    HW131532   4.071   3.538   5.152  0.2063  1.2640  2.2261
 6690SOL    HW231533   3.917   3.550   5.137  0.7135  1.5171  0.7730
 6691SOL     OW31534   2.408   0.679   0.324 -0.3840 -0.6733  0.2670
 6691SOL    HW131535   2.437   0.625   0.397  0.7648  1.2881  1.2495
 6691SOL    HW231536   2.319   0.689   0.357 -0.3966  1.7750 -0.4617
 6692SOL     OW31537   2.001   0.390  15.848  0.0564 -0.4455  0.1942
 6692SOL    HW131538   2.032   0.429  15.929  0.0914  1.4736 -0.7491
 6692SOL    HW231539   1.907   0.399  15.863  0.4415  2.9229  0.5581
 6693SOL     OW31540   0.209   3.701   7.920 -0.2312 -0.2662  0.2546
 6693SOL    HW131541   0.193   3.789   7.956  0.1354  0.3723 -1.1431
 6693SOL    HW231542   0.304   3.696   7.925 -0.2658 -0.8790  0.3176
 6694SOL     OW31543   1.264   1.211   2.046  0.1727  0.1990  0.0075
 6694SOL    HW131544   1.186   1.173   2.005  0.3105 -1.6925  1.5051
 6694SOL    HW231545   1.227   1.266   2.114  0.3808  0.1518  0.1600
 6695SOL     OW31546   2.683   0.368   4.461 -0.1389 -0.0838  0.0120
 6695SOL    HW131547   2.739   0.313   4.515 -0.0628 -0.0601 -0.0420
 6695SOL    HW231548   2.645   0.303   4.402 -0.7954  0.6660 -0.3965
 6696SOL     OW31549   4.089   0.591   3.967 -0.1348 -0.5511 -0.2756
 6696SOL    HW131550   4.144   0.547   3.903  0.9923  0.2784  0.1248
 6696SOL    HW231551   4.135   0.582   4.050 -0.2983  0.4821 -0.0769
 6697SOL     OW31552   4.317   2.966   3.072 -0.4404 -0.1365  0.4935
 6697SOL    HW131553   4.354   2.904   3.010 -0.5108 -0.4331  0.7471
 6697SOL    HW231554   4.272   3.024   3.010  0.9839  1.1259  0.6339
 6698SOL     OW31555   3.626   0.637  11.074  0.3437 -0.1668  0.0061
 6698SOL    HW131556   3.712   0.595  11.063 -0.5979 -1.7368 -1.3220
 6698SOL    HW231557   3.569   0.569  11.038 -1.6534 -0.0853  3.0336
 6699SOL     OW31558   4.358   0.525  14.154  0.0631 -0.5383  0.0580
 6699SOL    HW131559   4.289   0.459  14.158 -0.1494 -0.0923  3.5658
 6699SOL    HW231560   4.437   0.474  14.174  0.7060 -0.6189 -2.6240
 6700SOL     OW31561   2.415   0.240   5.610  0.0247 -0.2959 -0.2542
 6700SOL    HW131562   2.467   0.262   5.688 -0.6353  0.8628 -0.1435
 6700SOL    HW231563   2.323   0.220   5.627 -1.7996  5.7001 -3.1002
 6701SOL     OW31564   3.796   0.552  15.612 -0.6845  0.5672  0.2965
 6701SOL    HW131565   3.768   0.521  15.698  0.2880 -1.0303  0.0446
 6701SOL    HW231566   3.890   0.545  15.631 -0.3729  1.6574 -0.9145
 6702SOL     OW31567   3.055   3.024   8.706  0.3221  0.1679 -1.1751
 6702SOL    HW131568   2.965   3.054   8.694  0.3766  0.2912 -1.2675
 6702SOL    HW231569   3.056   3.007   8.800 -0.3689  1.5505 -0.9228
 6703SOL     OW31570   2.705   1.946   7.806 -0.1897 -0.4110  0.1251
 6703SOL    HW131571   2.666   1.901   7.881  0.2070  0.3524  0.7749
 6703SOL    HW231572   2.775   1.997   7.845 -0.4671  0.7379 -0.8716
 6704SOL     OW31573   1.474   4.469  10.367 -0.3106 -0.0759 -0.6167
 6704SOL    HW131574   1.516   4.391  10.403 -0.4185 -0.6764 -1.7778
 6704SOL    HW231575   1.398   4.479  10.424  0.2983 -0.1266  0.1898
 6705SOL     OW31576   1.997   0.269   3.621 -0.1670  0.2696  0.0792
 6705SOL    HW131577   1.985   0.361   3.596  1.9118  0.0750 -1.6006
 6705SOL    HW231578   1.932   0.251   3.689 -0.1505  3.8290  1.0525
 6706SOL     OW31579   2.201   2.483   2.000 -0.3789  0.6240 -0.6633
 6706SOL    HW131580   2.257   2.463   1.925 -0.6688  0.0964 -0.7422
 6706SOL    HW231581   2.118   2.483   1.954 -0.3431 -0.7668 -0.7285
 6707SOL     OW31582   2.363   1.846   5.364  0.0577  0.0458  0.0364
 6707SOL    HW131583   2.409   1.769   5.329  1.8890  0.7569  0.8631
 6707SOL    HW231584   2.424   1.874   5.433 -1.2086  1.0706  0.7274
 6708SOL     OW31585   3.783   1.031  11.382  0.1360 -0.1588  0.1245
 6708SOL    HW131586   3.789   1.126  11.372 -1.2602 -0.2594 -1.7869
 6708SOL    HW231587   3.724   1.026  11.457 -1.5115  1.1560 -1.0864
 6709SOL     OW31588   4.648   0.252   8.215 -0.1636 -0.0427 -0.0257
 6709SOL    HW131589   4.582   0.283   8.278 -0.1777 -0.3643  0.1206
 6709SOL    HW231590   4.671   0.167   8.254  2.1698  2.4582  4.0276
 6710SOL     OW31591   0.338   0.108   6.401 -0.4725 -0.6790 -0.1271
 6710SOL    HW131592   0.367   0.168   6.470  1.3447 -0.2490 -1.2647
 6710SOL    HW231593   0.424   0.090   6.364 -0.8238 -0.4358 -1.0536
 6711SOL     OW31594   0.236   2.721  15.416  0.0598  0.2970  0.2030
 6711SOL    HW131595   0.220   2.656  15.348 -0.6823 -0.6601  1.2989
 6711SOL    HW231596   0.199   2.798  15.374 -0.5645  0.5050  1.1190
 6712SOL     OW31597   1.662   3.913   0.730  0.1993  0.1499  0.4477
 6712SOL    HW131598   1.725   3.868   0.786 -0.1958 -0.2944  0.5374
 6712SOL    HW231599   1.586   3.856   0.741  0.8929 -1.1598 -1.6318
 6713SOL     OW31600   4.237   2.730   3.634  0.1303  0.0482  0.0144
 6713SOL    HW131601   4.222   2.714   3.540 -1.7349  0.0858  0.3006
 6713SOL    HW231602   4.145   2.727   3.661  0.6943  0.7166  1.9453
 6714SOL     OW31603   0.456   1.854   5.261 -0.3357 -0.2644 -0.2031
 6714SOL    HW131604   0.437   1.847   5.354 -1.2785  1.6070 -0.2550
 6714SOL    HW231605   0.378   1.903   5.234 -0.6636  0.8133  2.6891
 6715SOL     OW31606   2.049   2.082   0.945  0.6898  0.4639 -0.3126
 6715SOL    HW131607   2.143   2.073   0.935  0.3885  0.9921 -3.7381
 6715SOL    HW231608   2.020   2.033   1.022  1.5772  2.2603  1.1558
 6716SOL     OW31609   0.295   0.757   3.803 -0.2783  0.1662  0.3451
 6716SOL    HW131610   0.246   0.823   3.755  1.4757  0.3544 -1.1715
 6716SOL    HW231611   0.377   0.747   3.754  0.6145  0.8197  1.6908
 6717SOL     OW31612   1.038   3.427   4.767  0.4176  0.3229  0.8437
 6717SOL    HW131613   1.084   3.378   4.700 -1.6443 -0.8052  0.2624
 6717SOL    HW231614   0.999   3.492   4.708  0.1269  0.0995  0.7899
 6718SOL     OW31615   3.156   2.866   8.448 -0.2164 -0.5547  0.2400
 6718SOL    HW131616   3.110   2.899   8.525  0.8046  0.7339  0.3133
 6718SOL    HW231617   3.240   2.849   8.491 -0.3805 -0.2789  0.6679
 6719SOL     OW31618   2.782   0.727   6.869 -0.0335  0.3470 -0.0393
 6719SOL    HW131619   2.780   0.632   6.855 -0.9050  0.5464 -1.2575
 6719SOL    HW231620   2.727   0.725   6.947  1.8311  3.8544  1.3489
 6720SOL     OW31621   0.514   2.108  17.422  0.0129  0.1920  0.1684
 6720SOL    HW131622   0.598   2.113  17.378  1.5206 -1.1911  2.9224
 6720SOL    HW231623   0.454   2.109  17.347  1.6764  3.9524 -1.0968
 6721SOL     OW31624   0.746   2.282   9.430  0.5035 -0.2306 -0.3353
 6721SOL    HW131625   0.696   2.310   9.352  3.0560 -1.9256 -2.5824
 6721SOL    HW231626   0.675   2.251   9.487 -0.1451  0.5799 -0.6958
 6722SOL     OW31627   1.314   0.797  10.964  0.3354  0.4835 -0.2183
 6722SOL    HW131628   1.401   0.756  10.960  0.2500  0.0975  1.7066
 6722SOL    HW231629   1.314   0.862  11.034  0.2538 -1.7164  1.8356
 6723SOL     OW31630   3.475   3.555   8.451  0.4223  0.1871 -0.0372
 6723SOL    HW131631   3.391   3.538   8.409  1.1813 -0.3226 -1.3588
 6723SOL    HW231632   3.492   3.646   8.425  1.1079 -0.1487 -0.7569
 6724SOL     OW31633   1.052   2.610   8.581  0.1395 -0.0176 -0.4012
 6724SOL    HW131634   1.144   2.635   8.577  0.2591 -0.3997  0.1040
 6724SOL    HW231635   1.030   2.590   8.672 -0.9854 -1.5928 -1.0070
 6725SOL     OW31636   0.054   0.178   1.446 -0.1609  0.7891 -0.4529
 6725SOL    HW131637   0.128   0.238   1.450  0.8671 -0.6639  2.4179
 6725SOL    HW231638   0.077   0.112   1.511  1.4084  4.9496  3.1925
 6726SOL     OW31639   4.568   4.338   6.161 -0.0683  0.4720  0.1805
 6726SOL    HW131640   4.618   4.309   6.085 -0.5908 -1.2671  0.4908
 6726SOL    HW231641   4.488   4.379   6.128  0.4676  0.9008 -0.5586
 6727SOL     OW31642   2.247   1.553  13.369 -0.6519 -0.1993  0.3128
 6727SOL    HW131643   2.162   1.544  13.413 -0.6548 -0.9759  0.1522
 6727SOL    HW231644   2.238   1.643  13.337  2.1698  0.6854  2.0314
 6728SOL     OW31645   1.261   3.430   4.101 -1.1684  0.3635 -0.6504
 6728SOL    HW131646   1.320   3.506   4.094 -1.9712  1.0746  0.2587
 6728SOL    HW231647   1.297   3.374   4.033 -2.3097 -0.1899 -0.8011
 6729SOL     OW31648   1.327   0.056   5.611 -0.3270  0.2466 -0.3913
 6729SOL    HW131649   1.404   0.111   5.627 -1.2475  0.8687  1.9143
 6729SOL    HW231650   1.270   0.086   5.682  0.6389  0.7393  0.1772
 6730SOL     OW31651   2.282   0.445  14.185 -0.2446 -0.1003  0.5666
 6730SOL    HW131652   2.304   0.523  14.237 -1.4874  1.7919 -1.7793
 6730SOL    HW231653   2.247   0.389  14.254 -0.0944 -1.3912 -0.4043
 6731SOL     OW31654   4.359   2.279   1.783 -0.3727  0.0014  0.6397
 6731SOL    HW131655   4.444   2.237   1.800 -0.3795  0.0510  0.7904
 6731SOL    HW231656   4.331   2.235   1.702 -0.0713  2.3934 -0.7737
 6732SOL     OW31657   2.207   1.607  16.082  0.2907  0.6720 -0.2283
 6732SOL    HW131658   2.261   1.598  16.160  0.9955 -0.6992 -0.8632
 6732SOL    HW231659   2.116   1.618  16.109 -0.5691 -0.3245 -2.7474
 6733SOL     OW31660   3.056   3.938   6.250  0.3258  0.5908  0.1407
 6733SOL    HW131661   3.029   4.030   6.244  0.4649  0.6934  1.1618
 6733SOL    HW231662   3.113   3.926   6.174  0.7164 -1.0931  0.6927
 6734SOL     OW31663   4.314   2.643   4.829  0.8035 -0.0976 -0.7333
 6734SOL    HW131664   4.324   2.638   4.925 -3.1251  1.3891 -0.2653
 6734SOL    HW231665   4.277   2.731   4.820  0.5855 -0.1897 -0.7171
 6735SOL     OW31666   3.021   0.301   8.826  0.2286  0.5035 -0.7409
 6735SOL    HW131667   2.936   0.285   8.867  0.0671 -0.5271 -1.4918
 6735SOL    HW231668   3.055   0.372   8.880  2.2545 -1.1300  0.1744
 6736SOL     OW31669   3.693   2.458  13.287  0.1505  0.5644  0.0695
 6736SOL    HW131670   3.611   2.417  13.316 -0.6834  3.0508  1.2213
 6736SOL    HW231671   3.661   2.502  13.209 -0.2852  0.5211  0.2252
 6737SOL     OW31672   2.357   0.942   2.013  0.3740  0.1130 -0.1309
 6737SOL    HW131673   2.324   0.979   1.931  1.8748 -0.2798 -0.9098
 6737SOL    HW231674   2.316   1.002   2.076  0.6459  0.1346  0.0231
 6738SOL     OW31675   1.275   4.121   8.771 -0.2422  0.2933  0.8803
 6738SOL    HW131676   1.190   4.155   8.744  0.9457  0.4481 -2.6405
 6738SOL    HW231677   1.246   4.058   8.838  0.8200 -1.6833 -0.5316
 6739SOL     OW31678   1.341   0.832   6.691 -0.0779  0.5047 -0.2984
 6739SOL    HW131679   1.399   0.791   6.626  1.0101 -3.1625  2.9465
 6739SOL    HW231680   1.344   0.916   6.646 -1.0080  1.3527  1.2204
 6740SOL     OW31681   0.723   3.955   3.146  0.2473  0.0240  0.4299
 6740SOL    HW131682   0.808   3.980   3.182  0.1972 -0.3024  0.7705
 6740SOL    HW231683   0.753   3.975   3.057  3.2388 -0.2657  1.3743
 6741SOL     OW31684   1.316   1.304   5.606 -0.4155 -0.0266 -0.3429
 6741SOL    HW131685   1.230   1.274   5.633  0.6501 -0.9348  2.0344
 6741SOL    HW231686   1.288   1.334   5.519 -1.9228 -0.6777 -0.0660
 6742SOL     OW31687   3.129   3.405  14.899  0.7943  0.5597  0.0865
 6742SOL    HW131688   3.073   3.370  14.968  1.2086 -0.0113  0.1329
 6742SOL    HW231689   3.090   3.348  14.832 -1.1407 -0.4727  2.1016
 6743SOL     OW31690   2.105   4.296   1.495  0.1347  0.3102  0.1109
 6743SOL    HW131691   2.138   4.384   1.472 -0.2458  0.4158 -0.0348
 6743SOL    HW231692   2.092   4.311   1.588 -0.7439 -0.2968  0.0759
 6744SOL     OW31693   2.322   2.558   7.701  0.2298  0.3287 -0.6486
 6744SOL    HW131694   2.284   2.591   7.620  0.9381  2.9066  0.0561
 6744SOL    HW231695   2.312   2.620   7.772 -0.4710 -1.0013  0.4026
 6745SOL     OW31696   3.651   3.893   2.679 -0.3362  0.5574 -0.2032
 6745SOL    HW131697   3.562   3.882   2.644 -0.7776 -0.1622  1.1586
 6745SOL    HW231698   3.668   3.817   2.734  1.4862  0.3621 -1.0342
 6746SOL     OW31699   3.418   1.129  11.825  0.6138  0.5736 -0.2306
 6746SOL    HW131700   3.368   1.181  11.762 -0.1709  1.7731  1.3555
 6746SOL    HW231701   3.369   1.047  11.823  0.4506  0.7054 -1.3689
 6747SOL     OW31702   4.148   3.980   3.579  0.1962  0.4487  0.2353
 6747SOL    HW131703   4.104   3.919   3.522 -0.3413 -0.5093  1.6691
 6747SOL    HW231704   4.237   3.956   3.552  0.1925 -1.3793  1.8629
 6748SOL     OW31705   4.493   2.129   6.026 -0.1598  0.1808 -0.3399
 6748SOL    HW131706   4.438   2.148   6.102  0.3292 -2.2694  0.6261
 6748SOL    HW231707   4.522   2.217   6.002  0.3563 -0.2141 -1.1354
 6749SOL     OW31708   1.015   0.176  11.676 -0.2642 -0.2649 -0.1500
 6749SOL    HW131709   0.961   0.161  11.599 -0.0389  0.9556 -0.5379
 6749SOL    HW231710   1.048   0.263  11.653  0.1541 -0.3745  0.0314
 6750SOL     OW31711   1.929   2.135   7.478 -0.4517  0.3375 -0.0768
 6750SOL    HW131712   1.976   2.178   7.407 -0.8494  2.8469  1.1662
 6750SOL    HW231713   1.960   2.046   7.459  0.2209  0.3203  1.0919
 6751SOL     OW31714   3.462   1.830   6.900 -0.3999  0.1032 -0.3018
 6751SOL    HW131715   3.385   1.827   6.956 -0.1125  1.6504  0.1764
 6751SOL    HW231716   3.440   1.912   6.856 -1.7750 -0.4290 -0.6024
 6752SOL     OW31717   1.034   1.854   1.929 -0.0066  0.2914 -0.6280
 6752SOL    HW131718   0.943   1.824   1.934 -0.5509  2.0831  0.1943
 6752SOL    HW231719   1.031   1.906   1.849 -2.6562 -0.6489 -1.1390
 6753SOL     OW31720   4.015   1.303  12.700  0.0118 -0.3713 -0.6140
 6753SOL    HW131721   4.085   1.352  12.657  0.3791 -1.0335 -0.7668
 6753SOL    HW231722   4.022   1.220  12.653 -0.5153  0.4637 -2.1776
 6754SOL     OW31723   1.404   0.261   3.597 -0.2967 -0.0108 -0.0934
 6754SOL    HW131724   1.461   0.240   3.523  0.3847  0.1794  0.3698
 6754SOL    HW231725   1.342   0.190   3.583 -0.8315  0.5013 -0.3295
 6755SOL     OW31726   0.074   0.682   9.781  0.3216 -0.5722 -0.1211
 6755SOL    HW131727   0.156   0.636   9.797  0.1109 -0.3529  1.5096
 6755SOL    HW231728   0.107   0.769   9.761 -0.3994 -0.3502 -0.3643
 6756SOL     OW31729   0.020   2.884   9.441 -0.1120 -0.1861  0.5793
 6756SOL    HW131730   4.661   2.915   9.476  0.4613  0.8373  1.0310
 6756SOL    HW231731   4.713   2.824   9.373  1.5835 -1.4368  0.8708
 6757SOL     OW31732   1.780   2.877   4.910  0.2343 -0.3418 -0.7360
 6757SOL    HW131733   1.764   2.847   5.000 -0.8477 -2.4301 -1.6436
 6757SOL    HW231734   1.870   2.909   4.917 -0.5656  1.0031  3.9636
 6758SOL     OW31735   0.420   4.176   5.199  0.1772 -0.4854 -0.4890
 6758SOL    HW131736   0.498   4.135   5.236 -0.2327 -1.4053 -0.6638
 6758SOL    HW231737   0.414   4.256   5.251 -0.2771 -0.3496 -0.7515
 6759SOL     OW31738   0.425   0.278  11.534  0.2258  0.1640 -0.3963
 6759SOL    HW131739   0.357   0.211  11.540  1.3872 -1.1825 -2.0835
 6759SOL    HW231740   0.479   0.253  11.458 -0.6495  3.3139 -2.0474
 6760SOL     OW31741   4.101   2.468   3.219 -0.0239  0.5167  0.3163
 6760SOL    HW131742   4.092   2.559   3.246  1.2549  0.6407  0.2817
 6760SOL    HW231743   4.194   2.450   3.226 -0.1973 -0.2215  0.7561
 6761SOL     OW31744   2.333   4.118  15.348  0.4994 -0.0487 -0.0974
 6761SOL    HW131745   2.283   4.096  15.426  0.9235  1.8482  0.7175
 6761SOL    HW231746   2.263   4.163  15.300 -0.0487  0.0225  0.7784
 6762SOL     OW31747   4.436   3.951  16.980  0.1966 -0.4245  0.3789
 6762SOL    HW131748   4.505   3.886  16.986 -0.2660 -1.1339 -2.2549
 6762SOL    HW231749   4.475   4.029  16.941 -2.6811  2.3005  2.9036
 6763SOL     OW31750   4.207   2.808  12.090 -0.0785  0.0678 -0.1529
 6763SOL    HW131751   4.186   2.760  12.010 -0.2981  1.3170 -0.8337
 6763SOL    HW231752   4.117   2.827  12.114 -0.6539 -2.2212 -0.5080
 6764SOL     OW31753   0.957   0.903   9.017 -0.2871  0.0277  0.3653
 6764SOL    HW131754   1.041   0.882   9.059 -0.1845 -2.2307 -0.9995
 6764SOL    HW231755   0.906   0.898   9.098 -0.6610  0.9767  0.1892
 6765SOL     OW31756   2.495   0.775   8.683 -0.6674 -0.2247 -0.2191
 6765SOL    HW131757   2.585   0.758   8.710 -0.5010  0.5539 -0.2843
 6765SOL    HW231758   2.490   0.866   8.713 -1.7616 -0.3846  0.0875
 6766SOL     OW31759   0.036   1.077   7.926  0.2045 -0.6362  0.0711
 6766SOL    HW131760   0.030   1.017   8.001 -1.4290  0.6903  0.9833
 6766SOL    HW231761   0.052   1.158   7.974 -1.6574 -0.5855  0.5760
 6767SOL     OW31762   2.119   1.658  10.201  0.5582 -0.6365 -0.5075
 6767SOL    HW131763   2.184   1.715  10.161 -0.4109  1.6266  1.1716
 6767SOL    HW231764   2.182   1.620  10.262 -0.6910 -1.0538  0.5066
 6768SOL     OW31765   3.729   2.576  12.910 -0.1921  0.2322  0.0694
 6768SOL    HW131766   3.778   2.500  12.941  1.6815  2.3379  2.2490
 6768SOL    HW231767   3.685   2.600  12.992 -0.6650  1.4976 -0.5510
 6769SOL     OW31768   4.447   3.519   3.566 -0.0217  0.3201 -0.1791
 6769SOL    HW131769   4.507   3.590   3.588  0.8978 -1.0859  1.8547
 6769SOL    HW231770   4.415   3.562   3.487 -1.5480 -2.5020 -1.1092
 6770SOL     OW31771   2.743   1.160   6.823 -0.4889  0.3522 -0.1919
 6770SOL    HW131772   2.651   1.172   6.846 -0.5195  0.1767 -0.2236
 6770SOL    HW231773   2.781   1.144   6.909 -0.7070 -0.3346 -0.2274
 6771SOL     OW31774   3.752   0.935   5.675  0.0001 -0.3474 -0.1995
 6771SOL    HW131775   3.752   0.894   5.761  2.6790  0.3676  0.1272
 6771SOL    HW231776   3.731   1.024   5.704  3.0452 -0.0932  1.1613
 6772SOL     OW31777   4.673   4.210  14.097 -0.6882  0.1366 -0.1062
 6772SOL    HW131778   4.668   4.294  14.051 -1.4136  0.6375  0.8852
 6772SOL    HW231779   4.618   4.234  14.172 -3.7478 -0.2729 -2.2068
 6773SOL     OW31780   1.427   2.123   3.384  0.0130 -0.1115 -0.4006
 6773SOL    HW131781   1.453   2.032   3.398  1.2937  0.2467 -0.5204
 6773SOL    HW231782   1.446   2.139   3.291  1.5887  2.0545  0.3096
 6774SOL     OW31783   1.250   4.344   1.654 -0.4124  0.4889  0.2374
 6774SOL    HW131784   1.192   4.404   1.607 -1.1993 -0.6694 -0.2799
 6774SOL    HW231785   1.329   4.396   1.658  0.8058 -1.2717 -0.8536
 6775SOL     OW31786   0.906   3.859   5.482 -0.1974  0.5258  0.3384
 6775SOL    HW131787   0.902   3.954   5.495  0.2035  0.6353 -0.2995
 6775SOL    HW231788   0.972   3.846   5.550 -0.7982  0.8429  0.9810
 6776SOL     OW31789   1.129   1.849  14.278 -0.2706 -0.1329  0.0552
 6776SOL    HW131790   1.105   1.781  14.217  0.0110  0.4200 -0.6718
 6776SOL    HW231791   1.200   1.896  14.234 -2.0057  0.1017 -2.4705
 6777SOL     OW31792   0.758   1.473   7.810 -0.5856 -0.1729 -0.0888
 6777SOL    HW131793   0.795   1.392   7.847  1.4709 -0.2197 -2.2260
 6777SOL    HW231794   0.664   1.458   7.808 -0.8918  1.7344  0.8954
 6778SOL     OW31795   1.306   4.469   2.888 -0.2126 -0.2662  0.0224
 6778SOL    HW131796   1.246   4.535   2.922  1.7453  0.6505  1.6722
 6778SOL    HW231797   1.247   4.396   2.866 -0.1146 -0.3503  0.0386
 6779SOL     OW31798   1.999   4.395   4.675 -0.3259 -0.3359  0.3734
 6779SOL    HW131799   1.941   4.387   4.750 -1.7991 -0.5492 -0.7925
 6779SOL    HW231800   2.063   4.324   4.679 -0.8768 -0.7551  1.7019
 6780SOL     OW31801   1.963   0.539  13.614 -0.0129 -0.6358 -0.1044
 6780SOL    HW131802   2.029   0.527  13.682 -1.5878  0.2920  1.5893
 6780SOL    HW231803   1.882   0.510  13.657 -0.1113 -0.8309 -0.4246
 6781SOL     OW31804   0.091   2.988   8.951  0.0235 -0.8725  0.3775
 6781SOL    HW131805   0.155   3.024   9.012 -0.1391 -1.0049  0.6241
 6781SOL    HW231806   0.072   2.901   8.986 -0.0931 -0.8203  0.4398
 6782SOL     OW31807   0.059   0.190   9.238  0.8007 -0.3240 -0.1474
 6782SOL    HW131808   0.019   0.268   9.277 -1.7264 -0.8439 -1.7069
 6782SOL    HW231809   0.077   0.142   9.319 -0.9743  2.1566  1.7377
 6783SOL     OW31810   0.057   0.960   2.609  0.0658 -0.0305  0.4823
 6783SOL    HW131811   4.695   0.999   2.621 -0.1916 -0.4672  0.0214
 6783SOL    HW231812   0.110   1.040   2.609  0.8046 -0.5054  2.8468
 6784SOL     OW31813   0.003   3.453  10.422 -0.4755 -0.0604  0.2009
 6784SOL    HW131814   0.038   3.399  10.493 -1.8188 -1.1930  0.0248
 6784SOL    HW231815   0.036   3.417  10.339  1.0553 -0.3455  0.9469
 6785SOL     OW31816   0.738   0.221   0.686 -0.4047  0.3122 -0.3909
 6785SOL    HW131817   0.766   0.130   0.682  2.2003  1.1413 -1.4080
 6785SOL    HW231818   0.772   0.254   0.769  1.9816 -2.7770 -0.1273
 6786SOL     OW31819   3.790   3.772   6.586  0.5118 -0.2341  0.1525
 6786SOL    HW131820   3.855   3.747   6.652  1.3152 -0.2466 -0.6444
 6786SOL    HW231821   3.758   3.686   6.560  2.4478 -1.4508  1.8244
 6787SOL     OW31822   0.321   0.515  17.475 -0.0983 -0.2535 -0.0232
 6787SOL    HW131823   0.362   0.600  17.487  0.6089 -0.1362 -3.3605
 6787SOL    HW231824   0.231   0.540  17.496 -0.5056 -0.5583 -1.4091
 6788SOL     OW31825   0.384   0.036  17.329  0.7797  0.9500 -0.4333
 6788SOL    HW131826   0.373   0.130  17.312  1.3276  0.8428 -1.3604
 6788SOL    HW231827   0.361   0.042  17.422 -0.1659 -1.4355 -0.5068
 6789SOL     OW31828   4.598   4.159   5.002 -0.2649  0.3286  0.1329
 6789SOL    HW131829   4.677   4.151   4.949  0.3286  1.4101  0.8443
 6789SOL    HW231830   4.570   4.068   5.010 -0.4918  0.3828 -0.0601
 6790SOL     OW31831   3.950   0.886  11.838  0.1036 -1.0366  0.2237
 6790SOL    HW131832   3.876   0.896  11.898  0.4260 -0.0198  0.4445
 6790SOL    HW231833   3.918   0.828  11.769 -0.2198  1.0329 -1.3824
 6791SOL     OW31834   2.920   4.463   2.908  0.7255 -0.3937 -0.6003
 6791SOL    HW131835   2.987   4.435   2.970 -0.3675 -1.5722  0.0441
 6791SOL    HW231836   2.878   4.532   2.960 -0.0544 -2.0556  0.9693
 6792SOL     OW31837   3.292   1.555  10.039 -0.0753 -0.1749  0.3620
 6792SOL    HW131838   3.370   1.545  10.093 -1.6079 -1.0223  2.4209
 6792SOL    HW231839   3.278   1.650  10.037  0.0840 -0.0819  3.2681
 6793SOL     OW31840   1.283   0.923   5.049 -0.2198  0.1114 -0.3239
 6793SOL    HW131841   1.332   0.841   5.055  1.0236  0.9146  0.4488
 6793SOL    HW231842   1.193   0.890   5.054 -0.5925  0.8813 -1.9783
 6794SOL     OW31843   4.118   1.863   4.138  0.1790 -0.4816 -0.0074
 6794SOL    HW131844   4.116   1.808   4.060  0.0508 -1.2287  0.5207
 6794SOL    HW231845   4.026   1.858   4.164  0.4718  0.3662  1.1934
 6795SOL     OW31846   2.089   1.940   6.019  0.5806 -0.0466 -0.5068
 6795SOL    HW131847   2.104   2.027   5.982 -0.4653  0.2524 -0.2283
 6795SOL    HW231848   1.994   1.938   6.026  0.7013  0.7959  1.3863
 6796SOL     OW31849   4.267   0.180  13.268 -0.0970 -0.2267  0.1809
 6796SOL    HW131850   4.303   0.267  13.250  0.7733 -0.4714  0.7501
 6796SOL    HW231851   4.265   0.150  13.177  1.0315  1.0111 -0.2489
 6797SOL     OW31852   1.490   2.709   8.102 -0.0064  0.0905 -0.2676
 6797SOL    HW131853   1.582   2.680   8.103 -0.5708 -1.6400  1.9085
 6797SOL    HW231854   1.499   2.754   8.018 -1.7470  1.9528  0.5581
 6798SOL     OW31855   0.298   4.103   0.215  0.0361  0.4456  0.1164
 6798SOL    HW131856   0.260   4.017   0.231  0.6138  0.2637  0.5091
 6798SOL    HW231857   0.223   4.159   0.194  0.6808  1.4400  0.4361
 6799SOL     OW31858   2.090   3.168   8.297 -0.3469 -0.3050  0.4183
 6799SOL    HW131859   2.086   3.181   8.392 -1.3533 -0.7813  0.4387
 6799SOL    HW231860   2.052   3.253   8.275 -2.5411 -1.5597 -0.5695
 6800SOL     OW31861   0.040   2.886   3.056  0.1280  0.0590  0.3216
 6800SOL    HW131862   4.725   2.951   2.999  0.4399  1.2320  1.4284
 6800SOL    HW231863   0.122   2.882   3.008 -0.0047  0.9539  0.0258
 6801SOL     OW31864   3.753   1.217  13.510  0.6320 -0.1231 -0.3249
 6801SOL    HW131865   3.739   1.311  13.523  0.2131 -0.1642 -0.4693
 6801SOL    HW231866   3.814   1.200  13.583  0.8652 -1.3195 -0.8026
 6802SOL     OW31867   2.901   3.942  13.825  0.0851 -0.3230 -0.1413
 6802SOL    HW131868   2.819   3.947  13.776 -0.4936 -0.3922  0.8244
 6802SOL    HW231869   2.886   4.002  13.898 -1.6357 -0.3359 -0.4838
 6803SOL     OW31870   2.125   4.308  13.145  0.5255 -0.1637  0.1855
 6803SOL    HW131871   2.165   4.264  13.070 -0.4895  0.4812 -0.7227
 6803SOL    HW231872   2.142   4.242  13.213  0.2261 -1.3901 -0.9380
 6804SOL     OW31873   3.849   3.732   7.159 -0.1490 -0.2739 -0.6950
 6804SOL    HW131874   3.848   3.815   7.205  0.9211  0.0509 -1.2397
 6804SOL    HW231875   3.831   3.665   7.224 -1.3729 -0.0822 -0.8461
 6805SOL     OW31876   2.109   1.566   0.221 -0.2610  0.3144 -0.0236
 6805SOL    HW131877   2.203   1.569   0.204 -0.2815 -2.2904 -0.5970
 6805SOL    HW231878   2.107   1.471   0.224 -0.6887  0.2482 -3.1213
 6806SOL     OW31879   4.659   4.626   4.366 -0.1666  0.1047  0.4367
 6806SOL    HW131880   4.599   4.698   4.388 -0.5320 -0.3304  0.8601
 6806SOL    HW231881   0.001   4.668   4.313  0.5722 -3.0950 -1.1190
 6807SOL     OW31882   2.069   3.655   2.429 -0.3718  0.2836 -0.4871
 6807SOL    HW131883   2.094   3.562   2.433 -2.8913 -0.2244  3.4104
 6807SOL    HW231884   2.155   3.695   2.443  0.8487 -1.6289 -2.4289
 6808SOL     OW31885   3.943   2.222  16.459 -0.0835 -0.5421 -0.1546
 6808SOL    HW131886   3.886   2.257  16.528 -0.4461 -2.2535  0.4011
 6808SOL    HW231887   3.904   2.135  16.447  0.7989 -1.0528  0.7466
 6809SOL     OW31888   2.834   2.654  11.034 -0.0049  0.8640 -0.4267
 6809SOL    HW131889   2.864   2.696  11.115 -0.3940 -3.1451  1.7816
 6809SOL    HW231890   2.772   2.722  11.006  0.3169  1.4240  0.2061
 6810SOL     OW31891   4.492   4.553   3.485 -0.1824 -0.4477 -0.1528
 6810SOL    HW131892   4.497   4.617   3.414 -0.9962 -1.0283 -0.7287
 6810SOL    HW231893   4.399   4.529   3.479 -0.1196 -0.5990 -0.4601
 6811SOL     OW31894   0.394   1.376  16.225  0.2816  0.5502  0.1706
 6811SOL    HW131895   0.483   1.398  16.198  1.0117 -2.2412  0.2878
 6811SOL    HW231896   0.364   1.467  16.232  0.1040  0.5089 -0.0438
 6812SOL     OW31897   2.631   3.778   8.231  0.2053  0.4789 -0.6267
 6812SOL    HW131898   2.658   3.757   8.142 -0.0122 -0.1536 -0.5402
 6812SOL    HW231899   2.703   3.836   8.259  0.6330  0.0133 -0.7657
 6813SOL     OW31900   1.730   3.789   6.231  0.0290 -0.4487 -0.8516
 6813SOL    HW131901   1.803   3.848   6.248  0.6731 -0.9140 -2.0352
 6813SOL    HW231902   1.769   3.748   6.154  2.0679  1.5444 -0.8691
 6814SOL     OW31903   2.543   2.473  13.838 -0.3254  0.3394 -0.2275
 6814SOL    HW131904   2.582   2.440  13.920 -0.6763 -1.7703 -0.8979
 6814SOL    HW231905   2.487   2.540  13.877 -0.9630 -0.4633  0.2546
 6815SOL     OW31906   3.923   0.791   1.928 -0.8033 -0.0219 -0.9995
 6815SOL    HW131907   3.861   0.747   1.986  0.9156 -2.3702 -0.9264
 6815SOL    HW231908   4.002   0.747   1.961  0.5415  1.4638 -2.2661
 6816SOL     OW31909   3.031   2.405  11.285 -0.3616  0.4307 -0.7272
 6816SOL    HW131910   2.940   2.376  11.279 -0.2570 -0.0504  0.1554
 6816SOL    HW231911   3.076   2.358  11.355 -0.3124  1.4318 -0.0781
 6817SOL     OW31912   0.919   2.863   2.651 -0.0325 -0.4304 -0.3079
 6817SOL    HW131913   0.942   2.956   2.650 -0.0229 -0.4372 -1.8945
 6817SOL    HW231914   1.006   2.827   2.670 -0.1700  0.2598  1.5826
 6818SOL     OW31915   2.714   2.068   0.884 -0.1447  0.4162 -0.4970
 6818SOL    HW131916   2.706   2.163   0.879 -1.4671  0.2768 -1.0762
 6818SOL    HW231917   2.807   2.073   0.860  0.3486 -0.6329  1.1976
 6819SOL     OW31918   4.317   1.616  13.055  0.6083 -0.1346 -0.4381
 6819SOL    HW131919   4.378   1.629  12.982  1.8318 -0.4036  0.5378
 6819SOL    HW231920   4.280   1.528  13.042 -0.0145  0.1709 -0.7220
 6820SOL     OW31921   3.088   1.580  10.343  0.4574  0.5143  0.3930
 6820SOL    HW131922   3.067   1.573  10.250 -0.4462  1.2805  0.5383
 6820SOL    HW231923   3.159   1.515  10.349  0.5684  0.5032 -1.1164
 6821SOL     OW31924   3.125   1.592   0.775 -0.3819 -0.0233 -0.3762
 6821SOL    HW131925   3.118   1.611   0.868 -1.7229 -1.4345 -0.1884
 6821SOL    HW231926   3.088   1.672   0.737  1.2748  0.8660 -0.1095
 6822SOL     OW31927   1.235   0.013   8.310 -0.1933 -0.0651  0.7574
 6822SOL    HW131928   1.193   0.092   8.276  1.1769  0.8505  1.2098
 6822SOL    HW231929   1.282   0.049   8.385  1.7864 -1.3867  0.1507
 6823SOL     OW31930   3.416   0.268  12.916  0.2093 -0.1093 -0.2172
 6823SOL    HW131931   3.419   0.248  13.010  0.1579  0.7933 -0.0250
 6823SOL    HW231932   3.501   0.230  12.894  0.6398 -0.5960  2.1868
 6824SOL     OW31933   2.616   1.950   2.360  0.4642 -0.0300  0.4005
 6824SOL    HW131934   2.664   1.867   2.369 -3.0700 -2.1061  0.1368
 6824SOL    HW231935   2.562   1.936   2.283  1.7207 -0.0363 -0.4866
 6825SOL     OW31936   2.963   3.461  11.026  0.2346 -0.2491  0.4102
 6825SOL    HW131937   2.895   3.525  11.007  0.3546  0.1417  1.2875
 6825SOL    HW231938   3.030   3.482  10.960  0.0344 -1.0789 -0.0632
 6826SOL     OW31939   3.002   0.487  11.097  0.6623  0.8340  0.1958
 6826SOL    HW131940   2.967   0.449  11.177  0.3614  1.2822  0.2769
 6826SOL    HW231941   3.089   0.512  11.128  1.2099  2.0303 -2.2335
 6827SOL     OW31942   2.325   3.228   2.893 -0.2244 -0.7078 -0.1961
 6827SOL    HW131943   2.338   3.165   2.965  1.5661 -0.0582  0.0379
 6827SOL    HW231944   2.344   3.173   2.818 -0.2679 -0.4125 -0.4211
 6828SOL     OW31945   3.967   0.129   6.997  0.0175  0.6866  0.2709
 6828SOL    HW131946   3.898   0.074   6.959  0.9622 -0.8923  0.8653
 6828SOL    HW231947   3.949   0.104   7.087  1.4218  2.2861  0.9893
 6829SOL     OW31948   2.691   2.949   6.582  0.0827  0.1591 -0.0182
 6829SOL    HW131949   2.679   3.040   6.609 -0.1870 -0.4037  1.7926
 6829SOL    HW231950   2.622   2.904   6.631  0.6504 -0.4027  0.2592
 6830SOL     OW31951   4.314   2.329   4.419  0.3703  0.2327 -0.1729
 6830SOL    HW131952   4.385   2.394   4.415 -0.5160  1.2601  0.8028
 6830SOL    HW231953   4.278   2.349   4.506 -0.3229  1.8484 -0.8334
 6831SOL     OW31954   3.017   4.627   6.215 -0.1481  0.6735  0.1157
 6831SOL    HW131955   2.969   4.635   6.133 -1.2842 -2.7074  0.4266
 6831SOL    HW231956   3.007   4.534   6.238 -1.8984  0.2962 -2.1834
 6832SOL     OW31957   0.418   0.472   6.696  0.5969 -0.1476 -0.1511
 6832SOL    HW131958   0.489   0.531   6.721 -0.0883  0.4276  0.4875
 6832SOL    HW231959   0.353   0.542   6.702  1.4161  0.6253 -0.2936
 6833SOL     OW31960   0.857   2.799   9.203  0.7789  0.3595  0.4812
 6833SOL    HW131961   0.812   2.884   9.209 -1.7007 -0.8662 -1.2013
 6833SOL    HW231962   0.944   2.836   9.185  0.0240  1.4870 -0.8723
 6834SOL     OW31963   0.150   3.784   9.132  0.4637 -0.5747  0.0818
 6834SOL    HW131964   0.073   3.816   9.180  1.8515 -0.4251  2.2262
 6834SOL    HW231965   0.175   3.717   9.196 -1.3085 -1.3509 -0.0329
 6835SOL     OW31966   1.673   3.726  13.431  0.1715 -0.2553 -0.3268
 6835SOL    HW131967   1.698   3.747  13.341 -0.6236  1.5279 -0.1242
 6835SOL    HW231968   1.616   3.652  13.411 -0.4459 -0.4124  1.9902
 6836SOL     OW31969   3.189   2.180   1.984  1.0453  0.1639 -0.5180
 6836SOL    HW131970   3.237   2.124   2.046  0.9178 -2.0672 -2.4529
 6836SOL    HW231971   3.261   2.243   1.972 -0.4443  1.6684 -1.5638
 6837SOL     OW31972   1.922   0.776   2.002  0.0501  0.1120 -0.1645
 6837SOL    HW131973   1.953   0.818   1.922 -0.2149 -0.4263 -0.5556
 6837SOL    HW231974   2.001   0.762   2.054 -0.4999 -1.6037  0.2099
 6838SOL     OW31975   1.589   4.295   9.016  0.2909  0.1884  0.3118
 6838SOL    HW131976   1.533   4.369   8.993 -0.7556 -0.7448 -0.1572
 6838SOL    HW231977   1.553   4.223   8.964 -1.1576  1.6663 -0.7332
 6839SOL     OW31978   4.453   1.476   2.889  0.0611  0.0060  0.1701
 6839SOL    HW131979   4.404   1.529   2.951  1.5491  0.4278  0.9879
 6839SOL    HW231980   4.387   1.475   2.819 -3.2956  1.0652  3.3359
 6840SOL     OW31981   0.999   0.542   7.400  0.2615 -0.3300 -0.1576
 6840SOL    HW131982   0.908   0.535   7.428  0.1029  3.4740  0.3515
 6840SOL    HW231983   1.026   0.459   7.362  0.1995 -1.5706  2.4703
 6841SOL     OW31984   0.078   0.984   5.314 -0.0181  0.0025  0.3215
 6841SOL    HW131985   0.008   0.972   5.379 -0.8794 -0.5642 -0.7157
 6841SOL    HW231986   0.022   0.971   5.238  0.9775 -3.5683  0.1943
 6842SOL     OW31987   3.020   0.950   6.892  0.2393 -0.0432 -0.1186
 6842SOL    HW131988   2.964   0.962   6.969  1.6325  0.6406  0.7964
 6842SOL    HW231989   3.031   0.856   6.886 -2.5394 -0.2167 -2.3892
 6843SOL     OW31990   0.932   0.382   3.383 -0.3926  0.7152  0.1172
 6843SOL    HW131991   0.970   0.470   3.388 -1.0412  1.1091 -2.0639
 6843SOL    HW231992   0.977   0.330   3.449  0.9880 -0.0395 -1.4114
 6844SOL     OW31993   4.602   0.004  14.989  0.3896 -0.4312  0.0745
 6844SOL    HW131994   4.544   0.068  15.030  0.3951 -0.1240 -0.3944
 6844SOL    HW231995   4.561   4.716  14.904  0.5812 -1.6711  0.1667
 6845SOL     OW31996   0.742   3.174   3.571  0.0277 -0.0226  0.4513
 6845SOL    HW131997   0.803   3.187   3.499 -0.1309  1.8185  0.6683
 6845SOL    HW231998   0.701   3.260   3.570  0.3450  0.0769 -1.9125
 6846SOL     OW31999   1.486   3.403   8.764  0.4110  0.4439 -0.2670
 6846SOL    HW132000   1.478   3.321   8.715 -1.2361  0.2350  0.3405
 6846SOL    HW232001   1.570   3.429   8.726  1.5913 -2.0615  0.6440
 6847SOL     OW32002   0.255   4.361   8.891 -0.3990  0.2227 -0.7555
 6847SOL    HW132003   0.314   4.320   8.955 -0.2303 -1.3349 -1.9050
 6847SOL    HW232004   0.225   4.438   8.939  0.9806  1.5816 -2.0770
 6848SOL     OW32005   1.749   1.248   1.992 -0.3939  0.1439 -0.3683
 6848SOL    HW132006   1.772   1.187   2.062  0.8219 -1.0553 -1.7959
 6848SOL    HW232007   1.665   1.278   2.026 -0.2367  0.2336 -0.0577
 6849SOL     OW32008   3.273   3.239  11.864  0.1573 -0.4976  0.5574
 6849SOL    HW132009   3.210   3.291  11.815 -0.8847 -1.1798  1.1763
 6849SOL    HW232010   3.344   3.264  11.805 -0.5750 -2.3773 -1.1382
 6850SOL     OW32011   1.430   3.612  17.372  0.4833 -0.0509 -0.5085
 6850SOL    HW132012   1.338   3.640  17.375  0.9058  1.3509 -0.6051
 6850SOL    HW232013   1.471   3.695  17.350  0.7488 -0.4980 -1.6841
 6851SOL     OW32014   0.049   0.976  11.212 -0.1262  0.3686  0.1122
 6851SOL    HW132015   0.032   1.010  11.124 -0.6176 -0.4840 -0.1249
 6851SOL    HW232016   4.705   1.023  11.260 -0.8284  1.7305 -2.2153
 6852SOL     OW32017   3.605   0.831   3.325  1.0725  0.4903 -0.0662
 6852SOL    HW132018   3.591   0.825   3.420 -0.0142 -1.4348 -0.3389
 6852SOL    HW232019   3.699   0.849   3.324  0.9869  0.9828  0.9483
 6853SOL     OW32020   2.139   2.867   8.472 -0.0308 -0.0722  0.0499
 6853SOL    HW132021   2.165   2.820   8.393  0.2195  1.6257 -0.8868
 6853SOL    HW232022   2.218   2.916   8.493  0.6201 -0.0132 -2.5260
 6854SOL     OW32023   1.829   3.253   5.197  0.2097 -0.3285 -0.1000
 6854SOL    HW132024   1.743   3.217   5.175  0.5660 -0.3181 -1.4510
 6854SOL    HW232025   1.867   3.188   5.256  1.6399  1.2711  0.7278
 6855SOL     OW32026   3.815   3.783   5.406  0.1799 -0.1096 -0.1108
 6855SOL    HW132027   3.867   3.756   5.482  1.2534 -1.4371 -1.3245
 6855SOL    HW232028   3.881   3.821   5.349  0.2229 -0.6612 -0.4316
 6856SOL     OW32029   4.107   2.794   6.719 -0.8132  0.1203  0.7466
 6856SOL    HW132030   4.146   2.794   6.807  1.6709 -0.1858 -0.3738
 6856SOL    HW232031   4.177   2.751   6.671 -0.4920  1.6338 -0.1240
 6857SOL     OW32032   1.726   0.802   9.148  0.0442 -0.0940 -0.5797
 6857SOL    HW132033   1.805   0.759   9.116  0.2581  0.3630 -0.6706
 6857SOL    HW232034   1.658   0.779   9.086  0.7408 -1.5694 -0.8116
 6858SOL     OW32035   4.112   0.541   6.927 -0.4833 -0.3972  0.6669
 6858SOL    HW132036   4.142   0.466   6.876  0.4803  0.6327 -0.2931
 6858SOL    HW232037   4.039   0.520   6.984 -2.6969  1.7160 -1.4159
 6859SOL     OW32038   1.709   0.648   2.089  0.0923  0.2431 -1.0072
 6859SOL    HW132039   1.770   0.708   2.045 -0.7993  1.1354 -1.0356
 6859SOL    HW232040   1.751   0.634   2.174 -2.0238  0.6667  0.0900
 6860SOL     OW32041   3.734   2.731   3.158  0.5187 -0.4482 -0.0944
 6860SOL    HW132042   3.720   2.702   3.248  1.3386  0.6430  0.3930
 6860SOL    HW232043   3.691   2.817   3.149 -1.3578 -1.4501 -0.7214
 6861SOL     OW32044   1.621   1.284   4.806 -0.2567  0.3149 -0.1019
 6861SOL    HW132045   1.576   1.345   4.747 -0.5662 -1.0665 -1.2891
 6861SOL    HW232046   1.664   1.342   4.869 -0.9419  0.1096  0.5529
 6862SOL     OW32047   2.917   0.803   1.803 -0.7578 -0.3675  0.3137
 6862SOL    HW132048   2.946   0.719   1.768  4.5694  0.4553  2.8865
 6862SOL    HW232049   2.996   0.853   1.819 -0.5172 -0.1057 -1.6953
 6863SOL     OW32050   3.067   1.116   0.920 -0.2239  0.4033 -0.2140
 6863SOL    HW132051   3.143   1.095   0.976  1.3981  0.1653 -2.5109
 6863SOL    HW232052   2.996   1.063   0.954  0.3154  0.3280  0.8055
 6864SOL     OW32053   1.603   0.747  13.772 -0.0847 -0.2778  0.0194
 6864SOL    HW132054   1.653   0.807  13.829 -0.1513  0.6186 -0.8591
 6864SOL    HW232055   1.540   0.708  13.832  0.7852 -0.6217  0.7071
 6865SOL     OW32056   4.434   0.854  10.450  0.6178  0.0146 -1.0708
 6865SOL    HW132057   4.474   0.867  10.364  0.1045 -1.0272 -1.4701
 6865SOL    HW232058   4.450   0.761  10.466 -0.0822  0.1107  0.2483
 6866SOL     OW32059   4.636   4.023   3.821 -0.2210  0.0656 -0.6871
 6866SOL    HW132060   4.542   4.027   3.838 -0.4767 -2.6799 -1.3249
 6866SOL    HW232061   4.646   3.928   3.809  0.1944  0.2786 -1.9253
 6867SOL     OW32062   0.350   0.392  14.464 -0.0116  0.6448 -0.0200
 6867SOL    HW132063   0.371   0.335  14.390 -0.7233  1.2707 -0.7119
 6867SOL    HW232064   0.371   0.333  14.536 -1.7563  0.9652  0.7529
 6868SOL     OW32065   1.787   1.347   9.368  0.5415 -0.4165  1.3546
 6868SOL    HW132066   1.784   1.419   9.430  0.9670 -0.3356  1.2770
 6868SOL    HW232067   1.747   1.270   9.407 -1.0822 -0.0354  0.4504
 6869SOL     OW32068   3.473   0.358   6.525  0.3283  0.1997 -0.2680
 6869SOL    HW132069   3.522   0.351   6.443 -2.9238 -0.1468 -2.1995
 6869SOL    HW232070   3.384   0.354   6.491 -0.8367 -0.3733  2.8998
 6870SOL     OW32071   4.372   0.468  11.081  0.3071 -0.4339 -0.1577
 6870SOL    HW132072   4.315   0.542  11.061  0.1729 -0.5852 -0.3461
 6870SOL    HW232073   4.447   0.510  11.122  0.7051 -1.5367  0.2429
 6871SOL     OW32074   3.007   1.641   1.615  0.6290 -0.3223 -0.1604
 6871SOL    HW132075   2.927   1.688   1.638  1.3559  0.6578  0.4077
 6871SOL    HW232076   3.003   1.642   1.519 -3.9511  3.1124  0.0625
 6872SOL     OW32077   2.704   2.110   2.796  0.5114 -0.1471 -0.0588
 6872SOL    HW132078   2.772   2.162   2.838  1.2655 -1.0720 -0.1383
 6872SOL    HW232079   2.707   2.140   2.705  0.4857  0.0057 -0.0089
 6873SOL     OW32080   4.528   2.785   9.968 -0.1761 -0.3060  0.2543
 6873SOL    HW132081   4.527   2.756   9.877  0.3193 -0.0754  0.1785
 6873SOL    HW232082   4.436   2.780   9.995 -0.2862 -1.9418 -0.4410
 6874SOL     OW32083   1.000   1.123   1.999  0.4092 -0.6666  0.4149
 6874SOL    HW132084   0.997   1.029   1.978  1.2045 -0.1084 -2.1292
 6874SOL    HW232085   0.939   1.158   1.934 -0.6749 -1.1301  1.1823
 6875SOL     OW32086   3.670   1.445   6.339  0.1884  0.1475 -0.0538
 6875SOL    HW132087   3.678   1.349   6.345 -1.4603  0.0456  0.3840
 6875SOL    HW232088   3.621   1.463   6.419 -0.5111  0.2617 -0.5084
 6876SOL     OW32089   0.249   3.495  17.387 -0.3656 -0.1326 -0.0931
 6876SOL    HW132090   0.184   3.551  17.344 -3.7629 -2.5780  1.8174
 6876SOL    HW232091   0.310   3.479  17.315  0.6353  1.5942  0.3917
 6877SOL     OW32092   0.386   1.607   8.278 -0.0694  0.2985 -0.2472
 6877SOL    HW132093   0.409   1.605   8.371  2.2037  2.4134 -0.7424
 6877SOL    HW232094   0.406   1.699   8.260 -2.1302  0.6549 -0.7847
 6878SOL     OW32095   0.127   2.661   8.808 -0.5234 -0.1493  0.0189
 6878SOL    HW132096   0.046   2.664   8.758  0.4100  0.6369 -1.4675
 6878SOL    HW232097   0.104   2.695   8.894 -2.8524 -1.4790 -0.0865
 6879SOL     OW32098   4.343   4.680   7.579  0.2422  0.1725 -0.1003
 6879SOL    HW132099   4.286   0.028   7.607  0.3019  0.5508 -0.9584
 6879SOL    HW232100   4.387   4.664   7.662  0.8991  2.7028  0.0563
 6880SOL     OW32101   4.379   1.250   4.836 -0.1881  0.2083 -0.5728
 6880SOL    HW132102   4.370   1.339   4.801 -0.9997  0.5695  0.5358
 6880SOL    HW232103   4.289   1.229   4.861  0.7386 -2.2068  0.6506
 6881SOL     OW32104   2.223   4.687  14.922  0.3656  0.2058 -0.2234
 6881SOL    HW132105   2.219   0.038  14.864  1.4783  1.3570  1.2020
 6881SOL    HW232106   2.315   4.661  14.933 -0.0907 -1.7856 -1.0464
 6882SOL     OW32107   3.715   0.704  12.272  0.3382  0.5004  0.3608
 6882SOL    HW132108   3.624   0.684  12.294  0.4230  0.1961  0.4298
 6882SOL    HW232109   3.712   0.798  12.251 -0.0875  0.2675 -0.6119
 6883SOL     OW32110   3.388   0.397   2.255 -0.2978 -0.0752 -0.0590
 6883SOL    HW132111   3.373   0.318   2.202 -0.0107 -1.5287  1.9995
 6883SOL    HW232112   3.479   0.393   2.283 -0.5996  1.5539  1.1172
 6884SOL     OW32113   4.465   1.660   4.073  0.9628 -0.4261  0.3316
 6884SOL    HW132114   4.461   1.580   4.127 -0.2861 -0.3186  0.4072
 6884SOL    HW232115   4.468   1.729   4.140  0.2228 -1.9847  1.9918
 6885SOL     OW32116   4.351   4.517   2.800 -0.4928 -0.1607 -0.1162
 6885SOL    HW132117   4.289   4.547   2.733 -1.5741  3.0786  2.3481
 6885SOL    HW232118   4.298   4.514   2.879 -0.6117 -0.5577 -0.2140
 6886SOL     OW32119   4.571   0.671   8.201 -0.3575 -0.0026  0.5609
 6886SOL    HW132120   4.531   0.726   8.133 -0.8659  0.2119  1.0328
 6886SOL    HW232121   4.502   0.607   8.217 -0.3997 -0.2504 -0.5871
 6887SOL     OW32122   2.811   1.483   0.451 -0.3034 -0.4999 -0.2934
 6887SOL    HW132123   2.783   1.488   0.359 -0.4624 -1.4182 -0.2994
 6887SOL    HW232124   2.764   1.559   0.484 -0.4485 -0.5025 -0.4920
 6888SOL     OW32125   0.683   1.605   4.924  0.0013 -0.6910 -0.0521
 6888SOL    HW132126   0.689   1.524   4.874  1.1497 -0.1926 -0.7220
 6888SOL    HW232127   0.661   1.572   5.011 -0.1070  2.1265  1.0041
 6889SOL     OW32128   3.098   0.112  14.818 -0.3093 -0.1781  0.3853
 6889SOL    HW132129   3.085   0.114  14.723  0.9012 -0.8308  0.2063
 6889SOL    HW232130   3.179   0.158  14.838 -0.8100  0.1047  1.7788
 6890SOL     OW32131   0.772   0.942   7.664 -0.1082  0.4763  0.2891
 6890SOL    HW132132   0.860   0.904   7.660 -0.7413 -1.0241  0.8136
 6890SOL    HW232133   0.785   1.033   7.635  1.4290  0.1816  0.0632
 6891SOL     OW32134   4.027   2.387   7.189  0.2735  0.0978  0.7266
 6891SOL    HW132135   4.090   2.459   7.191  0.1022  0.2856 -1.1662
 6891SOL    HW232136   4.047   2.335   7.267  0.3471  2.1608  2.1031
 6892SOL     OW32137   3.933   4.236   7.934 -0.3968 -0.8999 -0.0230
 6892SOL    HW132138   3.914   4.238   8.028 -1.1284 -0.8908 -0.1721
 6892SOL    HW232139   3.859   4.183   7.906  0.2074 -1.6022 -0.3035
 6893SOL     OW32140   3.760   1.583   3.309 -0.2410 -0.2178  0.1665
 6893SOL    HW132141   3.853   1.572   3.329  0.2076 -0.9501 -2.4436
 6893SOL    HW232142   3.726   1.620   3.392  0.9628  1.6909 -0.1937
 6894SOL     OW32143   0.514   0.884   1.989 -0.4543 -0.3960  0.1222
 6894SOL    HW132144   0.463   0.858   1.912 -0.6295  0.0410  0.0879
 6894SOL    HW232145   0.452   0.854   2.056 -1.7711 -1.0065 -1.3678
 6895SOL     OW32146   3.388   3.297   3.957 -0.4367 -0.2368 -0.0107
 6895SOL    HW132147   3.353   3.284   4.046 -0.2155 -1.5401 -0.1207
 6895SOL    HW232148   3.307   3.286   3.907 -1.0981 -0.5073  1.1133
 6896SOL     OW32149   4.678   4.210  17.583  0.1292  0.1684  0.7969
 6896SOL    HW132150   4.604   4.163  17.544  0.0808  0.9389 -0.0403
 6896SOL    HW232151   4.675   4.290  17.531 -1.5370 -1.3797 -1.5010
 6897SOL     OW32152   1.285   1.586   1.029  0.4565  0.1499  0.3817
 6897SOL    HW132153   1.274   1.527   0.955  1.4781 -0.7196  0.9129
 6897SOL    HW232154   1.280   1.525   1.103  2.9771  1.4723  1.6486
 6898SOL     OW32155   1.306   0.258   7.168 -0.4315  0.2225  0.3435
 6898SOL    HW132156   1.395   0.282   7.143  0.5282 -0.9294  2.6696
 6898SOL    HW232157   1.329   0.168   7.189 -1.3898 -0.3864 -1.2023
 6899SOL     OW32158   1.208   2.459   3.464 -0.2037  0.0276  0.3631
 6899SOL    HW132159   1.300   2.470   3.439 -0.4899  2.2321  0.2371
 6899SOL    HW232160   1.202   2.364   3.459  1.4407  0.0557 -1.8694
 6900SOL     OW32161   1.767   1.070   1.525  0.4623  0.4339 -0.0907
 6900SOL    HW132162   1.739   1.037   1.611  0.0552 -1.2972 -0.8817
 6900SOL    HW232163   1.844   1.117   1.556 -0.6779  0.3715  2.8370
 6901SOL     OW32164   0.306   2.601   6.557  0.2716  0.2394  0.9274
 6901SOL    HW132165   0.327   2.508   6.550 -0.3934  0.1840 -0.4616
 6901SOL    HW232166   0.212   2.600   6.571  0.1456  0.2939  0.0818
 6902SOL     OW32167   2.405   1.014   1.342  0.2705 -0.0461  0.3179
 6902SOL    HW132168   2.334   1.016   1.407 -0.0479 -0.9620  0.0034
 6902SOL    HW232169   2.360   0.987   1.262  1.1304 -0.2861 -0.0885
 6903SOL     OW32170   4.326   0.498   8.589 -0.3763 -0.7125  0.6932
 6903SOL    HW132171   4.376   0.529   8.664 -0.0312 -0.8407  0.5140
 6903SOL    HW232172   4.384   0.425   8.566 -1.3572 -1.0253 -0.7851
 6904SOL     OW32173   2.242   3.884   7.502  0.5685  0.0217  0.0224
 6904SOL    HW132174   2.150   3.869   7.526  0.2579 -1.4708 -2.0556
 6904SOL    HW232175   2.250   3.977   7.523 -2.1007  0.2449  0.1518
 6905SOL     OW32176   1.217   2.940   7.753 -0.3074 -0.5661  0.1125
 6905SOL    HW132177   1.224   2.845   7.752 -2.6315 -0.7149 -1.2008
 6905SOL    HW232178   1.124   2.959   7.741 -0.3960 -1.5552 -0.7291
 6906SOL     OW32179   0.619   3.217  17.684  0.2747  0.1770  0.1235
 6906SOL    HW132180   0.680   3.264  17.628  0.1346  0.4703  0.2191
 6906SOL    HW232181   0.569   3.164  17.621 -0.0168 -0.5593  0.9619
 6907SOL     OW32182   2.954   0.217   5.915  0.1670 -0.3400 -0.2636
 6907SOL    HW132183   2.925   0.232   5.825  0.5221 -1.1768 -0.5163
 6907SOL    HW232184   2.869   0.234   5.955  1.6051  0.9662  2.2556
 6908SOL     OW32185   2.732   0.930   7.634  0.3639  0.0692 -0.0253
 6908SOL    HW132186   2.695   0.889   7.712  1.2522 -1.1986 -0.2700
 6908SOL    HW232187   2.777   1.003   7.677 -0.7968  0.2762  0.8472
 6909SOL     OW32188   3.693   0.447  10.194  0.3188 -0.3319 -0.0190
 6909SOL    HW132189   3.663   0.514  10.256 -0.1683 -2.0346  1.5722
 6909SOL    HW232190   3.692   0.495  10.111 -1.8188 -0.7751 -0.2452
 6910SOL     OW32191   4.621   4.560   0.313  0.3398 -0.0075 -0.1353
 6910SOL    HW132192   4.564   4.637   0.320 -2.3420 -2.2611  3.4543
 6910SOL    HW232193   4.559   4.492   0.287  0.4689 -0.3931  0.5514
 6911SOL     OW32194   3.475   0.468  12.647 -0.2347 -0.7378 -0.4262
 6911SOL    HW132195   3.461   0.428  12.561 -2.0725 -0.3834 -0.2840
 6911SOL    HW232196   3.470   0.561  12.624 -0.2447 -0.5060  0.4950
 6912SOL     OW32197   1.741   0.980  17.532  0.3454  0.0971 -0.0268
 6912SOL    HW132198   1.668   1.033  17.499  0.7167  0.4513 -0.2828
 6912SOL    HW232199   1.772   0.947  17.448 -0.1360 -0.0781 -0.1389
 6913SOL     OW32200   1.736   2.467  14.176  0.0247  0.4620  0.1275
 6913SOL    HW132201   1.736   2.533  14.246  0.5503  1.0693 -0.4532
 6913SOL    HW232202   1.689   2.521  14.112 -0.9040 -1.0479 -0.4629
 6914SOL     OW32203   4.467   3.117   7.895 -0.7010 -0.0682  0.1566
 6914SOL    HW132204   4.511   3.095   7.813  1.2806 -0.9099  1.4549
 6914SOL    HW232205   4.451   3.034   7.938  1.8310 -1.1735 -1.0237
 6915SOL     OW32206   4.223   1.555   6.248 -0.0372  0.6102  0.0045
 6915SOL    HW132207   4.130   1.540   6.261  0.3109 -1.1688  0.4643
 6915SOL    HW232208   4.256   1.472   6.283 -0.6710  0.3194 -0.0973
 6916SOL     OW32209   3.234   1.477  17.476  0.7083 -0.1489  0.3802
 6916SOL    HW132210   3.270   1.500  17.562  1.1207  0.9256 -0.0902
 6916SOL    HW232211   3.310   1.444  17.428 -0.4619  0.8702 -2.1530
 6917SOL     OW32212   4.534   0.294   1.069  0.3781  0.0408 -0.5564
 6917SOL    HW132213   4.455   0.267   1.022 -1.4443  2.8389  0.9318
 6917SOL    HW232214   4.533   0.386   1.042  0.5878  0.0432 -0.5526
 6918SOL     OW32215   3.366   3.467   9.714  0.3229  0.2033 -0.3429
 6918SOL    HW132216   3.426   3.415   9.766  2.1480 -1.1264 -3.7792
 6918SOL    HW232217   3.362   3.414   9.634 -0.1463 -1.4797  0.7881
 6919SOL     OW32218   3.797   1.880   0.840 -0.3723  0.3765 -0.3023
 6919SOL    HW132219   3.837   1.796   0.864 -2.3194 -0.5734 -0.3713
 6919SOL    HW232220   3.739   1.846   0.772  0.4216  1.0174 -1.2989
 6920SOL     OW32221   3.474   2.672  14.749 -0.2391 -0.3507  0.1738
 6920SOL    HW132222   3.430   2.591  14.773  2.1322 -1.3159  1.2540
 6920SOL    HW232223   3.548   2.643  14.695 -0.9740 -2.0569  0.0842
 6921SOL     OW32224   0.754   2.046   6.074 -0.8285  0.2534 -0.6727
 6921SOL    HW132225   0.732   2.020   5.985  0.5187  0.5668 -1.1026
 6921SOL    HW232226   0.690   2.116   6.086 -0.9969  0.0512 -0.3879
 6922SOL     OW32227   2.684   0.881   5.293  0.1604 -0.0081  0.5463
 6922SOL    HW132228   2.598   0.908   5.323  0.5921  0.7826  1.0772
 6922SOL    HW232229   2.745   0.932   5.347  2.8302 -0.3648 -2.1311
 6923SOL     OW32230   3.676   1.766   0.591  0.4130 -0.1633  0.1007
 6923SOL    HW132231   3.751   1.766   0.533 -1.2488  1.3119 -2.0552
 6923SOL    HW232232   3.631   1.688   0.557  2.1091 -0.4684 -1.4078
 6924SOL     OW32233   0.214   2.579   9.192 -0.0478  0.1623  0.4479
 6924SOL    HW132234   0.274   2.616   9.127 -0.4364  0.5577  0.3135
 6924SOL    HW232235   0.270   2.518   9.238  0.3428  0.1117 -0.0950
 6925SOL     OW32236   2.379   0.975   4.256 -0.2326  0.4879  0.1266
 6925SOL    HW132237   2.290   0.957   4.227  0.3473 -2.2673  0.0996
 6925SOL    HW232238   2.366   0.971   4.351 -4.5052  2.3447 -0.4235
 6926SOL     OW32239   2.206   4.121   7.287 -0.3586  0.0412 -0.3397
 6926SOL    HW132240   2.201   4.132   7.382  1.7886  0.3621 -0.2544
 6926SOL    HW232241   2.154   4.045   7.263 -0.5239  0.0454  0.0176
 6927SOL     OW32242   0.475   2.684   8.306 -0.0139  0.0721 -0.1869
 6927SOL    HW132243   0.414   2.672   8.379  0.0899  1.6265  0.1451
 6927SOL    HW232244   0.500   2.776   8.314  1.0918 -0.0240 -2.6851
 6928SOL     OW32245   3.473   4.676   7.282 -0.4186  0.1190 -0.3427
 6928SOL    HW132246   3.469   0.031   7.334  1.0698 -0.6047  0.8816
 6928SOL    HW232247   3.439   4.702   7.196  0.5514  1.4926 -0.3116
 6929SOL     OW32248   3.441   0.305   7.192  0.0656 -0.1736 -0.1593
 6929SOL    HW132249   3.407   0.220   7.163 -0.6356  0.2057 -0.4500
 6929SOL    HW232250   3.363   0.359   7.186  1.7491  2.1104 -1.3208
 6930SOL     OW32251   3.727   3.405   3.962 -0.4731  0.1911 -0.1174
 6930SOL    HW132252   3.699   3.449   4.043 -2.3492  0.4120 -0.9026
 6930SOL    HW232253   3.790   3.464   3.921  1.3580 -0.3110  1.9568
 6931SOL     OW32254   1.757   0.186   8.982  0.2127 -0.5180  0.4983
 6931SOL    HW132255   1.813   0.116   8.950  0.9383  0.5911 -0.6189
 6931SOL    HW232256   1.810   0.261   8.954 -0.3610 -0.2814  0.0434
 6932SOL     OW32257   1.971   4.441   3.766  0.0198 -0.1312 -0.0684
 6932SOL    HW132258   1.887   4.458   3.724 -0.5113 -1.3892  0.4843
 6932SOL    HW232259   2.022   4.390   3.703 -1.1566 -0.7719 -0.5082
 6933SOL     OW32260   4.227   3.292   3.937  0.5807  0.0668  0.9382
 6933SOL    HW132261   4.298   3.311   3.876 -1.4244  1.4293 -1.0164
 6933SOL    HW232262   4.147   3.279   3.885  1.4472 -0.9870 -0.1307
 6934SOL     OW32263   1.202   4.589   8.093 -0.3023  0.1085 -0.1020
 6934SOL    HW132264   1.212   4.639   8.174  0.1741 -1.4379  0.8006
 6934SOL    HW232265   1.204   4.498   8.122  0.0940  0.1180 -0.0948
 6935SOL     OW32266   2.529   2.878   6.355  0.5287  0.0647 -0.5236
 6935SOL    HW132267   2.547   2.787   6.331 -1.5479  0.3994 -3.3990
 6935SOL    HW232268   2.544   2.870   6.449  0.6688 -0.0212 -0.5550
 6936SOL     OW32269   4.298   4.056   2.420  0.1703 -0.2701  0.2386
 6936SOL    HW132270   4.254   4.067   2.335 -0.1418 -0.2108  0.4057
 6936SOL    HW232271   4.376   4.109   2.408  2.0954 -2.9480  0.9549
 6937SOL     OW32272   2.054   2.237   4.405  0.1694 -0.0145  0.7226
 6937SOL    HW132273   2.045   2.215   4.498 -1.7596 -1.0497  0.2851
 6937SOL    HW232274   2.093   2.158   4.367  0.0558 -0.0557  0.6923
 6938SOL     OW32275   0.340   2.328   3.381  0.3566 -0.0069  0.1058
 6938SOL    HW132276   0.283   2.277   3.438 -1.5259  1.6142 -0.3449
 6938SOL    HW232277   0.331   2.412   3.425 -0.5439 -0.4053  0.6879
 6939SOL     OW32278   1.865   1.624   8.446 -0.0335  0.0442  0.1717
 6939SOL    HW132279   1.904   1.710   8.462 -2.9503  1.0760  1.7294
 6939SOL    HW232280   1.794   1.632   8.510 -1.2811  2.3433 -1.4901
 6940SOL     OW32281   1.896   2.306  11.438  0.0965  0.3732 -0.1058
 6940SOL    HW132282   1.977   2.281  11.392 -0.0726 -1.9367  0.8619
 6940SOL    HW232283   1.832   2.267  11.378 -0.4105 -0.3809  0.9215
 6941SOL     OW32284   0.740   3.650   5.995 -0.3038  0.8663  0.4511
 6941SOL    HW132285   0.725   3.589   6.067 -0.7613  1.0925  0.5451
 6941SOL    HW232286   0.780   3.592   5.930 -1.4861  1.5334 -0.8773
 6942SOL     OW32287   3.315   0.371   5.127 -0.0812 -0.9749 -0.4598
 6942SOL    HW132288   3.329   0.445   5.068 -1.9946  0.3075  0.6691
 6942SOL    HW232289   3.314   0.300   5.064 -2.4663 -1.4131  0.0752
 6943SOL     OW32290   0.534   2.193   6.054 -0.2173  0.1762  0.0715
 6943SOL    HW132291   0.480   2.266   6.022 -1.0501 -0.2642  0.4719
 6943SOL    HW232292   0.482   2.119   6.024 -1.2213  1.5752 -1.6584
 6944SOL     OW32293   0.178   1.511   6.002 -1.1582  0.0066 -0.4396
 6944SOL    HW132294   0.238   1.462   6.059 -1.4179  1.3387  0.9695
 6944SOL    HW232295   0.149   1.581   6.060 -2.0133 -0.4820 -0.2916
 6945SOL     OW32296   4.025   2.234   7.439  0.7329 -0.2051  0.0828
 6945SOL    HW132297   4.021   2.247   7.533 -0.9322 -0.7886  0.0842
 6945SOL    HW232298   4.052   2.142   7.441  0.0202 -0.3968  0.8695
 6946SOL     OW32299   0.979   2.224   7.351 -0.1647 -0.2917  0.0158
 6946SOL    HW132300   1.019   2.202   7.435 -0.9200  0.8272  0.6566
 6946SOL    HW232301   1.059   2.244   7.302  0.5557  1.1308  1.7956
 6947SOL     OW32302   3.030   1.621   5.578  0.2891 -0.4805  0.5219
 6947SOL    HW132303   2.942   1.638   5.614 -0.6979  0.6025 -2.4115
 6947SOL    HW232304   3.084   1.679   5.633 -0.9083  0.4909  0.6921
 6948SOL     OW32305   4.595   1.610  15.244  0.5274 -0.3540  0.1405
 6948SOL    HW132306   4.600   1.690  15.192  1.4317 -0.8482 -0.5268
 6948SOL    HW232307   4.607   1.639  15.335 -1.2260 -0.6803  0.4746
 6949SOL     OW32308   1.839   2.606   3.506  0.1879 -0.3372  0.1013
 6949SOL    HW132309   1.876   2.519   3.491  0.7405 -0.1063  0.1412
 6949SOL    HW232310   1.770   2.604   3.439  1.0718  0.6107 -0.8229
 6950SOL     OW32311   3.737   2.271   8.062 -0.0120 -0.0863  0.3794
 6950SOL    HW132312   3.721   2.196   8.005 -0.4564  0.8509 -0.7391
 6950SOL    HW232313   3.831   2.284   8.065 -0.2195  1.8431 -0.8491
 6951SOL     OW32314   2.001   2.390   3.447  0.2154 -0.4903 -0.0078
 6951SOL    HW132315   2.005   2.349   3.361  2.3433 -0.4449  0.0718
 6951SOL    HW232316   2.060   2.464   3.434 -0.9905  0.2726 -1.1648
 6952SOL     OW32317   1.775   2.701   8.229 -0.1717  0.2823 -0.6551
 6952SOL    HW132318   1.826   2.747   8.296 -1.2745 -1.6784  1.5339
 6952SOL    HW232319   1.728   2.638   8.284 -0.2039  0.6526 -0.2574
 6953SOL     OW32320   3.600   3.876   3.581  0.3546 -0.3805 -0.1562
 6953SOL    HW132321   3.515   3.858   3.621  0.4998  0.6057  0.5740
 6953SOL    HW232322   3.577   3.900   3.492 -0.2250  1.8437  0.6139
 6954SOL     OW32323   2.133   3.428  15.072 -0.2863 -0.7279 -0.4095
 6954SOL    HW132324   2.056   3.434  15.128  2.5454  2.3414  3.1911
 6954SOL    HW232325   2.204   3.450  15.133  0.2660  0.4992 -1.4994
 6955SOL     OW32326   4.570   0.072   3.998 -0.0584  0.6917  0.1898
 6955SOL    HW132327   4.554   0.117   3.915  1.5023  2.2433  0.7335
 6955SOL    HW232328   4.550   4.705   3.979  1.1530  0.8706 -1.9119
 6956SOL     OW32329   2.265   2.141   7.417 -0.0945 -0.1090  0.6137
 6956SOL    HW132330   2.234   2.178   7.500  3.9713  3.2307  0.6425
 6956SOL    HW232331   2.328   2.205   7.385 -0.5014 -1.1125 -2.1815
 6957SOL     OW32332   2.687   0.750   0.293 -0.0087  0.7054 -0.1462
 6957SOL    HW132333   2.603   0.730   0.252  0.1523 -0.9456  0.3355
 6957SOL    HW232334   2.748   0.718   0.226 -0.4962 -3.3549  1.4037
 6958SOL     OW32335   3.310   0.604   7.481  0.4781 -0.0164  0.1215
 6958SOL    HW132336   3.364   0.592   7.403  2.4144 -0.3143  1.5108
 6958SOL    HW232337   3.255   0.526   7.473  0.1502 -0.0239  2.1884
 6959SOL     OW32338   3.535   1.531   0.525 -0.2810 -0.2874 -0.0075
 6959SOL    HW132339   3.452   1.577   0.537 -0.1240  0.2193 -0.8912
 6959SOL    HW232340   3.501   1.445   0.498 -1.1299  0.0335  0.0411
 6960SOL     OW32341   3.005   2.111   7.035  0.2885  0.1423 -0.0526
 6960SOL    HW132342   2.967   2.144   7.117 -1.5786  3.6546 -2.3257
 6960SOL    HW232343   2.968   2.022   7.038  0.5445  0.0815  1.3460
 6961SOL     OW32344   4.575   4.388   7.618  0.2295 -0.2260  0.0853
 6961SOL    HW132345   4.571   4.337   7.699  1.5818  0.3411  0.5078
 6961SOL    HW232346   4.664   4.424   7.618  0.2880 -0.3467 -1.2766
 6962SOL     OW32347   4.195   3.549   7.641 -0.0002 -0.1408 -0.7772
 6962SOL    HW132348   4.197   3.570   7.735  0.2266 -1.2562 -0.5378
 6962SOL    HW232349   4.117   3.495   7.653  0.2209 -0.3084 -0.0566
 6963SOL     OW32350   0.893   4.420   2.323 -0.2366 -0.1479 -0.0255
 6963SOL    HW132351   0.806   4.429   2.363 -0.2731 -0.7307  0.0214
 6963SOL    HW232352   0.900   4.332   2.286 -1.6892 -0.5602  0.6625
 6964SOL     OW32353   1.896   0.958  13.363 -0.0273  0.2290 -0.3407
 6964SOL    HW132354   1.802   0.949  13.349 -0.1296  2.6206 -1.1671
 6964SOL    HW232355   1.931   0.869  13.349 -0.3180 -0.0669  0.8499
 6965SOL     OW32356   2.525   4.437  12.608  0.2671 -0.1782  0.6773
 6965SOL    HW132357   2.477   4.396  12.537  3.1524  0.0169 -1.3696
 6965SOL    HW232358   2.581   4.364  12.634 -0.5320 -0.5175  1.4434
 6966SOL     OW32359   4.051   1.046   5.811 -0.1827  0.2298 -0.1510
 6966SOL    HW132360   4.031   1.140   5.813 -3.6944 -0.4669 -1.9177
 6966SOL    HW232361   3.968   1.013   5.777 -0.4118  0.5089  0.1396
 6967SOL     OW32362   2.932   1.923  11.367  0.4188 -0.1880 -0.0269
 6967SOL    HW132363   2.846   1.918  11.410  0.4075  1.1817  0.0901
 6967SOL    HW232364   2.913   1.932  11.274 -4.8566 -0.1388  1.0260
 6968SOL     OW32365   0.123   3.948   3.044 -0.3416  0.1073 -0.0637
 6968SOL    HW132366   0.072   3.914   2.970 -1.2679 -1.3349  1.2459
 6968SOL    HW232367   0.149   4.037   3.018  0.6678  0.0197  0.6552
 6969SOL     OW32368   2.539   3.438  15.671 -0.0527 -0.2140  0.1506
 6969SOL    HW132369   2.506   3.528  15.671 -1.9315 -0.8999 -0.7392
 6969SOL    HW232370   2.591   3.449  15.592  1.2379  0.7352  1.1458
 6970SOL     OW32371   2.023   0.375   9.110 -0.5534  0.5985  0.5911
 6970SOL    HW132372   2.023   0.281   9.095  0.4036  0.7886 -0.5280
 6970SOL    HW232373   2.113   0.375   9.143  0.2576 -1.4552 -1.6976
 6971SOL     OW32374   0.597   1.248  16.882 -0.2331  0.2775 -0.1446
 6971SOL    HW132375   0.502   1.246  16.873 -0.1507 -2.3664 -0.5095
 6971SOL    HW232376   0.615   1.163  16.923 -0.0735 -0.7592 -2.3426
 6972SOL     OW32377   0.791   4.039   7.517 -0.2478 -0.1316  0.1643
 6972SOL    HW132378   0.811   4.130   7.495 -0.8231  0.4985  2.2137
 6972SOL    HW232379   0.697   4.034   7.504 -0.2184  0.6757 -0.3416
 6973SOL     OW32380   2.075   4.328   1.225  0.3215 -0.1911 -0.2916
 6973SOL    HW132381   2.119   4.260   1.174 -0.9037 -0.7495 -0.6021
 6973SOL    HW232382   2.086   4.304   1.317  1.6737 -0.5080 -0.5416
 6974SOL     OW32383   3.301   3.842   8.568  0.2330 -0.1175  0.3891
 6974SOL    HW132384   3.261   3.929   8.577  0.5385  0.0078  0.5099
 6974SOL    HW232385   3.324   3.852   8.476 -0.5157 -1.3337  0.0730
 6975SOL     OW32386   0.405   4.352   8.279  0.0540  0.2121 -0.2471
 6975SOL    HW132387   0.415   4.257   8.268  0.7993 -0.0562  2.9640
 6975SOL    HW232388   0.360   4.364   8.195  0.2736  0.7041 -0.2927
 6976SOL     OW32389   4.443   4.608   7.851  0.1033 -0.3812 -0.3009
 6976SOL    HW132390   4.490   4.643   7.927 -0.3552  0.4995 -0.4306
 6976SOL    HW232391   4.475   4.518   7.850  0.1780 -0.3463 -0.7752
 6977SOL     OW32392   1.564   2.136   5.577  0.0055 -0.1557 -0.2393
 6977SOL    HW132393   1.563   2.181   5.661  0.7471  0.5091 -0.5818
 6977SOL    HW232394   1.491   2.179   5.533  0.1588  0.0147 -0.3277
 6978SOL     OW32395   2.611   0.096   3.678 -0.3505 -0.1801 -0.4810
 6978SOL    HW132396   2.701   0.129   3.676 -1.1584  2.0134 -1.8496
 6978SOL    HW232397   2.625   0.003   3.691 -1.1802 -0.3238 -0.5840
 6979SOL     OW32398   3.641   3.820   7.741  0.0757 -0.1339 -0.0375
 6979SOL    HW132399   3.637   3.817   7.645 -2.7053  1.9220  0.0017
 6979SOL    HW232400   3.703   3.752   7.767  1.5107  1.9771  2.0948
 6980SOL     OW32401   2.500   4.289   4.420  0.2379  0.3168 -0.0949
 6980SOL    HW132402   2.467   4.199   4.429 -0.9061  0.9252  1.9482
 6980SOL    HW232403   2.489   4.320   4.510  2.5301 -1.8447  0.9165
 6981SOL     OW32404   1.504   3.250  11.918  0.5895 -0.1461 -0.3165
 6981SOL    HW132405   1.556   3.172  11.937 -2.4225 -1.7415  1.3169
 6981SOL    HW232406   1.481   3.275  12.007  2.8321  2.0154 -0.3530
 6982SOL     OW32407   1.572   4.670   8.116  0.6467 -0.2375  0.3828
 6982SOL    HW132408   1.617   4.608   8.173  1.8100 -2.1943 -2.6920
 6982SOL    HW232409   1.565   0.021   8.175 -0.6240  0.8116 -1.1150
 6983SOL     OW32410   4.197   2.604   8.735 -0.4687 -0.0089 -0.1620
 6983SOL    HW132411   4.156   2.690   8.748 -1.2537 -0.9332  3.4451
 6983SOL    HW232412   4.125   2.547   8.709  1.1693 -2.3519  0.4731
 6984SOL     OW32413   1.606   3.438   6.683 -0.4883 -0.1858  0.0987
 6984SOL    HW132414   1.618   3.344   6.670 -0.7557  0.0120 -1.5232
 6984SOL    HW232415   1.687   3.463   6.729 -1.3813 -0.2515  1.7148
 6985SOL     OW32416   0.105   4.274   2.668  0.2115 -0.1659  0.4154
 6985SOL    HW132417   0.120   4.346   2.606 -0.7307 -1.0998 -0.9016
 6985SOL    HW232418   0.123   4.198   2.613 -1.9903  0.3646 -1.0164
 6986SOL     OW32419   3.329   1.468   7.201 -0.8370 -0.2314 -0.5295
 6986SOL    HW132420   3.290   1.480   7.288  1.5395 -0.3955  0.5446
 6986SOL    HW232421   3.354   1.559   7.187 -0.9790 -0.4166 -1.9559
 6987SOL     OW32422   0.628   4.213  14.508  0.1293  0.0870 -0.1783
 6987SOL    HW132423   0.610   4.240  14.598  0.5817  0.2680 -0.1402
 6987SOL    HW232424   0.628   4.117  14.518 -2.0374  0.3268  2.1825
 6988SOL     OW32425   3.514   2.825  10.863 -0.4139  0.2148  0.2911
 6988SOL    HW132426   3.542   2.915  10.883 -1.1663  0.2375  1.2915
 6988SOL    HW232427   3.593   2.773  10.874 -0.1261  0.4179 -0.8541
 6989SOL     OW32428   2.005   3.908   3.524  0.0365  0.4774  0.3030
 6989SOL    HW132429   2.085   3.936   3.479 -0.4039  0.8163 -0.2713
 6989SOL    HW232430   1.954   3.886   3.446 -1.6302 -1.9033  2.1047
 6990SOL     OW32431   2.110   1.499   2.187  0.0388 -0.2276 -0.2215
 6990SOL    HW132432   2.126   1.407   2.169 -0.6113 -0.0052 -1.9195
 6990SOL    HW232433   2.197   1.536   2.178  1.0078 -2.5583 -0.2819
 6991SOL     OW32434   0.463   3.580   4.592 -0.5048  0.0941 -0.3440
 6991SOL    HW132435   0.511   3.661   4.609  1.7605 -0.9829 -1.6511
 6991SOL    HW232436   0.499   3.563   4.505 -1.0264  0.5611 -0.6481
 6992SOL     OW32437   1.304   3.337   7.897 -0.6854  0.0810 -0.3399
 6992SOL    HW132438   1.276   3.361   7.808  1.7611 -1.5006 -1.5571
 6992SOL    HW232439   1.399   3.329   7.898 -0.6146  1.1585  0.4009
 6993SOL     OW32440   0.119   3.733   2.677  0.6075  0.4755 -0.4224
 6993SOL    HW132441   0.178   3.790   2.627  1.3849  0.5888  0.6185
 6993SOL    HW232442   0.067   3.803   2.717  0.7351 -0.4051  1.2554
 6994SOL     OW32443   3.272   3.283   9.221 -0.1483  0.1446  0.3414
 6994SOL    HW132444   3.299   3.218   9.285 -0.6940 -0.8672 -0.4656
 6994SOL    HW232445   3.221   3.333   9.285 -2.3781 -1.4685 -0.1668
 6995SOL     OW32446   3.339   2.684   0.450  0.4616  0.2168  0.0221
 6995SOL    HW132447   3.262   2.740   0.455 -0.3827 -0.9750  0.3935
 6995SOL    HW232448   3.347   2.667   0.356 -0.6348  1.6961 -0.3343
 6996SOL     OW32449   3.270   0.751   1.757  0.1556  0.2200 -0.1943
 6996SOL    HW132450   3.223   0.804   1.821 -1.4937  1.7526 -2.6687
 6996SOL    HW232451   3.207   0.680   1.741  0.6132  0.7126 -4.1228
 6997SOL     OW32452   3.195   2.400   7.717 -0.1562  0.1165 -0.3574
 6997SOL    HW132453   3.137   2.421   7.790 -0.5552  0.1798 -0.6937
 6997SOL    HW232454   3.280   2.392   7.760 -0.6086  2.5478  0.9536
 6998SOL     OW32455   0.957   0.893  10.097 -0.0628 -0.4543  0.7629
 6998SOL    HW132456   0.928   0.803  10.108 -1.3412 -0.1923 -0.4743
 6998SOL    HW232457   1.052   0.886  10.086 -0.0869 -1.5504  1.2947
 6999SOL     OW32458   1.287   2.016   6.116 -0.5401  0.0576  0.5637
 6999SOL    HW132459   1.194   2.035   6.123 -0.3546  1.6683 -1.3270
 6999SOL    HW232460   1.287   1.921   6.126 -0.2853  0.2604  2.5785
 7000SOL     OW32461   0.403   1.884   5.547 -0.1836  0.3833  0.3192
 7000SOL    HW132462   0.495   1.908   5.560  0.1867  0.5471 -2.6073
 7000SOL    HW232463   0.387   1.824   5.620  2.7381 -0.2866  0.4006
 7001SOL     OW32464   1.886   0.326   7.516  0.6456 -0.4307  0.7459
 7001SOL    HW132465   1.891   0.231   7.504  1.9470 -0.6785  3.3156
 7001SOL    HW232466   1.835   0.355   7.440  2.4639  0.4806 -0.1378
 7002SOL     OW32467   2.596   4.439   2.406 -0.0064  0.3844 -0.6120
 7002SOL    HW132468   2.630   4.526   2.430 -2.2322  1.5287 -1.6783
 7002SOL    HW232469   2.651   4.414   2.332 -1.9491  0.4233 -2.0392
 7003SOL     OW32470   2.999   3.011  11.744 -0.1228  0.0253 -0.4616
 7003SOL    HW132471   3.071   2.952  11.769 -1.1032 -1.0930 -0.2933
 7003SOL    HW232472   3.041   3.045  11.664  0.3942 -0.5097 -0.4218
 7004SOL     OW32473   0.947   2.170   2.476 -0.1954 -0.0992  0.2829
 7004SOL    HW132474   0.923   2.262   2.467 -1.4495 -0.5652 -0.9691
 7004SOL    HW232475   0.993   2.148   2.395  1.2154 -0.5983  1.2162
 7005SOL     OW32476   4.425   1.835   2.054  0.1820  0.1095 -0.4960
 7005SOL    HW132477   4.367   1.840   1.978 -0.3728  0.1419 -0.0774
 7005SOL    HW232478   4.431   1.740   2.063  3.2787  0.3011 -0.6656
 7006SOL     OW32479   4.687   3.168  12.280 -0.0593 -0.3851 -0.0263
 7006SOL    HW132480   0.018   3.100  12.317  0.5632  1.7329  2.9757
 7006SOL    HW232481   4.658   3.116  12.205 -0.4419 -0.0993 -0.0740
 7007SOL     OW32482   1.603   3.679   7.709 -0.4261  0.1774 -0.2009
 7007SOL    HW132483   1.658   3.732   7.766 -0.2647 -2.8494  2.4506
 7007SOL    HW232484   1.541   3.746   7.680  1.0152  1.4518 -0.2705
 7008SOL     OW32485   2.543   4.294  13.315 -0.0270  0.0373 -0.8601
 7008SOL    HW132486   2.576   4.327  13.398 -1.7215  0.3279 -0.2938
 7008SOL    HW232487   2.452   4.313  13.337  0.3549  1.3171 -0.3915
 7009SOL     OW32488   1.411   4.013   6.368  0.2729  0.0372  0.2745
 7009SOL    HW132489   1.434   3.975   6.283  0.0348 -1.1046  0.7161
 7009SOL    HW232490   1.322   3.980   6.381 -0.1199  1.1507  0.3770
 7010SOL     OW32491   1.569   4.658   6.570  0.1204 -0.7364  0.5080
 7010SOL    HW132492   1.617   4.721   6.517  2.6854 -0.8743  2.6581
 7010SOL    HW232493   1.554   4.591   6.503 -2.4377  0.2068  0.1129
 7011SOL     OW32494   0.188   0.139   4.806  0.1424  0.2477 -0.6482
 7011SOL    HW132495   0.251   0.179   4.866 -0.6298  2.2342 -1.1806
 7011SOL    HW232496   0.131   0.101   4.873  2.0801  1.1808  1.5065
 7012SOL     OW32497   3.944   1.473  15.810 -0.3112 -0.2614 -0.0239
 7012SOL    HW132498   4.028   1.443  15.845  0.3613  0.9504 -0.6109
 7012SOL    HW232499   3.943   1.566  15.831  0.0391  0.0513 -1.3604
 7013SOL     OW32500   0.855   0.093  14.829  0.1192  0.2885 -0.3522
 7013SOL    HW132501   0.858   4.724  14.811  0.8002  0.4575 -1.0873
 7013SOL    HW232502   0.806   0.088  14.911 -0.8717 -0.1971 -0.9688
 7014SOL     OW32503   3.956   1.373  15.203 -0.0421  0.2378  0.3347
 7014SOL    HW132504   3.986   1.322  15.128 -0.3723  2.6222 -1.4056
 7014SOL    HW232505   4.006   1.455  15.200 -1.1401  0.9432  1.1627
 7015SOL     OW32506   1.437   2.287   8.294  0.0480  0.4000  0.0016
 7015SOL    HW132507   1.353   2.325   8.317 -0.3524  0.3908 -1.4438
 7015SOL    HW232508   1.446   2.210   8.352  1.5078  0.1028 -0.6066
 7016SOL     OW32509   0.005   1.768   4.624 -0.2815 -0.1495  0.2396
 7016SOL    HW132510   4.696   1.733   4.706 -1.6663  0.9964  0.1436
 7016SOL    HW232511   0.084   1.716   4.606 -0.2316 -0.5094  1.5065
 7017SOL     OW32512   3.996   3.803   6.010  0.3056 -0.0446 -0.3979
 7017SOL    HW132513   4.047   3.841   5.938 -1.0190 -0.8823 -1.7704
 7017SOL    HW232514   4.047   3.831   6.086  0.2393  0.0696 -0.3952
 7018SOL     OW32515   2.766   2.915   0.894 -0.4519  0.0864  0.0577
 7018SOL    HW132516   2.724   2.901   0.810  1.1523 -2.2958 -0.3720
 7018SOL    HW232517   2.767   2.824   0.923 -2.0716  0.2559  0.6142
 7019SOL     OW32518   0.293   3.249   3.702 -0.5723 -0.3073 -0.0433
 7019SOL    HW132519   0.201   3.226   3.688 -0.6249 -0.9420  1.3574
 7019SOL    HW232520   0.319   3.290   3.620  3.0449  1.7549  2.1170
 7020SOL     OW32521   4.289   4.525   3.086 -0.2562  0.0578 -0.1167
 7020SOL    HW132522   4.328   4.443   3.118  0.8347  0.9871  0.9245
 7020SOL    HW232523   4.352   4.590   3.117  0.4600 -1.0509  0.7467
 7021SOL     OW32524   2.626   4.481   2.810  0.1789 -0.4370 -0.1173
 7021SOL    HW132525   2.688   4.439   2.870 -0.8932 -0.6354  0.8609
 7021SOL    HW232526   2.594   4.550   2.869 -1.6135  0.1636 -1.8136
 7022SOL     OW32527   0.673   3.722   5.392 -0.4783 -0.6322 -0.3593
 7022SOL    HW132528   0.662   3.715   5.297 -1.8840 -2.4879 -0.0301
 7022SOL    HW232529   0.749   3.780   5.405 -1.0250 -0.5107  2.2884
 7023SOL     OW32530   2.684   1.674   6.207  0.2818  0.0324 -0.0461
 7023SOL    HW132531   2.690   1.593   6.257  0.1987 -0.2862 -0.5576
 7023SOL    HW232532   2.773   1.709   6.211  0.2609  0.1003 -0.1621
 7024SOL     OW32533   0.671   3.296  16.494  0.3386  0.4672 -0.0672
 7024SOL    HW132534   0.683   3.372  16.438 -0.8527  1.0411  0.4426
 7024SOL    HW232535   0.576   3.287  16.496  0.3515  0.4481  0.5232
 7025SOL     OW32536   2.217   2.397   2.720  0.6396 -1.0436  0.2751
 7025SOL    HW132537   2.266   2.433   2.646 -0.9537 -1.5255 -1.0215
 7025SOL    HW232538   2.245   2.452   2.793 -1.4250 -1.0540  1.0757
 7026SOL     OW32539   1.656   4.061   5.897  0.1882  0.0948 -0.0763
 7026SOL    HW132540   1.698   4.100   5.973 -1.1985  1.5980 -0.0892
 7026SOL    HW232541   1.593   4.133   5.895 -1.5627 -1.4824 -1.2775
 7027SOL     OW32542   3.180   0.012   7.576  0.1347  0.0645  0.3017
 7027SOL    HW132543   3.251   0.064   7.538  0.8628 -1.9865 -1.1140
 7027SOL    HW232544   3.119   0.032   7.505  0.6406 -1.0949 -0.4496
 7028SOL     OW32545   4.288   3.953   8.246  0.1317  0.5386 -0.1786
 7028SOL    HW132546   4.248   3.871   8.272 -0.7144  0.3794 -1.9601
 7028SOL    HW232547   4.329   3.985   8.327  2.7762 -3.2290 -0.0380
 7029SOL     OW32548   4.392   0.819  11.144 -0.0284  0.6340 -0.2366
 7029SOL    HW132549   4.335   0.777  11.209  0.4693 -0.2232 -0.3446
 7029SOL    HW232550   4.324   0.857  11.089 -1.6153  0.8235  1.8150
 7030SOL     OW32551   1.895   2.605   2.521  0.4191  0.4059  0.3422
 7030SOL    HW132552   1.890   2.510   2.534  0.1069  0.3331 -0.3384
 7030SOL    HW232553   1.989   2.619   2.530  0.7412 -1.8333  0.5001
 7031SOL     OW32554   0.362   0.390   1.694 -0.0195 -0.0243  0.2209
 7031SOL    HW132555   0.386   0.475   1.730  0.7018 -0.0507 -0.1899
 7031SOL    HW232556   0.418   0.391   1.616  1.5669 -1.0172  1.3527
 7032SOL     OW32557   2.469   0.148   3.444  0.0421 -0.3986 -0.2442
 7032SOL    HW132558   2.516   0.142   3.527  0.7666 -2.3170 -0.8021
 7032SOL    HW232559   2.375   0.148   3.463  0.1309 -0.7737  0.1839
 7033SOL     OW32560   1.627   1.064   2.549  0.0303 -0.3853  0.2373
 7033SOL    HW132561   1.544   1.032   2.515 -1.2486  2.2691  0.8305
 7033SOL    HW232562   1.645   0.997   2.615  0.9262  1.8099  2.2336
 7034SOL     OW32563   0.642   1.619   1.837  0.8588  0.1040  0.0845
 7034SOL    HW132564   0.726   1.576   1.822 -0.3261 -2.5113  0.8684
 7034SOL    HW232565   0.595   1.574   1.767  0.6929  1.1348 -0.4506
 7035SOL     OW32566   0.165   0.806   0.767 -0.0978 -0.5566 -0.0099
 7035SOL    HW132567   0.148   0.725   0.815 -0.4402 -0.9754 -0.8353
 7035SOL    HW232568   0.173   0.877   0.831 -1.8550 -0.9339  0.6314
 7036SOL     OW32569   1.811   0.477   6.899  0.2642  0.5753 -0.2394
 7036SOL    HW132570   1.754   0.527   6.840 -0.7561  1.5880  1.6090
 7036SOL    HW232571   1.844   0.550   6.952  0.0379  1.8513 -1.8452
 7037SOL     OW32572   1.640   3.599   2.355 -0.2894  0.0274  0.7190
 7037SOL    HW132573   1.582   3.561   2.288  1.9705 -0.6790 -0.8281
 7037SOL    HW232574   1.695   3.524   2.378 -0.5410  0.0494  1.3733
 7038SOL     OW32575   2.338   2.222   4.439 -0.3505  0.3974  0.7232
 7038SOL    HW132576   2.289   2.175   4.506 -0.7164 -2.8768 -1.8452
 7038SOL    HW232577   2.416   2.168   4.451 -0.3757 -0.3985 -2.6331
 7039SOL     OW32578   0.857   4.561   4.690 -0.5677 -0.1295 -0.0657
 7039SOL    HW132579   0.915   4.493   4.655  0.6766  1.4094 -0.9491
 7039SOL    HW232580   0.769   4.544   4.655  0.5307  0.1617 -2.9712
 7040SOL     OW32581   1.251   1.800  16.291 -0.1572 -0.3731  0.2580
 7040SOL    HW132582   1.265   1.709  16.266  0.6910 -0.3870  0.7817
 7040SOL    HW232583   1.157   1.800  16.311  0.0884  1.0469  1.3922
 7041SOL     OW32584   0.575   3.719   8.446  0.0245 -0.3287  0.0109
 7041SOL    HW132585   0.560   3.814   8.449 -1.1128 -0.5691  1.5278
 7041SOL    HW232586   0.532   3.688   8.525 -0.0733 -0.4107 -0.0747
 7042SOL     OW32587   4.149   0.355   5.013  0.0450 -0.0300 -0.2175
 7042SOL    HW132588   4.128   0.308   4.933  1.4300 -3.2456  1.2744
 7042SOL    HW232589   4.183   0.284   5.069  0.0539 -0.2355 -0.4844
 7043SOL     OW32590   2.978   3.306   8.167  0.0644  0.0467  0.1501
 7043SOL    HW132591   2.963   3.220   8.204 -0.3563  0.4600  0.9323
 7043SOL    HW232592   3.074   3.310   8.166  0.1111 -0.6230  3.2644
 7044SOL     OW32593   2.662   4.266   5.461 -0.4442 -0.1796 -0.5498
 7044SOL    HW132594   2.640   4.360   5.465 -0.5878 -0.1808 -1.3658
 7044SOL    HW232595   2.745   4.268   5.510 -1.7131  3.3791  1.4853
 7045SOL     OW32596   2.932   0.911   1.228 -0.2502 -0.4920 -0.7947
 7045SOL    HW132597   2.865   0.916   1.296  0.5623 -2.1597  0.1362
 7045SOL    HW232598   2.985   0.839   1.263  1.5014  1.3298  0.3114
 7046SOL     OW32599   3.551   4.235  10.261  0.3266  0.3104 -0.1588
 7046SOL    HW132600   3.645   4.230  10.244  0.2266 -0.0740 -0.5929
 7046SOL    HW232601   3.540   4.330  10.265  0.5838  0.2185  3.0598
 7047SOL     OW32602   1.172   0.507  11.047 -0.0612 -0.7316 -0.4695
 7047SOL    HW132603   1.250   0.458  11.021  0.8203  1.0819 -1.2213
 7047SOL    HW232604   1.100   0.454  11.013  0.1842 -1.6930  0.5165
 7048SOL     OW32605   4.381   2.326   4.074  0.5843  0.1076 -0.0273
 7048SOL    HW132606   4.463   2.303   4.032  2.1253  2.4767  1.6860
 7048SOL    HW232607   4.366   2.410   4.030  1.1627 -0.7817 -1.9354
 7049SOL     OW32608   4.205   1.808  13.914 -0.2609  0.7612 -0.3553
 7049SOL    HW132609   4.138   1.768  13.970 -0.0079  0.2780 -0.3980
 7049SOL    HW232610   4.248   1.877  13.964 -2.4274  2.2953 -0.5885
 7050SOL     OW32611   1.177   3.751   0.840 -0.0906  0.3652 -0.3783
 7050SOL    HW132612   1.110   3.719   0.901  1.0652 -1.3582 -0.0347
 7050SOL    HW232613   1.125   3.815   0.792 -1.6028 -1.6175 -1.3730
 7051SOL     OW32614   0.696   4.492   5.974 -0.2788 -0.3833 -0.3139
 7051SOL    HW132615   0.729   4.459   5.890 -1.1386  0.5462 -1.0110
 7051SOL    HW232616   0.764   4.558   5.992 -2.1702  1.1777  1.0425
 7052SOL     OW32617   0.778   2.400   3.294  0.3365 -0.1399  0.1899
 7052SOL    HW132618   0.751   2.332   3.233  2.3168  0.7670 -1.7143
 7052SOL    HW232619   0.838   2.354   3.352  0.7698 -0.9136 -0.8786
 7053SOL     OW32620   4.664   2.428   5.146 -0.2063  0.1886  0.0749
 7053SOL    HW132621   0.014   2.470   5.189 -0.3855  1.8859 -1.2618
 7053SOL    HW232622   4.668   2.340   5.183 -2.1540 -0.2057 -0.6448
 7054SOL     OW32623   4.683   4.385  17.384  0.9162 -0.0407  0.0571
 7054SOL    HW132624   0.011   4.411  17.309  0.3588 -2.2243 -1.0931
 7054SOL    HW232625   4.601   4.412  17.342  1.4574  0.5024 -0.6628
 7055SOL     OW32626   0.841   3.566   0.657  0.0438 -0.5806  0.2217
 7055SOL    HW132627   0.843   3.660   0.679  0.3267 -0.8248  1.2410
 7055SOL    HW232628   0.770   3.558   0.593 -0.6732 -2.1150  1.2110
 7056SOL     OW32629   3.745   4.214   8.861  0.4037  0.3938  0.2536
 7056SOL    HW132630   3.709   4.269   8.792  1.6374  0.7866 -0.0720
 7056SOL    HW232631   3.833   4.248   8.870  0.2389  0.5754  1.2108
 7057SOL     OW32632   4.007   0.707  17.387  0.2747 -0.4729  0.0520
 7057SOL    HW132633   3.922   0.738  17.356  0.1409 -0.4168  0.4735
 7057SOL    HW232634   4.073   0.739  17.325  0.0179 -1.1297 -0.5592
 7058SOL     OW32635   0.027   4.221  12.032  0.3026  0.7418  0.2624
 7058SOL    HW132636   4.715   4.309  12.041  0.9337  0.9621  0.6731
 7058SOL    HW232637   0.016   4.209  11.938 -0.4465  0.6535  0.3578
 7059SOL     OW32638   3.180   2.557   5.413  0.0473  0.7248 -0.3743
 7059SOL    HW132639   3.103   2.594   5.456 -1.3744 -1.2525 -1.1832
 7059SOL    HW232640   3.149   2.542   5.323  1.9731 -1.5805 -0.6575
 7060SOL     OW32641   1.585   4.563   5.031 -0.0734 -0.0979 -0.6580
 7060SOL    HW132642   1.538   4.584   4.951  0.6099 -2.1719 -1.6104
 7060SOL    HW232643   1.577   4.641   5.086  1.0997 -0.4291 -0.0109
 7061SOL     OW32644   1.324   2.443  16.989 -0.5359 -0.1127  1.0246
 7061SOL    HW132645   1.251   2.404  16.941  0.6961  0.3958 -1.2319
 7061SOL    HW232646   1.270   2.484  17.057 -1.9918  1.1502 -0.8837
 7062SOL     OW32647   2.793   3.273   4.447  0.6121 -0.4086  0.0704
 7062SOL    HW132648   2.779   3.271   4.353  1.3327  1.2333 -0.0784
 7062SOL    HW232649   2.856   3.202   4.457  0.7168 -0.3231  0.0175
 7063SOL     OW32650   3.608   2.145   6.070 -0.1186  0.0800  0.1909
 7063SOL    HW132651   3.597   2.057   6.036  1.1571 -0.0140 -0.0130
 7063SOL    HW232652   3.648   2.130   6.156 -2.1424  1.1862  1.3133
 7064SOL     OW32653   1.450   1.088   8.133 -0.3873 -0.2938  0.2064
 7064SOL    HW132654   1.398   1.069   8.211  1.2974  0.8376  1.6179
 7064SOL    HW232655   1.421   1.020   8.073  1.4731 -1.0504  0.1462
 7065SOL     OW32656   4.293   1.561   2.289 -0.1396  0.3445  0.3644
 7065SOL    HW132657   4.310   1.469   2.309  1.3871  0.6218  0.3423
 7065SOL    HW232658   4.200   1.570   2.309 -0.4302  0.6753 -1.1118
 7066SOL     OW32659   1.725   0.054   7.619 -0.2540 -0.7442  0.3827
 7066SOL    HW132660   1.693   0.004   7.694  3.2047 -0.4224  2.0694
 7066SOL    HW232661   1.806   0.011   7.594  0.2619  0.6922 -0.4357
 7067SOL     OW32662   0.041   1.417   2.700 -0.2299  0.1936 -0.3611
 7067SOL    HW132663   0.010   1.386   2.785 -1.6679  2.7534  0.0720
 7067SOL    HW232664   0.135   1.416   2.715 -0.0529 -4.4137 -1.8866
 7068SOL     OW32665   1.499   0.842   3.286  0.3045 -0.0545  0.2007
 7068SOL    HW132666   1.582   0.888   3.298 -0.6133  1.4345  0.8159
 7068SOL    HW232667   1.495   0.876   3.197 -5.4638 -0.0260  0.5096
 7069SOL     OW32668   1.185   3.391  12.279  0.4389 -0.0006 -0.5975
 7069SOL    HW132669   1.182   3.323  12.346  2.8442 -0.6152 -1.1272
 7069SOL    HW232670   1.272   3.428  12.294  0.5744 -0.5003 -0.1344
 7070SOL     OW32671   1.089   0.349   5.442  0.3653  0.3913 -0.2758
 7070SOL    HW132672   1.114   0.336   5.534  0.0657 -4.0174 -0.7816
 7070SOL    HW232673   1.137   0.429   5.423  0.6456  0.3620  0.3066
 7071SOL     OW32674   0.036   3.698   9.484 -0.5501 -0.0685  0.1848
 7071SOL    HW132675   4.666   3.693   9.499 -0.5049 -1.1040  0.1204
 7071SOL    HW232676   0.048   3.779   9.434  0.2753  1.3241  2.6280
 7072SOL     OW32677   0.552   0.853  11.170 -0.0845 -0.2938 -0.1058
 7072SOL    HW132678   0.523   0.853  11.261  0.1837 -0.5710 -0.0211
 7072SOL    HW232679   0.488   0.921  11.151  1.6168  0.7436 -2.1285
 7073SOL     OW32680   1.897   0.339  12.807  0.1422  0.3356 -0.5649
 7073SOL    HW132681   1.960   0.297  12.748  0.5894  0.5245 -0.2258
 7073SOL    HW232682   1.820   0.337  12.750 -1.5199  0.8208  1.6795
 7074SOL     OW32683   3.008   2.836   4.841  0.4186 -0.0442  0.5096
 7074SOL    HW132684   3.006   2.766   4.777  1.0987  0.9916 -0.6597
 7074SOL    HW232685   3.049   2.777   4.904  0.6334  1.2649  1.6103
 7075SOL     OW32686   0.420   3.161   8.210 -0.2575 -0.1672 -0.1035
 7075SOL    HW132687   0.458   3.118   8.133 -1.0834  0.2391 -0.7532
 7075SOL    HW232688   0.343   3.109   8.236 -1.8599  2.2560 -0.0439
 7076SOL     OW32689   3.465   1.177   0.005 -0.0271  0.2526 -0.3696
 7076SOL    HW132690   3.534   1.212  17.650  0.8084 -0.0462  0.4637
 7076SOL    HW232691   3.443   1.253   0.060 -1.4438 -0.5999  0.2311
 7077SOL     OW32692   1.789   1.904   0.710 -0.0889 -0.4001 -0.1263
 7077SOL    HW132693   1.838   1.823   0.722 -0.0972 -0.2503  0.8587
 7077SOL    HW232694   1.865   1.956   0.682 -0.4410  0.9430  1.4150
 7078SOL     OW32695   4.692   3.037   1.662  0.1350  0.2613 -0.6570
 7078SOL    HW132696   0.028   3.006   1.596 -0.4097 -1.2781 -0.4308
 7078SOL    HW232697   4.616   3.043   1.604  0.0028  2.2537 -0.2887
 7079SOL     OW32698   0.298   3.869   6.725  0.7696  0.0487  0.2951
 7079SOL    HW132699   0.333   3.924   6.655  0.0235 -2.3399 -1.9809
 7079SOL    HW232700   0.221   3.922   6.748 -0.3423 -0.9737 -1.0242
 7080SOL     OW32701   1.411   4.336   4.858 -0.2007  0.2335  0.1191
 7080SOL    HW132702   1.449   4.420   4.832  1.2350 -0.3713  0.2564
 7080SOL    HW232703   1.463   4.315   4.935 -2.5026 -0.9053  1.3465
 7081SOL     OW32704   0.698   0.604   4.449 -0.2082 -0.5520 -0.1989
 7081SOL    HW132705   0.728   0.515   4.434 -0.3373 -0.5334 -0.5734
 7081SOL    HW232706   0.622   0.574   4.500 -1.1155 -0.4378 -1.4641
 7082SOL     OW32707   2.339   2.733  14.158  0.4089 -0.8634 -0.5684
 7082SOL    HW132708   2.383   2.710  14.240  2.3429  1.2054 -0.9999
 7082SOL    HW232709   2.279   2.801  14.190  1.6048 -1.8537  3.8243
 7083SOL     OW32710   2.944   2.618   0.687  0.1026  0.0674  0.1180
 7083SOL    HW132711   2.967   2.649   0.599 -0.6463 -1.0756 -0.4986
 7083SOL    HW232712   2.998   2.674   0.742 -0.2369  0.1364  0.3841
 7084SOL     OW32713   0.250   2.483   8.151  0.4665 -0.3095  0.9243
 7084SOL    HW132714   0.238   2.543   8.225  0.6974  1.5193 -0.5050
 7084SOL    HW232715   0.288   2.406   8.193  0.2930 -0.5104  0.7125
 7085SOL     OW32716   1.371   4.026   3.439  0.0624 -0.7461  0.0118
 7085SOL    HW132717   1.385   4.060   3.527 -1.4806  2.2445 -0.9133
 7085SOL    HW232718   1.382   3.931   3.451  0.8549 -0.5744  0.6100
 7086SOL     OW32719   3.889   2.045   8.328  0.2361 -0.5715  0.4762
 7086SOL    HW132720   3.873   1.982   8.259  1.4692  0.9759 -1.2406
 7086SOL    HW232721   3.982   2.065   8.315  0.1341  0.5512  1.4310
 7087SOL     OW32722   2.234   3.375  14.774  0.3685 -0.1499 -0.0061
 7087SOL    HW132723   2.155   3.423  14.800  0.4356 -0.4726  0.7871
 7087SOL    HW232724   2.231   3.292  14.821  2.0466  0.5229  1.2972
 7088SOL     OW32725   2.712   0.922   5.926 -0.3886 -0.4678 -0.4746
 7088SOL    HW132726   2.628   0.883   5.901  0.7327 -2.7092 -0.8140
 7088SOL    HW232727   2.691   1.011   5.951  1.8504  0.6186 -2.4272
 7089SOL     OW32728   1.677   3.076   4.420 -0.0762  0.2835  0.1090
 7089SOL    HW132729   1.647   3.121   4.342 -0.5663  0.2184  0.2598
 7089SOL    HW232730   1.769   3.059   4.399 -0.5319  0.3380 -1.8601
 7090SOL     OW32731   0.903   2.183   5.739 -0.1043  0.2496  0.1896
 7090SOL    HW132732   0.931   2.095   5.714  0.0330  0.7590 -1.4594
 7090SOL    HW232733   0.890   2.211   5.649 -4.1387  1.2513  1.0853
 7091SOL     OW32734   0.192   4.331   3.502  0.1528  0.0418 -0.8736
 7091SOL    HW132735   0.278   4.347   3.465  1.0233 -1.2334  0.5847
 7091SOL    HW232736   0.189   4.239   3.476  2.2758 -0.2202 -0.2044
 7092SOL     OW32737   4.157   3.523  11.570 -0.9864 -0.3043  0.1147
 7092SOL    HW132738   4.152   3.573  11.651 -3.2716 -0.9072  0.3392
 7092SOL    HW232739   4.166   3.595  11.507 -1.2166 -0.4746 -0.1152
 7093SOL     OW32740   2.171   3.324   5.655 -0.0991  0.2980  0.8149
 7093SOL    HW132741   2.212   3.335   5.570  0.3777  1.7480  1.2300
 7093SOL    HW232742   2.249   3.317   5.710 -0.5899  0.5035  1.5327
 7094SOL     OW32743   2.141   1.499   3.372 -0.0286  0.1375 -0.2177
 7094SOL    HW132744   2.106   1.448   3.299  0.8102 -0.8138  0.0423
 7094SOL    HW232745   2.149   1.423   3.430  1.3195 -0.7923 -1.5793
 7095SOL     OW32746   4.135   4.214  17.185  0.1586  0.7029  0.3804
 7095SOL    HW132747   4.206   4.156  17.212  0.1440  0.3396 -0.3594
 7095SOL    HW232748   4.140   4.284  17.250 -0.9417  1.3821 -0.2643
 7096SOL     OW32749   1.389   3.609   6.201  0.3736 -0.1977  0.1850
 7096SOL    HW132750   1.446   3.586   6.274  0.9889  2.1984  0.4471
 7096SOL    HW232751   1.302   3.602   6.241 -0.5928  1.2736 -1.6777
 7097SOL     OW32752   1.800   0.987   5.517  0.0594 -0.1247  0.6095
 7097SOL    HW132753   1.788   1.081   5.528  1.9254  0.3465 -1.2902
 7097SOL    HW232754   1.805   0.968   5.611  1.4139  0.4120  0.6507
 7098SOL     OW32755   4.000   1.050   4.266 -1.0390  0.1219  0.7777
 7098SOL    HW132756   4.003   0.958   4.242  1.1938  0.1746  0.8101
 7098SOL    HW232757   3.973   1.031   4.356 -0.4329 -0.5754  0.8146
 7099SOL     OW32758   2.477   2.100   1.142  0.3348  0.3677  0.4330
 7099SOL    HW132759   2.395   2.145   1.160  1.4628  2.6110 -0.0889
 7099SOL    HW232760   2.453   2.054   1.061  4.4816 -1.5272  0.2710
 7100SOL     OW32761   2.595   3.388   4.593  0.2744  0.0717  0.4915
 7100SOL    HW132762   2.640   3.434   4.663  2.1601  1.0616 -1.3922
 7100SOL    HW232763   2.666   3.359   4.536  1.0831  1.5907  0.7364
 7101SOL     OW32764   3.564   0.351  14.311 -0.1074  0.4508  0.7940
 7101SOL    HW132765   3.579   0.324  14.221  0.6899 -0.1292  1.1024
 7101SOL    HW232766   3.653   0.370  14.340  0.3513  1.1420 -1.0946
 7102SOL     OW32767   1.875   0.079   5.903  0.2235 -1.2684 -0.2898
 7102SOL    HW132768   1.929   0.002   5.922 -1.1750 -1.4891  2.7821
 7102SOL    HW232769   1.898   0.087   5.810 -0.3604  0.4061 -0.2854
 7103SOL     OW32770   1.605   2.377   3.023  0.7043 -0.3833 -0.6906
 7103SOL    HW132771   1.636   2.434   2.952 -0.2862 -0.6106 -1.3013
 7103SOL    HW232772   1.572   2.436   3.091  3.9133 -0.5349  1.0149
 7104SOL     OW32773   4.681   3.851   4.327 -0.0549  0.2442 -0.0521
 7104SOL    HW132774   4.719   3.921   4.275 -0.1548  1.0222  0.9286
 7104SOL    HW232775   4.655   3.782   4.266 -0.3847 -0.6851  1.1328
 7105SOL     OW32776   3.403   2.181  16.811  0.0559  0.3375 -0.0506
 7105SOL    HW132777   3.387   2.092  16.780 -3.9632  0.6574  1.0563
 7105SOL    HW232778   3.412   2.218  16.724  0.8232  1.2236  0.4050
 7106SOL     OW32779   1.377   3.089   2.761 -0.3891  0.2094  0.0295
 7106SOL    HW132780   1.393   3.161   2.821  2.0412 -1.0889  0.9155
 7106SOL    HW232781   1.443   3.093   2.691  0.2948  2.8731  0.8402
 7107SOL     OW32782   4.676   1.077   9.064 -0.1245 -0.0819  0.0821
 7107SOL    HW132783   4.664   0.987   9.094  0.5599  0.0509  0.7428
 7107SOL    HW232784   4.711   1.056   8.977  3.2344  2.1409  0.8928
 7108SOL     OW32785   0.026   2.579   7.721 -0.3944 -0.2094  0.1623
 7108SOL    HW132786   0.116   2.550   7.707  0.2016  1.3620  0.8326
 7108SOL    HW232787   0.036   2.672   7.702  0.3928 -0.7989 -2.3933
 7109SOL     OW32788   0.922   0.631  10.120  0.1128 -0.3994  0.9152
 7109SOL    HW132789   0.871   0.586  10.187  0.6198 -1.1934  0.7688
 7109SOL    HW232790   0.957   0.553  10.077  1.7910  0.5499  0.5228
 7110SOL     OW32791   2.251   2.731   5.003  0.5834  0.1245  0.1640
 7110SOL    HW132792   2.245   2.636   4.993 -0.5790  0.1518  0.5781
 7110SOL    HW232793   2.181   2.757   4.943  2.3079  2.0703 -0.9818
 7111SOL     OW32794   1.050   2.325  11.226 -0.0495  0.4400  0.2672
 7111SOL    HW132795   1.061   2.357  11.316 -3.0824 -0.7684  1.0573
 7111SOL    HW232796   1.107   2.249  11.238 -2.6854 -1.3328  1.6889
 7112SOL     OW32797   2.830   3.290   6.423 -0.1313  0.2116 -0.3770
 7112SOL    HW132798   2.919   3.291   6.388  0.0743 -3.6767 -0.0228
 7112SOL    HW232799   2.832   3.383   6.442  1.7733 -0.0313  0.6870
 7113SOL     OW32800   0.779   1.813   1.981 -0.2490 -0.1895 -0.0399
 7113SOL    HW132801   0.703   1.769   1.944  1.7731 -2.7945 -1.1134
 7113SOL    HW232802   0.744   1.890   2.025 -0.6686 -0.3846 -0.0396
 7114SOL     OW32803   1.942   3.907   9.021  0.0167  0.0115  0.0622
 7114SOL    HW132804   1.984   3.987   8.991  2.2792 -1.2930 -0.1904
 7114SOL    HW232805   2.018   3.850   9.023  1.4022  1.8644  0.7174
 7115SOL     OW32806   2.808   4.579   8.295  0.3868 -0.5041 -0.6000
 7115SOL    HW132807   2.741   4.644   8.314  0.7539 -0.3830  0.2452
 7115SOL    HW232808   2.888   4.625   8.320  1.5284  0.0798 -5.2356
 7116SOL     OW32809   3.011   4.209   6.160 -0.3455 -0.2449 -0.4867
 7116SOL    HW132810   3.058   4.259   6.093 -0.1166  1.0080  0.6168
 7116SOL    HW232811   2.982   4.275   6.223 -1.2306 -0.5624 -0.5669
 7117SOL     OW32812   4.221   2.561   4.267 -0.5108  0.1403 -0.1963
 7117SOL    HW132813   4.310   2.582   4.293 -0.0581  0.1928 -1.7986
 7117SOL    HW232814   4.217   2.483   4.322 -0.6091 -0.1353 -0.5953
 7118SOL     OW32815   1.020   0.318   8.635 -0.0865 -0.3048  0.0406
 7118SOL    HW132816   0.956   0.307   8.706 -0.4123  2.6742  0.2178
 7118SOL    HW232817   1.085   0.379   8.669  0.7284 -1.1736  0.0409
 7119SOL     OW32818   4.709   3.895   6.552  0.1491 -0.4195 -0.1036
 7119SOL    HW132819   4.643   3.829   6.531 -0.3757  0.2154 -0.4772
 7119SOL    HW232820   4.694   3.913   6.644  0.5102  0.9185 -0.2988
 7120SOL     OW32821   3.371   1.946  16.652  0.0519  0.2703  0.3667
 7120SOL    HW132822   3.283   1.974  16.678 -0.9210 -2.1703 -0.2777
 7120SOL    HW232823   3.357   1.933  16.558  1.6917  1.5907 -0.0575
 7121SOL     OW32824   3.715   2.082   3.327 -0.1621  0.5093  0.2419
 7121SOL    HW132825   3.682   2.133   3.253  2.2434  0.1595 -1.0405
 7121SOL    HW232826   3.717   1.995   3.286  0.8781 -0.9421  3.3393
 7122SOL     OW32827   1.143   2.707   2.344  0.0616 -0.6502  0.4444
 7122SOL    HW132828   1.218   2.729   2.400 -1.5084  2.1584  1.4494
 7122SOL    HW232829   1.117   2.625   2.385  0.1631 -1.6390 -1.4421
 7123SOL     OW32830   2.430   0.496  16.680 -0.6518  0.1756  0.0981
 7123SOL    HW132831   2.450   0.590  16.676  1.8848 -0.3111  1.0390
 7123SOL    HW232832   2.463   0.461  16.762  0.4593  1.0974  0.0547
 7124SOL     OW32833   3.033   3.197  12.286 -0.4160 -0.5404  0.4645
 7124SOL    HW132834   3.061   3.198  12.378  0.3052 -2.3146  0.2597
 7124SOL    HW232835   2.987   3.113  12.283 -1.5353  0.1536 -1.6337
 7125SOL     OW32836   1.586   2.615   6.089  0.6374  0.0573  0.3909
 7125SOL    HW132837   1.588   2.588   6.181 -1.0519  1.6366  0.8846
 7125SOL    HW232838   1.502   2.661   6.090  0.5973  0.0012 -0.6532
 7126SOL     OW32839   2.912   0.652  10.771 -0.5230  0.1972  0.1369
 7126SOL    HW132840   2.928   0.670  10.679 -1.6412 -2.3678 -0.5552
 7126SOL    HW232841   2.888   0.739  10.805  0.0531  0.0287  0.9790
 7127SOL     OW32842   3.674   2.886   6.546  0.1997 -0.3153  0.1209
 7127SOL    HW132843   3.693   2.973   6.509  1.1296 -0.6389 -0.1402
 7127SOL    HW232844   3.676   2.840   6.462  2.6675 -2.2712  1.2739
 7128SOL     OW32845   0.104   1.896  10.216 -0.4384 -0.1699  0.2057
 7128SOL    HW132846   0.110   1.944  10.298  0.5610 -0.3614  0.2415
 7128SOL    HW232847   0.082   1.976  10.167  1.7658  1.0890  1.2580
 7129SOL     OW32848   2.977   0.890   8.004 -0.1233 -0.0128  0.4137
 7129SOL    HW132849   2.991   0.969   7.953  0.1789 -0.0271  0.4732
 7129SOL    HW232850   3.012   0.906   8.092  0.0558  1.6001  0.0492
 7130SOL     OW32851   0.809   2.798   1.855 -0.3940 -0.4408  0.0353
 7130SOL    HW132852   0.874   2.731   1.873 -0.7332 -1.0717 -1.1028
 7130SOL    HW232853   0.762   2.803   1.938  0.5206  0.8963  0.4866
 7131SOL     OW32854   1.954   2.588   6.927  0.5023 -0.1840 -0.5662
 7131SOL    HW132855   1.913   2.519   6.875 -1.1802 -1.4482  2.4496
 7131SOL    HW232856   1.880   2.611   6.982  1.0454  1.4015 -0.5033
 7132SOL     OW32857   2.473   4.272  10.010 -0.2997  0.2397  0.1538
 7132SOL    HW132858   2.390   4.309  10.038  0.0822  1.1869  0.0379
 7132SOL    HW232859   2.477   4.296   9.917  0.0371  4.3132  1.2257
 7133SOL     OW32860   3.179   1.475   2.910  0.1347  0.0353  0.0916
 7133SOL    HW132861   3.235   1.535   2.959  1.1477 -0.3196 -0.6392
 7133SOL    HW232862   3.249   1.421   2.875 -0.3708 -0.7824  0.3238
 7134SOL     OW32863   3.493   0.608   4.614 -0.0248  0.1504  0.2564
 7134SOL    HW132864   3.445   0.691   4.603  0.1519  0.1359 -0.6330
 7134SOL    HW232865   3.578   0.641   4.641  0.0973 -0.4389  0.5711
 7135SOL     OW32866   1.508   0.989   3.641 -0.1392  0.2588 -0.3906
 7135SOL    HW132867   1.576   0.988   3.574  0.0723 -2.2184 -0.1506
 7135SOL    HW232868   1.509   1.084   3.645 -0.6873  0.3144 -1.4589
 7136SOL     OW32869   1.597   3.076   3.356  0.3152  0.3280  0.3479
 7136SOL    HW132870   1.656   3.117   3.420  0.8479 -1.0351  0.7256
 7136SOL    HW232871   1.622   2.986   3.334  0.7065  0.6280 -0.4391
 7137SOL     OW32872   2.797   0.878   8.346  0.3129 -0.7436 -0.0789
 7137SOL    HW132873   2.880   0.902   8.303  1.7136  1.6199  3.9092
 7137SOL    HW232874   2.834   0.836   8.424 -0.9223 -0.6599  0.5542
 7138SOL     OW32875   4.086   3.857   5.247 -0.0296 -0.7411 -0.6432
 7138SOL    HW132876   4.110   3.820   5.333  0.2010 -1.5103 -1.0337
 7138SOL    HW232877   4.158   3.918   5.231  1.4997 -2.1005  0.9613
 7139SOL     OW32878   1.030   4.171   6.678 -0.0075 -0.2999 -0.2809
 7139SOL    HW132879   0.953   4.122   6.705 -1.5545  1.2152 -1.9440
 7139SOL    HW232880   1.103   4.113   6.698 -0.6798 -0.6779  1.0664
 7140SOL     OW32881   2.608   3.270   2.271  0.0544 -0.3016  0.1955
 7140SOL    HW132882   2.666   3.300   2.201 -0.9210  2.1164  0.4342
 7140SOL    HW232883   2.526   3.247   2.229  0.9978  1.1529 -2.4456
 7141SOL     OW32884   2.543   0.094   9.956 -0.3697 -0.3851 -0.0411
 7141SOL    HW132885   2.520   0.007   9.925  1.7381 -0.1435 -2.3721
 7141SOL    HW232886   2.540   0.068  10.047 -1.2294  1.1355  0.3722
 7142SOL     OW32887   2.611   0.471   7.431 -0.0801 -0.1898 -0.5211
 7142SOL    HW132888   2.666   0.487   7.508  0.6168  2.6499 -1.6178
 7142SOL    HW232889   2.547   0.415   7.475 -0.0042 -1.5185 -2.1484
 7143SOL     OW32890   3.579   4.449  13.789  0.2102  0.6547 -0.0493
 7143SOL    HW132891   3.604   4.376  13.732  0.6237  1.2086 -0.5797
 7143SOL    HW232892   3.539   4.400  13.861 -0.0147 -0.6034 -1.0184
 7144SOL     OW32893   1.250   1.735  14.000 -0.3444 -0.1740  0.0478
 7144SOL    HW132894   1.311   1.691  14.059 -1.2518  0.4677  1.4736
 7144SOL    HW232895   1.238   1.676  13.926 -1.3980 -1.1751  0.9906
 7145SOL     OW32896   3.278   3.362   1.342 -0.4465 -0.1556 -0.2905
 7145SOL    HW132897   3.322   3.388   1.423 -0.2289 -0.9596 -0.1577
 7145SOL    HW232898   3.253   3.273   1.364  2.0221 -0.5551  0.9226
 7146SOL     OW32899   3.476   0.195  17.250 -0.1956  0.1765  0.8562
 7146SOL    HW132900   3.489   0.102  17.271  4.5138  0.6077 -0.3154
 7146SOL    HW232901   3.408   0.210  17.316 -2.0205 -0.0514 -0.9473
 7147SOL     OW32902   4.082   3.526   5.569 -0.1668 -0.0156  0.0320
 7147SOL    HW132903   4.146   3.483   5.625  2.6654  4.0042 -0.1003
 7147SOL    HW232904   4.125   3.611   5.560 -1.6691  0.7906  0.4710
 7148SOL     OW32905   1.889   0.460   9.334  0.4670 -0.4825  0.0115
 7148SOL    HW132906   1.970   0.464   9.386  1.4650 -0.3367 -1.5459
 7148SOL    HW232907   1.923   0.431   9.249 -2.0303 -1.3700 -0.6820
 7149SOL     OW32908   1.096   0.599  13.331 -0.4077 -0.2214  0.1448
 7149SOL    HW132909   1.030   0.607  13.262  0.3223 -0.4859 -0.5871
 7149SOL    HW232910   1.067   0.517  13.369 -2.7155  1.2641  1.5788
 7150SOL     OW32911   0.754   3.710   4.231 -0.5639 -0.3259  0.1078
 7150SOL    HW132912   0.802   3.721   4.313 -0.8264 -0.9455  0.3479
 7150SOL    HW232913   0.762   3.794   4.186 -1.0999  0.5161  1.6068
 7151SOL     OW32914   0.446   0.406   3.748 -0.5086  0.5201  0.2648
 7151SOL    HW132915   0.379   0.405   3.680  1.4386 -0.0401 -1.6491
 7151SOL    HW232916   0.524   0.419   3.693 -1.8313  2.9745 -1.0355
 7152SOL     OW32917   0.076   2.021  16.464  0.0039 -0.1340 -0.0152
 7152SOL    HW132918   0.100   2.030  16.557 -2.9133 -1.5541  0.8729
 7152SOL    HW232919   0.125   2.088  16.416  0.0359 -0.3966 -0.3468
 7153SOL     OW32920   4.017   2.405   0.826 -0.3822  0.2761  0.1988
 7153SOL    HW132921   3.996   2.312   0.830 -0.9513  0.3258 -1.4341
 7153SOL    HW232922   4.090   2.404   0.888  0.3170  0.1671 -0.6235
 7154SOL     OW32923   4.458   3.036   6.966 -0.5041 -0.0794 -0.2329
 7154SOL    HW132924   4.481   3.117   7.012  0.1285 -0.1331 -0.4584
 7154SOL    HW232925   4.457   3.059   6.873  0.6701  1.6516  0.1801
 7155SOL     OW32926   1.943   2.924  14.360 -0.2303 -0.5241  0.6570
 7155SOL    HW132927   1.915   2.872  14.284  1.9522 -1.8046  0.7342
 7155SOL    HW232928   2.008   2.984  14.324 -2.7984  0.4649 -2.2606
 7156SOL     OW32929   4.491   3.799   6.938 -0.1605  0.4108 -0.1045
 7156SOL    HW132930   4.514   3.707   6.941 -0.0073  0.5355  2.3733
 7156SOL    HW232931   4.516   3.831   7.025  1.8900 -1.9693  0.1503
 7157SOL     OW32932   0.323   1.374   6.205 -0.3348 -0.1040  0.0330
 7157SOL    HW132933   0.251   1.332   6.252 -1.4465 -0.1154 -1.7042
 7157SOL    HW232934   0.359   1.306   6.148  0.3871  0.1044  0.2402
 7158SOL     OW32935   3.289   0.288  10.213  0.7744 -0.0176 -0.8060
 7158SOL    HW132936   3.214   0.255  10.261  0.8927  1.1301  0.1570
 7158SOL    HW232937   3.246   0.349  10.153 -0.2276  1.0348  0.9765
 7159SOL     OW32938   0.111   1.317  16.352 -0.4413  0.0638  0.2416
 7159SOL    HW132939   0.139   1.317  16.261  0.1133  0.2492  0.4174
 7159SOL    HW232940   0.185   1.274  16.394  0.4407 -1.4654 -2.9201
 7160SOL     OW32941   0.005   3.956   7.854 -0.7805 -0.2515 -0.3685
 7160SOL    HW132942   4.689   3.874   7.826 -2.1758  0.2229  0.2677
 7160SOL    HW232943   4.717   3.945   7.949  0.4839 -1.8620 -0.3888
 7161SOL     OW32944   3.378   2.060   8.127  0.2974 -0.0031 -0.1657
 7161SOL    HW132945   3.353   2.068   8.219 -1.6066  2.2081 -0.8799
 7161SOL    HW232946   3.461   2.016   8.141  0.5119  0.0364 -1.2849
 7162SOL     OW32947   0.851   3.583   4.634  0.2291 -0.5835  0.1951
 7162SOL    HW132948   0.879   3.667   4.671  0.0527 -0.0342 -0.9068
 7162SOL    HW232949   0.777   3.565   4.691 -0.4441  0.8867 -0.2069
 7163SOL     OW32950   0.288   4.184  14.821 -0.0565  0.2384  0.6901
 7163SOL    HW132951   0.290   4.235  14.902 -1.3820 -0.0217  0.8874
 7163SOL    HW232952   0.213   4.223  14.778 -0.0012 -1.1426 -0.6481
 7164SOL     OW32953   2.667   4.134  13.651 -0.0423  0.0684 -0.2442
 7164SOL    HW132954   2.645   4.216  13.608  1.2262  1.0435  0.9764
 7164SOL    HW232955   2.706   4.170  13.731 -1.4132  2.2963 -0.5799
 7165SOL     OW32956   2.460   2.119   8.003  0.1853  0.5077  0.1725
 7165SOL    HW132957   2.449   2.109   7.908  0.9667  1.0579  0.0253
 7165SOL    HW232958   2.491   2.033   8.030  0.8582  0.8946  0.6252
 7166SOL     OW32959   4.445   3.446   7.916  0.3828  0.0060  0.0311
 7166SOL    HW132960   4.415   3.463   8.005  0.2071 -1.0247  0.1725
 7166SOL    HW232961   4.370   3.392   7.891  0.3626 -0.0900  0.2916
 7167SOL     OW32962   3.248   2.927   8.202 -0.0095 -0.2330  0.3813
 7167SOL    HW132963   3.317   2.865   8.224  0.0618  0.3010  1.6422
 7167SOL    HW232964   3.196   2.918   8.282 -1.6691  0.1702 -0.6583
 7168SOL     OW32965   0.615   0.871   7.898 -0.2014 -0.1505  0.6366
 7168SOL    HW132966   0.647   0.916   7.820 -1.3405 -1.6791 -0.7060
 7168SOL    HW232967   0.691   0.861   7.955  3.0300  4.0509 -2.9496
 7169SOL     OW32968   1.409   1.678  12.842  0.9130 -0.1762  0.2989
 7169SOL    HW132969   1.436   1.770  12.836 -0.2952  0.0445 -1.7665
 7169SOL    HW232970   1.460   1.647  12.917 -0.4389 -1.3243  0.7250
 7170SOL     OW32971   2.532   4.452   7.337 -0.1372  0.4103 -0.0776
 7170SOL    HW132972   2.607   4.435   7.280  0.1957 -2.0214  1.1271
 7170SOL    HW232973   2.522   4.362   7.367 -0.9080  0.4366 -0.2399
 7171SOL     OW32974   2.925   1.280   1.513  0.0450  0.1071  0.2495
 7171SOL    HW132975   2.865   1.321   1.575 -0.2304 -1.6694  1.1593
 7171SOL    HW232976   3.008   1.263   1.558  0.1303 -2.4393 -0.9094
 7172SOL     OW32977   3.188   2.737   2.549  0.2742 -0.2192 -0.9443
 7172SOL    HW132978   3.117   2.673   2.541 -0.6061  0.5587  0.6612
 7172SOL    HW232979   3.135   2.816   2.551  1.6369  0.5900  2.2493
 7173SOL     OW32980   0.995   4.455  12.470 -0.1917 -0.3140  0.3505
 7173SOL    HW132981   1.025   4.377  12.424 -1.1921 -0.8595  0.6139
 7173SOL    HW232982   1.015   4.527  12.409 -2.3286  2.2610  2.6647
 7174SOL     OW32983   4.263   0.075  11.324  0.1399  0.3209  0.0045
 7174SOL    HW132984   4.302   0.019  11.257  1.1504  0.4666  0.4665
 7174SOL    HW232985   4.248   0.001  11.384  0.9558 -0.1584 -0.3762
 7175SOL     OW32986   3.666   3.983   8.718 -0.1556 -0.1117  0.0879
 7175SOL    HW132987   3.654   4.018   8.630 -2.0669  0.2461  0.4966
 7175SOL    HW232988   3.713   4.052   8.764  0.4042 -0.0238 -0.6234
 7176SOL     OW32989   3.547   3.607   8.855 -0.6287 -0.1880  0.1322
 7176SOL    HW132990   3.453   3.597   8.837 -0.6880  2.4702 -1.0346
 7176SOL    HW232991   3.577   3.517   8.846 -0.4042 -0.3357  2.3597
 7177SOL     OW32992   2.306   4.535   5.337  0.2221  0.2920 -0.0416
 7177SOL    HW132993   2.273   4.618   5.370  0.4763  0.7636 -0.9648
 7177SOL    HW232994   2.229   4.479   5.329 -0.2671  0.8543  0.7336
 7178SOL     OW32995   1.534   0.466  12.469 -0.7744 -0.3886  0.6711
 7178SOL    HW132996   1.583   0.486  12.390  0.4385  0.8721  1.7409
 7178SOL    HW232997   1.483   0.546  12.479  0.0559  0.0463  1.4696
 7179SOL     OW32998   3.369   3.553   4.502 -0.3882 -0.6472 -0.3293
 7179SOL    HW132999   3.394   3.639   4.536 -0.4686 -1.0061  0.6244
 7179SOL    HW233000   3.448   3.521   4.458  0.4674  1.6615 -0.5033
 7180SOL     OW33001   0.945   1.637   5.696 -0.8520  0.4002  0.2279
 7180SOL    HW133002   0.894   1.558   5.715 -0.1601 -0.3321 -1.0014
 7180SOL    HW233003   0.986   1.611   5.614  1.8036  0.2456  1.6053
 7181SOL     OW33004   2.791   1.634   9.263 -0.4600  0.1366  0.1178
 7181SOL    HW133005   2.863   1.662   9.206  1.6862 -2.1559  1.6495
 7181SOL    HW233006   2.729   1.704   9.243 -0.1252  0.4450  0.1629
 7182SOL     OW33007   3.902   3.517   6.756 -0.5030 -0.5017  0.0586
 7182SOL    HW133008   3.818   3.494   6.795 -0.9328 -0.2566 -0.7013
 7182SOL    HW233009   3.921   3.601   6.798  0.0504  1.5831 -4.2424
 7183SOL     OW33010   3.097   1.397   1.892 -0.0147 -0.5096  0.0843
 7183SOL    HW133011   3.106   1.474   1.947 -0.9740 -0.0377 -0.4177
 7183SOL    HW233012   3.092   1.428   1.801  2.0088 -0.3822  0.0062
 7184SOL     OW33013   2.875   0.753   8.540  0.0605 -0.0922  0.1550
 7184SOL    HW133014   2.928   0.689   8.587  1.2766  0.3242 -0.6514
 7184SOL    HW233015   2.830   0.799   8.611 -1.3466  0.3645 -1.0506
 7185SOL     OW33016   1.582   1.551  13.057  0.4683  0.2623 -0.2034
 7185SOL    HW133017   1.663   1.500  13.062  1.2560  1.5415  0.1732
 7185SOL    HW233018   1.574   1.592  13.143 -0.0611  0.3384 -0.2886
 7186SOL     OW33019   2.250   1.264   5.890 -0.0316  0.0961 -0.4763
 7186SOL    HW133020   2.271   1.333   5.953  0.6499  0.5600 -1.2028
 7186SOL    HW233021   2.218   1.315   5.815  0.5662 -0.0212 -0.8151
 7187SOL     OW33022   4.364   0.806  11.605  0.4995  0.4634 -0.3618
 7187SOL    HW133023   4.300   0.838  11.541  0.2993  0.3392 -0.2237
 7187SOL    HW233024   4.328   0.726  11.645 -2.7536  2.2376  0.2969
 7188SOL     OW33025   0.316   0.912   6.908  0.1820  0.3871 -0.3955
 7188SOL    HW133026   0.365   0.878   6.983 -0.2417  1.8132  0.5434
 7188SOL    HW233027   0.226   0.899   6.938  0.1776 -2.2942 -1.6360
 7189SOL     OW33028   3.878   2.487   6.661 -0.3654 -0.2266 -0.1563
 7189SOL    HW133029   3.905   2.474   6.752 -0.6709  1.4722  0.1792
 7189SOL    HW233030   3.816   2.560   6.673  1.1751  1.0557  0.0104
 7190SOL     OW33031   0.804   0.787   7.320  0.7745 -0.3723 -0.3332
 7190SOL    HW133032   0.841   0.722   7.261  3.5047  0.5327  0.3658
 7190SOL    HW233033   0.859   0.772   7.397 -0.1384  1.2376  0.6273
 7191SOL     OW33034   1.729   1.972  14.090  0.0375 -0.3507 -0.0759
 7191SOL    HW133035   1.797   2.039  14.099  0.6429 -0.9120 -0.4594
 7191SOL    HW233036   1.705   1.985  13.998 -1.1563  1.2071  0.4464
 7192SOL     OW33037   1.852   1.396   7.124  0.1280  0.3997 -0.3724
 7192SOL    HW133038   1.783   1.460   7.106 -0.3575 -0.4580 -1.5436
 7192SOL    HW233039   1.846   1.332   7.053 -2.5766  2.7683 -2.3023
 7193SOL     OW33040   4.191   3.511   6.764  0.2431 -0.1191 -0.8756
 7193SOL    HW133041   4.212   3.577   6.698  0.8435  1.1616  0.5898
 7193SOL    HW233042   4.096   3.502   6.756  0.3440 -2.6071  1.0259
 7194SOL     OW33043   3.856   1.494  12.116  0.7363 -0.6245 -0.2718
 7194SOL    HW133044   3.937   1.453  12.086  1.1050  0.0582 -0.2078
 7194SOL    HW233045   3.857   1.578  12.070  2.1306  0.6510  2.1126
 7195SOL     OW33046   4.011   2.058   8.709 -0.1762 -0.5355  0.1616
 7195SOL    HW133047   3.992   2.010   8.789  1.9292 -0.5207  0.6841
 7195SOL    HW233048   4.077   2.114   8.750 -0.4222  1.4605 -2.1240
 7196SOL     OW33049   2.696   1.145   9.145  0.1210  0.0658 -0.3564
 7196SOL    HW133050   2.616   1.111   9.186  2.1347 -3.0151  0.9998
 7196SOL    HW233051   2.671   1.237   9.140  0.2157  0.1251  0.2864
 7197SOL     OW33052   1.357   1.930   7.099  0.0652 -0.0276 -0.1072
 7197SOL    HW133053   1.390   1.986   7.029 -1.2513  1.2017  0.2644
 7197SOL    HW233054   1.285   1.884   7.056  2.4932 -1.8357 -2.2253
 7198SOL     OW33055   3.145   0.900   4.810 -0.5675 -0.1646 -0.3871
 7198SOL    HW133056   3.086   0.942   4.872 -0.2950 -0.0721 -0.1893
 7198SOL    HW233057   3.213   0.967   4.810  0.0562 -0.7993  0.6189
 7199SOL     OW33058   1.337   3.331   4.338 -0.0442  0.4562  0.2088
 7199SOL    HW133059   1.309   3.350   4.249 -1.6682 -0.1959  0.5734
 7199SOL    HW233060   1.408   3.395   4.347 -0.4820  1.2208 -1.8435
 7200SOL     OW33061   1.571   3.184   2.971  0.7964  0.0731 -0.6159
 7200SOL    HW133062   1.658   3.217   2.948 -0.2575  1.5523 -2.4404
 7200SOL    HW233063   1.588   3.094   2.942 -3.5746 -1.4780  1.7383
 7201SOL     OW33064   4.353   1.496   4.660 -0.2232 -0.0545  0.4157
 7201SOL    HW133065   4.282   1.551   4.692  0.0270 -0.0370  0.9448
 7201SOL    HW233066   4.409   1.556   4.611  0.1520 -0.3193  0.5190
 7202SOL     OW33067   1.140   4.677   2.911  0.2306 -0.1607  0.0119
 7202SOL    HW133068   1.066   4.639   2.865 -0.3769 -0.6700  1.3869
 7202SOL    HW233069   1.164   0.018   2.847  0.5880 -1.2916 -1.0262
 7203SOL     OW33070   0.638   2.478   9.278 -0.4259  0.1431 -0.1305
 7203SOL    HW133071   0.720   2.502   9.234  0.3481 -0.9820  0.7074
 7203SOL    HW233072   0.660   2.520   9.361  0.9822  2.5371 -1.7091
 7204SOL     OW33073   3.579   3.934   5.038 -0.0605  0.5077 -0.6001
 7204SOL    HW133074   3.502   3.886   5.008 -0.6118  0.8680  0.2403
 7204SOL    HW233075   3.644   3.900   4.976 -0.5794  0.4200 -1.0864
 7205SOL     OW33076   3.751   0.689   4.651  0.5317  0.1065 -0.2582
 7205SOL    HW133077   3.824   0.632   4.676  0.6679  1.2416  1.8536
 7205SOL    HW233078   3.776   0.771   4.692 -1.1456  0.6412 -0.2793
 7206SOL     OW33079   1.035   4.649  12.288 -0.2485 -0.1478 -0.1216
 7206SOL    HW133080   1.064   4.642  12.197  1.9884 -0.5787  0.6054
 7206SOL    HW233081   1.107   4.701  12.325  0.2793 -0.5470 -0.5714
 7207SOL     OW33082   3.596   2.319   0.933 -0.1336 -0.1178 -1.0568
 7207SOL    HW133083   3.683   2.280   0.925 -0.5379 -0.6539 -3.0532
 7207SOL    HW233084   3.625   2.389   0.990 -1.5261 -0.7423  0.4206
 7208SOL     OW33085   2.254   2.858   3.399 -0.2572  0.1760 -0.5426
 7208SOL    HW133086   2.316   2.891   3.464 -1.1604 -2.0871  1.4759
 7208SOL    HW233087   2.181   2.919   3.411 -0.3748  0.2034 -1.4552
 7209SOL     OW33088   4.247   0.904   4.316 -0.0185 -0.6000  0.0456
 7209SOL    HW133089   4.267   0.982   4.368 -0.3610  0.0685 -0.8347
 7209SOL    HW233090   4.160   0.887   4.352 -1.1760  3.2309 -0.9314
 7210SOL     OW33091   0.548   3.251   4.586  0.0080 -0.3673 -0.3875
 7210SOL    HW133092   0.503   3.229   4.667 -1.6161  0.4140 -1.0737
 7210SOL    HW233093   0.468   3.255   4.533 -0.0760 -1.5029 -0.3382
 7211SOL     OW33094   2.806   0.989   0.989 -1.2520  0.4974 -0.0632
 7211SOL    HW133095   2.837   0.991   1.080 -1.7449 -0.6712  0.1224
 7211SOL    HW233096   2.790   0.898   0.967  1.0452  0.0186  0.2310
 7212SOL     OW33097   0.132   0.062   8.141  0.1978 -0.0428 -0.1981
 7212SOL    HW133098   0.144   0.157   8.131  0.0578 -0.1451 -1.3743
 7212SOL    HW233099   0.107   0.018   8.060  1.7764  0.9989 -1.2688
 7213SOL     OW33100   0.324   3.260  12.274  0.8463 -0.3240 -0.1316
 7213SOL    HW133101   0.288   3.293  12.192  1.7896  0.1474 -0.3549
 7213SOL    HW233102   0.363   3.178  12.243 -1.6930 -1.6625  0.2018
 7214SOL     OW33103   1.563   3.388  17.343 -0.5398  0.1546 -0.3588
 7214SOL    HW133104   1.526   3.473  17.365  0.3400  0.1419  1.1529
 7214SOL    HW233105   1.483   3.336  17.345 -0.7450  0.5449  0.9876
 7215SOL     OW33106   1.728   0.982   1.794  0.3178 -0.8824  0.0119
 7215SOL    HW133107   1.732   1.051   1.860  0.2525  0.7912 -1.7439
 7215SOL    HW233108   1.650   0.938   1.827 -0.1638 -0.2714 -0.3208
 7216SOL     OW33109   1.349   4.202  17.323  0.0686 -0.0618 -0.2428
 7216SOL    HW133110   1.291   4.251  17.265 -2.1531 -0.5358  1.5742
 7216SOL    HW233111   1.406   4.166  17.254 -2.0083 -2.3539 -0.7363
 7217SOL     OW33112   2.833   3.447   5.692  0.1821 -0.1785 -0.1224
 7217SOL    HW133113   2.858   3.368   5.645  0.8493  0.7152 -1.2871
 7217SOL    HW233114   2.741   3.441   5.669  0.0816  1.0771 -0.0567
 7218SOL     OW33115   0.680   0.250  16.595 -0.7743 -0.0011  0.5873
 7218SOL    HW133116   0.600   0.205  16.568 -0.7907  0.5481 -0.2637
 7218SOL    HW233117   0.709   0.185  16.659 -0.8221 -0.1246  0.4813
 7219SOL     OW33118   1.141   3.207   0.894  0.2220 -0.0652  0.0661
 7219SOL    HW133119   1.224   3.244   0.865  0.1034  0.0732 -0.0928
 7219SOL    HW233120   1.091   3.288   0.880 -0.7123 -0.4374  1.2019
 7220SOL     OW33121   2.400   4.663   9.487 -0.2675 -0.1246  0.0615
 7220SOL    HW133122   2.373   4.572   9.481  1.2265 -0.6112  0.8323
 7220SOL    HW233123   2.475   4.655   9.546 -0.5643  1.5997  0.6893
 7221SOL     OW33124   1.716   3.135   2.614 -0.0201  0.3520  0.0503
 7221SOL    HW133125   1.721   3.120   2.708 -0.2470 -2.3174 -0.3616
 7221SOL    HW233126   1.732   3.044   2.590  1.9087  0.8660 -0.6027
 7222SOL     OW33127   3.775   2.662   0.345  0.2294 -0.0448 -0.1273
 7222SOL    HW133128   3.710   2.732   0.352 -0.8422 -1.0339 -0.1776
 7222SOL    HW233129   3.766   2.648   0.251 -1.9438 -0.9428  0.2211
 7223SOL     OW33130   2.413   2.708   5.306  0.4476 -0.5856  0.2505
 7223SOL    HW133131   2.504   2.700   5.334  0.6347 -1.6851 -0.6555
 7223SOL    HW233132   2.409   2.647   5.233 -1.7146 -0.9783  0.6963
 7224SOL     OW33133   0.157   0.148   8.772 -0.2036  0.1020 -0.1068
 7224SOL    HW133134   0.213   0.206   8.824  0.8918 -0.7839 -0.3157
 7224SOL    HW233135   0.105   0.112   8.844  0.9887  1.3374  1.3907
 7225SOL     OW33136   0.472   1.493   4.157 -0.0711 -0.0800  0.5925
 7225SOL    HW133137   0.489   1.405   4.191  1.8621  0.1759  0.2893
 7225SOL    HW233138   0.393   1.473   4.106  0.6555 -0.9409 -0.2098
 7226SOL     OW33139   0.757   4.628  12.396  0.6031  0.4811 -0.1904
 7226SOL    HW133140   0.834   4.668  12.436  1.5932 -0.7947 -0.8331
 7226SOL    HW233141   0.789   4.551  12.349  0.7019 -0.6320  1.6968
 7227SOL     OW33142   4.289   1.381   3.405 -0.2600 -0.2371  0.1469
 7227SOL    HW133143   4.238   1.404   3.483 -0.3447  1.7323 -0.4973
 7227SOL    HW233144   4.354   1.451   3.401  0.8941 -1.3722 -1.0786
 7228SOL     OW33145   2.931   2.791   6.178  0.2972 -0.4854  0.1308
 7228SOL    HW133146   2.997   2.735   6.218 -1.4633 -2.4034  0.3873
 7228SOL    HW233147   2.929   2.871   6.230  2.1247  0.1582 -0.8042
 7229SOL     OW33148   2.107   2.806   5.728 -0.0620  0.0595 -0.2174
 7229SOL    HW133149   2.137   2.896   5.736 -1.0577  0.4861 -1.3313
 7229SOL    HW233150   2.165   2.764   5.663  0.6229 -2.0346  1.7427
 7230SOL     OW33151   1.911   1.819  10.236  0.2981 -0.2570  0.1056
 7230SOL    HW133152   1.980   1.753  10.234 -0.1773 -0.7196 -1.2447
 7230SOL    HW233153   1.902   1.820  10.331  0.8030  1.6943  0.1478
 7231SOL     OW33154   0.057   4.245   3.875 -0.4795  0.3618 -0.0972
 7231SOL    HW133155   0.110   4.257   3.797  0.9844  1.0181  1.0012
 7231SOL    HW233156   4.718   4.179   3.849  0.4848 -0.3610 -0.6065
 7232SOL     OW33157   2.232   3.591   9.418  0.3904  0.2316  0.2683
 7232SOL    HW133158   2.254   3.533   9.491 -0.0953 -1.2478 -0.7486
 7232SOL    HW233159   2.189   3.661   9.466  2.2870  1.5306  0.0897
 7233SOL     OW33160   1.129   1.376  12.453  0.1379  0.0881  0.1883
 7233SOL    HW133161   1.045   1.361  12.495  0.2546 -0.1797  0.3258
 7233SOL    HW233162   1.145   1.455  12.505  0.8425 -0.7733  1.2787
 7234SOL     OW33163   4.198   2.405   9.749  0.1964 -0.2209  0.3922
 7234SOL    HW133164   4.268   2.346   9.720  1.3825  0.6145  1.5506
 7234SOL    HW233165   4.144   2.429   9.674 -2.4034  0.1313  2.3753
 7235SOL     OW33166   3.056   0.615   1.638  0.0435 -0.1217 -0.2539
 7235SOL    HW133167   3.052   0.520   1.621  0.1049 -0.1361 -0.1856
 7235SOL    HW233168   3.059   0.647   1.548  0.2480  0.8147  0.0888
 7236SOL     OW33169   4.185   4.570  13.089 -0.9989  0.0487  0.2583
 7236SOL    HW133170   4.224   4.658  13.086 -2.5117  0.7010 -0.0469
 7236SOL    HW233171   4.142   4.574  13.174  0.4378  1.0038  0.9488
 7237SOL     OW33172   4.379   1.223   5.885  0.5833  0.3596 -0.5550
 7237SOL    HW133173   4.459   1.251   5.929  0.0681  0.5820  0.2547
 7237SOL    HW233174   4.358   1.306   5.842 -2.4685 -0.4705 -0.6820
 7238SOL     OW33175   2.326   0.738   9.998  0.9552 -0.6050  0.7140
 7238SOL    HW133176   2.276   0.817   9.980  0.3780 -0.8636  1.1979
 7238SOL    HW233177   2.262   0.669  10.015  1.2068 -0.6735  1.4192
 7239SOL     OW33178   1.455   3.528   5.481  0.1579  0.2388  0.3662
 7239SOL    HW133179   1.550   3.531   5.496 -0.1828 -0.3443  2.6843
 7239SOL    HW233180   1.433   3.481   5.561 -1.8948  0.1615 -0.2494
 7240SOL     OW33181   2.416   2.416   0.371  0.2630  0.5380 -0.3890
 7240SOL    HW133182   2.397   2.507   0.349 -0.5247  0.7174  1.0429
 7240SOL    HW233183   2.376   2.370   0.297  0.5351 -2.3651  1.2572
 7241SOL     OW33184   1.749   4.027   3.621 -0.2180 -0.4372  0.9751
 7241SOL    HW133185   1.803   4.090   3.669 -1.6762  1.0521  0.6629
 7241SOL    HW233186   1.822   3.975   3.589  0.2967  0.1678  1.1633
 7242SOL     OW33187   0.866   0.026   5.584  0.3127  0.1963  0.3123
 7242SOL    HW133188   0.935   4.688   5.605 -0.0480  0.0688  1.0988
 7242SOL    HW233189   0.888   0.093   5.648 -1.3898  0.8888  0.1804
 7243SOL     OW33190   2.863   2.480   1.139 -0.3197  0.0192  0.3991
 7243SOL    HW133191   2.939   2.455   1.191  0.3176 -0.4183 -0.7459
 7243SOL    HW233192   2.819   2.398   1.158 -0.7538  0.4565  1.2552
 7244SOL     OW33193   4.290   4.601   6.051  0.5334  0.1775 -0.4443
 7244SOL    HW133194   4.210   4.552   6.036  0.8251 -0.1278 -0.9994
 7244SOL    HW233195   4.292   4.611   6.146 -1.1427  0.9964 -0.4913
 7245SOL     OW33196   4.300   1.791  13.452  0.0665 -0.9279  0.1695
 7245SOL    HW133197   4.238   1.833  13.512  0.1192  1.2805 -1.3062
 7245SOL    HW233198   4.335   1.739  13.524  1.1675  1.8031  1.5963
 7246SOL     OW33199   2.931   0.177   1.998 -0.2844 -0.4893  0.0419
 7246SOL    HW133200   3.021   0.173   2.029 -0.7009 -2.0626  1.0829
 7246SOL    HW233201   2.913   0.271   1.995 -2.2154 -0.8117  1.0292
 7247SOL     OW33202   3.602   1.060   2.379 -0.1995 -0.0443 -0.2179
 7247SOL    HW133203   3.552   0.981   2.359  1.6177 -1.0349 -0.8181
 7247SOL    HW233204   3.677   1.038   2.323 -0.2449 -2.6243  0.7367
 7248SOL     OW33205   3.536   2.775  15.168  0.4124  0.3404 -0.0760
 7248SOL    HW133206   3.539   2.818  15.254 -2.0416  0.6353 -0.1482
 7248SOL    HW233207   3.444   2.752  15.162  0.0861  1.8312 -0.6022
 7249SOL     OW33208   1.840   4.125   9.600 -0.0183  0.1308  0.0291
 7249SOL    HW133209   1.760   4.155   9.558 -0.5541 -2.3496 -0.7182
 7249SOL    HW233210   1.805   4.044   9.639 -0.0812  0.5355  0.8153
 7250SOL     OW33211   3.427   3.917   6.336 -0.3729 -0.2655  0.0318
 7250SOL    HW133212   3.358   3.882   6.392 -3.2918  3.1728 -1.3950
 7250SOL    HW233213   3.484   3.958   6.401 -0.6313 -0.5727  0.4513
 7251SOL     OW33214   3.517   3.401  13.351 -0.2170 -0.2352  0.2061
 7251SOL    HW133215   3.424   3.418  13.335  0.4020  3.1081  0.0739
 7251SOL    HW233216   3.547   3.410  13.260 -1.7416 -0.1239 -0.2826
 7252SOL     OW33217   1.569   0.222   7.129  0.7625  0.5451  0.2221
 7252SOL    HW133218   1.643   0.203   7.071 -0.0005 -0.0324 -0.5493
 7252SOL    HW233219   1.589   0.163   7.202  2.5142 -1.6755 -2.0514
 7253SOL     OW33220   1.044   0.786   4.627 -0.0653 -0.2538 -0.0733
 7253SOL    HW133221   1.046   0.691   4.638  0.3377 -0.0491  1.5540
 7253SOL    HW233222   1.078   0.814   4.712  0.5247  1.9736 -1.0509
 7254SOL     OW33223   2.376   3.476   8.929  0.0999  0.6219  0.3537
 7254SOL    HW133224   2.336   3.533   8.995  2.4271  1.2134  1.2531
 7254SOL    HW233225   2.320   3.403   8.903  0.1785  0.8224 -0.3931
 7255SOL     OW33226   1.761   0.708   3.688 -0.5168 -0.1665 -0.0063
 7255SOL    HW133227   1.707   0.658   3.627  0.7982 -1.0021 -0.4966
 7255SOL    HW233228   1.735   0.799   3.674  1.3050  0.3967  0.3151
 7256SOL     OW33229   0.047   4.369   4.413 -0.3166  0.2873 -0.1096
 7256SOL    HW133230   4.696   4.312   4.401  0.1821 -0.0200 -1.8651
 7256SOL    HW233231   0.016   4.449   4.372  0.9078  0.4092 -0.8154
 7257SOL     OW33232   2.173   3.138  14.454 -0.0131 -0.5801 -0.2245
 7257SOL    HW133233   2.162   3.096  14.539  0.8171  1.5540  0.9061
 7257SOL    HW233234   2.268   3.136  14.448  0.0776 -0.4128  1.2168
 7258SOL     OW33235   2.008   2.375  10.242 -0.1832 -0.3822 -0.5643
 7258SOL    HW133236   1.975   2.368  10.153  0.1145  2.1466 -0.8850
 7258SOL    HW233237   1.956   2.306  10.284 -0.7586 -0.5766 -1.5897
 7259SOL     OW33238   3.258   1.678  10.569 -0.3143 -0.5380  0.2583
 7259SOL    HW133239   3.223   1.659  10.482 -0.8184  0.7299  0.1868
 7259SOL    HW233240   3.180   1.648  10.615 -1.4350 -0.4865 -1.5773
 7260SOL     OW33241   3.221   3.984   7.205  0.0068 -0.1787  0.2912
 7260SOL    HW133242   3.313   3.986   7.233 -0.2414 -0.6374  1.1635
 7260SOL    HW233243   3.235   4.009   7.114  1.6415 -0.5516  0.4494
 7261SOL     OW33244   4.575   3.543  17.082 -0.1880  0.7690  0.1593
 7261SOL    HW133245   4.552   3.633  17.059 -1.6590  0.4426  0.3145
 7261SOL    HW233246   4.593   3.504  16.996  0.0488 -0.3869  0.7359
 7262SOL     OW33247   1.920   0.292   8.073  0.1364 -0.4140 -0.0772
 7262SOL    HW133248   1.923   0.230   8.147 -1.6577  0.8899  1.1021
 7262SOL    HW233249   1.965   0.258   7.996  1.2815  1.9591 -0.4279
 7263SOL     OW33250   0.510   0.125   2.450 -0.1568 -0.1460 -0.5492
 7263SOL    HW133251   0.453   0.050   2.469 -0.4422  0.0473 -0.6486
 7263SOL    HW233252   0.452   0.200   2.440  1.6623  1.1526 -1.2500
 7264SOL     OW33253   1.693   3.002   6.085  0.7004 -0.0113 -0.7580
 7264SOL    HW133254   1.726   3.021   6.173  1.9199 -2.3475 -0.6969
 7264SOL    HW233255   1.606   3.041   6.079 -0.1600 -1.9875 -0.8495
 7265SOL     OW33256   2.342   2.624   6.006  0.2483  0.4983 -0.6163
 7265SOL    HW133257   2.436   2.615   6.021  0.1745 -2.0370 -1.5829
 7265SOL    HW233258   2.327   2.718   6.010 -1.3804  0.2450 -1.0292
 7266SOL     OW33259   4.404   4.214   3.406  0.5452 -0.0410 -0.2644
 7266SOL    HW133260   4.342   4.283   3.433  0.8573  0.6987 -1.4193
 7266SOL    HW233261   4.481   4.255   3.445  0.1915 -0.8411  1.2667
 7267SOL     OW33262   3.971   1.334   3.284 -0.5565  0.1705  0.0220
 7267SOL    HW133263   3.953   1.345   3.190  3.3041  1.3819 -0.5671
 7267SOL    HW233264   4.005   1.245   3.271  0.0976  0.3792  0.3542
 7268SOL     OW33265   3.038   3.696   6.863  0.1985  0.0399  0.6574
 7268SOL    HW133266   2.945   3.714   6.857  0.2355 -0.3957 -1.1743
 7268SOL    HW233267   3.040   3.626   6.928  0.0552 -2.0778 -1.6502
 7269SOL     OW33268   2.941   3.239   4.897  0.9751  0.5609 -0.1251
 7269SOL    HW133269   3.029   3.259   4.866  0.2807  1.0682 -1.8319
 7269SOL    HW233270   2.949   3.230   4.991 -0.8424 -0.6445 -0.0783
 7270SOL     OW33271   3.548   1.219   4.368 -0.0040  0.4553  0.4811
 7270SOL    HW133272   3.508   1.306   4.367  0.1705  0.5353  0.5092
 7270SOL    HW233273   3.628   1.241   4.414  0.9598 -2.1990  0.0673
 7271SOL     OW33274   0.014   4.072   6.016  0.2759  0.2530  0.0883
 7271SOL    HW133275   0.075   4.127   6.065  1.4599 -1.3504  0.4101
 7271SOL    HW233276   0.078   4.013   5.977 -0.8893 -0.7460 -0.3202
 7272SOL     OW33277   0.907   0.705   5.574  0.1253  0.1472  0.0324
 7272SOL    HW133278   0.945   0.684   5.489 -0.6445  2.0440 -0.7950
 7272SOL    HW233279   0.892   0.621   5.616 -0.3779  1.3996  2.3471
 7273SOL     OW33280   0.945   0.264   7.695 -0.1913 -0.4187 -0.2235
 7273SOL    HW133281   0.961   0.311   7.612 -0.8255  0.7706  0.3172
 7273SOL    HW233282   0.928   0.339   7.752  1.1221  0.5285 -1.0662
 7274SOL     OW33283   4.242   0.997   6.820 -0.2770 -0.2340  0.4117
 7274SOL    HW133284   4.302   0.942   6.768 -0.2238 -0.2574  0.4982
 7274SOL    HW233285   4.163   0.980   6.769  0.9139 -1.0603 -1.1623
 7275SOL     OW33286   0.392   2.933  10.091  0.6534 -0.3417  0.2847
 7275SOL    HW133287   0.398   3.026  10.115  0.6388  0.0529 -1.1819
 7275SOL    HW233288   0.480   2.898  10.077 -0.2706 -2.2887 -0.7050
 7276SOL     OW33289   4.382   4.063   3.918 -0.1561  0.2603  0.5041
 7276SOL    HW133290   4.286   4.066   3.910 -0.3207 -1.5435  1.7825
 7276SOL    HW233291   4.396   3.990   3.978  0.5988 -1.6327 -1.9409
 7277SOL     OW33292   1.113   1.645   7.138 -0.2433 -0.1415  0.7726
 7277SOL    HW133293   1.071   1.730   7.124 -0.8318 -0.5332  0.2070
 7277SOL    HW233294   1.063   1.603   7.208 -1.0478 -0.6844 -0.1401
 7278SOL     OW33295   1.921   0.961   7.179 -0.1680 -0.4172 -0.1596
 7278SOL    HW133296   1.858   1.009   7.232 -0.3802 -0.5858 -0.2615
 7278SOL    HW233297   1.906   0.999   7.093 -0.2173  0.8622  0.4091
 7279SOL     OW33298   2.436   0.523   2.539  0.5291  0.3255  0.4337
 7279SOL    HW133299   2.424   0.473   2.620  0.1629  1.0549  0.8358
 7279SOL    HW233300   2.476   0.455   2.485  0.6696  2.1364 -1.7519
 7280SOL     OW33301   2.248   0.072   7.087  0.1837  0.0036  0.0236
 7280SOL    HW133302   2.303   0.147   7.108  0.3509  0.1546 -0.9632
 7280SOL    HW233303   2.273   0.057   6.995 -1.3424  1.6710 -0.6548
 7281SOL     OW33304   4.087   0.903  10.353  0.2782  0.7750 -0.1578
 7281SOL    HW133305   4.057   0.922  10.442 -0.5465 -2.3527  0.2429
 7281SOL    HW233306   4.182   0.908  10.360  0.2718  0.0201  0.5247
 7282SOL     OW33307   1.639   1.403   4.412  0.4073  0.6291  0.4831
 7282SOL    HW133308   1.599   1.321   4.439  0.0411  0.7333  0.2583
 7282SOL    HW233309   1.566   1.456   4.379 -0.7372  0.2919  2.4690
 7283SOL     OW33310   3.690   3.459  11.239 -0.1847 -0.5573  0.2280
 7283SOL    HW133311   3.687   3.363  11.246  1.5301 -0.7350 -1.4459
 7283SOL    HW233312   3.781   3.479  11.218  0.1662 -0.9266  1.4084
 7284SOL     OW33313   2.331   2.458   4.560 -0.5919 -0.5573 -0.4416
 7284SOL    HW133314   2.323   2.371   4.522  1.7684 -0.1334 -1.9036
 7284SOL    HW233315   2.243   2.482   4.587 -0.1561  0.2568  0.2744
 7285SOL     OW33316   0.602   1.887   5.038  0.9141 -0.0404 -0.0967
 7285SOL    HW133317   0.563   1.871   5.124 -0.6110 -0.3532 -0.8510
 7285SOL    HW233318   0.601   1.798   5.003  0.5621 -0.1293  0.1337
 7286SOL     OW33319   3.475   3.631   9.428 -0.2799  0.2157  0.4511
 7286SOL    HW133320   3.462   3.540   9.456 -0.7814  0.0010 -0.5025
 7286SOL    HW233321   3.547   3.621   9.366  0.4838  1.7353  1.1033
 7287SOL     OW33322   4.678   1.603   1.521  0.1800  0.3727 -0.0040
 7287SOL    HW133323   0.044   1.620   1.544 -0.2771  0.3034  1.8643
 7287SOL    HW233324   4.666   1.683   1.471 -0.2742 -0.2154 -0.8314
 7288SOL     OW33325   3.584   1.004   7.861  0.2694 -0.4663  0.1423
 7288SOL    HW133326   3.589   0.967   7.773  3.0884 -1.2529  0.6485
 7288SOL    HW233327   3.656   1.066   7.872  0.6666 -0.9193  0.0728
 7289SOL     OW33328   3.319   2.032   6.777  0.1082  0.3933  0.5245
 7289SOL    HW133329   3.350   2.077   6.699 -0.7480 -0.4252 -0.2981
 7289SOL    HW233330   3.260   1.961   6.752  1.7093 -0.1222 -1.6992
 7290SOL     OW33331   3.735   0.142   5.425 -0.5010  0.2218  0.4121
 7290SOL    HW133332   3.665   0.204   5.402 -0.9110 -0.3604  0.0843
 7290SOL    HW233333   3.773   0.117   5.341 -2.2357  0.8137 -0.5511
 7291SOL     OW33334   2.600   1.905   3.175 -0.1295 -0.1564 -0.3773
 7291SOL    HW133335   2.537   1.874   3.240  0.7412  0.4215  0.7419
 7291SOL    HW233336   2.680   1.905   3.228 -0.6205 -2.7063  0.3718
 7292SOL     OW33337   2.610   2.268   0.449  0.4444  0.6930  0.3388
 7292SOL    HW133338   2.554   2.335   0.410 -0.0855 -1.0928 -1.9769
 7292SOL    HW233339   2.624   2.313   0.532  3.0320 -0.4638  0.5610
 7293SOL     OW33340   2.084   3.583   2.890  0.7417 -0.0787 -0.3750
 7293SOL    HW133341   2.115   3.645   2.824  0.9647  0.4279  0.2038
 7293SOL    HW233342   2.018   3.640   2.931  3.4438  1.3163  2.0163
 7294SOL     OW33343   2.871   1.190  11.904 -0.2846 -0.8760  0.2472
 7294SOL    HW133344   2.831   1.276  11.917  0.9552 -0.5832  2.1848
 7294SOL    HW233345   2.813   1.145  11.843 -1.2262  0.8333 -0.0900
 7295SOL     OW33346   2.151   3.333   9.182  0.1773  0.4599 -0.1020
 7295SOL    HW133347   2.164   3.238   9.191 -1.6787  0.4458  2.3029
 7295SOL    HW233348   2.149   3.340   9.086  1.2799 -2.1896 -0.3433
 7296SOL     OW33349   0.110   1.641   7.878  0.3127  0.5828 -0.5588
 7296SOL    HW133350   0.136   1.718   7.827  2.5820  0.8418  0.9697
 7296SOL    HW233351   0.194   1.610   7.912  0.4493  1.3271 -0.2116
 7297SOL     OW33352   1.064   0.343  12.075  0.3177  0.2911 -0.1694
 7297SOL    HW133353   1.144   0.338  12.127  0.2712 -0.9469 -0.2219
 7297SOL    HW233354   1.066   0.428  12.031  2.2916 -0.3130 -1.2262
 7298SOL     OW33355   3.715   1.276  17.594  0.6658  0.1707 -0.4849
 7298SOL    HW133356   3.674   1.340  17.535 -1.0559 -0.0572  0.4678
 7298SOL    HW233357   3.808   1.299  17.589  0.8253 -0.2748  0.4790
 7299SOL     OW33358   2.181   2.044   4.640 -0.0020 -0.2412  0.1496
 7299SOL    HW133359   2.161   1.983   4.569 -2.3453  1.8162 -0.9665
 7299SOL    HW233360   2.140   1.998   4.713  0.8164 -2.0897 -0.5463
 7300SOL     OW33361   1.481   0.089   1.669 -0.1003  1.0411 -0.4524
 7300SOL    HW133362   1.466   0.085   1.763  0.1634 -1.9090 -0.5212
 7300SOL    HW233363   1.573   0.114   1.684 -0.2137  1.4494 -0.4433
 7301SOL     OW33364   1.149   1.509   0.295  0.5923  0.0991 -0.2500
 7301SOL    HW133365   1.137   1.602   0.277  0.9591  0.2347  0.2317
 7301SOL    HW233366   1.240   1.493   0.272  1.2496  2.2223  0.8465
 7302SOL     OW33367   0.710   1.879   5.852  0.0546 -0.2485 -0.3138
 7302SOL    HW133368   0.692   1.788   5.827 -0.0480 -0.0517 -0.9676
 7302SOL    HW233369   0.781   1.857   5.912 -0.3532 -0.0965  0.2259
 7303SOL     OW33370   1.970   1.848   7.466  0.0866  0.8262  0.2440
 7303SOL    HW133371   1.973   1.792   7.389  3.4972  1.0249  0.2279
 7303SOL    HW233372   1.877   1.833   7.481 -0.3236  1.5283 -1.5646
 7304SOL     OW33373   1.984   3.590   0.533  0.1709  0.4245 -0.2488
 7304SOL    HW133374   1.890   3.573   0.544  0.6054 -1.7935  0.1321
 7304SOL    HW233375   1.989   3.510   0.480 -5.3736  0.9156 -1.5105
 7305SOL     OW33376   4.140   1.446   3.618  0.5865 -0.3562 -0.1064
 7305SOL    HW133377   4.159   1.391   3.694 -2.6206  0.7602  1.4703
 7305SOL    HW233378   4.046   1.427   3.618  0.8153 -1.5189  0.8640
 7306SOL     OW33379   2.354   0.826   8.395 -0.6572 -0.1030 -0.0095
 7306SOL    HW133380   2.331   0.889   8.464 -0.0513 -1.7775  1.7124
 7306SOL    HW233381   2.303   0.755   8.434  0.7587 -0.7360  0.6939
 7307SOL     OW33382   1.950   0.726  11.823  0.2906 -0.3225 -0.0530
 7307SOL    HW133383   2.038   0.737  11.860  0.2852 -1.2842  0.2579
 7307SOL    HW233384   1.950   0.640  11.780  2.2038 -1.1936  1.6670
 7308SOL     OW33385   1.871   2.516   3.079 -0.0486 -0.1131 -0.4770
 7308SOL    HW133386   1.901   2.431   3.110  1.4707  0.9276  0.8461
 7308SOL    HW233387   1.928   2.525   3.003 -0.1042  1.6289 -0.3132
 7309SOL     OW33388   4.596   3.553   7.697  0.2202 -0.4588  0.0333
 7309SOL    HW133389   4.570   3.489   7.631 -0.1899 -1.1283  0.8431
 7309SOL    HW233390   4.537   3.543   7.772 -1.0220  1.4699 -0.6756
 7310SOL     OW33391   3.095   2.878   3.542  0.9953  0.2051 -0.1687
 7310SOL    HW133392   3.152   2.942   3.498  1.0031 -1.0356 -1.9586
 7310SOL    HW233393   3.049   2.842   3.467 -0.6257  0.6519  0.6092
 7311SOL     OW33394   2.639   2.780   3.115  0.2439  0.3596  0.0159
 7311SOL    HW133395   2.642   2.856   3.056 -1.5991 -0.0249 -0.5534
 7311SOL    HW233396   2.657   2.834   3.192 -0.4944 -0.6128  0.8532
 7312SOL     OW33397   3.997   0.284   4.138 -0.6663 -0.3379 -0.5852
 7312SOL    HW133398   3.904   0.305   4.148  0.0172  2.5288 -0.2240
 7312SOL    HW233399   4.001   0.212   4.201  0.8226  0.2625  0.0090
 7313SOL     OW33400   2.130   3.031   8.795 -0.3267  0.7638  0.2776
 7313SOL    HW133401   2.075   2.994   8.865 -0.5238 -1.7337 -1.2061
 7313SOL    HW233402   2.117   2.968   8.724  1.5430  0.2234  0.4144
 7314SOL     OW33403   3.709   1.463  11.825  0.1354  0.1057 -0.2897
 7314SOL    HW133404   3.731   1.381  11.868 -0.8345 -0.2552 -0.4604
 7314SOL    HW233405   3.682   1.439  11.736 -0.5808 -0.8015  0.1729
 7315SOL     OW33406   2.844   4.627  14.669  0.4088  0.2989 -0.0300
 7315SOL    HW133407   2.883   4.586  14.592 -0.1723 -2.0920  0.9464
 7315SOL    HW233408   2.916   4.638  14.730  0.4713 -2.0615  0.3399
 7316SOL     OW33409   2.136   3.655   7.338  0.0536  0.3532  0.2292
 7316SOL    HW133410   2.170   3.734   7.379 -0.0649 -0.3727  1.7139
 7316SOL    HW233411   2.207   3.644   7.273 -0.4416 -1.4509 -0.0118
 7317SOL     OW33412   3.260   0.312   1.833 -0.0074  0.2526 -0.6693
 7317SOL    HW133413   3.285   0.278   1.747  2.8461  1.3216 -0.2559
 7317SOL    HW233414   3.339   0.294   1.883 -0.4821  1.1440  0.4040
 7318SOL     OW33415   3.539   2.507  14.478  0.8535 -0.5380  0.7736
 7318SOL    HW133416   3.605   2.448  14.514  0.1651 -0.2379  2.5411
 7318SOL    HW233417   3.560   2.494  14.386 -3.0222 -0.0382 -0.1704
 7319SOL     OW33418   0.691   2.047   6.359  0.0339  0.4965 -0.3687
 7319SOL    HW133419   0.613   2.010   6.400 -0.0761  0.9618 -0.1573
 7319SOL    HW233420   0.698   2.026   6.266  0.9313  0.1945 -0.2382
 7320SOL     OW33421   4.620   3.404   4.569  0.4993 -0.0031  0.5574
 7320SOL    HW133422   4.617   3.496   4.544  0.0495 -0.3344 -0.6594
 7320SOL    HW233423   4.701   3.411   4.618  1.3372 -0.4905 -0.7643
 7321SOL     OW33424   0.811   0.440   9.172 -0.0219  0.0689  0.0680
 7321SOL    HW133425   0.734   0.388   9.198 -0.0726  1.3490  2.4480
 7321SOL    HW233426   0.881   0.375   9.179 -0.8742 -0.6367  2.1225
 7322SOL     OW33427   0.664   1.711   8.728  0.2524 -0.1118 -0.0940
 7322SOL    HW133428   0.725   1.764   8.780  0.4143 -0.4011  0.0122
 7322SOL    HW233429   0.717   1.632   8.724 -0.3257 -0.5935  1.7705
 7323SOL     OW33430   0.035   2.748   6.119  0.2341 -0.0038  0.2059
 7323SOL    HW133431   0.118   2.796   6.123  0.5613 -0.5471 -0.1900
 7323SOL    HW233432   0.057   2.671   6.171 -1.7702  0.7076  2.1086
 7324SOL     OW33433   1.825   2.753   2.899  0.0120  0.7634 -0.0424
 7324SOL    HW133434   1.771   2.685   2.858  1.3462 -0.2419 -0.1378
 7324SOL    HW233435   1.899   2.701   2.929  0.6922  1.0749 -1.1840
 7325SOL     OW33436   3.972   4.417   5.174 -0.0806  0.5294  0.0290
 7325SOL    HW133437   4.052   4.403   5.225  0.7873  2.2641 -0.8501
 7325SOL    HW233438   3.960   4.327   5.142  3.7517 -0.3500  1.0782
 7326SOL     OW33439   3.790   2.321   5.493  0.3349 -0.3118  0.6745
 7326SOL    HW133440   3.774   2.250   5.555 -1.7318 -0.6829 -0.2508
 7326SOL    HW233441   3.753   2.400   5.532 -2.2320  0.1440 -2.6534
 7327SOL     OW33442   1.225   3.826   3.125 -0.5075 -0.0287 -0.1750
 7327SOL    HW133443   1.316   3.802   3.139  0.2095  2.5472 -0.3457
 7327SOL    HW233444   1.216   3.826   3.029 -1.5475  0.6697 -0.0865
 7328SOL     OW33445   0.254   0.657   3.152  0.2277  0.1105  0.3344
 7328SOL    HW133446   0.304   0.581   3.181  0.1325  0.1608  0.6336
 7328SOL    HW233447   0.206   0.618   3.079  0.5276  0.3119  0.0312
 7329SOL     OW33448   0.571   3.844   4.634 -0.2527  0.0852  0.4273
 7329SOL    HW133449   0.654   3.874   4.672  0.5741 -0.0020 -1.3424
 7329SOL    HW233450   0.527   3.929   4.623  1.5627  0.7567 -1.6132
 7330SOL     OW33451   0.877   3.385   3.797  0.7997  0.2240 -0.2813
 7330SOL    HW133452   0.786   3.400   3.774  0.5593  1.9513  1.7216
 7330SOL    HW233453   0.884   3.290   3.804  1.0379  0.4276  2.2450
 7331SOL     OW33454   0.373   4.205   7.975  0.7227  0.1447  0.9714
 7331SOL    HW133455   0.315   4.159   7.914 -1.1771  3.1784  0.4720
 7331SOL    HW233456   0.396   4.285   7.928  0.0499  0.8168  1.7857
 7332SOL     OW33457   2.789   3.697  11.212  0.1007 -0.0435 -0.0311
 7332SOL    HW133458   2.777   3.639  11.137  2.9024 -0.0011 -0.5193
 7332SOL    HW233459   2.810   3.782  11.173  1.0558 -1.4070 -2.4559
 7333SOL     OW33460   1.836   1.432   6.650 -0.1774  0.5072  0.0244
 7333SOL    HW133461   1.772   1.411   6.582 -0.7219  0.8849  0.4214
 7333SOL    HW233462   1.914   1.420   6.596  1.1531  0.9728  1.8555
 7334SOL     OW33463   1.744   3.849   7.883  0.1241  0.6016  0.0496
 7334SOL    HW133464   1.764   3.783   7.949  2.0586  0.5945 -0.5478
 7334SOL    HW233465   1.774   3.937   7.905 -1.4396  0.8775  1.0198
 7335SOL     OW33466   0.304   0.312  13.230  0.1153 -0.0756  0.0438
 7335SOL    HW133467   0.235   0.301  13.295 -1.3074 -0.1323 -1.5022
 7335SOL    HW233468   0.278   0.249  13.163 -2.7721  0.3008  0.8232
 7336SOL     OW33469   3.771   3.870  13.797  0.1515 -0.0512  0.9515
 7336SOL    HW133470   3.728   3.843  13.716 -0.2483 -0.9334  1.4639
 7336SOL    HW233471   3.802   3.952  13.757 -0.8149 -0.9046 -1.5210
 7337SOL     OW33472   1.838   3.789   5.467  0.4815 -0.1678  0.4509
 7337SOL    HW133473   1.802   3.712   5.512 -2.2857  2.0542  2.0230
 7337SOL    HW233474   1.840   3.853   5.538  0.6378 -3.8990  3.8273
 7338SOL     OW33475   4.444   2.700   8.244  0.2060  0.9007  0.0531
 7338SOL    HW133476   4.539   2.690   8.236  0.1810  1.6089 -1.2133
 7338SOL    HW233477   4.420   2.611   8.216 -1.1559  0.9463  1.0574
 7339SOL     OW33478   3.359   0.251   4.850 -0.4005 -0.1843  0.2883
 7339SOL    HW133479   3.388   0.164   4.878 -3.1756 -1.2633 -0.1501
 7339SOL    HW233480   3.319   0.229   4.766 -0.4249 -1.3854  0.6037
 7340SOL     OW33481   2.771   2.406   8.518  0.1523 -0.0557 -0.0962
 7340SOL    HW133482   2.836   2.401   8.588 -0.4801 -0.7844  0.4445
 7340SOL    HW233483   2.803   2.467   8.452 -0.1260 -0.2970 -0.4548
 7341SOL     OW33484   0.979   2.335   2.780  0.0749 -0.1107 -0.1354
 7341SOL    HW133485   0.951   2.249   2.810 -2.5202  0.4267 -1.0215
 7341SOL    HW233486   0.902   2.392   2.780  1.9686  2.5111 -2.7701
 7342SOL     OW33487   3.070   3.810  14.760  0.1425 -0.0547 -0.1715
 7342SOL    HW133488   3.078   3.892  14.809  2.6349 -1.2859  1.4254
 7342SOL    HW233489   3.160   3.792  14.734  0.0313  0.5746 -1.0123
 7343SOL     OW33490   4.106   2.583  13.446  0.0817 -0.0927  0.1708
 7343SOL    HW133491   4.091   2.674  13.470  1.2149 -0.2377  1.4170
 7343SOL    HW233492   4.189   2.570  13.491  0.7171 -1.9364 -1.5086
 7344SOL     OW33493   2.519   4.687  15.332 -0.4833  0.4694 -0.1883
 7344SOL    HW133494   2.523   0.027  15.262  0.4497 -1.1636 -1.6418
 7344SOL    HW233495   2.539   4.604  15.290  1.8668  2.0989 -2.2685
 7345SOL     OW33496   4.507   4.045  16.527 -0.1220  0.3878  1.2337
 7345SOL    HW133497   4.448   4.014  16.459  0.0135 -2.3090  2.3424
 7345SOL    HW233498   4.466   4.004  16.603 -1.3213  1.4912  1.1696
 7346SOL     OW33499   0.446   3.744  12.696  0.3292  0.1799 -0.0059
 7346SOL    HW133500   0.402   3.666  12.730  0.2794 -0.4091 -1.4511
 7346SOL    HW233501   0.539   3.720  12.688  0.5655  1.5753 -1.3495
 7347SOL     OW33502   0.651   1.805  12.053 -0.2679 -0.7153  0.7373
 7347SOL    HW133503   0.672   1.870  12.120 -0.1310 -1.5229  1.4779
 7347SOL    HW233504   0.650   1.724  12.103  0.3682 -0.8550  0.5244
 7348SOL     OW33505   1.573   3.522   3.193 -0.5713  0.9412 -0.5041
 7348SOL    HW133506   1.528   3.437   3.190  1.1137  0.1023 -1.9300
 7348SOL    HW233507   1.541   3.558   3.276  2.0138  1.5935  0.1799
 7349SOL     OW33508   1.021   2.606   1.840 -0.0484  0.1725  0.4042
 7349SOL    HW133509   1.107   2.590   1.801 -0.2518  0.3732 -0.1269
 7349SOL    HW233510   0.997   2.515   1.858 -0.0300 -0.3107 -2.0908
 7350SOL     OW33511   2.212   0.500  14.488 -0.3510  0.1130 -0.4651
 7350SOL    HW133512   2.209   0.506  14.583  0.2423 -0.2578 -0.4211
 7350SOL    HW233513   2.307   0.488  14.490 -0.0914  2.4929  0.8609
 7351SOL     OW33514   0.913   4.555  12.717 -0.2676  0.3031  0.0369
 7351SOL    HW133515   0.946   4.506  12.642  2.0317  0.1693  1.1345
 7351SOL    HW233516   0.992   4.593  12.756  0.8927  0.4858 -2.4580
 7352SOL     OW33517   0.607   0.646  10.035  0.5205 -0.1315  0.1232
 7352SOL    HW133518   0.524   0.599  10.025 -0.0824  0.9409  0.1094
 7352SOL    HW233519   0.648   0.591  10.101 -0.9756 -5.4780 -3.3960
 7353SOL     OW33520   3.636   0.546  12.050 -0.2667 -0.5922 -0.1126
 7353SOL    HW133521   3.653   0.581  12.137 -0.3009  3.0312 -1.5741
 7353SOL    HW233522   3.654   0.622  11.995  0.2164 -0.5516  0.1022
 7354SOL     OW33523   2.945   1.127   6.002 -0.0169  0.1219  0.2147
 7354SOL    HW133524   3.039   1.114   5.987  0.2261 -0.6810  2.4225
 7354SOL    HW233525   2.918   1.184   5.930  1.7741  0.4405 -0.2152
 7355SOL     OW33526   0.560   2.824   9.769 -0.8462  0.2683 -0.1788
 7355SOL    HW133527   0.581   2.824   9.862 -0.3185 -1.4582 -0.2905
 7355SOL    HW233528   0.526   2.736   9.752  1.6551 -0.8790  0.7360
 7356SOL     OW33529   3.340   2.166   1.027  0.2114 -0.0846  0.1635
 7356SOL    HW133530   3.424   2.205   1.051  1.6738 -2.0460 -1.7122
 7356SOL    HW233531   3.309   2.228   0.961 -0.6603 -0.5997  0.0907
 7357SOL     OW33532   3.174   0.759   2.173 -0.4806 -0.7108 -0.6184
 7357SOL    HW133533   3.098   0.737   2.226  0.8923 -0.6308  1.3855
 7357SOL    HW233534   3.204   0.677   2.134  1.1432  0.4567 -1.8262
 7358SOL     OW33535   1.761   0.383   4.806  0.8145 -0.2791  0.7863
 7358SOL    HW133536   1.855   0.398   4.802  0.6851  0.5238  0.8325
 7358SOL    HW233537   1.737   0.399   4.714  1.9840 -3.1550 -0.0375
 7359SOL     OW33538   3.695   3.456   8.544 -0.2686 -0.2515  0.1440
 7359SOL    HW133539   3.622   3.510   8.514 -0.3315  0.1669  1.0538
 7359SOL    HW233540   3.651   3.384   8.589  0.9105 -0.2316  1.3390
 7360SOL     OW33541   2.111   2.296   1.463 -0.0400  0.0928  0.4467
 7360SOL    HW133542   2.072   2.351   1.531  1.0263  1.5240 -0.1163
 7360SOL    HW233543   2.041   2.301   1.398 -1.0352 -1.4534  1.3855
 7361SOL     OW33544   4.557   2.122   5.373 -0.3886  0.5543  0.0466
 7361SOL    HW133545   4.528   2.200   5.419 -0.8636  0.4559 -0.0821
 7361SOL    HW233546   4.634   2.162   5.332  0.5340 -0.4643  0.7647
 7362SOL     OW33547   2.992   3.696  10.628 -0.5233 -0.3737 -0.7894
 7362SOL    HW133548   3.057   3.628  10.646  0.9830  0.6530 -2.3425
 7362SOL    HW233549   3.005   3.740  10.712  0.7588  0.3400 -1.3550
 7363SOL     OW33550   1.156   3.143   5.880  0.1560  0.2510  0.1675
 7363SOL    HW133551   1.210   3.114   5.953  1.1617  2.6880  0.4026
 7363SOL    HW233552   1.200   3.086   5.817  0.9302  1.2100 -0.1695
 7364SOL     OW33553   3.678   2.313   3.452 -0.7346 -0.1295 -0.0568
 7364SOL    HW133554   3.684   2.219   3.436  2.1262  0.5764 -3.1338
 7364SOL    HW233555   3.768   2.342   3.439 -0.8793 -0.2066 -1.2430
 7365SOL     OW33556   3.424   2.380  13.347 -0.0483  0.0320  0.2839
 7365SOL    HW133557   3.393   2.368  13.257 -1.1046 -0.0155  0.6484
 7365SOL    HW233558   3.341   2.360  13.390 -0.4756  1.0467 -0.0495
 7366SOL     OW33559   4.557   1.572   9.216 -0.2430  0.1468 -0.2236
 7366SOL    HW133560   4.483   1.517   9.243 -1.2591  0.1362 -3.1050
 7366SOL    HW233561   4.521   1.622   9.143 -2.9082  0.2278  1.1001
 7367SOL     OW33562   2.267   1.112   1.588 -0.4206  0.0926 -0.4499
 7367SOL    HW133563   2.333   1.145   1.648 -0.0356 -0.3373 -0.6377
 7367SOL    HW233564   2.247   1.036   1.642  0.3050  0.8049  0.8366
 7368SOL     OW33565   3.976   4.647   4.174  0.1229 -0.3245  0.7156
 7368SOL    HW133566   4.007   4.716   4.233 -1.2220  1.1355 -0.2605
 7368SOL    HW233567   3.883   4.647   4.196  0.5453  0.3787  2.4428
 7369SOL     OW33568   3.794   4.000   2.460  0.1919  0.2591  0.1444
 7369SOL    HW133569   3.736   3.969   2.530 -0.5914  0.4974 -0.4029
 7369SOL    HW233570   3.876   3.992   2.509  0.7525  1.8899 -0.5163
 7370SOL     OW33571   2.393   2.985   2.754 -0.2796 -0.3055  0.3499
 7370SOL    HW133572   2.456   2.917   2.729 -0.9191 -0.0914 -1.8459
 7370SOL    HW233573   2.392   3.033   2.671 -0.1418 -0.8399  0.0381
 7371SOL     OW33574   1.680   0.006   6.073 -0.4118  0.0377  0.2734
 7371SOL    HW133575   1.664   4.639   6.052 -3.2007  0.4784  0.4640
 7371SOL    HW233576   1.749   0.030   6.011 -0.9286  0.3244 -0.1922
 7372SOL     OW33577   0.318   0.357   2.344 -0.2935  0.2573  0.7173
 7372SOL    HW133578   0.255   0.394   2.282 -1.3690 -2.9774 -0.1154
 7372SOL    HW233579   0.338   0.434   2.399 -4.3390  0.8658  1.3297
 7373SOL     OW33580   3.249   2.608  15.911 -0.0434  0.1221 -0.3714
 7373SOL    HW133581   3.205   2.617  15.995  0.0399 -0.4735 -0.2669
 7373SOL    HW233582   3.323   2.551  15.930  0.1196  0.4400 -0.0571
 7374SOL     OW33583   0.052   2.058   6.105 -0.3543  0.1614  0.3403
 7374SOL    HW133584   0.052   2.121   6.178  1.7217  1.7733 -1.0224
 7374SOL    HW233585   4.686   2.057   6.077  0.5717  4.4122 -2.7613
 7375SOL     OW33586   2.191   4.405   6.553  0.3533 -0.2470  0.2282
 7375SOL    HW133587   2.115   4.447   6.512  0.6928 -0.8691 -1.0489
 7375SOL    HW233588   2.150   4.352   6.622  0.2314 -1.0172 -0.4312
 7376SOL     OW33589   1.058   0.667  14.359 -0.6733  0.4676 -0.2356
 7376SOL    HW133590   1.030   0.597  14.418 -1.7393  0.7286 -0.4370
 7376SOL    HW233591   1.112   0.724  14.415  0.9570  0.2335 -1.5691
 7377SOL     OW33592   2.993   2.492   6.603  0.5527 -0.4610  0.0127
 7377SOL    HW133593   2.903   2.465   6.586  0.2305  0.4904  0.2010
 7377SOL    HW233594   2.984   2.517   6.695 -0.7536  0.5325 -0.3905
 7378SOL     OW33595   4.057   3.271   3.055  0.4782 -0.3066 -0.3062
 7378SOL    HW133596   4.100   3.291   3.138  0.0609 -1.1258  0.1098
 7378SOL    HW233597   3.982   3.331   3.051 -0.2596 -1.6120 -6.2180
 7379SOL     OW33598   4.671   0.993   8.554 -1.4048 -0.6507  0.1316
 7379SOL    HW133599   4.658   1.088   8.556 -0.8734 -0.5957  1.2903
 7379SOL    HW233600   4.660   0.980   8.460 -0.1425  0.4683 -0.1772
 7380SOL     OW33601   0.208   2.965   3.900 -0.4358 -0.1728 -0.0723
 7380SOL    HW133602   0.188   2.962   3.807 -0.5030 -0.2790 -0.0549
 7380SOL    HW233603   0.130   2.998   3.946 -0.1715  0.1943  0.1069
 7381SOL     OW33604   2.019   4.228   4.074  0.2266 -0.4777  0.4445
 7381SOL    HW133605   1.927   4.242   4.051  0.2295 -0.5215  0.4046
 7381SOL    HW233606   2.060   4.305   4.035  0.1335 -1.3419 -1.3525
 7382SOL     OW33607   4.485   0.290   6.875  0.4283  0.5484 -0.2434
 7382SOL    HW133608   4.532   0.265   6.796  3.6755  1.4821  1.4160
 7382SOL    HW233609   4.398   0.253   6.861  1.4142 -2.3380  1.2223
 7383SOL     OW33610   4.464   1.833   4.261  0.1842 -0.8043  0.1781
 7383SOL    HW133611   4.547   1.879   4.248  0.9064 -1.5416  2.1260
 7383SOL    HW233612   4.405   1.908   4.272 -1.2906 -1.8256 -0.8066
 7384SOL     OW33613   2.222   2.194   1.192  0.5074  1.0965 -0.5081
 7384SOL    HW133614   2.207   2.248   1.270  0.2709  0.1650  0.0934
 7384SOL    HW233615   2.208   2.255   1.120 -0.2358 -0.1899 -1.4553
 7385SOL     OW33616   4.472   0.787   7.951  0.4895 -0.7204 -0.1038
 7385SOL    HW133617   4.391   0.760   7.908  0.8747  1.3779 -2.1642
 7385SOL    HW233618   4.451   0.866   8.001 -1.0170 -1.6680  0.7728
 7386SOL     OW33619   4.148   1.361   1.711 -0.1743 -0.2299  0.2381
 7386SOL    HW133620   4.196   1.352   1.629  1.6783 -1.1329  1.4258
 7386SOL    HW233621   4.197   1.432   1.752 -0.2136 -0.0562 -0.0176
 7387SOL     OW33622   2.384   1.007   6.321  0.2099 -1.0544  0.5248
 7387SOL    HW133623   2.346   0.925   6.292  1.4243 -2.5508  3.1503
 7387SOL    HW233624   2.369   1.012   6.415  3.3160 -1.8113  1.0823
 7388SOL     OW33625   1.818   0.352   2.504  0.1167 -0.0713 -0.6761
 7388SOL    HW133626   1.728   0.319   2.511  0.1207  0.4552  1.8399
 7388SOL    HW233627   1.877   0.294   2.455  1.2154 -0.0532  0.6389
 7389SOL     OW33628   3.737   1.322   5.958  0.2357  0.4135 -0.3674
 7389SOL    HW133629   3.751   1.265   6.034  0.5577  2.2080  0.9122
 7389SOL    HW233630   3.769   1.404   5.996  3.5124 -0.7162 -0.7385
 7390SOL     OW33631   3.953   1.683   3.912 -0.3960  0.2757  0.3605
 7390SOL    HW133632   3.912   1.603   3.944 -1.0152  0.8025  0.9115
 7390SOL    HW233633   4.027   1.647   3.864 -0.7733  1.7786 -1.3566
 7391SOL     OW33634   2.508   1.550   9.640 -0.0918 -0.4261  0.6488
 7391SOL    HW133635   2.463   1.485   9.693  0.6662 -1.7140 -0.2938
 7391SOL    HW233636   2.533   1.611   9.709 -0.0927  1.2805 -0.8450
 7392SOL     OW33637   3.440   1.017   0.698 -0.0248 -0.4939 -0.2810
 7392SOL    HW133638   3.430   0.946   0.634 -0.4285  1.1933 -2.0588
 7392SOL    HW233639   3.534   1.031   0.690 -0.1796  0.1814 -0.8637
 7393SOL     OW33640   2.740   2.091   1.727  0.8162  0.9367  0.3697
 7393SOL    HW133641   2.793   2.158   1.685  0.5311  0.9974  0.1091
 7393SOL    HW233642   2.806   2.058   1.788 -0.8656 -0.2315  1.5501
 7394SOL     OW33643   1.293   2.770   3.565  0.3736  0.2137 -0.1603
 7394SOL    HW133644   1.265   2.858   3.593  3.4560  2.0006 -2.6919
 7394SOL    HW233645   1.336   2.734   3.643  0.0876  0.4567  0.1133
 7395SOL     OW33646   1.978   3.049   6.436  0.2423 -0.1228 -0.0646
 7395SOL    HW133647   2.021   3.080   6.515 -0.2796 -0.2312  0.2576
 7395SOL    HW233648   2.011   3.105   6.366  0.3163  0.6602  0.6039
 7396SOL     OW33649   3.946   2.370   3.405 -0.0707  0.1901 -0.1429
 7396SOL    HW133650   3.942   2.452   3.454 -0.3049  0.6108 -0.8592
 7396SOL    HW233651   3.987   2.396   3.322 -0.1491 -0.4668 -0.3848
 7397SOL     OW33652   4.684   2.403  11.603 -0.0186 -0.2467 -0.1334
 7397SOL    HW133653   4.646   2.477  11.650  1.4471 -1.2669  2.7216
 7397SOL    HW233654   0.050   2.429  11.592 -0.2722  0.6716 -0.0336
 7398SOL     OW33655   2.418   2.044   9.320  1.0065 -0.5447  0.1725
 7398SOL    HW133656   2.332   2.004   9.306  1.4986 -1.3175 -0.6079
 7398SOL    HW233657   2.441   2.079   9.234 -1.2919  0.1144 -0.1880
 7399SOL     OW33658   0.705   2.597   5.637 -0.0895  0.7328  0.2853
 7399SOL    HW133659   0.705   2.569   5.545 -0.2142 -1.1179  0.8535
 7399SOL    HW233660   0.798   2.601   5.659  0.1783 -0.4114 -0.6636
 7400SOL     OW33661   2.276   1.223   3.755  0.1101 -0.3553  0.0079
 7400SOL    HW133662   2.181   1.233   3.743  0.0779 -1.3411 -0.6093
 7400SOL    HW233663   2.289   1.128   3.765 -1.6537 -0.7037 -1.0002
 7401SOL     OW33664   3.096   1.809   2.321  0.5644 -0.5885 -0.0541
 7401SOL    HW133665   3.170   1.772   2.273  0.1458  0.1107 -1.2206
 7401SOL    HW233666   3.134   1.876   2.377  2.8415 -1.5411 -0.4603
 7402SOL     OW33667   0.694   2.795   3.766  0.6175 -0.1608 -0.2421
 7402SOL    HW133668   0.638   2.830   3.835  3.1960  0.7760  1.3475
 7402SOL    HW233669   0.662   2.857   3.700  0.7283 -0.9803 -1.0650
 7403SOL     OW33670   2.037   4.091   8.827  0.5515 -0.0100 -0.3805
 7403SOL    HW133671   2.113   4.051   8.784  1.2598  1.4161 -0.4247
 7403SOL    HW233672   2.077   4.176   8.844 -3.4937  1.8387 -0.1581
 7404SOL     OW33673   0.730   4.164   8.013  0.2283 -0.1648 -0.1277
 7404SOL    HW133674   0.766   4.231   7.955  0.2443 -0.5357 -0.5485
 7404SOL    HW233675   0.658   4.205   8.060 -1.0830 -1.3737 -1.0957
 7405SOL     OW33676   0.670   2.548  16.386 -0.2290 -0.2578  0.7285
 7405SOL    HW133677   0.640   2.463  16.355 -1.6656  0.8480 -0.9155
 7405SOL    HW233678   0.607   2.580  16.450 -0.3268  1.2346 -0.0957
 7406SOL     OW33679   3.648   3.426   4.242 -0.7745  0.1106  0.0253
 7406SOL    HW133680   3.608   3.341   4.260  2.5877 -1.1286  1.7557
 7406SOL    HW233681   3.726   3.426   4.297 -0.1719 -1.7402 -0.8293
 7407SOL     OW33682   2.000   4.425   7.689  0.0715 -0.7675 -0.0528
 7407SOL    HW133683   2.083   4.472   7.700 -0.8683  1.0772 -0.6905
 7407SOL    HW233684   1.999   4.429   7.593 -5.4531  1.1486  0.0887
 7408SOL     OW33685   2.669   2.929   0.628 -0.3660  0.0713  0.3493
 7408SOL    HW133686   2.614   2.875   0.571 -0.5755  1.2285 -0.5420
 7408SOL    HW233687   2.697   2.995   0.566  2.7620 -1.4112  0.2092
 7409SOL     OW33688   0.394   4.227   3.763 -0.1335  0.9218 -0.0617
 7409SOL    HW133689   0.481   4.262   3.782  0.5437 -1.8342  2.1091
 7409SOL    HW233690   0.413   4.148   3.712 -1.4255  0.2309  0.5039
 7410SOL     OW33691   0.577   0.515   7.064 -0.3586  0.4802  0.1814
 7410SOL    HW133692   0.636   0.517   7.140  0.3341  0.5160 -0.3604
 7410SOL    HW233693   0.580   0.422   7.042  0.5109  0.5383  0.0198
 7411SOL     OW33694   0.959   2.241   6.335 -0.7001  0.2540 -0.3159
 7411SOL    HW133695   0.903   2.214   6.408  0.1684 -2.7014 -0.7492
 7411SOL    HW233696   0.978   2.170   6.273 -1.3586 -2.5263  2.6755
 7412SOL     OW33697   4.219   3.304   8.140 -0.3194 -0.0691 -0.4312
 7412SOL    HW133698   4.311   3.289   8.160 -0.1254  0.3745 -0.9707
 7412SOL    HW233699   4.219   3.396   8.113 -2.1792 -0.1605 -0.7362
 7413SOL     OW33700   2.770   0.705   5.112 -0.1115  0.3405  0.2370
 7413SOL    HW133701   2.744   0.767   5.181  2.3437  1.6152  0.0205
 7413SOL    HW233702   2.846   0.662   5.152 -1.6343 -2.3285  0.2730
 7414SOL     OW33703   1.181   4.176  16.532  0.3114  0.8170  0.2756
 7414SOL    HW133704   1.230   4.230  16.470 -0.6539  0.1308 -1.0659
 7414SOL    HW233705   1.165   4.100  16.477 -1.3521  1.8306 -0.6567
 7415SOL     OW33706   0.186   3.306   9.383 -0.0329  0.1023 -0.2833
 7415SOL    HW133707   0.254   3.370   9.361 -0.6208  1.8630  3.0137
 7415SOL    HW233708   0.238   3.226   9.392 -0.3597  0.0423  1.1355
 7416SOL     OW33709   0.635   4.622   5.509  0.5117 -0.3038  0.3671
 7416SOL    HW133710   0.608   4.549   5.565 -1.5177 -0.2943 -0.5891
 7416SOL    HW233711   0.708   4.659   5.559  2.3655 -2.9775 -0.3930
 7417SOL     OW33712   1.499   1.972   4.317  0.4473 -1.0410  0.4849
 7417SOL    HW133713   1.471   1.956   4.227  0.5428  0.3226  0.2039
 7417SOL    HW233714   1.471   1.891   4.359  0.2865 -0.8394  0.7715
 7418SOL     OW33715   0.278   4.564  10.577  0.3162 -0.2005 -0.1033
 7418SOL    HW133716   0.359   4.606  10.607  0.1653  1.6350 -2.2454
 7418SOL    HW233717   0.233   4.553  10.661  1.2806 -0.3504  0.4015
 7419SOL     OW33718   1.815   1.695   6.377 -0.0959  0.0012  0.3822
 7419SOL    HW133719   1.783   1.782   6.354 -1.5434 -0.4835  0.5856
 7419SOL    HW233720   1.869   1.718   6.453  1.4224 -0.3480 -0.5850
 7420SOL     OW33721   1.464   3.081   2.439 -0.3534  0.1339 -0.1522
 7420SOL    HW133722   1.434   3.158   2.391  2.2364  1.4485  0.2804
 7420SOL    HW233723   1.558   3.088   2.421 -0.2582  0.9090  0.5956
 7421SOL     OW33724   0.748   1.393   7.116 -1.0202 -0.1741  0.0029
 7421SOL    HW133725   0.804   1.447   7.172  0.8753 -1.9069 -0.2150
 7421SOL    HW233726   0.687   1.463   7.092 -0.0356  0.1957 -1.4568
 7422SOL     OW33727   3.567   1.332   2.218 -0.0222 -0.1005 -0.2569
 7422SOL    HW133728   3.597   1.254   2.265  0.7806  0.6524  0.4922
 7422SOL    HW233729   3.640   1.394   2.225 -1.6607  1.7548  0.5723
 7423SOL     OW33730   0.546   0.069   4.489 -0.5311 -0.2327  0.2586
 7423SOL    HW133731   0.507   0.007   4.427  1.1442 -2.5879  1.5296
 7423SOL    HW233732   0.506   0.046   4.572  0.9996 -0.0229  1.0476
 7424SOL     OW33733   3.831   0.803   0.182  0.5858 -0.5605 -0.2670
 7424SOL    HW133734   3.806   0.731   0.124  2.7079 -1.8539  0.4268
 7424SOL    HW233735   3.751   0.852   0.162  1.2662  0.7688  0.2921
 7425SOL     OW33736   2.984   3.599   4.910 -0.6067  0.3464 -0.4510
 7425SOL    HW133737   3.057   3.576   4.966 -2.0429 -1.1535  0.7917
 7425SOL    HW233738   3.025   3.660   4.848  2.5406  1.8918  3.1437
 7426SOL     OW33739   2.976   2.825   3.317  0.4763  0.2763 -0.3305
 7426SOL    HW133740   2.884   2.814   3.341  0.0276 -0.8360 -2.5455
 7426SOL    HW233741   2.972   2.878   3.238  2.1180  0.7944 -0.0596
 7427SOL     OW33742   4.103   1.190   9.071  0.0497 -0.2799  0.2548
 7427SOL    HW133743   4.054   1.170   8.991 -1.1933 -0.0643  0.9557
 7427SOL    HW233744   4.036   1.193   9.140 -0.7234 -0.7975 -0.4727
 7428SOL     OW33745   1.257   2.654   7.683  0.0330  0.0855 -0.3353
 7428SOL    HW133746   1.345   2.659   7.645  0.0980 -2.2245 -0.5081
 7428SOL    HW233747   1.275   2.619   7.771  1.9299 -1.4583 -1.3113
 7429SOL     OW33748   3.968   4.363   6.288  0.3899 -0.5468 -0.1546
 7429SOL    HW133749   3.922   4.292   6.333 -1.4282  0.2343 -0.8048
 7429SOL    HW233750   4.056   4.326   6.291  1.5576  2.1271 -1.9927
 7430SOL     OW33751   2.010   0.454   4.726 -0.1730 -0.2735  0.2782
 7430SOL    HW133752   2.067   0.433   4.652  1.2841  1.9672  0.7577
 7430SOL    HW233753   2.000   0.549   4.717 -2.0603 -0.4060  1.0492
 7431SOL     OW33754   1.430   0.118  12.703 -0.0452  0.4851  0.8490
 7431SOL    HW133755   1.496   0.170  12.749  0.7182  0.6198 -0.3871
 7431SOL    HW233756   1.356   0.179  12.693  1.0942  1.8427  0.6424
 7432SOL     OW33757   2.906   3.430   3.864  0.1004  0.0007  0.0377
 7432SOL    HW133758   2.933   3.346   3.901 -0.8321  0.1200  1.0175
 7432SOL    HW233759   2.842   3.401   3.799 -1.0866 -1.3067  1.7885
 7433SOL     OW33760   0.696   1.563   0.311 -0.1653  0.3517  0.0298
 7433SOL    HW133761   0.781   1.519   0.320  0.1333  0.8658 -0.2552
 7433SOL    HW233762   0.639   1.490   0.289 -0.6124  0.4929  0.7272
 7434SOL     OW33763   3.869   1.443   8.913  0.0765  0.0724 -0.2800
 7434SOL    HW133764   3.896   1.525   8.872  1.3115 -0.1599  0.0711
 7434SOL    HW233765   3.811   1.478   8.981 -0.7664 -1.6094 -0.1270
 7435SOL     OW33766   1.967   2.947   4.045 -0.0978 -0.1036 -0.5979
 7435SOL    HW133767   1.934   3.032   4.074  1.8092  0.1671  0.8387
 7435SOL    HW233768   2.038   2.931   4.108 -0.3799 -0.7590 -0.4483
 7436SOL     OW33769   3.408   0.768   8.746  0.3920  0.3619  0.1500
 7436SOL    HW133770   3.431   0.691   8.797 -1.7607 -1.2338 -1.2671
 7436SOL    HW233771   3.489   0.815   8.766  0.1547  0.3394  1.1795
 7437SOL     OW33772   3.533   0.759   2.787 -0.2773  0.6110  0.0831
 7437SOL    HW133773   3.612   0.729   2.831 -0.4303  1.1722  0.7354
 7437SOL    HW233774   3.521   0.844   2.830  1.2287  0.5848  0.5429
 7438SOL     OW33775   0.045   3.855   8.588 -0.0848 -0.4486 -0.1402
 7438SOL    HW133776   0.108   3.861   8.661  0.7429 -0.2582 -0.8655
 7438SOL    HW233777   4.685   3.866   8.630 -0.0423 -1.9141  0.3326
 7439SOL     OW33778   3.800   2.340  14.931 -0.2601 -0.5705  0.0813
 7439SOL    HW133779   3.723   2.389  14.959 -1.0152 -0.7993 -1.6175
 7439SOL    HW233780   3.854   2.338  15.010  1.6370  0.5684 -1.1765
 7440SOL     OW33781   0.628   2.771  10.845 -0.6206 -0.2100 -0.5441
 7440SOL    HW133782   0.684   2.733  10.777  1.9101  0.3884  1.1992
 7440SOL    HW233783   0.582   2.691  10.869 -1.6203  1.2597  2.5391
 7441SOL     OW33784   2.618   3.104  10.843  0.3787 -0.4312  0.1811
 7441SOL    HW133785   2.536   3.081  10.887 -0.5321 -0.4202 -1.5009
 7441SOL    HW233786   2.688   3.059  10.891  0.4769 -1.0716 -0.5513
 7442SOL     OW33787   3.140   2.247   4.851 -0.1314  0.1624 -0.0067
 7442SOL    HW133788   3.208   2.314   4.847 -0.7811  0.8697  0.7797
 7442SOL    HW233789   3.150   2.202   4.767  1.4321  2.8246 -1.2406
 7443SOL     OW33790   2.724   2.402   3.077  0.3632 -0.0532 -0.2409
 7443SOL    HW133791   2.774   2.321   3.088 -1.6469 -1.1616  0.7854
 7443SOL    HW233792   2.788   2.460   3.036 -1.3206  1.4923 -0.6903
 7444SOL     OW33793   0.937   0.651   7.123 -0.8989 -0.3935  0.0014
 7444SOL    HW133794   1.030   0.669   7.109 -0.5302 -1.1222  1.4880
 7444SOL    HW233795   0.934   0.579   7.061 -1.2387 -0.6588  0.3248
 7445SOL     OW33796   2.950   3.563   2.276 -0.5016  0.0012  0.0028
 7445SOL    HW133797   2.900   3.599   2.203 -0.4097  2.4036  1.1129
 7445SOL    HW233798   2.930   3.470   2.276 -0.5460  0.0110  0.1288
 7446SOL     OW33799   2.756   3.461   7.232 -0.3876 -0.0293 -0.5027
 7446SOL    HW133800   2.795   3.393   7.287  1.4737  1.6495  0.2749
 7446SOL    HW233801   2.668   3.425   7.219 -0.0716 -1.9102  2.3770
 7447SOL     OW33802   3.018   1.347  13.470  0.5096  0.0105 -0.0596
 7447SOL    HW133803   2.947   1.411  13.466  0.9392  0.4705 -0.4555
 7447SOL    HW233804   2.978   1.265  13.498  0.9398 -0.5265 -1.0179
 7448SOL     OW33805   2.239   0.015   8.007 -0.6471  0.0690 -0.3420
 7448SOL    HW133806   2.333   0.001   8.017 -0.6787  0.1285  0.0271
 7448SOL    HW233807   2.210   0.054   8.089  1.5247 -0.5379  0.6933
 7449SOL     OW33808   3.972   2.863  17.051 -0.3643 -0.2209 -0.6622
 7449SOL    HW133809   3.921   2.784  17.070 -1.4018 -0.0295 -2.6135
 7449SOL    HW233810   4.053   2.826  17.017  1.3455  1.1011  2.0301
 7450SOL     OW33811   3.106   4.374   3.900  0.0891  0.3198 -0.3906
 7450SOL    HW133812   3.045   4.347   3.831  1.6010 -0.4128 -1.4193
 7450SOL    HW233813   3.104   4.299   3.961  0.2655 -0.7544 -1.7040
 7451SOL     OW33814   1.192   0.558   3.929 -0.0646 -0.1196 -0.3679
 7451SOL    HW133815   1.250   0.597   3.993  0.2890  0.4919 -1.0617
 7451SOL    HW233816   1.255   0.547   3.858  0.7169 -0.8082  0.4301
 7452SOL     OW33817   2.600   0.985   3.626 -0.0272  0.2501  0.2763
 7452SOL    HW133818   2.564   0.934   3.554  1.2402 -0.7671  0.3703
 7452SOL    HW233819   2.671   1.027   3.578 -0.6928  0.3252 -0.6345
 7453SOL     OW33820   0.704   2.088   2.407  0.9567  0.6270 -0.0687
 7453SOL    HW133821   0.677   2.174   2.441  0.2017 -0.7039  2.6832
 7453SOL    HW233822   0.793   2.093   2.442  0.8359 -0.0852  0.3350
 7454SOL     OW33823   1.726   4.088   1.429 -0.3174  0.3664  0.2027
 7454SOL    HW133824   1.637   4.053   1.440 -0.9575  2.2671  1.2351
 7454SOL    HW233825   1.717   4.129   1.343  1.2034  2.4889  1.0655
 7455SOL     OW33826   3.068   0.083   2.240 -0.1997 -0.0868 -0.3733
 7455SOL    HW133827   2.979   0.054   2.216 -0.2651 -0.4650  0.3324
 7455SOL    HW233828   3.041   0.141   2.311  1.4922  1.9521 -1.4022
 7456SOL     OW33829   1.900   1.111   0.403  0.0175 -0.1739  1.0093
 7456SOL    HW133830   1.995   1.105   0.389 -0.3579 -2.9366 -0.3044
 7456SOL    HW233831   1.883   1.205   0.399 -0.1601 -0.1471  2.3245
 7457SOL     OW33832   3.036   1.131   0.350  0.7420  0.1339  0.0001
 7457SOL    HW133833   3.086   1.106   0.427 -1.0057  0.3131  1.2044
 7457SOL    HW233834   3.042   1.051   0.299  1.1119 -0.8301  1.5628
 7458SOL     OW33835   2.120   0.756  13.160 -0.2908  0.3210  0.2170
 7458SOL    HW133836   2.059   0.741  13.232  0.9842 -0.1174  1.2037
 7458SOL    HW233837   2.153   0.667  13.150 -1.7394 -0.2757  0.8500
 7459SOL     OW33838   3.384   0.873   4.165  0.0118 -0.2975 -0.0056
 7459SOL    HW133839   3.367   0.961   4.131  1.7720  0.2874  0.5802
 7459SOL    HW233840   3.379   0.826   4.082 -1.4112 -0.2925  0.0797
 7460SOL     OW33841   3.182   1.236  10.947 -0.5980  0.0915 -0.7419
 7460SOL    HW133842   3.220   1.186  11.019 -0.8253  1.4830  0.3411
 7460SOL    HW233843   3.255   1.298  10.945 -2.3653  2.2113 -0.1028
 7461SOL     OW33844   2.727   1.532   7.954 -0.2729  0.0030  0.1252
 7461SOL    HW133845   2.777   1.603   7.994 -0.0293  1.5206 -2.8970
 7461SOL    HW233846   2.695   1.593   7.888 -0.6940 -0.4519 -0.0906
 7462SOL     OW33847   1.148   2.795   6.760 -0.0778 -0.3952 -0.0321
 7462SOL    HW133848   1.175   2.879   6.722 -0.5872  0.8336  2.3177
 7462SOL    HW233849   1.234   2.752   6.757 -0.5390 -1.0988 -3.5947
 7463SOL     OW33850   3.745   2.998   3.481  0.0843 -0.2726  0.4672
 7463SOL    HW133851   3.664   2.986   3.531 -0.6284  2.7798  0.0170
 7463SOL    HW233852   3.755   3.092   3.492  2.7360 -0.3846 -0.9683
 7464SOL     OW33853   3.619   3.458   3.128  0.1394  0.1892  0.1213
 7464SOL    HW133854   3.655   3.546   3.122  0.0878  0.3018  1.3978
 7464SOL    HW233855   3.691   3.417   3.176 -1.0995 -0.2005  1.6626
 7465SOL     OW33856   4.391   4.564  15.695  0.1181  0.0812  0.1111
 7465SOL    HW133857   4.486   4.572  15.686 -0.4103  2.6914 -2.6982
 7465SOL    HW233858   4.367   4.655  15.714  0.7341  0.3386 -0.3745
 7466SOL     OW33859   1.396   4.001  13.619 -0.2045  0.5743  0.0804
 7466SOL    HW133860   1.481   4.007  13.662 -0.1379  0.1644  0.0109
 7466SOL    HW233861   1.367   4.092  13.622  2.9712  1.6408 -1.1613
 7467SOL     OW33862   4.230   0.715   8.855  0.3626  0.3170  0.5742
 7467SOL    HW133863   4.167   0.664   8.906 -0.3320 -0.4221 -1.0167
 7467SOL    HW233864   4.299   0.650   8.842 -1.0375 -1.4109  1.8083
 7468SOL     OW33865   4.363   0.161  16.277  0.1960  0.0280  0.2063
 7468SOL    HW133866   4.283   0.208  16.252  1.8265  1.5041 -2.2464
 7468SOL    HW233867   4.324   0.084  16.317  1.3880 -0.4303  0.4695
 7469SOL     OW33868   4.287   0.077  13.027  0.0480  0.4377  0.1885
 7469SOL    HW133869   4.297   0.156  12.973 -2.1654  0.4974 -0.1014
 7469SOL    HW233870   4.366   0.029  12.999 -1.5758 -1.6369 -0.8019
 7470SOL     OW33871   1.714   1.451   0.316 -0.3652  0.0490 -0.0818
 7470SOL    HW133872   1.789   1.438   0.259  0.5401  0.1570  1.0716
 7470SOL    HW233873   1.765   1.493   0.386  0.5444  2.2196 -2.0640
 7471SOL     OW33874   0.914   2.517   7.789  0.0645  0.1470 -0.1552
 7471SOL    HW133875   0.982   2.502   7.855  2.2473 -1.5850 -2.7683
 7471SOL    HW233876   0.862   2.576   7.843  0.8873  0.6660  0.0754
 7472SOL     OW33877   0.820   0.425   4.013  0.0080 -1.0732 -0.0154
 7472SOL    HW133878   0.876   0.356   4.049  0.3935  0.2800  2.0251
 7472SOL    HW233879   0.878   0.456   3.943 -1.2013  0.7691 -0.1849
 7473SOL     OW33880   2.832   1.987   9.523  0.4781  0.2216 -0.2019
 7473SOL    HW133881   2.747   1.944   9.531  0.6053  0.0609  0.2756
 7473SOL    HW233882   2.810   2.066   9.475  0.5238 -0.7653 -1.8577
 7474SOL     OW33883   4.244   0.252   7.208  0.3576  0.4595 -0.2048
 7474SOL    HW133884   4.327   0.212   7.181  0.3756 -1.1894  2.2388
 7474SOL    HW233885   4.285   0.338   7.215 -1.0066  0.8552  3.1911
 7475SOL     OW33886   0.863   1.583   7.290  0.2122  0.1020 -0.3997
 7475SOL    HW133887   0.825   1.561   7.375 -0.0132 -1.1224 -0.8177
 7475SOL    HW233888   0.814   1.664   7.273 -0.8123  0.3280  3.6812
 7476SOL     OW33889   0.566   2.374   5.159  0.2772 -0.2435 -0.4352
 7476SOL    HW133890   0.579   2.321   5.238  0.2139 -0.6351 -0.6866
 7476SOL    HW233891   0.611   2.454   5.186  0.1005 -0.8248  1.5682
 7477SOL     OW33892   0.093   4.352   5.197 -0.0574  0.5789 -0.1813
 7477SOL    HW133893   4.725   4.362   5.180  0.1213  0.6074 -1.1193
 7477SOL    HW233894   0.095   4.322   5.288  0.8411  3.0229  0.5936
 7478SOL     OW33895   3.043   3.248   9.592 -0.7160  0.0778 -0.9486
 7478SOL    HW133896   3.073   3.212   9.676 -0.3789 -0.6944 -1.4001
 7478SOL    HW233897   2.985   3.179   9.561 -2.3474  1.0159  0.0083
 7479SOL     OW33898   1.406   1.101   0.465  0.5570 -0.0303 -0.4363
 7479SOL    HW133899   1.312   1.086   0.461  0.3006  1.2834  0.5593
 7479SOL    HW233900   1.439   1.012   0.475  2.3022  0.6873  0.2073
 7480SOL     OW33901   4.544   0.188   1.752  0.0360 -0.2139 -0.0088
 7480SOL    HW133902   4.492   0.232   1.684  0.3356  2.1863  1.3327
 7480SOL    HW233903   4.487   0.116   1.780  0.3451 -1.0049 -1.3853
 7481SOL     OW33904   0.703   1.526   3.993  0.5718 -0.1265 -0.4546
 7481SOL    HW133905   0.637   1.545   4.061 -0.3765  0.5146 -1.5514
 7481SOL    HW233906   0.755   1.452   4.023  0.8859  0.6926  1.0512
 7482SOL     OW33907   1.568   0.259   2.613 -0.1231  0.0288  0.0554
 7482SOL    HW133908   1.558   0.169   2.643  1.7865 -0.4904 -0.8576
 7482SOL    HW233909   1.515   0.305   2.678 -2.6415 -2.3562 -0.3454
 7483SOL     OW33910   1.625   0.755   7.092  0.8236 -0.1885  0.7460
 7483SOL    HW133911   1.557   0.823   7.097  0.1516 -0.7620 -0.3039
 7483SOL    HW233912   1.570   0.699   7.037  1.7607  0.7890 -1.1831
 7484SOL     OW33913   0.312   1.547  15.388 -0.4228 -0.2257 -0.0986
 7484SOL    HW133914   0.245   1.532  15.455  1.4545 -0.8381  1.6010
 7484SOL    HW233915   0.295   1.641  15.380  0.1104 -0.2060 -0.9450
 7485SOL     OW33916   3.722   4.692   4.234  0.0532  0.1981 -0.3453
 7485SOL    HW133917   3.702   0.012   4.152  0.1967  0.0636 -0.4551
 7485SOL    HW233918   3.686   0.026   4.300 -1.4410  1.9755 -2.7602
 7486SOL     OW33919   3.795   3.924   9.520  0.0854  0.4341 -0.2575
 7486SOL    HW133920   3.751   3.873   9.587 -0.4253  1.4483  0.1802
 7486SOL    HW233921   3.766   3.874   9.443  1.2662  0.4659 -0.7244
 7487SOL     OW33922   4.263   1.859  14.940  0.1493  0.4356  0.4648
 7487SOL    HW133923   4.268   1.773  14.899 -2.0975  0.7211 -0.3909
 7487SOL    HW233924   4.238   1.908  14.862 -2.2930 -0.8871  0.4107
 7488SOL     OW33925   0.035   0.298   2.049  0.0899  0.0228  0.0055
 7488SOL    HW133926   0.030   0.349   2.130  0.0639  0.2315 -0.1262
 7488SOL    HW233927   0.126   0.311   2.024  0.2419 -3.4083 -1.1639
 7489SOL     OW33928   4.535   1.527   2.579  0.3952 -0.6391  0.5238
 7489SOL    HW133929   4.465   1.517   2.643  1.4645 -0.8633  1.6754
 7489SOL    HW233930   4.612   1.496   2.628  2.6570  2.9047 -0.7781
 7490SOL     OW33931   2.559   4.647   3.964 -0.1688 -0.3030 -0.1164
 7490SOL    HW133932   2.631   4.589   3.987 -0.0007 -0.2197 -0.4376
 7490SOL    HW233933   2.600   0.008   3.955 -0.3658 -0.0685  1.2394
 7491SOL     OW33934   2.740   4.115   5.079  0.0460  0.7946 -0.3478
 7491SOL    HW133935   2.659   4.064   5.084 -0.4286  1.4393 -1.4459
 7491SOL    HW233936   2.760   4.121   5.172 -1.8365  0.1104  0.0966
 7492SOL     OW33937   0.487   0.301   7.518 -0.1735  0.8499  0.7248
 7492SOL    HW133938   0.394   0.292   7.534 -0.0105  0.2809  1.3549
 7492SOL    HW233939   0.495   0.385   7.472  0.9662  1.8113  2.6873
 7493SOL     OW33940   4.416   2.464  16.323 -0.4560 -0.3649  0.3018
 7493SOL    HW133941   4.331   2.423  16.341  0.2177 -0.9286  2.2480
 7493SOL    HW233942   4.469   2.398  16.367 -0.0209  0.1361  0.5378
 7494SOL     OW33943   0.367   3.734  13.860  0.1323 -0.0908  0.5665
 7494SOL    HW133944   0.375   3.676  13.936  0.8254  0.3939  0.8546
 7494SOL    HW233945   0.417   3.810  13.889  0.7649 -0.4325  0.3630
 7495SOL     OW33946   2.166   0.544  10.044  0.0195 -1.0757 -0.0320
 7495SOL    HW133947   2.184   0.457  10.082  1.8714 -2.5905 -4.3718
 7495SOL    HW233948   2.071   0.541  10.055 -0.5912  1.6326 -4.7082
 7496SOL     OW33949   1.691   4.642   7.843  0.0210 -0.5157  0.5450
 7496SOL    HW133950   1.768   4.599   7.881  0.0017 -0.6983  0.3810
 7496SOL    HW233951   1.641   4.660   7.923  0.9490  3.5632  0.2064
 7497SOL     OW33952   0.325   2.528   3.844 -0.3994 -0.0387  0.3240
 7497SOL    HW133953   0.367   2.550   3.760  0.0352 -0.4983  0.4207
 7497SOL    HW233954   0.389   2.465   3.876  0.7935  1.3582  0.7235
 7498SOL     OW33955   1.990   1.290   4.882 -0.4218  0.1338 -0.2786
 7498SOL    HW133956   1.981   1.334   4.798 -0.5619  0.5053 -0.0692
 7498SOL    HW233957   1.899   1.300   4.912 -0.9691 -2.0205 -1.1974
 7499SOL     OW33958   3.737   2.628   1.337 -0.0762 -0.3417  0.0343
 7499SOL    HW133959   3.723   2.625   1.432  0.9209 -0.8697  0.1650
 7499SOL    HW233960   3.804   2.696   1.341  0.4849 -0.8519 -1.0256
 7500SOL     OW33961   1.168   2.207   2.979  1.1178  0.1621 -0.2832
 7500SOL    HW133962   1.114   2.278   2.944  1.0821 -0.5475 -1.6623
 7500SOL    HW233963   1.109   2.169   3.045 -1.0303  0.9116 -1.7730
 7501SOL     OW33964   3.295   3.099   2.458  0.6917  0.3472  0.3793
 7501SOL    HW133965   3.384   3.092   2.493  0.4897 -3.6282  0.1375
 7501SOL    HW233966   3.290   3.190   2.430  0.3486  0.2861  0.2415
 7502SOL     OW33967   1.929   3.256   8.578  0.1415  0.1255 -0.3275
 7502SOL    HW133968   1.864   3.195   8.612  0.0380  0.2698 -0.2653
 7502SOL    HW233969   1.895   3.341   8.605 -2.2334 -1.1735  0.7961
 7503SOL     OW33970   1.061   3.410   9.198  0.1590 -0.1472 -0.0337
 7503SOL    HW133971   1.042   3.320   9.170 -1.4441  0.5886 -1.3272
 7503SOL    HW233972   1.153   3.398   9.224 -0.2840 -1.2474  0.9902
 7504SOL     OW33973   2.801   2.101   4.737 -0.0090 -0.1355 -0.4146
 7504SOL    HW133974   2.877   2.140   4.693 -1.5957 -0.4555 -3.4405
 7504SOL    HW233975   2.805   2.018   4.689  0.7575  0.7208 -1.8433
 7505SOL     OW33976   0.394   1.315   7.014 -0.6180  0.5282 -0.1100
 7505SOL    HW133977   0.354   1.298   7.099 -0.2739 -2.8076 -0.6374
 7505SOL    HW233978   0.308   1.328   6.975 -0.1940  2.2817 -0.4874
 7506SOL     OW33979   0.181   3.710  16.454  0.0880 -0.1117  0.8661
 7506SOL    HW133980   0.100   3.745  16.416  1.2630  1.1124 -0.4738
 7506SOL    HW233981   0.148   3.639  16.509  1.4552 -1.1557  0.3360
 7507SOL     OW33982   4.254   4.715   7.071  0.5462  0.9253 -0.0002
 7507SOL    HW133983   4.182   0.052   7.062  0.7478  0.9988 -0.9975
 7507SOL    HW233984   4.226   4.649   7.008  0.3897 -0.6296  1.6647
 7508SOL     OW33985   1.584   0.842   9.969  0.8224  0.3626  0.2700
 7508SOL    HW133986   1.658   0.873  10.021  0.2646  0.6972  0.8614
 7508SOL    HW233987   1.576   0.902   9.895 -0.6676 -1.8280 -1.3620
 7509SOL     OW33988   2.316   4.503  15.197 -0.3378 -0.3422  0.1347
 7509SOL    HW133989   2.381   4.457  15.251 -0.6952  0.0535  0.8949
 7509SOL    HW233990   2.370   4.565  15.147 -0.4515  0.4423  0.9923
 7510SOL     OW33991   3.698   1.768   1.654  0.0549 -0.4406 -0.4109
 7510SOL    HW133992   3.675   1.696   1.712  0.3801 -0.1253  0.1057
 7510SOL    HW233993   3.615   1.770   1.606 -1.3078  2.4863  2.1146
 7511SOL     OW33994   0.641   0.017   3.495 -0.4362  0.2010 -0.6027
 7511SOL    HW133995   0.669   4.654   3.470  1.6806  0.4883  0.7155
 7511SOL    HW233996   0.685   0.077   3.434  0.7877 -0.5709 -0.4877
 7512SOL     OW33997   2.136   1.945   4.894  0.3860  0.2679 -0.3831
 7512SOL    HW133998   2.115   2.039   4.890  3.6805  1.0533  0.9742
 7512SOL    HW233999   2.145   1.940   4.989  1.4332  1.9084 -0.3947
 7513SOL     OW34000   3.577   0.197   9.296 -0.2330  0.5258 -0.1352
 7513SOL    HW134001   3.587   0.124   9.356 -0.9564  0.0743 -0.5732
 7513SOL    HW234002   3.580   0.150   9.212  0.1864  1.5899 -0.7256
 7514SOL     OW34003   3.396   2.293  16.557  0.5498  0.0678 -0.2692
 7514SOL    HW134004   3.353   2.260  16.479 -1.0317  3.2810 -0.7557
 7514SOL    HW234005   3.356   2.380  16.560 -0.6665 -0.5501  1.7150
 7515SOL     OW34006   1.042   2.820   3.121  0.4885 -0.2429  0.3836
 7515SOL    HW134007   0.990   2.741   3.136  0.9448 -0.1404  2.5633
 7515SOL    HW234008   1.017   2.839   3.031 -1.5156  0.4583  1.1093
 7516SOL     OW34009   2.496   1.032   5.489 -0.5924  0.0555  0.5892
 7516SOL    HW134010   2.521   1.123   5.506 -0.8261  0.5680 -1.7733
 7516SOL    HW234011   2.401   1.043   5.481 -0.6651  0.2485  1.7634
 7517SOL     OW34012   4.511   3.997   5.394 -0.5475  0.3595 -0.9314
 7517SOL    HW134013   4.496   3.903   5.404  1.3643  0.4982  2.9266
 7517SOL    HW234014   4.598   3.998   5.354 -0.7469 -1.5724 -1.4205
 7518SOL     OW34015   3.963   1.740  15.851  0.4265 -0.2023  0.5204
 7518SOL    HW134016   3.965   1.815  15.791  0.1557 -1.5693 -1.1798
 7518SOL    HW234017   3.979   1.781  15.936 -0.8008 -0.1628  0.7413
 7519SOL     OW34018   0.302   1.229  15.388  0.1746 -0.4109  0.8585
 7519SOL    HW134019   0.373   1.173  15.357 -0.4857  0.0513 -1.5521
 7519SOL    HW234020   0.247   1.240  15.310  2.0622 -0.2936 -0.4531
 7520SOL     OW34021   4.588   4.465  14.866 -0.3589 -0.3760  0.0232
 7520SOL    HW134022   4.592   4.516  14.947 -1.8696  1.6453 -1.1762
 7520SOL    HW234023   4.668   4.491  14.821  0.1837 -0.9537  0.6445
 7521SOL     OW34024   1.045   0.948   7.939  0.4555 -0.0648  0.3046
 7521SOL    HW134025   1.110   1.017   7.954 -2.1863  1.8512  2.8970
 7521SOL    HW234026   1.097   0.871   7.916  0.9376  0.5788 -0.7970
 7522SOL     OW34027   4.618   2.934   5.856 -0.1111  0.0434 -0.2162
 7522SOL    HW134028   4.523   2.937   5.866 -0.3753  3.8856 -4.1535
 7522SOL    HW234029   4.639   2.843   5.837 -0.3585 -0.0852  0.1117
 7523SOL     OW34030   2.334   4.167   5.154 -0.0443  0.0134  0.0263
 7523SOL    HW134031   2.355   4.244   5.102 -1.7156 -0.7501 -1.7974
 7523SOL    HW234032   2.394   4.103   5.114  1.7372  1.7391 -0.0836
 7524SOL     OW34033   0.929   3.830   0.200  0.0756 -0.1008  0.7384
 7524SOL    HW134034   0.894   3.779   0.127  3.4097 -1.7725  0.3008
 7524SOL    HW234035   0.869   3.792   0.264 -0.3356 -1.8437 -0.6742
 7525SOL     OW34036   2.371   0.108   4.985 -0.3428 -0.3307 -0.1375
 7525SOL    HW134037   2.448   0.073   5.028  0.4824  1.0852 -0.4401
 7525SOL    HW234038   2.303   0.101   5.052 -0.8308 -0.6552 -0.6723
 7526SOL     OW34039   2.127   0.027   0.994 -0.2928  0.0870  0.0550
 7526SOL    HW134040   2.147   0.064   0.907 -1.0756 -0.8237 -0.5038
 7526SOL    HW234041   2.069   4.680   0.971  2.4630 -1.2674 -2.7815
 7527SOL     OW34042   4.100   0.921   7.384  0.4732 -0.3178 -0.1058
 7527SOL    HW134043   4.012   0.908   7.422 -0.3215 -0.7688 -2.1061
 7527SOL    HW234044   4.077   0.934   7.292  1.0275 -0.2899 -0.2346
 7528SOL     OW34045   4.279   1.898   1.745 -0.0937  0.1849  0.5423
 7528SOL    HW134046   4.270   1.993   1.735  3.2655  0.5013  0.6372
 7528SOL    HW234047   4.358   1.878   1.695 -1.6115 -3.3290 -0.4536
 7529SOL     OW34048   1.464   3.897   2.891 -0.0898 -0.5269  1.0228
 7529SOL    HW134049   1.414   3.979   2.888 -1.0749 -1.1038  1.7110
 7529SOL    HW234050   1.554   3.921   2.871  0.1538 -1.3317  1.1798
 7530SOL     OW34051   2.275   3.577  14.570 -0.2182  0.8020  0.0841
 7530SOL    HW134052   2.185   3.588  14.539  0.4579 -0.4632 -2.3459
 7530SOL    HW234053   2.263   3.490  14.610 -2.4250  0.0693 -2.1847
 7531SOL     OW34054   2.535   1.863   8.580  0.4383 -0.1034  0.2849
 7531SOL    HW134055   2.488   1.812   8.646  1.2167 -1.4559 -0.2023
 7531SOL    HW234056   2.534   1.801   8.507 -2.4254 -0.9384  1.0307
 7532SOL     OW34057   1.923   3.245   2.003  0.0154  0.2743 -0.5145
 7532SOL    HW134058   1.842   3.294   2.017  0.4518  1.2869 -1.5742
 7532SOL    HW234059   1.892   3.174   1.947  1.3776  0.0348 -0.9553
 7533SOL     OW34060   3.800   1.055   2.961 -0.0583 -0.1984 -0.5629
 7533SOL    HW134061   3.786   1.150   2.968 -3.4275 -0.6662 -1.0995
 7533SOL    HW234062   3.878   1.042   3.014  0.4009  1.3998 -0.8316
 7534SOL     OW34063   4.101   4.462  17.343 -0.3426  0.0645  0.1280
 7534SOL    HW134064   4.009   4.481  17.361 -0.0294 -0.5693  2.4936
 7534SOL    HW234065   4.137   4.540  17.302  0.6236 -0.6932 -0.4531
 7535SOL     OW34066   4.241   0.978   0.184  0.1776 -0.1609  0.2863
 7535SOL    HW134067   4.250   1.065   0.222 -0.3492 -0.4462  1.0514
 7535SOL    HW234068   4.278   0.981   0.095  2.7468  2.1280  1.4427
 7536SOL     OW34069   3.674   2.725  11.728 -0.5788 -0.0709 -0.2888
 7536SOL    HW134070   3.586   2.703  11.698 -0.5000  1.2304 -1.4779
 7536SOL    HW234071   3.701   2.640  11.762  0.0585 -0.2797 -1.3093
 7537SOL     OW34072   0.603   0.302   2.691  0.3257 -0.7085 -0.2639
 7537SOL    HW134073   0.511   0.293   2.713  0.0180 -0.4634 -1.4609
 7537SOL    HW234074   0.614   0.232   2.627 -0.9979 -2.8584  1.8530
 7538SOL     OW34075   2.558   4.589  16.008  0.5835 -0.1971  0.2808
 7538SOL    HW134076   2.570   4.614  16.100 -1.1393 -1.0472  0.7281
 7538SOL    HW234077   2.650   4.570  15.989 -0.1494 -2.0396 -1.5022
 7539SOL     OW34078   4.035   1.070   5.069 -0.7306  0.0999  0.3627
 7539SOL    HW134079   4.069   1.103   5.152  1.7825  2.6024 -1.6634
 7539SOL    HW234080   3.953   1.037   5.106 -0.5485 -1.4630 -0.6556
 7540SOL     OW34081   4.331   3.626   3.344  0.4620 -0.2734  0.1407
 7540SOL    HW134082   4.240   3.640   3.319  0.0744 -0.6847  1.3434
 7540SOL    HW234083   4.356   3.563   3.276  1.4823  0.2923 -0.0155
 7541SOL     OW34084   1.452   3.076   4.581  0.5687 -0.0964 -0.2468
 7541SOL    HW134085   1.487   3.045   4.664  0.9889  0.9110 -0.0416
 7541SOL    HW234086   1.532   3.093   4.531  1.4417  1.0829  1.5521
 7542SOL     OW34087   1.508   1.920   1.438  0.5568 -0.1858 -0.4990
 7542SOL    HW134088   1.522   2.008   1.473  0.3268  0.1517 -1.2779
 7542SOL    HW234089   1.556   1.859   1.495 -0.5586  0.5531  1.2292
 7543SOL     OW34090   0.315   0.582   2.143  0.3277  0.3857  0.3096
 7543SOL    HW134091   0.307   0.641   2.218  0.4010  0.8225 -0.0290
 7543SOL    HW234092   0.311   0.638   2.066  0.0951 -0.9332 -0.6411
 7544SOL     OW34093   0.862   3.822  10.281 -0.3887 -0.0188  0.2259
 7544SOL    HW134094   0.943   3.797  10.326  1.2259  4.8253 -0.0280
 7544SOL    HW234095   0.800   3.777  10.339  0.5655  0.3160  1.5020
 7545SOL     OW34096   2.299   2.214   6.062 -0.0825  0.2044 -0.1020
 7545SOL    HW134097   2.258   2.205   6.148 -1.3569 -1.7130 -0.9015
 7545SOL    HW234098   2.226   2.250   6.012 -1.4012 -0.5237  1.2963
 7546SOL     OW34099   0.022   1.424   7.044 -0.5529  0.1887 -0.0456
 7546SOL    HW134100   4.708   1.500   7.000 -0.6129 -0.9956 -2.0566
 7546SOL    HW234101   4.716   1.429   7.134  0.7130 -0.2345  0.4162
 7547SOL     OW34102   3.751   3.694   3.057 -0.4874 -0.4491 -0.1904
 7547SOL    HW134103   3.740   3.773   3.109  3.8336 -1.2471  1.9148
 7547SOL    HW234104   3.847   3.687   3.055 -0.5463 -0.7141 -2.8013
 7548SOL     OW34105   3.393   1.745   8.502  0.2430 -0.2109  0.2957
 7548SOL    HW134106   3.423   1.661   8.537 -0.7396  0.6702  3.2519
 7548SOL    HW234107   3.336   1.768   8.576  0.6734 -2.5913  1.3500
 7549SOL     OW34108   3.646   2.642   3.738  0.3508 -0.3901  0.5123
 7549SOL    HW134109   3.701   2.564   3.749 -2.7550 -2.5215  1.1086
 7549SOL    HW234110   3.658   2.672   3.828 -2.0439  0.0466  0.6722
 7550SOL     OW34111   1.419   4.677   7.669  0.5389  0.6516 -0.3090
 7550SOL    HW134112   1.347   4.708   7.723  0.5197  0.5185 -0.2573
 7550SOL    HW234113   1.479   4.628   7.725 -1.4622  0.1181  1.3366
 7551SOL     OW34114   0.999   0.128   9.494  0.5689  0.2107  0.0893
 7551SOL    HW134115   0.937   0.106   9.425 -0.8167  1.1895  1.0227
 7551SOL    HW234116   0.935   0.176   9.547  0.4569  0.5747 -0.3780
 7552SOL     OW34117   4.200   0.428   4.231  0.9544  0.4945 -0.0343
 7552SOL    HW134118   4.266   0.377   4.183  2.0239  0.1054  1.8228
 7552SOL    HW234119   4.120   0.385   4.200 -0.4261  2.5522  0.7002
 7553SOL     OW34120   3.881   1.163   1.129 -0.4276  0.7025  0.1021
 7553SOL    HW134121   3.902   1.101   1.199  1.8887  3.0381  1.4660
 7553SOL    HW234122   3.923   1.240   1.166  1.2376 -0.2215  0.1325
 7554SOL     OW34123   3.693   1.981  12.049 -0.1036  0.2358 -0.6110
 7554SOL    HW134124   3.789   1.978  12.047 -0.0291  0.5883  2.1622
 7554SOL    HW234125   3.675   1.902  12.100 -1.5473  0.0972 -1.3424
 7555SOL     OW34126   2.899   4.287  16.909  0.1902 -0.3846 -0.4917
 7555SOL    HW134127   2.807   4.309  16.923  0.0328 -0.2932 -1.7054
 7555SOL    HW234128   2.944   4.321  16.986  0.4338 -0.4606 -0.6013
 7556SOL     OW34129   3.125   0.344   2.764 -0.0546  0.5848 -0.0457
 7556SOL    HW134130   3.210   0.314   2.799 -0.8354 -1.9443 -0.3350
 7556SOL    HW234131   3.143   0.324   2.672  1.0937 -2.6611  0.8791
 7557SOL     OW34132   1.365   1.173   0.744 -0.0824  0.0295  0.0473
 7557SOL    HW134133   1.296   1.239   0.735  0.6364  0.6411 -0.9448
 7557SOL    HW234134   1.349   1.118   0.668 -0.1244  0.9530 -0.6113
 7558SOL     OW34135   0.082   0.577   0.878  0.1938  0.3234 -0.1842
 7558SOL    HW134136   0.035   0.581   0.961 -0.4819 -0.2613 -0.5394
 7558SOL    HW234137   0.009   0.564   0.817 -0.6977  3.1288  0.2909
 7559SOL     OW34138   3.758   1.954  14.713 -0.1560 -0.5107 -0.1344
 7559SOL    HW134139   3.730   1.869  14.746  1.2277 -1.3602 -1.1257
 7559SOL    HW234140   3.785   1.932  14.624 -0.1437 -1.0574  0.0089
 7560SOL     OW34141   2.271   4.183  16.746  0.4965 -0.0931 -0.0131
 7560SOL    HW134142   2.343   4.150  16.800  2.7102 -1.8038 -3.9608
 7560SOL    HW234143   2.210   4.168  16.818 -0.5796  3.5303 -0.2009
 7561SOL     OW34144   0.634   1.244   5.265  0.9039 -0.5930 -0.1522
 7561SOL    HW134145   0.621   1.168   5.322  0.6295  0.5680  1.3584
 7561SOL    HW234146   0.553   1.294   5.279  1.6721  1.1918 -2.0224
 7562SOL     OW34147   2.753   2.360   7.439 -0.2645  0.0974  0.3687
 7562SOL    HW134148   2.793   2.440   7.405  1.0618 -0.3926  0.7682
 7562SOL    HW234149   2.668   2.393   7.467 -0.7108 -0.2705 -0.5553
 7563SOL     OW34150   3.313   3.656   6.648  0.4073  0.3822 -0.1592
 7563SOL    HW134151   3.271   3.658   6.734  0.6133 -0.7674 -0.0303
 7563SOL    HW234152   3.383   3.595   6.673 -1.6675 -1.6520  0.6746
 7564SOL     OW34153   3.466   0.021   2.413  0.3235 -0.6185 -0.3988
 7564SOL    HW134154   3.436   4.674   2.469 -0.7898  0.0500 -0.1444
 7564SOL    HW234155   3.518   4.696   2.349 -0.0806  0.5308 -1.6375
 7565SOL     OW34156   0.295   3.760   6.219 -0.0605  0.1608 -0.3236
 7565SOL    HW134157   0.368   3.786   6.276 -0.0211  3.4841 -1.8921
 7565SOL    HW234158   0.322   3.675   6.185 -1.9876 -0.8857  0.7902
 7566SOL     OW34159   3.068   4.690  12.655 -0.2007  0.0504  0.6364
 7566SOL    HW134160   2.990   0.018  12.667 -1.4331 -1.8792  1.1192
 7566SOL    HW234161   3.140   0.026  12.671  0.4769 -0.9888  1.5337
 7567SOL     OW34162   0.132   0.199   1.168  0.7879 -0.4071 -0.1376
 7567SOL    HW134163   0.194   0.128   1.184 -0.0611 -0.6103  2.2144
 7567SOL    HW234164   0.198   0.269   1.160 -0.9913  1.4413  1.3207
 7568SOL     OW34165   4.412   0.712   5.986 -0.0835 -0.2345 -0.5171
 7568SOL    HW134166   4.453   0.798   5.997 -0.9010 -0.0021  0.6755
 7568SOL    HW234167   4.436   0.686   5.897 -0.6101  0.9872 -1.0035
 7569SOL     OW34168   4.482   3.663   1.078 -0.3571  0.0502 -0.9496
 7569SOL    HW134169   4.499   3.612   0.999  2.3963 -1.1972  0.4553
 7569SOL    HW234170   4.391   3.692   1.071 -0.2844  0.4532 -0.1160
 7570SOL     OW34171   1.352   1.063   5.340  0.1146 -0.6431  0.4899
 7570SOL    HW134172   1.447   1.074   5.346  0.1222 -0.6937  0.4623
 7570SOL    HW234173   1.344   1.011   5.259  0.7995 -0.9011  0.5830
 7571SOL     OW34174   4.402   1.728   2.486  0.1150  0.1242  0.0282
 7571SOL    HW134175   4.362   1.671   2.420 -0.9806  0.3577  0.4984
 7571SOL    HW234176   4.462   1.664   2.524  0.1548  0.4956  0.5881
 7572SOL     OW34177   1.766   4.022   0.475 -0.5348 -0.4152  0.4054
 7572SOL    HW134178   1.803   4.107   0.500  1.4001 -1.4857  1.1403
 7572SOL    HW234179   1.737   3.980   0.556 -1.0715  1.1942  1.0519
 7573SOL     OW34180   3.230   1.813  11.731 -0.1326  0.0491 -0.2722
 7573SOL    HW134181   3.158   1.867  11.697  0.2148 -0.9363 -2.6293
 7573SOL    HW234182   3.272   1.778  11.652  0.6029 -0.3772  0.3162
 7574SOL     OW34183   2.229   4.592   7.766  0.3901  0.2920 -0.6151
 7574SOL    HW134184   2.225   4.640   7.849 -0.7444  1.1174 -1.1484
 7574SOL    HW234185   2.171   4.648   7.715  0.3016  0.0654 -0.7613
 7575SOL     OW34186   2.768   1.341   3.869 -0.0588 -0.0107 -0.2535
 7575SOL    HW134187   2.852   1.296   3.857 -0.2338 -0.2799 -0.4581
 7575SOL    HW234188   2.756   1.384   3.785 -0.8831 -0.9401 -0.6134
 7576SOL     OW34189   1.702   0.803   7.855  1.1456 -0.4030  0.3245
 7576SOL    HW134190   1.763   0.877   7.846  1.7490 -1.0366 -0.8331
 7576SOL    HW234191   1.644   0.826   7.782  3.4586  0.9272 -1.1374
 7577SOL     OW34192   2.306   3.401   9.620  0.1661  0.5354  0.2468
 7577SOL    HW134193   2.228   3.393   9.674  0.9279  3.5589  1.7985
 7577SOL    HW234194   2.365   3.404   9.695 -1.0501 -0.1926  1.2265
 7578SOL     OW34195   4.516   4.527   8.887  0.0124  0.3758  0.2866
 7578SOL    HW134196   4.485   4.595   8.828 -1.4683 -1.3471 -0.9043
 7578SOL    HW234197   4.442   4.467   8.892  1.6391 -1.6132  0.4991
 7579SOL     OW34198   2.134   2.604   4.169 -0.0286  0.1641  0.1900
 7579SOL    HW134199   2.198   2.635   4.233 -0.5041  0.1106  0.6907
 7579SOL    HW234200   2.166   2.515   4.158 -0.0120  0.1268  0.5175
 7580SOL     OW34201   3.798   4.090   6.795  0.0928 -0.5985  0.7581
 7580SOL    HW134202   3.775   4.182   6.804  0.7939 -0.3236 -0.3590
 7580SOL    HW234203   3.860   4.068   6.864  2.2883 -0.1602 -1.1036
 7581SOL     OW34204   3.065   1.216   8.661 -0.8177  0.4746 -0.2027
 7581SOL    HW134205   3.095   1.264   8.584  1.6127  1.2029  1.2263
 7581SOL    HW234206   3.127   1.142   8.658 -3.1958 -1.5286 -0.1769
 7582SOL     OW34207   1.775   2.549   3.766 -0.2640  0.2510  0.6331
 7582SOL    HW134208   1.820   2.602   3.833 -0.6094  0.8005  0.4269
 7582SOL    HW234209   1.809   2.568   3.679  1.1651 -2.8297  0.5218
 7583SOL     OW34210   0.813   3.072   2.183  0.4316  0.1279  0.5835
 7583SOL    HW134211   0.742   3.008   2.185  0.0610  0.5841  1.8909
 7583SOL    HW234212   0.884   3.010   2.166 -1.5100 -2.0770  0.5638
 7584SOL     OW34213   1.030   0.311   7.219 -0.3618 -0.6838  0.0186
 7584SOL    HW134214   1.112   0.277   7.183 -1.2156 -4.4999  1.7556
 7584SOL    HW234215   1.013   0.376   7.151 -1.1539 -1.0828 -0.1596
 7585SOL     OW34216   0.493   4.092   4.586 -0.2626  0.1620 -0.1948
 7585SOL    HW134217   0.418   4.141   4.618  1.4389  0.5939  3.1663
 7585SOL    HW234218   0.566   4.154   4.584  0.2087 -0.3467  0.8349
 7586SOL     OW34219   2.278   4.270   0.409 -0.3818 -0.8261 -0.7521
 7586SOL    HW134220   2.249   4.294   0.497  0.8612  0.6126 -0.7207
 7586SOL    HW234221   2.272   4.175   0.414 -0.4164 -0.6420  2.3851
 7587SOL     OW34222   1.955   2.238   6.615  0.0629  0.1370 -0.2629
 7587SOL    HW134223   1.991   2.317   6.575  0.7514  0.8098  1.6940
 7587SOL    HW234224   1.873   2.221   6.569 -0.1403  0.8844 -0.1726
 7588SOL     OW34225   0.398   2.800   8.978  0.3548  0.4875  0.6471
 7588SOL    HW134226   0.365   2.884   9.012  0.2785  0.5481  0.4246
 7588SOL    HW234227   0.419   2.827   8.889 -1.1330  0.2562  0.2236
 7589SOL     OW34228   2.392   3.498   2.620 -0.2768  0.0051  0.5770
 7589SOL    HW134229   2.308   3.473   2.582 -1.6939  2.8589  1.8270
 7589SOL    HW234230   2.436   3.555   2.557  0.0294  0.7238  1.4447
 7590SOL     OW34231   2.347   3.770   3.859 -0.0608 -0.2019 -0.5505
 7590SOL    HW134232   2.350   3.730   3.771  1.2320 -0.0788 -0.5535
 7590SOL    HW234233   2.424   3.741   3.907  0.1531 -1.2082 -1.4983
 7591SOL     OW34234   3.207   0.787   6.591 -0.0515 -0.0081 -0.0272
 7591SOL    HW134235   3.233   0.721   6.655  0.7702 -0.2212 -0.5697
 7591SOL    HW234236   3.196   0.726   6.518 -1.3298  1.4086 -1.0089
 7592SOL     OW34237   4.349   2.788  10.773  0.5408  0.0681 -0.2733
 7592SOL    HW134238   4.304   2.719  10.725  1.3208  1.5622 -3.1026
 7592SOL    HW234239   4.291   2.863  10.760 -0.2317 -0.2984  1.0076
 7593SOL     OW34240   4.591   4.401   4.780 -0.8254  0.1682 -0.1372
 7593SOL    HW134241   4.656   4.330   4.784 -0.6032  0.3093 -1.1044
 7593SOL    HW234242   4.526   4.363   4.721 -0.3116 -1.4845  0.3335
 7594SOL     OW34243   0.475   1.604   1.372 -0.2332  0.1487  0.4045
 7594SOL    HW134244   0.521   1.524   1.395 -1.3906 -0.6556 -0.0961
 7594SOL    HW234245   0.441   1.624   1.459 -0.4599  1.6650 -0.0284
 7595SOL     OW34246   1.006   0.690   3.050  0.0829 -0.8322  0.4074
 7595SOL    HW134247   0.912   0.681   3.065  0.1463 -0.7787  0.8388
 7595SOL    HW234248   1.016   0.633   2.974  0.2303  1.3251 -1.2109
 7596SOL     OW34249   0.912   4.075   0.593 -0.0390 -0.0591 -0.2309
 7596SOL    HW134250   0.853   4.059   0.519 -1.1555  0.6410  0.5021
 7596SOL    HW234251   0.856   4.119   0.658 -0.5264  0.8537 -1.2821
 7597SOL     OW34252   4.104   4.590  13.732  0.0012  0.3331  0.0804
 7597SOL    HW134253   4.167   4.521  13.714  2.1113  2.4706 -0.7941
 7597SOL    HW234254   4.030   4.580  13.672  0.2231  0.7044 -0.2547
 7598SOL     OW34255   0.193   3.143   8.434 -0.1331 -0.1093  0.8871
 7598SOL    HW134256   0.249   3.219   8.418  0.2918 -0.6174 -0.0184
 7598SOL    HW234257   0.225   3.120   8.521 -1.5749  1.2298  1.7812
 7599SOL     OW34258   1.217   1.934   2.508  0.1499 -0.2652  0.2024
 7599SOL    HW134259   1.188   2.025   2.500 -0.5978 -0.4598  0.7027
 7599SOL    HW234260   1.195   1.910   2.598 -3.2776 -0.4085 -0.6775
 7600SOL     OW34261   1.357   1.534  17.374 -0.2755 -0.2700  0.3251
 7600SOL    HW134262   1.355   1.621  17.414  0.8794  0.4549 -1.1665
 7600SOL    HW234263   1.345   1.555  17.281 -0.2777 -0.0809  0.3682
 7601SOL     OW34264   3.446   2.271   2.324 -0.3387  0.1682  0.6383
 7601SOL    HW134265   3.518   2.212   2.344  0.5294  0.9726 -0.0869
 7601SOL    HW234266   3.435   2.323   2.403  2.2235  0.3631  0.8663
 7602SOL     OW34267   2.065   1.337   6.572  0.2874 -0.6421  0.1814
 7602SOL    HW134268   2.054   1.271   6.504  1.9445 -0.2817 -0.4367
 7602SOL    HW234269   2.078   1.284   6.651 -0.7831 -1.7492 -0.3854
 7603SOL     OW34270   1.186   0.113   2.397  0.2858 -0.4974  0.6280
 7603SOL    HW134271   1.146   0.084   2.315  1.5925  0.8194 -0.4803
 7603SOL    HW234272   1.268   0.147   2.361 -1.1345 -0.8842 -2.9832
 7604SOL     OW34273   0.572   2.661  15.732 -0.0695 -0.0126 -0.0005
 7604SOL    HW134274   0.566   2.690  15.823 -0.6199 -0.8912  0.2403
 7604SOL    HW234275   0.621   2.580  15.743 -0.4929 -0.6092 -2.4668
 7605SOL     OW34276   1.976   0.387   3.298 -0.1971  0.7107 -0.0492
 7605SOL    HW134277   1.979   0.293   3.280 -2.5809  0.3302  1.6975
 7605SOL    HW234278   1.885   0.407   3.278 -0.1457 -1.1642 -2.2438
 7606SOL     OW34279   1.164   0.355  13.648  0.1871 -0.0819 -0.2864
 7606SOL    HW134280   1.075   0.336  13.678  0.2784  1.1099  0.7345
 7606SOL    HW234281   1.177   0.443  13.684  2.4314 -1.2035  1.6430
 7607SOL     OW34282   2.294   0.721   3.593  0.4949 -0.5632 -0.5686
 7607SOL    HW134283   2.330   0.653   3.649  0.4991 -0.9384 -1.0240
 7607SOL    HW234284   2.293   0.674   3.509 -0.8732 -0.0061 -0.8656
 7608SOL     OW34285   1.494   3.976   6.973 -0.5842  0.3532 -0.0996
 7608SOL    HW134286   1.484   3.999   7.065  1.2999 -2.5276  0.8251
 7608SOL    HW234287   1.449   3.891   6.972  0.4943 -0.2257 -0.6174
 7609SOL     OW34288   2.752   0.618   5.960  0.2285 -0.1715  0.3985
 7609SOL    HW134289   2.774   0.607   6.052 -0.5516 -0.4287  0.5560
 7609SOL    HW234290   2.725   0.710   5.962  1.5314  0.2295  0.1568
 7610SOL     OW34291   4.306   3.017   6.501  0.2653 -0.2802  0.1861
 7610SOL    HW134292   4.212   3.037   6.498  0.3456 -0.2535 -1.6315
 7610SOL    HW234293   4.300   2.922   6.499  0.4202 -0.2569 -0.9037
 7611SOL     OW34294   0.594   2.678  17.213  0.0344  0.6642 -0.3174
 7611SOL    HW134295   0.618   2.764  17.247 -0.7678  0.7898 -0.0558
 7611SOL    HW234296   0.588   2.696  17.119  3.3313  2.1153 -0.2152
 7612SOL     OW34297   1.530   1.434   5.509 -0.3661  0.0815  0.1885
 7612SOL    HW134298   1.464   1.375   5.544  0.1450 -0.4892  0.1874
 7612SOL    HW234299   1.507   1.418   5.418  1.2142  0.6764 -0.3084
 7613SOL     OW34300   3.671   1.526   9.116 -0.8272 -0.4733 -0.1309
 7613SOL    HW134301   3.685   1.583   9.192  0.5845 -0.3820 -0.4525
 7613SOL    HW234302   3.592   1.483   9.150 -1.5199 -0.4857 -1.7449
 7614SOL     OW34303   3.000   3.810   4.265 -0.0818 -0.1876 -0.0075
 7614SOL    HW134304   3.034   3.726   4.232 -0.3393 -0.9867  1.7896
 7614SOL    HW234305   2.991   3.855   4.181 -2.2763 -0.4980  0.0609
 7615SOL     OW34306   2.844   1.032   2.149  0.0715 -0.0796  0.2477
 7615SOL    HW134307   2.874   1.123   2.157  0.8923 -0.2888 -0.5062
 7615SOL    HW234308   2.884   0.997   2.229 -0.2860  0.5821  0.7127
 7616SOL     OW34309   2.910   3.566   8.915  0.5216  0.5217 -0.5676
 7616SOL    HW134310   2.837   3.515   8.950  0.7324  0.4181 -0.2755
 7616SOL    HW234311   2.937   3.629   8.981 -2.1045 -0.3037  1.2977
 7617SOL     OW34312   2.899   3.275   9.207 -0.2513  0.4824  0.4435
 7617SOL    HW134313   2.883   3.200   9.264  1.0824 -0.5009 -0.4764
 7617SOL    HW234314   2.910   3.335   9.280 -1.9761  0.9756  0.3072
 7618SOL     OW34315   3.827   2.368  13.553  0.2410  0.1763 -0.1394
 7618SOL    HW134316   3.878   2.355  13.633 -1.0318  0.0506  0.6527
 7618SOL    HW234317   3.752   2.309  13.560 -0.4487  0.8280 -2.1190
 7619SOL     OW34318   4.258   2.303   2.986 -0.0910  0.1350 -0.8624
 7619SOL    HW134319   4.180   2.319   3.039  0.6704  0.9100  0.0192
 7619SOL    HW234320   4.251   2.210   2.963  0.4703 -0.3099  0.7578
 7620SOL     OW34321   1.159   3.646   6.346 -0.5744 -0.2178  0.6847
 7620SOL    HW134322   1.162   3.658   6.441 -2.5533 -1.9737  0.9550
 7620SOL    HW234323   1.106   3.721   6.318  1.3522  1.2004  0.8291
 7621SOL     OW34324   0.204   1.835   7.747  0.3376 -0.1178 -0.2159
 7621SOL    HW134325   0.278   1.880   7.787  1.7539 -2.1179 -0.5702
 7621SOL    HW234326   0.219   1.841   7.653  2.1978  0.2900  0.1130
 7622SOL     OW34327   2.002   2.495   1.617 -0.0282 -0.1662  0.8181
 7622SOL    HW134328   1.945   2.571   1.627 -0.0007 -0.1431  0.7988
 7622SOL    HW234329   2.007   2.466   1.709  0.4882 -1.1189  0.4904
 7623SOL     OW34330   1.878   0.381  14.744  0.1082 -0.0136  0.2340
 7623SOL    HW134331   1.832   0.382  14.828  0.8824 -0.5989  0.6655
 7623SOL    HW234332   1.874   0.475  14.726 -0.3788 -0.0883 -0.0589
 7624SOL     OW34333   3.895   2.907   8.129 -0.2608  0.4392 -0.1618
 7624SOL    HW134334   3.887   2.815   8.155  1.1615  0.2753 -0.3245
 7624SOL    HW234335   3.988   2.931   8.126  0.7187 -3.1309  1.2586
 7625SOL     OW34336   4.569   4.649   9.379  0.7945 -0.7329  0.6791
 7625SOL    HW134337   4.509   4.597   9.327 -0.4241 -1.8715  3.2501
 7625SOL    HW234338   4.615   4.705   9.316  0.8464 -2.4643 -0.8245
 7626SOL     OW34339   2.570   0.335   9.501 -0.2944 -0.3784 -0.7978
 7626SOL    HW134340   2.637   0.271   9.479  0.8622  0.5008  0.2187
 7626SOL    HW234341   2.517   0.296   9.571  0.7808  1.3978  0.9850
 7627SOL     OW34342   3.448   2.899   6.734  0.0849 -0.1586 -0.2687
 7627SOL    HW134343   3.500   2.939   6.804  1.3490 -0.7566 -0.8649
 7627SOL    HW234344   3.518   2.905   6.669  0.2673 -0.2846 -0.0846
 7628SOL     OW34345   3.813   2.108  16.846  0.8128 -0.6372 -0.5681
 7628SOL    HW134346   3.767   2.107  16.762 -1.2684 -0.5620  0.5579
 7628SOL    HW234347   3.905   2.106  16.818  1.6484 -0.4965  2.1510
 7629SOL     OW34348   1.064   3.703   7.581 -0.1489 -0.4112 -0.0979
 7629SOL    HW134349   1.075   3.749   7.499  1.6762 -0.3474  0.1893
 7629SOL    HW234350   0.997   3.755   7.627 -0.4038  0.0683 -1.0249
 7630SOL     OW34351   0.199   1.300   8.248 -0.1027  0.6778  0.5560
 7630SOL    HW134352   0.292   1.317   8.235 -0.1499  0.3683 -0.1701
 7630SOL    HW234353   0.200   1.208   8.275  0.1085  0.5222  0.0059
 7631SOL     OW34354   0.496   3.495   5.385  0.0343  0.1195 -0.2344
 7631SOL    HW134355   0.459   3.447   5.459  0.7962 -0.6443 -0.3615
 7631SOL    HW234356   0.536   3.572   5.426 -0.7315 -1.1388  2.8876
 7632SOL     OW34357   0.517   3.872   2.773  0.1176  0.5648 -0.4433
 7632SOL    HW134358   0.455   3.925   2.724  0.8998  3.3639  1.5985
 7632SOL    HW234359   0.469   3.857   2.855  1.0666  0.0271  0.0227
 7633SOL     OW34360   1.188   1.614  12.652 -0.5542  0.5867 -0.0347
 7633SOL    HW134361   1.193   1.703  12.617 -0.9382  0.1316 -1.2497
 7633SOL    HW234362   1.267   1.618  12.706 -0.3063  1.4987 -0.4602
 7634SOL     OW34363   0.670   0.313   4.399  0.8718  0.1834  0.5512
 7634SOL    HW134364   0.641   0.225   4.422  0.2240  0.5735  1.2282
 7634SOL    HW234365   0.606   0.366   4.447 -0.8278  1.1771 -2.7736
 7635SOL     OW34366   1.512   1.594   0.550 -0.7771 -1.2224  0.6120
 7635SOL    HW134367   1.594   1.622   0.509 -0.4940 -1.8461  0.7588
 7635SOL    HW234368   1.474   1.539   0.482 -0.5620  0.9305 -1.2427
 7636SOL     OW34369   4.201   1.686   9.123 -0.8095 -0.3905 -0.0756
 7636SOL    HW134370   4.207   1.593   9.104 -1.0014 -0.4355  0.0971
 7636SOL    HW234371   4.269   1.716   9.061  1.8221 -1.8089  2.1525
 7637SOL     OW34372   2.736   2.297  12.840 -0.1154 -0.3512  0.4267
 7637SOL    HW134373   2.686   2.346  12.774 -0.4311 -0.7003  0.4098
 7637SOL    HW234374   2.663   2.261  12.889 -0.1823  0.3349  0.8372
 7638SOL     OW34375   4.399   0.504   4.625  0.5654  0.0850 -0.2250
 7638SOL    HW134376   4.308   0.485   4.603 -0.3150  0.6074  2.9156
 7638SOL    HW234377   4.424   0.592   4.596  1.0564 -0.4070 -1.2940
 7639SOL     OW34378   2.225   0.778   6.244  0.7836  0.5797  0.6037
 7639SOL    HW134379   2.154   0.761   6.305 -1.0943  1.2960 -1.3762
 7639SOL    HW234380   2.195   0.761   6.155  1.8646  3.8409 -0.4036
 7640SOL     OW34381   4.196   0.368  16.607 -0.2590 -0.0493  0.5418
 7640SOL    HW134382   4.104   0.358  16.582  0.3734 -1.9183 -1.0397
 7640SOL    HW234383   4.188   0.300  16.674  0.1059  1.4660  2.1202
 7641SOL     OW34384   1.746   1.368  12.395 -0.3544  0.5239 -0.3192
 7641SOL    HW134385   1.706   1.329  12.318 -0.8881 -0.0417  0.2453
 7641SOL    HW234386   1.778   1.452  12.362  0.7119 -0.0195 -0.6486
 7642SOL     OW34387   0.176   1.215  15.124 -0.0146  0.0187  0.3258
 7642SOL    HW134388   0.103   1.228  15.184 -0.5925 -0.1718 -0.3336
 7642SOL    HW234389   0.160   1.291  15.068 -0.3535 -1.4490 -1.5826
 7643SOL     OW34390   3.473   2.385   7.398 -0.1013  0.1680 -0.1713
 7643SOL    HW134391   3.470   2.478   7.374  1.0929  0.2194 -0.1410
 7643SOL    HW234392   3.565   2.372   7.424 -1.0819 -1.2558  2.6208
 7644SOL     OW34393   3.518   2.819  15.441  0.1620 -0.0561 -0.0156
 7644SOL    HW134394   3.521   2.803  15.536 -1.3397 -1.0739 -0.1384
 7644SOL    HW234395   3.493   2.911  15.440  1.5245  0.2918 -1.8295
 7645SOL     OW34396   4.213   0.908  11.843  0.1632  0.1111  0.0270
 7645SOL    HW134397   4.120   0.925  11.861  0.1730  0.2982 -0.1080
 7645SOL    HW234398   4.207   0.827  11.793 -1.5870 -0.0274  0.4578
 7646SOL     OW34399   0.366   0.466  11.320 -0.3407 -0.0780 -0.4745
 7646SOL    HW134400   0.360   0.431  11.409 -0.2297  0.4803 -0.2484
 7646SOL    HW234401   0.405   0.394  11.272  0.7499 -0.4126  0.9155
 7647SOL     OW34402   0.913   3.168  11.173 -0.2869  0.1688 -0.3181
 7647SOL    HW134403   0.993   3.193  11.129 -1.1366  4.1216  0.3508
 7647SOL    HW234404   0.851   3.238  11.153 -2.1040 -1.7607 -1.4616
 7648SOL     OW34405   1.216   4.640  12.627  0.3330 -0.5951 -0.0080
 7648SOL    HW134406   1.191   4.666  12.539 -0.2170 -0.9736  0.0362
 7648SOL    HW234407   1.299   4.686  12.640  0.2392 -0.8006  1.3583
 7649SOL     OW34408   3.809   4.217   4.920 -0.3216 -0.3607  0.4552
 7649SOL    HW134409   3.874   4.216   4.990 -1.0852 -0.2289  1.1676
 7649SOL    HW234410   3.862   4.214   4.840 -0.1874 -1.5493  0.5901
 7650SOL     OW34411   1.534   2.504   2.026 -0.3522  0.2459 -0.3124
 7650SOL    HW134412   1.529   2.435   2.093 -2.8938 -1.4900 -2.2573
 7650SOL    HW234413   1.498   2.576   2.078 -0.9461  1.5261 -2.4951
 7651SOL     OW34414   3.413   3.288   7.161  0.1846 -0.4513 -0.4674
 7651SOL    HW134415   3.462   3.243   7.230  2.4740  1.5610 -0.7718
 7651SOL    HW234416   3.477   3.349   7.124  0.2435 -1.3004 -1.7802
 7652SOL     OW34417   3.064   3.336  16.111 -0.3801 -0.6805 -0.5411
 7652SOL    HW134418   2.987   3.280  16.100 -2.3962  2.0789 -0.4334
 7652SOL    HW234419   3.039   3.387  16.188  1.0104  0.1714 -0.6493
 7653SOL     OW34420   2.415   3.117   2.155  0.0583 -0.2924  0.1730
 7653SOL    HW134421   2.324   3.115   2.186 -0.2623 -0.9833 -0.8277
 7653SOL    HW234422   2.415   3.072   2.071 -1.2135  0.5923 -0.2998
 7654SOL     OW34423   1.212   4.268   7.048  0.6846 -0.7131  0.8980
 7654SOL    HW134424   1.238   4.301   6.962  0.6478 -1.0436  0.7606
 7654SOL    HW234425   1.298   4.283   7.088  0.6372 -0.1759  0.7992
 7655SOL     OW34426   0.309   4.217   1.362 -0.1772 -0.2514  0.4942
 7655SOL    HW134427   0.263   4.223   1.278  2.4605 -0.7452 -0.9604
 7655SOL    HW234428   0.235   4.233   1.421 -1.9083  0.0850 -1.7404
 7656SOL     OW34429   0.057   1.594   1.810  0.1076  0.6295  0.1660
 7656SOL    HW134430   0.108   1.605   1.729 -0.7539  1.5576 -0.2517
 7656SOL    HW234431   0.072   1.677   1.856 -0.2167  0.9822 -0.3697
 7657SOL     OW34432   2.134   2.662   6.420 -0.2143 -0.1902 -0.1920
 7657SOL    HW134433   2.156   2.704   6.503 -1.7515 -2.7297  1.5006
 7657SOL    HW234434   2.051   2.701   6.393  0.7515  0.2324 -2.6333
 7658SOL     OW34435   0.127   0.090  14.993  0.1037  0.1577 -0.1702
 7658SOL    HW134436   0.037   0.057  14.995 -0.6167  2.0918 -0.9865
 7658SOL    HW234437   0.135   0.104  14.898  2.8444 -3.4127 -0.4634
 7659SOL     OW34438   4.276   1.242   6.383  0.3704  0.1567  0.0586
 7659SOL    HW134439   4.273   1.251   6.287 -1.7188 -3.7764 -0.2491
 7659SOL    HW234440   4.239   1.155   6.398  0.0117  0.2773 -0.1211
 7660SOL     OW34441   1.778   0.104   2.280  1.1430 -0.4256 -0.9551
 7660SOL    HW134442   1.804   0.013   2.287  0.3818 -0.6702 -1.3283
 7660SOL    HW234443   1.865   0.136   2.304  0.8656 -1.3528  1.3254
 7661SOL     OW34444   3.815   2.172  14.082 -0.0068  0.0160  0.3429
 7661SOL    HW134445   3.862   2.089  14.073 -0.9466 -0.2415 -2.2312
 7661SOL    HW234446   3.748   2.149  14.017  1.8273 -1.2931 -1.0528
 7662SOL     OW34447   1.048   1.001   3.829 -0.1926  0.1921 -0.2576
 7662SOL    HW134448   1.137   0.983   3.799  0.4280  1.7010  0.6981
 7662SOL    HW234449   1.036   1.096   3.831 -1.6546 -0.0140  0.4020
 7663SOL     OW34450   1.431   4.068   7.260 -0.2276  0.2455  0.4070
 7663SOL    HW134451   1.363   4.127   7.292 -2.3153 -0.7723 -2.2066
 7663SOL    HW234452   1.512   4.116   7.277  0.5605 -1.3119  0.9674
 7664SOL     OW34453   1.265   3.290   2.399 -0.2314  0.0628  0.2226
 7664SOL    HW134454   1.231   3.366   2.352  0.5784 -0.6507 -1.5151
 7664SOL    HW234455   1.198   3.224   2.384  0.8289 -1.1488  0.8091
 7665SOL     OW34456   0.635   2.906   8.354 -0.4847  0.6553  0.2728
 7665SOL    HW134457   0.709   2.849   8.374 -1.2047 -0.1079  0.7953
 7665SOL    HW234458   0.643   2.974   8.420 -0.8016  2.9093 -2.0280
 7666SOL     OW34459   2.887   3.264   7.369 -0.5148  0.0374 -0.3199
 7666SOL    HW134460   2.956   3.310   7.417  0.6897 -2.6505  0.5859
 7666SOL    HW234461   2.930   3.182   7.343 -1.3138 -0.4594 -0.0767
 7667SOL     OW34462   4.092   2.982  10.410  0.0947  0.1781  0.1283
 7667SOL    HW134463   4.014   2.990  10.464  0.1604  0.7310  0.1335
 7667SOL    HW234464   4.097   3.074  10.387  0.6510  0.8094  2.7669
 7668SOL     OW34465   3.378   1.551   0.001 -0.1322  0.2066 -0.0681
 7668SOL    HW134466   3.349   1.489   0.068 -0.5477  1.8312  1.2644
 7668SOL    HW234467   3.458   1.587   0.040  0.9053 -0.8468 -1.2096
 7669SOL     OW34468   4.261   1.234   8.273  0.1224 -0.3680  0.2255
 7669SOL    HW134469   4.221   1.259   8.190  0.7561  1.9180  0.6085
 7669SOL    HW234470   4.194   1.193   8.328  0.8972 -1.1213  0.6062
 7670SOL     OW34471   1.683   2.351   5.754 -0.2494 -0.0848 -0.1324
 7670SOL    HW134472   1.701   2.269   5.800  0.7398 -0.5010 -1.2639
 7670SOL    HW234473   1.774   2.378   5.740  0.0559 -0.4575  1.1563
 7671SOL     OW34474   2.727   2.189   9.390 -0.1389  0.5329 -0.3257
 7671SOL    HW134475   2.766   2.275   9.375 -0.8141  1.0039  0.5771
 7671SOL    HW234476   2.649   2.197   9.336 -0.2904 -2.0909 -0.4802
 7672SOL     OW34477   3.740   3.907   3.229 -0.3477 -0.2791 -0.2974
 7672SOL    HW134478   3.825   3.948   3.208 -0.6221  0.0424 -0.7800
 7672SOL    HW234479   3.700   3.982   3.273  2.0672  0.4625  0.6517
 7673SOL     OW34480   1.419   2.920   9.275  0.9135 -0.6450 -0.3611
 7673SOL    HW134481   1.397   2.833   9.241 -0.2317 -1.0367  1.3448
 7673SOL    HW234482   1.333   2.960   9.289  1.2855 -0.2134  0.7213
 7674SOL     OW34483   2.526   2.748   4.385 -0.1384  0.0119  0.6430
 7674SOL    HW134484   2.435   2.745   4.416 -0.7611  1.6606 -1.0444
 7674SOL    HW234485   2.523   2.711   4.297 -1.0890  1.1562  0.1990
 7675SOL     OW34486   2.453   3.902   6.582 -0.3489 -0.3389  0.9713
 7675SOL    HW134487   2.467   3.997   6.592 -1.6656  0.0964 -1.3157
 7675SOL    HW234488   2.358   3.902   6.583 -0.3972  0.9420 -1.2008
 7676SOL     OW34489   1.354   2.000   2.853  0.1988  0.0829 -0.5560
 7676SOL    HW134490   1.328   2.065   2.918  0.3125 -0.1270 -0.3017
 7676SOL    HW234491   1.272   1.977   2.810 -0.4684 -1.2995  1.4798
 7677SOL     OW34492   2.190   0.381   0.377 -0.1794  0.3375  0.0698
 7677SOL    HW134493   2.131   0.420   0.312 -0.8523  1.0871  1.1283
 7677SOL    HW234494   2.133   0.322   0.427 -1.3660  0.3775 -1.2358
 7678SOL     OW34495   0.806   4.142   4.335  0.4065  0.3028  0.1808
 7678SOL    HW134496   0.764   4.159   4.419 -1.2214 -0.5293 -0.4582
 7678SOL    HW234497   0.826   4.226   4.294 -0.3924  0.2454 -0.3337
 7679SOL     OW34498   3.553   1.291   6.555 -0.1393  0.2933  0.2116
 7679SOL    HW134499   3.562   1.289   6.650  1.2623  1.3221  0.1026
 7679SOL    HW234500   3.508   1.209   6.535 -0.0918  0.2810  0.1542
 7680SOL     OW34501   4.598   2.822   4.183  0.2663  0.0962  0.3999
 7680SOL    HW134502   4.657   2.767   4.234 -0.2375  0.7424  1.6935
 7680SOL    HW234503   4.548   2.862   4.254  1.5917 -1.5894  2.2905
 7681SOL     OW34504   3.258   2.818   5.791 -0.2968  0.0106  0.0944
 7681SOL    HW134505   3.309   2.869   5.728  0.6008 -0.8108  0.1690
 7681SOL    HW234506   3.194   2.773   5.735  1.1312 -1.5011 -0.3071
 7682SOL     OW34507   1.361   1.240   9.192  0.1490 -0.3919 -0.1285
 7682SOL    HW134508   1.457   1.246   9.189  0.1606 -1.3422 -2.0825
 7682SOL    HW234509   1.348   1.204   9.280  3.3253  0.2169  0.5769
 7683SOL     OW34510   0.557   1.565   3.753 -0.1374  0.1186 -0.5901
 7683SOL    HW134511   0.476   1.516   3.770  0.6209 -0.7641  0.4288
 7683SOL    HW234512   0.606   1.535   3.829  1.0240  0.0471 -1.3747
 7684SOL     OW34513   3.303   4.318  12.134  0.7098  0.4649 -0.0867
 7684SOL    HW134514   3.380   4.263  12.126 -0.2109 -1.1844  2.3300
 7684SOL    HW234515   3.269   4.310  12.045 -0.5227  0.9004  0.3279
 7685SOL     OW34516   3.763   2.564   5.988  0.5652  0.5928 -0.0156
 7685SOL    HW134517   3.671   2.552   6.015  0.5714  5.0878  1.9454
 7685SOL    HW234518   3.759   2.585   5.895 -3.9941 -0.5191 -0.0774
 7686SOL     OW34519   1.570   0.409   5.896 -0.3326  0.4344 -0.0010
 7686SOL    HW134520   1.479   0.434   5.914 -0.5290 -0.6852  0.5421
 7686SOL    HW234521   1.598   0.492   5.856 -1.6769  0.4841 -0.8692
 7687SOL     OW34522   1.983   2.624   8.763 -0.5044  0.3045  0.6303
 7687SOL    HW134523   1.925   2.694   8.796  0.2729  0.7242  1.0980
 7687SOL    HW234524   1.924   2.549   8.775 -0.5101  0.2017 -0.0808
 7688SOL     OW34525   2.589   4.394   8.677  0.0896 -0.1840  0.3934
 7688SOL    HW134526   2.650   4.334   8.635  0.1994  0.8772 -0.9705
 7688SOL    HW234527   2.562   4.327   8.740 -0.0293 -1.3529 -0.9012
 7689SOL     OW34528   3.627   1.575   2.464  0.6170  0.1622  0.3306
 7689SOL    HW134529   3.697   1.624   2.422 -1.2336  0.3264 -2.5446
 7689SOL    HW234530   3.630   1.596   2.558 -2.4569  1.6984  0.1054
 7690SOL     OW34531   3.985   2.040  15.253 -0.1329  0.1473 -0.0557
 7690SOL    HW134532   4.070   2.025  15.212  0.9423  1.8577  1.5375
 7690SOL    HW234533   3.978   1.965  15.312  0.4377  0.7835  0.8174
 7691SOL     OW34534   3.370   2.026  17.111  0.5626  0.0206 -0.2708
 7691SOL    HW134535   3.427   2.103  17.110  0.6217 -0.0134  1.1382
 7691SOL    HW234536   3.354   2.028  17.016 -0.5073  2.8826 -0.0414
 7692SOL     OW34537   3.195   0.536  13.503  0.1605  0.0751 -0.3855
 7692SOL    HW134538   3.221   0.484  13.579 -0.1096 -0.4631 -0.6615
 7692SOL    HW234539   3.252   0.493  13.439  1.6022 -0.0223  0.9647
 7693SOL     OW34540   0.445   3.467   7.072  0.3093  0.4573 -0.2724
 7693SOL    HW134541   0.407   3.541   7.025  0.2650  0.4258 -0.2860
 7693SOL    HW234542   0.487   3.418   7.002 -0.0189  1.1044 -0.9095
 7694SOL     OW34543   2.649   0.203   6.609 -0.0338  0.5904  0.2038
 7694SOL    HW134544   2.650   0.216   6.514 -1.9241  2.6764  0.4744
 7694SOL    HW234545   2.656   0.293   6.642  1.0430  0.7179 -0.3842
 7695SOL     OW34546   3.782   4.013   8.166 -0.4239 -0.6250 -0.3003
 7695SOL    HW134547   3.803   3.929   8.208  0.6967  0.4055  1.2208
 7695SOL    HW234548   3.718   3.984   8.101 -0.9617 -0.7645  0.2804
 7696SOL     OW34549   4.553   1.931   3.932 -0.0818  0.2506  0.3056
 7696SOL    HW134550   4.603   1.969   4.005  2.0376  0.2682 -1.1487
 7696SOL    HW234551   4.459   1.942   3.943 -0.0669 -0.4230  1.0976
 7697SOL     OW34552   1.011   4.322  16.702  0.0567  0.0370  0.4748
 7697SOL    HW134553   1.069   4.300  16.629  2.1799 -0.8891  2.4566
 7697SOL    HW234554   0.965   4.239  16.689  0.5851  0.2323 -2.6275
 7698SOL     OW34555   4.104   1.687   1.491 -0.1982 -0.2783 -0.1335
 7698SOL    HW134556   4.017   1.653   1.467 -1.0774  1.4463  0.5637
 7698SOL    HW234557   4.126   1.629   1.563  2.5100 -0.6374 -1.2599
 7699SOL     OW34558   0.917   0.850   8.584 -0.2803 -0.3580  0.1031
 7699SOL    HW134559   0.996   0.842   8.531  0.3015 -0.4566  0.9762
 7699SOL    HW234560   0.952   0.816   8.666 -0.4603  0.1007  0.3713
 7700SOL     OW34561   3.179   1.297   5.450 -0.3493 -0.2539  0.0449
 7700SOL    HW134562   3.126   1.235   5.500 -2.6948  1.3567 -0.4194
 7700SOL    HW234563   3.261   1.252   5.430  0.6468  0.3460  2.7919
 7701SOL     OW34564   2.293   1.472   6.083 -0.1096  0.1765 -0.4474
 7701SOL    HW134565   2.234   1.545   6.100  0.7164  1.7053 -4.0621
 7701SOL    HW234566   2.267   1.409   6.150 -1.0247  1.5892  0.5338
 7702SOL     OW34567   0.200   1.010   7.237 -0.0096 -0.1772  0.1224
 7702SOL    HW134568   0.294   0.994   7.238 -0.0489 -0.3920  0.2401
 7702SOL    HW234569   0.184   0.978   7.326  1.3485 -0.7354  0.1667
 7703SOL     OW34570   0.842   0.982   2.547 -0.3494  0.0811  0.0119
 7703SOL    HW134571   0.865   0.995   2.455  1.6343 -0.8695  0.3663
 7703SOL    HW234572   0.865   1.068   2.581  3.7456 -1.3349  0.8015
 7704SOL     OW34573   3.214   3.400   2.459 -0.0555  0.2313 -0.4103
 7704SOL    HW134574   3.133   3.404   2.511 -1.7342 -0.3345 -3.0081
 7704SOL    HW234575   3.280   3.392   2.528  0.8672  0.1627 -1.2972
 7705SOL     OW34576   0.675   0.593   4.739  0.6488 -0.1637 -0.0012
 7705SOL    HW134577   0.717   0.518   4.782  1.3999 -0.3412 -1.0162
 7705SOL    HW234578   0.588   0.557   4.723  1.2281 -1.6956  0.2679
 7706SOL     OW34579   2.021   1.682   4.912  0.7686 -0.1104  0.3400
 7706SOL    HW134580   2.033   1.776   4.903  0.6419 -0.0432  0.8524
 7706SOL    HW234581   2.073   1.648   4.985 -1.3622 -0.9604  1.4817
 7707SOL     OW34582   2.798   1.812   1.615  0.5065 -0.2197 -0.1375
 7707SOL    HW134583   2.765   1.829   1.703  0.7915 -2.4976  0.4009
 7707SOL    HW234584   2.734   1.855   1.558  0.7885  0.6481  0.2016
 7708SOL     OW34585   0.139   2.105   6.717  0.0243  0.4109 -0.7221
 7708SOL    HW134586   0.147   2.032   6.778  1.9862  3.0425  2.1713
 7708SOL    HW234587   0.046   2.107   6.694 -0.2290 -2.1364  0.1699
 7709SOL     OW34588   1.230   0.057   7.822 -0.0332 -0.3278  0.1805
 7709SOL    HW134589   1.232   0.153   7.812  0.3425 -0.1535  2.0230
 7709SOL    HW234590   1.191   0.045   7.908 -0.3651 -0.9494 -0.0603
 7710SOL     OW34591   3.584   0.181   4.061 -0.1702  0.0188 -0.0432
 7710SOL    HW134592   3.587   0.195   3.967 -1.5397 -1.1796 -0.2648
 7710SOL    HW234593   3.494   0.149   4.069 -0.0895 -0.2822 -0.3438
 7711SOL     OW34594   1.878   3.778   4.463 -1.2827 -0.1612  0.4694
 7711SOL    HW134595   1.914   3.724   4.533  0.0125 -1.1398 -0.9516
 7711SOL    HW234596   1.785   3.771   4.483 -1.5538 -0.7677 -0.9542
 7712SOL     OW34597   3.821   0.481  14.102  0.0063  0.6613  0.2633
 7712SOL    HW134598   3.867   0.499  14.184  1.7892  2.1580 -1.0631
 7712SOL    HW234599   3.898   0.484  14.045 -1.7123  1.6975 -2.0051
 7713SOL     OW34600   3.345   0.801   0.088 -0.2159  0.1928 -0.5238
 7713SOL    HW134601   3.335   0.736   0.019  3.1417 -1.3142  0.4016
 7713SOL    HW234602   3.310   0.756   0.166  1.1668  1.2484  0.7116
 7714SOL     OW34603   4.535   3.704   6.050 -0.0710  0.2475 -0.5958
 7714SOL    HW134604   4.582   3.769   6.103  0.6623  1.1571 -2.3730
 7714SOL    HW234605   4.611   3.675   5.999 -0.5253 -1.5538 -0.2441
 7715SOL     OW34606   1.220   2.875   0.221  0.7718  0.1791  0.2167
 7715SOL    HW134607   1.132   2.877   0.258  0.4641  1.0115 -0.5673
 7715SOL    HW234608   1.273   2.934   0.275 -1.3608  2.7243 -0.5014
 7716SOL     OW34609   2.161   0.488  15.661  0.4690  0.2410 -0.1548
 7716SOL    HW134610   2.111   0.539  15.597  2.6511 -0.6512 -2.5723
 7716SOL    HW234611   2.090   0.453  15.714  0.3715 -1.1038 -1.1545
 7717SOL     OW34612   1.468   3.557   5.136  0.4346  0.3520  0.5680
 7717SOL    HW134613   1.394   3.550   5.197 -0.6808  3.3413 -0.4127
 7717SOL    HW234614   1.434   3.561   5.047  1.8396 -0.2402  0.0137
 7718SOL     OW34615   4.503   1.875   5.498 -0.4425  0.6275  0.3030
 7718SOL    HW134616   4.543   1.951   5.454  0.8913  0.6130  1.4631
 7718SOL    HW234617   4.572   1.846   5.557  1.2480 -1.1115 -2.5149
 7719SOL     OW34618   3.751   0.641   2.890 -0.4168  0.4489 -0.0549
 7719SOL    HW134619   3.739   0.687   2.973 -1.7807  0.1307 -0.0646
 7719SOL    HW234620   3.838   0.669   2.862 -0.4492 -1.9390 -2.5473
 7720SOL     OW34621   2.847   1.914   0.437 -0.5057  0.1528  0.1596
 7720SOL    HW134622   2.936   1.892   0.410 -0.1512  0.9750  0.6610
 7720SOL    HW234623   2.858   2.009   0.435  3.0111 -0.2582  0.1851
 7721SOL     OW34624   0.129   3.536  13.677 -0.1519 -0.0409  0.4121
 7721SOL    HW134625   0.077   3.484  13.738  0.1439  0.0109  0.7057
 7721SOL    HW234626   0.072   3.608  13.651  1.6972  1.0602 -0.6329
 7722SOL     OW34627   4.609   4.382   8.282  0.0592 -0.0131 -0.2664
 7722SOL    HW134628   4.550   4.310   8.260  0.7447 -0.9351  0.9165
 7722SOL    HW234629   4.660   4.337   8.349  1.3482 -0.9947 -1.9165
 7723SOL     OW34630   3.372   0.032   5.434 -0.4989 -0.1023  0.4747
 7723SOL    HW134631   3.395   0.070   5.349 -0.0911 -0.6436  0.3397
 7723SOL    HW234632   3.282   0.062   5.443 -0.4669  0.9820 -2.9371
 7724SOL     OW34633   0.313   0.006   1.219 -0.3081 -0.1564 -0.1132
 7724SOL    HW134634   0.243   4.691   1.272 -0.4732 -1.0371 -1.0001
 7724SOL    HW234635   0.344   4.661   1.162 -1.3050 -1.2843  0.7242
 7725SOL     OW34636   0.227   1.079   8.448 -0.3955  0.2913 -0.8163
 7725SOL    HW134637   0.243   1.060   8.541 -0.8483 -0.0766 -0.8136
 7725SOL    HW234638   0.172   1.006   8.421 -0.2011  0.0752 -0.6377
 7726SOL     OW34639   0.580   3.346   6.858 -0.2092 -0.6210  0.4153
 7726SOL    HW134640   0.667   3.385   6.855 -0.7515  0.3922 -2.1444
 7726SOL    HW234641   0.550   3.343   6.767 -0.3619  1.1078  0.4163
 7727SOL     OW34642   2.228   3.139   7.992  0.7108  0.1069  0.0546
 7727SOL    HW134643   2.294   3.169   7.929  1.5950 -0.4838  0.6873
 7727SOL    HW234644   2.148   3.186   7.969 -0.0069 -1.0890  0.1392
 7728SOL     OW34645   4.111   1.204  14.268 -0.3247 -0.5823  0.2603
 7728SOL    HW134646   4.083   1.290  14.298 -3.8216 -1.3172 -0.8958
 7728SOL    HW234647   4.068   1.151  14.335  1.8344 -1.4855  0.9369
 7729SOL     OW34648   2.936   2.268   1.672  0.3452  0.0969  0.4809
 7729SOL    HW134649   2.927   2.320   1.752 -0.8120 -0.3591  0.6421
 7729SOL    HW234650   2.988   2.328   1.618 -1.3113  0.6693 -0.4823
 7730SOL     OW34651   2.752   2.533   5.033 -0.4138 -0.4073  0.1350
 7730SOL    HW134652   2.777   2.478   5.108  0.5329 -0.9449 -0.5661
 7730SOL    HW234653   2.791   2.491   4.956  0.8540 -1.4720  1.3398
 7731SOL     OW34654   0.126   3.823   8.864  0.0069  0.3215  0.1286
 7731SOL    HW134655   0.130   3.784   8.951  1.6934  0.6006  0.1819
 7731SOL    HW234656   0.162   3.911   8.875 -1.2530  0.8010  0.3530
 7732SOL     OW34657   4.094   0.671   8.537 -0.1313 -0.7727 -0.1134
 7732SOL    HW134658   4.184   0.644   8.519 -0.6098 -1.1691 -1.9276
 7732SOL    HW234659   4.038   0.604   8.499 -0.7104 -0.2855 -0.1222
 7733SOL     OW34660   4.261   4.307  17.487 -0.2627  0.6043  0.1206
 7733SOL    HW134661   4.326   4.302  17.417 -0.0233  0.8520  0.3228
 7733SOL    HW234662   4.194   4.357  17.441  0.1233 -0.0983 -1.2187
 7734SOL     OW34663   1.673   4.135   4.869 -0.2746 -0.3994  0.4998
 7734SOL    HW134664   1.658   4.118   4.776  0.4100 -0.6101  0.4277
 7734SOL    HW234665   1.700   4.226   4.866 -0.0287 -0.6210 -3.7845
 7735SOL     OW34666   4.308   2.447   8.222 -0.5257  0.3540 -0.1669
 7735SOL    HW134667   4.364   2.371   8.206  2.4487  2.0819  2.0197
 7735SOL    HW234668   4.255   2.417   8.295 -0.3441 -0.5390 -0.4068
 7736SOL     OW34669   0.439   1.426   5.357  0.1835 -0.0279 -0.2121
 7736SOL    HW134670   0.421   1.474   5.438 -0.2174  0.2001 -0.4347
 7736SOL    HW234671   0.352   1.392   5.336  0.2043 -0.3235  0.1938
 7737SOL     OW34672   0.931   1.482   9.027  0.2978 -0.0340  0.7849
 7737SOL    HW134673   0.985   1.550   8.987  0.5400  1.1244  3.0817
 7737SOL    HW234674   0.997   1.414   9.018  0.8835  0.7281 -0.7126
 7738SOL     OW34675   2.292   2.241   0.584 -0.1929  0.0969 -0.0628
 7738SOL    HW134676   2.318   2.276   0.499  0.9404  4.0299  1.8877
 7738SOL    HW234677   2.345   2.300   0.638 -2.1680  0.5901  1.3688
 7739SOL     OW34678   1.083   0.799   9.744 -0.1215  0.0303 -0.3861
 7739SOL    HW134679   1.104   0.891   9.730 -1.6894  0.7919  2.3064
 7739SOL    HW234680   0.993   0.812   9.775  0.1399  0.0620  0.3660
 7740SOL     OW34681   2.338   3.136   2.471  0.5889  0.0284 -0.1005
 7740SOL    HW134682   2.368   3.132   2.380  1.2213  1.4827  0.0407
 7740SOL    HW234683   2.243   3.126   2.470  0.5863  0.1779 -1.1901
 7741SOL     OW34684   1.228   0.046  13.728 -0.0970  0.0575 -0.0732
 7741SOL    HW134685   1.161   0.089  13.781  1.1833  2.5570 -0.5136
 7741SOL    HW234686   1.295   0.111  13.749 -1.8024  1.3656  1.2954
 7742SOL     OW34687   0.724   2.921   3.327 -0.0964 -0.0587  0.0728
 7742SOL    HW134688   0.808   2.893   3.364  1.2328 -0.6138 -3.3639
 7742SOL    HW234689   0.761   2.978   3.259 -1.9539  1.1752  0.0977
 7743SOL     OW34690   1.446   4.247   5.794 -0.3714 -0.4415 -0.1111
 7743SOL    HW134691   1.500   4.321   5.769 -0.2545 -0.3478  0.4233
 7743SOL    HW234692   1.409   4.234   5.706 -0.8322  1.0467 -0.1390
 7744SOL     OW34693   1.766   1.644   2.897 -0.6258  0.1961 -0.0356
 7744SOL    HW134694   1.736   1.594   2.973  0.5221  0.9831  0.9329
 7744SOL    HW234695   1.826   1.702   2.945 -0.5586 -0.3995  0.5870
 7745SOL     OW34696   3.383   3.936  10.725  0.0128 -0.4184 -0.4058
 7745SOL    HW134697   3.435   3.966  10.651  0.9316  0.5408  0.6107
 7745SOL    HW234698   3.415   3.989  10.799 -2.7708 -0.0021  0.4873
 7746SOL     OW34699   0.904   2.600   3.164 -0.1933 -0.3232 -0.4325
 7746SOL    HW134700   0.819   2.641   3.175 -1.4659 -2.6564 -1.5714
 7746SOL    HW234701   0.874   2.510   3.180 -0.6148 -0.0840  0.1144
 7747SOL     OW34702   2.390   1.607   7.613 -0.0880  0.3242  0.1958
 7747SOL    HW134703   2.369   1.641   7.700  0.7377 -0.6061  0.7469
 7747SOL    HW234704   2.381   1.696   7.578  4.1903  0.5486 -0.2558
 7748SOL     OW34705   1.222   1.946   4.978  0.1010  0.2302  0.3746
 7748SOL    HW134706   1.142   1.969   4.930  0.0682  1.0693  0.8445
 7748SOL    HW234707   1.170   1.891   5.037 -0.7352  0.9854  0.3415
 7749SOL     OW34708   0.085   3.522  16.628  0.4205 -0.8817 -0.1370
 7749SOL    HW134709   0.003   3.562  16.659  0.9523 -0.1921  0.3837
 7749SOL    HW234710   0.098   3.443  16.679  0.1679  0.4323  1.9700
 7750SOL     OW34711   4.063   2.176   3.120 -0.3687 -0.1450 -0.7293
 7750SOL    HW134712   4.095   2.088   3.141 -2.2473 -0.8381 -0.7662
 7750SOL    HW234713   4.037   2.201   3.209 -1.4420  1.0369 -1.3750
 7751SOL     OW34714   2.423   0.502   9.867  0.1245  0.0514 -0.1923
 7751SOL    HW134715   2.434   0.438   9.937 -2.9251 -0.5818 -0.3074
 7751SOL    HW234716   2.382   0.574   9.916 -2.4147 -1.8372  0.4069
 7752SOL     OW34717   4.073   2.880   2.240 -0.5667  0.2762  1.0963
 7752SOL    HW134718   4.097   2.787   2.250  1.9408  0.7598 -0.3321
 7752SOL    HW234719   4.132   2.907   2.311  0.9727 -2.3713  0.8365
 7753SOL     OW34720   2.911   3.934   6.678 -0.3207 -0.0134  0.4061
 7753SOL    HW134721   2.942   3.852   6.639 -1.1261  0.0252 -0.3092
 7753SOL    HW234722   2.884   3.977   6.597  1.7737 -1.1995 -0.9263
 7754SOL     OW34723   2.857   3.840   2.658  0.4497 -0.1343 -0.2119
 7754SOL    HW134724   2.764   3.852   2.679  0.3967  1.9899 -1.6500
 7754SOL    HW234725   2.861   3.755   2.615 -0.2184 -0.4843  0.4066
 7755SOL     OW34726   0.489   3.942   5.544  0.4546 -0.5365 -0.2247
 7755SOL    HW134727   0.519   3.853   5.522  1.7260  0.1074 -1.0701
 7755SOL    HW234728   0.413   3.946   5.486  0.8357 -1.5579 -0.7973
 7756SOL     OW34729   4.014   3.871   8.417  0.0659 -0.4035 -0.1957
 7756SOL    HW134730   4.013   3.844   8.325 -3.4945  0.4798 -0.4094
 7756SOL    HW234731   3.941   3.826   8.459 -0.4244  0.1246 -0.4855
 7757SOL     OW34732   1.071   4.361   5.713  0.5410 -0.7258  1.1316
 7757SOL    HW134733   1.080   4.430   5.647  1.0823 -1.1062  0.8096
 7757SOL    HW234734   1.117   4.297   5.660  0.1121 -0.5620  0.5650
 7758SOL     OW34735   3.880   1.415   3.623  0.0359 -1.4190  0.3138
 7758SOL    HW134736   3.824   1.492   3.632  2.4752  0.3868  0.1851
 7758SOL    HW234737   3.833   1.374   3.551 -0.4754 -0.2742 -0.0068
 7759SOL     OW34738   3.003   4.126   7.323 -0.3260 -0.2352  0.2839
 7759SOL    HW134739   2.969   4.049   7.369 -1.5794  1.0808  1.5553
 7759SOL    HW234740   3.034   4.079   7.245 -1.7065  0.1394 -0.4901
 7760SOL     OW34741   2.919   3.700   6.159  0.3166 -0.0528  0.3451
 7760SOL    HW134742   2.906   3.695   6.254 -0.6900 -0.0201  0.2007
 7760SOL    HW234743   2.986   3.769   6.149 -0.3031  0.4667 -0.1619
 7761SOL     OW34744   3.517   4.500  10.276 -0.0489  0.3328 -0.1553
 7761SOL    HW134745   3.510   4.577  10.332 -0.5082 -0.8077  1.3645
 7761SOL    HW234746   3.435   4.524  10.232 -1.0044  0.0288  1.4587
 7762SOL     OW34747   3.560   2.840   0.381  0.2449 -0.6120  0.3002
 7762SOL    HW134748   3.487   2.801   0.430 -0.2865  0.0356  0.0371
 7762SOL    HW234749   3.522   2.871   0.298 -1.9764  0.9651  1.8887
 7763SOL     OW34750   1.560   4.322   9.731 -0.0488 -0.0223 -0.0545
 7763SOL    HW134751   1.557   4.402   9.679 -0.1674 -0.3103 -0.4908
 7763SOL    HW234752   1.576   4.256   9.664  0.2063 -2.4305  2.3436
 7764SOL     OW34753   2.501   0.826   4.064 -0.1059  0.1553 -0.1366
 7764SOL    HW134754   2.425   0.782   4.026  0.0123  0.1701 -0.3942
 7764SOL    HW234755   2.457   0.897   4.111 -0.9381 -2.0800  2.4027
 7765SOL     OW34756   4.093   0.994   8.177 -0.3724  0.0991  0.3964
 7765SOL    HW134757   4.006   1.029   8.195  0.3829  3.2515 -1.9822
 7765SOL    HW234758   4.132   1.047   8.108  0.6804 -0.4179  0.5888
 7766SOL     OW34759   1.141   1.069   1.634  0.2033 -0.4573 -0.4616
 7766SOL    HW134760   1.212   1.133   1.625 -0.7009  0.5268 -0.6808
 7766SOL    HW234761   1.185   0.994   1.672  1.3542  1.6562  2.3849
 7767SOL     OW34762   1.225   3.932  14.559  0.0937  0.5640  0.3580
 7767SOL    HW134763   1.288   3.895  14.621  0.6778  0.2129 -0.4491
 7767SOL    HW234764   1.182   3.852  14.529  1.7471 -0.1303 -0.1605
 7768SOL     OW34765   4.710   1.069  13.866  0.6170 -0.0832  0.0186
 7768SOL    HW134766   0.080   1.076  13.870  0.5799  0.1828  0.5856
 7768SOL    HW234767   4.688   1.057  13.959  2.0754 -0.4860  0.3186
 7769SOL     OW34768   4.357   2.075   4.853  0.2302 -0.7438  0.3956
 7769SOL    HW134769   4.410   2.090   4.931  1.0055 -2.0271  0.1029
 7769SOL    HW234770   4.411   2.118   4.786 -0.9916 -0.4903 -0.4192
 7770SOL     OW34771   0.540   2.759  16.885  0.0777  0.0138  0.1476
 7770SOL    HW134772   0.551   2.844  16.928  0.8090 -0.7652  1.5090
 7770SOL    HW234773   0.495   2.780  16.803 -2.8086  0.7777  1.9273
 7771SOL     OW34774   3.596   0.778   8.415  0.2813 -0.1454 -0.0180
 7771SOL    HW134775   3.669   0.783   8.476  0.8065 -0.3283 -0.6235
 7771SOL    HW234776   3.563   0.689   8.429  1.4477 -0.3057  1.7112
 7772SOL     OW34777   1.418   1.733   3.004  0.2744 -0.7786  0.0236
 7772SOL    HW134778   1.443   1.665   2.942  0.1379 -0.5424 -0.2959
 7772SOL    HW234779   1.494   1.734   3.062 -1.0400 -0.8843  1.7502
 7773SOL     OW34780   3.897   1.380   4.323  0.4478 -0.2005  0.2665
 7773SOL    HW134781   3.880   1.302   4.376 -0.3636 -0.1995  0.0066
 7773SOL    HW234782   3.962   1.344   4.263  0.0384 -2.1284  0.9865
 7774SOL     OW34783   3.718   3.184   8.082  0.0029  0.0106  0.0869
 7774SOL    HW134784   3.679   3.114   8.136  0.1586 -0.6859 -0.6953
 7774SOL    HW234785   3.789   3.212   8.139  0.5815  0.1219 -0.6915
 7775SOL     OW34786   3.964   2.438   2.719  0.3626 -0.1666  0.6150
 7775SOL    HW134787   4.047   2.450   2.674 -0.5231  1.0781 -0.6745
 7775SOL    HW234788   3.972   2.470   2.808  0.5986  0.6006  0.3169
 7776SOL     OW34789   0.712   4.271   9.280 -0.2758  0.3892 -0.5007
 7776SOL    HW134790   0.683   4.182   9.296  0.6555  0.9729  4.4367
 7776SOL    HW234791   0.724   4.302   9.369  0.8221 -1.7412  0.0800
 7777SOL     OW34792   0.992   4.024   4.010  0.1910  0.2350  0.1351
 7777SOL    HW134793   1.042   3.949   3.977 -1.2687  0.0244 -1.5820
 7777SOL    HW234794   1.046   4.094   3.974 -0.0175  0.4300  0.2024
 7778SOL     OW34795   2.678   3.192   5.739 -0.4345  0.4355  0.0420
 7778SOL    HW134796   2.665   3.099   5.755 -2.1957  0.8861  1.1546
 7778SOL    HW234797   2.707   3.231   5.821  3.7419  1.0952 -1.7401
 7779SOL     OW34798   1.687   0.624   8.755 -0.1900 -0.2098  0.0078
 7779SOL    HW134799   1.747   0.688   8.793 -1.9990  0.8259  1.0926
 7779SOL    HW234800   1.604   0.669   8.765 -0.0535  0.3196 -1.2123
 7780SOL     OW34801   1.508   1.153   5.059  0.2935  0.0052  0.2181
 7780SOL    HW134802   1.527   1.234   5.012  0.1286 -0.6204 -0.9214
 7780SOL    HW234803   1.415   1.137   5.041  0.4106 -0.7385  0.2839
 7781SOL     OW34804   2.742   1.299  10.076  0.0506 -0.3811 -0.0544
 7781SOL    HW134805   2.734   1.299  10.171 -1.5317 -2.1323 -0.1860
 7781SOL    HW234806   2.741   1.208  10.045 -0.0852 -0.3261 -0.2083
 7782SOL     OW34807   0.168   3.328   8.143  0.0675 -0.4439 -0.3221
 7782SOL    HW134808   0.097   3.353   8.202  0.6490 -1.8024  0.9485
 7782SOL    HW234809   0.108   3.291   8.078 -2.0382  0.6826  0.9935
 7783SOL     OW34810   4.659   1.176   4.222  0.6383 -0.7024 -0.0964
 7783SOL    HW134811   4.654   1.244   4.289 -0.9381  1.3892 -2.3411
 7783SOL    HW234812   0.021   1.138   4.235  0.5717  0.1919  2.8762
 7784SOL     OW34813   3.218   2.504  12.416 -0.1172  0.1218 -0.4096
 7784SOL    HW134814   3.211   2.583  12.470  0.3784 -0.7678  0.9695
 7784SOL    HW234815   3.131   2.505  12.377 -1.1254  1.3716  1.8821
 7785SOL     OW34816   2.257   3.059   4.444 -0.5573 -0.1411  0.1685
 7785SOL    HW134817   2.249   3.033   4.352 -0.9546 -2.5334  0.8770
 7785SOL    HW234818   2.351   3.079   4.445 -0.5283 -0.2510 -0.3109
 7786SOL     OW34819   4.210   3.153   2.876  0.3089 -0.4462 -0.4506
 7786SOL    HW134820   4.234   3.225   2.819 -2.4606  0.2867 -0.6797
 7786SOL    HW234821   4.153   3.190   2.943 -0.4397  0.0357 -1.3689
 7787SOL     OW34822   0.833   0.232  12.013  0.5156  0.3461 -0.9141
 7787SOL    HW134823   0.920   0.271  12.024  1.7411 -2.3058 -1.1491
 7787SOL    HW234824   0.809   0.221  12.105 -1.0191 -2.5568 -1.6727
 7788SOL     OW34825   3.415   3.307   2.639 -0.1931 -0.2871 -0.0145
 7788SOL    HW134826   3.397   3.313   2.733 -1.9594  1.1415 -0.4587
 7788SOL    HW234827   3.463   3.224   2.634 -0.5405 -0.6162  1.9011
 7789SOL     OW34828   3.568   1.790   4.372 -0.2866 -0.1584 -0.0093
 7789SOL    HW134829   3.648   1.840   4.358  0.7791 -1.5578  1.0485
 7789SOL    HW234830   3.501   1.851   4.342  1.5139  1.1913 -1.2170
 7790SOL     OW34831   3.633   2.021   8.490 -0.2263  0.0524 -0.3637
 7790SOL    HW134832   3.613   2.025   8.584  3.0208 -1.0211  0.3553
 7790SOL    HW234833   3.711   2.076   8.486 -0.5884  0.4919 -1.2230
 7791SOL     OW34834   3.189   1.787  14.139 -0.4740 -0.0130 -0.2384
 7791SOL    HW134835   3.242   1.771  14.216 -1.6497  0.6212  0.7091
 7791SOL    HW234836   3.249   1.760  14.070 -0.0933  1.4760 -0.4816
 7792SOL     OW34837   4.173   0.120   5.619  0.3585  0.1521 -0.1513
 7792SOL    HW134838   4.193   0.087   5.706  0.7192  0.4699 -0.1109
 7792SOL    HW234839   4.116   0.052   5.584 -0.2023  0.2206  0.6443
 7793SOL     OW34840   4.185   3.754   8.889 -0.1208 -0.0084 -0.0355
 7793SOL    HW134841   4.184   3.795   8.976 -2.0687 -1.3194  0.5671
 7793SOL    HW234842   4.114   3.692   8.902  2.6238 -2.6863  2.1067
 7794SOL     OW34843   4.156   2.949   9.563 -0.2831  0.1926  0.2755
 7794SOL    HW134844   4.164   3.044   9.566  1.0633  0.0433  1.2545
 7794SOL    HW234845   4.136   2.940   9.470  0.1391  0.4766  0.1568
 7795SOL     OW34846   4.607   3.450   6.280  0.7736 -0.2367 -0.3055
 7795SOL    HW134847   4.603   3.455   6.184 -3.7622  0.6184 -0.0894
 7795SOL    HW234848   4.686   3.399   6.295  0.8928  0.1432  0.3286
 7796SOL     OW34849   2.393   3.864   1.490  0.0420 -0.0508  0.4897
 7796SOL    HW134850   2.388   3.772   1.462 -1.1112 -0.2619  1.4126
 7796SOL    HW234851   2.454   3.857   1.564 -1.9263 -0.9250  2.0101
 7797SOL     OW34852   3.356   1.367   0.213  0.6250  0.1520  0.2429
 7797SOL    HW134853   3.389   1.341   0.299  0.5072  0.6480  0.4350
 7797SOL    HW234854   3.265   1.377   0.239  0.4091 -2.1781  0.3557
 7798SOL     OW34855   0.996   4.082   4.533 -0.1392  0.0143 -0.2001
 7798SOL    HW134856   1.089   4.103   4.521  0.2177 -2.6926 -2.3226
 7798SOL    HW234857   0.968   4.038   4.453 -0.2127 -2.4431  1.1386
 7799SOL     OW34858   1.107   0.593   3.294  0.0911 -0.2305 -0.1678
 7799SOL    HW134859   1.067   0.627   3.215 -0.9321 -0.7490  0.1367
 7799SOL    HW234860   1.146   0.674   3.329 -1.4701  0.9598 -1.2209
 7800SOL     OW34861   2.951   0.140   3.037 -0.1477  0.0824  0.2314
 7800SOL    HW134862   3.029   0.085   3.027 -0.6707 -0.5796 -0.2328
 7800SOL    HW234863   2.987   0.210   3.091  0.0800  1.0975 -1.2266
 7801SOL     OW34864   2.732   2.810   2.317  0.0599 -0.3533  0.0299
 7801SOL    HW134865   2.694   2.868   2.383  1.6171  1.1294 -0.3717
 7801SOL    HW234866   2.754   2.872   2.248  0.4584 -0.5123  0.0125
 7802SOL     OW34867   3.905   1.936   5.393  0.0002 -0.1493  0.2137
 7802SOL    HW134868   3.937   1.853   5.358 -0.5868  0.0539 -0.8382
 7802SOL    HW234869   3.936   2.005   5.335 -0.1910 -1.9073 -2.0056
 7803SOL     OW34870   4.116   3.208   3.518  0.2610 -0.0795 -0.2538
 7803SOL    HW134871   4.092   3.210   3.610  0.5675  1.8230 -0.2041
 7803SOL    HW234872   4.195   3.155   3.508  0.7749  0.7423 -0.6048
 7804SOL     OW34873   2.812   4.002   8.252  0.2764 -0.1047  0.2975
 7804SOL    HW134874   2.872   4.076   8.241  0.1206 -0.1154 -0.6274
 7804SOL    HW234875   2.865   3.935   8.294 -1.0083 -0.6353  1.0678
 7805SOL     OW34876   3.666   4.225   7.686 -0.0672  0.2672 -0.1127
 7805SOL    HW134877   3.651   4.254   7.597  0.5323 -2.6238 -1.1611
 7805SOL    HW234878   3.584   4.177   7.696  0.4897 -1.0202 -1.7962
 7806SOL     OW34879   1.411   2.015   4.051 -0.3012  0.2718 -0.1869
 7806SOL    HW134880   1.444   2.103   4.033 -2.2986  0.8851 -0.8147
 7806SOL    HW234881   1.322   2.037   4.078 -0.9528 -0.3489 -1.8195
 7807SOL     OW34882   0.310   0.689   4.057 -0.3035 -0.4638  0.1769
 7807SOL    HW134883   0.400   0.662   4.038 -0.6310  0.5541 -2.7446
 7807SOL    HW234884   0.282   0.710   3.968  1.4025  0.0908 -0.2274
 7808SOL     OW34885   3.307   0.889  11.784 -0.3755 -0.5498  0.1636
 7808SOL    HW134886   3.227   0.933  11.814 -1.5534 -3.0930  0.7133
 7808SOL    HW234887   3.264   0.833  11.719  1.2889 -1.3084 -0.2808
 7809SOL     OW34888   2.184   2.707   9.027  0.2060  0.1604  0.7103
 7809SOL    HW134889   2.239   2.764   9.081  0.2471  1.3096 -0.5226
 7809SOL    HW234890   2.097   2.705   9.066  0.8072 -1.3045  1.9612
 7810SOL     OW34891   0.751   3.587   0.087  0.5571 -0.2521  0.0025
 7810SOL    HW134892   0.740   3.597  17.695 -1.7963 -3.1511 -0.0064
 7810SOL    HW234893   0.667   3.556   0.119 -0.5354  1.5487 -1.1123
 7811SOL     OW34894   1.542   3.061  15.454  0.2419 -0.2457  0.1140
 7811SOL    HW134895   1.525   2.988  15.394 -1.6600  1.4259 -1.3583
 7811SOL    HW234896   1.636   3.076  15.441 -0.0083  1.1896 -0.0479
 7812SOL     OW34897   0.093   2.400  16.510  0.0004 -0.1413 -0.1470
 7812SOL    HW134898   0.025   2.441  16.562 -1.2269 -0.7871 -1.2400
 7812SOL    HW234899   0.164   2.459  16.533  1.2568 -3.0448  3.4827
 7813SOL     OW34900   4.190   4.544   3.755 -0.2704  0.1930  0.0641
 7813SOL    HW134901   4.268   4.491   3.774  0.1532  1.5835  2.1433
 7813SOL    HW234902   4.187   4.609   3.824  1.8224 -0.5424  0.8562
 7814SOL     OW34903   3.918   3.438   8.984  0.4584  0.3868 -0.1858
 7814SOL    HW134904   3.897   3.350   9.016  0.5262 -0.7719 -3.3921
 7814SOL    HW234905   3.956   3.425   8.897  0.5135 -2.1841  0.2199
 7815SOL     OW34906   0.484   1.018   1.638 -0.1484 -0.1300  0.2027
 7815SOL    HW134907   0.431   0.958   1.689 -0.5839  0.8041  0.8520
 7815SOL    HW234908   0.531   0.956   1.582 -0.1157 -0.4550  0.5930
 7816SOL     OW34909   2.381   3.298   0.930 -0.0865 -0.4481 -0.1480
 7816SOL    HW134910   2.457   3.264   0.978  0.3954  0.2744 -0.4064
 7816SOL    HW234911   2.324   3.222   0.913  1.1309 -1.6473  1.0680
 7817SOL     OW34912   2.284   4.531   7.238 -0.1236 -0.0302 -0.0069
 7817SOL    HW134913   2.264   4.625   7.232 -1.5336 -0.3785 -0.7614
 7817SOL    HW234914   2.374   4.535   7.269 -0.0945 -0.6030 -0.0281
 7818SOL     OW34915   4.304   3.788   6.758 -0.1679  0.4102  0.4452
 7818SOL    HW134916   4.388   3.784   6.802  0.2589  2.6086 -0.1373
 7818SOL    HW234917   4.254   3.725   6.809  0.4877 -0.7989 -0.4086
 7819SOL     OW34918   2.141   2.070   8.679 -0.3533  0.0674  0.1182
 7819SOL    HW134919   2.231   2.040   8.692  0.6007  3.1374  0.5603
 7819SOL    HW234920   2.128   2.147   8.734 -1.5958  1.0601 -1.5726
 7820SOL     OW34921   0.498   4.202   0.355  0.3386 -0.2406  0.0665
 7820SOL    HW134922   0.470   4.280   0.307  0.7888 -0.0589  0.0927
 7820SOL    HW234923   0.437   4.149   0.305 -0.5457  1.3669 -0.5697
 7821SOL     OW34924   3.888   2.434  16.069 -0.2005 -0.0185  0.4565
 7821SOL    HW134925   3.910   2.470  16.155 -0.0121  0.5077  0.1895
 7821SOL    HW234926   3.924   2.346  16.082  1.4625  0.6188  0.2708
 7822SOL     OW34927   0.160   0.952   9.762 -0.3012 -0.2305 -0.1032
 7822SOL    HW134928   0.255   0.939   9.755 -0.4857 -0.7397 -1.6195
 7822SOL    HW234929   0.131   0.977   9.674  0.1883 -0.6566 -0.3864
 7823SOL     OW34930   4.038   1.308   9.988  0.2400  0.1322  0.0290
 7823SOL    HW134931   4.133   1.304   9.972  0.4589  0.0884  1.2993
 7823SOL    HW234932   4.005   1.241   9.929 -0.0777  0.7812 -0.5130
 7824SOL     OW34933   2.935   1.601  14.369  0.8504  0.2842  0.0161
 7824SOL    HW134934   2.999   1.667  14.393 -0.6547  1.2419  1.4344
 7824SOL    HW234935   2.908   1.644  14.288 -1.3201  2.3342  1.8106
 7825SOL     OW34936   3.972   0.005   8.688  0.1607 -0.0266  0.0046
 7825SOL    HW134937   4.063   0.032   8.672 -0.0162  1.4703  1.5724
 7825SOL    HW234938   3.965   4.695   8.599  0.0734 -0.4798  0.1903
 7826SOL     OW34939   2.975   2.503   2.512 -0.6605  0.1810  0.0229
 7826SOL    HW134940   3.027   2.446   2.455 -0.2462  1.4904 -0.8936
 7826SOL    HW234941   2.907   2.519   2.447 -1.4250  0.0829  0.7937
 7827SOL     OW34942   3.688   1.315   3.407 -0.2298  0.0067  0.7001
 7827SOL    HW134943   3.742   1.238   3.393 -1.0740 -0.4286 -0.1310
 7827SOL    HW234944   3.731   1.384   3.357 -2.7651  1.9378  1.1638
 7828SOL     OW34945   4.596   4.577   1.956 -0.3011  0.3987  0.2603
 7828SOL    HW134946   4.677   4.531   1.981 -0.0519 -0.2617 -1.6915
 7828SOL    HW234947   4.615   4.654   2.009  2.2936 -0.9787  1.3652
 7829SOL     OW34948   2.625   0.470  14.626 -0.9293 -0.3634  0.0714
 7829SOL    HW134949   2.717   0.462  14.603 -0.9030 -0.4005  0.1921
 7829SOL    HW234950   2.619   0.396  14.686 -1.9172 -1.1393 -0.9618
 7830SOL     OW34951   0.595   1.353  12.140 -0.0079 -0.0612  0.4431
 7830SOL    HW134952   0.580   1.427  12.198  2.1394  1.3916 -0.8999
 7830SOL    HW234953   0.508   1.313  12.141  0.6884 -1.5574  1.3220
 7831SOL     OW34954   2.121   1.373   4.263  0.7062  0.1711 -0.0700
 7831SOL    HW134955   2.202   1.352   4.310  0.3188 -1.0688  0.0440
 7831SOL    HW234956   2.146   1.337   4.178  0.7881 -2.3147  0.9917
 7832SOL     OW34957   2.634   3.474   3.250 -0.2501  0.1668  0.4281
 7832SOL    HW134958   2.548   3.476   3.291 -0.3994 -1.0758  0.1724
 7832SOL    HW234959   2.643   3.568   3.233 -0.9685  0.2356  0.4120
 7833SOL     OW34960   4.538   1.510   8.795 -0.2357 -0.4701  0.0654
 7833SOL    HW134961   4.523   1.485   8.886  0.9558 -1.8201 -0.1120
 7833SOL    HW234962   4.619   1.463   8.777 -0.2157 -0.5146  0.2743
 7834SOL     OW34963   2.848   2.207   7.643  0.0154  0.3211 -0.1399
 7834SOL    HW134964   2.822   2.115   7.640  0.3924  0.2578 -1.4530
 7834SOL    HW234965   2.830   2.235   7.552  1.3500 -0.4735 -0.6391
 7835SOL     OW34966   2.134   1.547   0.486 -0.7612 -0.2009  0.0085
 7835SOL    HW134967   2.087   1.567   0.404 -1.5584  0.6460  0.6753
 7835SOL    HW234968   2.188   1.625   0.494 -0.8378 -0.2018  0.4802
 7836SOL     OW34969   2.745   0.012   7.801  0.1908 -0.3384  0.3252
 7836SOL    HW134970   2.750   4.653   7.757 -2.3777 -0.9700  1.2788
 7836SOL    HW234971   2.839   0.025   7.812  0.1125  0.2032  0.3422
 7837SOL     OW34972   1.680   4.208   1.197 -0.0291 -1.0286  0.7835
 7837SOL    HW134973   1.609   4.153   1.164 -0.1938  0.2889 -1.0487
 7837SOL    HW234974   1.745   4.196   1.128  0.4974  0.7094  0.9834
 7838SOL     OW34975   3.673   3.543   5.541 -0.1092  0.0709 -0.3111
 7838SOL    HW134976   3.752   3.501   5.508 -0.4952 -1.7004  1.0268
 7838SOL    HW234977   3.643   3.583   5.458 -0.8982  0.2721  0.0688
 7839SOL     OW34978   1.743   4.178   1.745 -0.1233 -0.9327  0.2006
 7839SOL    HW134979   1.686   4.112   1.706  2.7486 -2.9246 -0.6424
 7839SOL    HW234980   1.752   4.241   1.673  0.4185 -1.9652 -0.6519
 7840SOL     OW34981   1.026   3.277   4.108  0.3251  0.2340  0.4300
 7840SOL    HW134982   0.959   3.340   4.137 -0.1117 -0.7975  1.6955
 7840SOL    HW234983   1.103   3.334   4.113  0.8818 -0.3452 -1.6064
 7841SOL     OW34984   1.430   0.511  10.776 -0.2590 -0.8329 -0.3026
 7841SOL    HW134985   1.424   0.526  10.681 -0.4726 -2.0783 -0.4841
 7841SOL    HW234986   1.441   0.599  10.811 -1.5185 -0.0087 -1.9963
 7842SOL     OW34987   1.381   1.470   6.225 -0.4903 -0.1701 -0.4243
 7842SOL    HW134988   1.462   1.434   6.189 -0.2860 -0.7981  0.6782
 7842SOL    HW234989   1.316   1.422   6.173 -1.0380  0.8147 -0.6516
 7843SOL     OW34990   1.763   3.337   3.191 -0.0098  1.0336 -0.5647
 7843SOL    HW134991   1.737   3.281   3.117  2.8231 -0.9475 -0.0561
 7843SOL    HW234992   1.716   3.420   3.183  0.0339  1.1998  0.9094
 7844SOL     OW34993   4.395   2.774   2.117  0.0670 -0.1950 -0.3296
 7844SOL    HW134994   4.394   2.861   2.157 -1.8196  0.0361 -0.9058
 7844SOL    HW234995   4.459   2.787   2.047  1.5953 -0.4243  1.0124
 7845SOL     OW34996   2.851   0.275   4.639 -0.2684 -0.4711  0.2819
 7845SOL    HW134997   2.815   0.186   4.641 -1.7157  0.1189  0.0333
 7845SOL    HW234998   2.920   0.266   4.705 -1.8041  1.6239  2.1679
 7846SOL     OW34999   3.621   2.236   3.137 -0.1583  0.1191 -0.3148
 7846SOL    HW135000   3.525   2.233   3.135 -0.1791  0.1715  0.8759
 7846SOL    HW235001   3.644   2.322   3.100 -1.6516  1.5886  2.1718
 7847SOL     OW35002   3.287   0.098   4.624  0.0857 -0.0359 -0.2830
 7847SOL    HW135003   3.270   0.133   4.536 -1.7763 -1.1027 -0.3477
 7847SOL    HW235004   3.212   0.039   4.634 -0.2016  0.2685 -0.6198
 7848SOL     OW35005   0.135   2.387   0.888  0.1962 -0.2457  0.4782
 7848SOL    HW135006   0.078   2.311   0.878 -1.5661  1.1910 -0.3767
 7848SOL    HW235007   0.209   2.371   0.829  0.5180  0.3575  0.7164
 7849SOL     OW35008   2.027   0.024   3.983 -0.0083 -0.4289 -0.0257
 7849SOL    HW135009   2.035   4.693   4.060 -0.7029  0.3201  0.5941
 7849SOL    HW235010   2.113   4.721   3.951 -0.1710 -1.3711  0.3676
 7850SOL     OW35011   0.841   1.852   4.836 -0.4337  0.0720  0.9474
 7850SOL    HW135012   0.753   1.816   4.847  0.0834 -0.3983  3.5905
 7850SOL    HW235013   0.875   1.870   4.924 -1.3429 -1.7229  1.6835
 7851SOL     OW35014   1.057   4.086   7.987  0.4348 -0.0046  0.4257
 7851SOL    HW135015   0.986   4.121   7.933 -0.6007 -4.3321 -0.9740
 7851SOL    HW235016   1.103   4.165   8.016  1.9515 -0.6434 -0.2431
 7852SOL     OW35017   2.662   0.331   9.158  0.1095 -0.5855 -0.1414
 7852SOL    HW135018   2.648   0.239   9.138 -0.4248 -0.7101  0.8039
 7852SOL    HW235019   2.628   0.369   9.077  2.5233 -1.0770 -1.3893
 7853SOL     OW35020   1.937   4.560   5.996 -0.3375  0.4225 -0.2605
 7853SOL    HW135021   1.934   4.541   6.089 -1.2986  0.2029 -0.3311
 7853SOL    HW235022   2.007   4.503   5.963  0.3411  0.4074  1.2068
 7854SOL     OW35023   2.974   0.342   3.857 -0.4617 -0.7794  0.3853
 7854SOL    HW135024   2.937   0.268   3.810  0.8881 -1.7420  0.8571
 7854SOL    HW235025   2.910   0.411   3.838  1.7454  1.0535 -0.4350
 7855SOL     OW35026   4.586   1.364   6.003 -0.3014 -0.4912 -0.2095
 7855SOL    HW135027   4.641   1.311   6.060 -0.7614  0.4663  1.1241
 7855SOL    HW235028   4.562   1.438   6.059 -0.3617 -0.4057 -0.3472
 7856SOL     OW35029   2.766   3.344   2.720  0.3121 -0.4578 -0.8932
 7856SOL    HW135030   2.675   3.315   2.715  0.2315  0.0721 -2.7082
 7856SOL    HW235031   2.781   3.366   2.628  1.3684 -1.0144 -0.8622
 7857SOL     OW35032   3.074   1.488   3.654 -0.1843  0.5024  0.3442
 7857SOL    HW135033   3.155   1.475   3.605 -1.0399 -2.1158 -0.3915
 7857SOL    HW235034   3.060   1.398   3.683  1.4256  0.7852  1.9736
 7858SOL     OW35035   3.174   3.671   4.098  0.4370 -0.1762  0.9229
 7858SOL    HW135036   3.124   3.741   4.056 -0.9210 -1.2764  0.6766
 7858SOL    HW235037   3.243   3.668   4.033 -1.2045 -2.1231 -0.7425
 7859SOL     OW35038   0.885   4.182   8.228  0.2659  0.1034  0.1671
 7859SOL    HW135039   0.844   4.261   8.263  0.8763  1.3810 -1.9608
 7859SOL    HW235040   0.823   4.155   8.160 -0.3352  0.8363  0.4240
 7860SOL     OW35041   2.683   4.621  13.187 -0.1071  0.6489 -0.6686
 7860SOL    HW135042   2.712   4.587  13.102  0.1368  1.7393 -1.0121
 7860SOL    HW235043   2.596   4.636  13.151 -0.6406  1.1805  0.8648
 7861SOL     OW35044   4.637   0.077   6.475 -0.4887  0.0179  0.1850
 7861SOL    HW135045   4.554   0.124   6.476 -0.2731  0.3886  1.2336
 7861SOL    HW235046   4.611   4.713   6.450 -1.8970  0.5062 -0.0647
 7862SOL     OW35047   4.005   2.414   4.861 -0.5568 -0.3518  0.0525
 7862SOL    HW135048   3.953   2.348   4.815 -0.3367 -2.1974  2.5069
 7862SOL    HW235049   3.938   2.470   4.899  0.2375 -0.5204  1.7150
 7863SOL     OW35050   2.875   4.417   6.296  0.2128  0.0214 -0.4005
 7863SOL    HW135051   2.855   4.350   6.362 -0.1879  0.8203  0.2988
 7863SOL    HW235052   2.791   4.459   6.277 -0.0916 -0.8902 -1.0492
 7864SOL     OW35053   4.306   4.092   7.044  0.0288 -0.0601  0.0460
 7864SOL    HW135054   4.394   4.093   7.083 -0.8789 -1.3996  2.1158
 7864SOL    HW235055   4.311   4.183   7.016 -0.9912  0.2520  0.8712
 7865SOL     OW35056   0.356   0.391   7.159 -0.4625 -0.4328 -0.2884
 7865SOL    HW135057   0.285   0.376   7.097  0.7011 -1.2751 -1.4237
 7865SOL    HW235058   0.384   0.476   7.124  0.7597 -0.4853  0.5554
 7866SOL     OW35059   1.224   1.289   6.112  0.7129  0.2935  0.2149
 7866SOL    HW135060   1.265   1.207   6.139 -0.3584 -0.4310 -0.3596
 7866SOL    HW235061   1.131   1.274   6.097  0.3784  2.1940  0.3773
 7867SOL     OW35062   3.924   0.134  12.155  0.2946 -0.2537  0.0611
 7867SOL    HW135063   3.982   0.114  12.081 -1.3361 -0.5331 -1.1530
 7867SOL    HW235064   3.986   0.107  12.222 -0.5037  0.2651  1.0189
 7868SOL     OW35065   2.666   2.939   6.145  0.3146 -0.1040  0.4883
 7868SOL    HW135066   2.759   2.941   6.166  1.0127 -1.4092 -2.4128
 7868SOL    HW235067   2.626   2.910   6.228  0.3686  0.1965  0.6173
 7869SOL     OW35068   2.522   2.101   1.898 -0.1745  0.2265  0.0455
 7869SOL    HW135069   2.595   2.091   1.837  0.6124  3.4812  0.4702
 7869SOL    HW235070   2.534   2.185   1.941 -0.9222 -0.1484  0.9873
 7870SOL     OW35071   0.263   3.631   8.756  0.1697  0.6934  0.4295
 7870SOL    HW135072   0.225   3.554   8.713 -0.8958  0.7661  1.2614
 7870SOL    HW235073   0.191   3.684   8.789 -0.3768  0.9104 -1.1068
 7871SOL     OW35074   4.001   3.304   5.936 -0.1666  0.3562 -1.1223
 7871SOL    HW135075   3.995   3.295   5.841  0.0586  0.6146 -1.1605
 7871SOL    HW235076   3.951   3.384   5.951  0.0458  0.7040 -2.2804
 7872SOL     OW35077   1.534   2.073   8.453 -0.0357  0.3084  0.2202
 7872SOL    HW135078   1.514   2.078   8.546  1.9465 -0.7478  0.7013
 7872SOL    HW235079   1.593   1.999   8.435  1.2128  1.6066 -1.1091
 7873SOL     OW35080   4.605   1.040   3.390 -0.1865 -0.1621  0.0658
 7873SOL    HW135081   4.652   0.974   3.339  2.0886  1.2248  0.3643
 7873SOL    HW235082   4.578   0.980   3.459  3.4111 -1.1364  0.6350
 7874SOL     OW35083   2.939   0.859  14.635 -0.4469  0.0294 -0.2225
 7874SOL    HW135084   2.888   0.939  14.623 -0.7187 -0.4339 -2.2734
 7874SOL    HW235085   2.992   0.882  14.711 -0.8218 -2.4267  0.8026
 7875SOL     OW35086   2.859   3.072   9.420 -0.8598 -0.0375 -0.1976
 7875SOL    HW135087   2.838   2.986   9.457  0.8892 -0.8181 -0.9892
 7875SOL    HW235088   2.929   3.048   9.359 -0.7842 -0.1410 -0.0692
 7876SOL     OW35089   2.588   3.429  10.841 -0.2526 -0.3595 -0.2664
 7876SOL    HW135090   2.500   3.394  10.825  0.1677 -1.6013  0.1354
 7876SOL    HW235091   2.630   3.352  10.879 -0.9238 -0.5205  0.1639
 7877SOL     OW35092   2.606   2.595   3.313  0.2410  0.2786  0.1368
 7877SOL    HW135093   2.690   2.553   3.298  0.0900  0.9939 -2.7447
 7877SOL    HW235094   2.597   2.645   3.232 -3.2647 -1.9741 -0.8888
 7878SOL     OW35095   0.390   0.744  11.621  0.2704 -0.4025  0.0765
 7878SOL    HW135096   0.419   0.657  11.649  4.2407  0.1660 -2.1848
 7878SOL    HW235097   0.307   0.736  11.667  0.1176 -1.3700 -0.3642
 7879SOL     OW35098   2.074   1.469   5.326  0.1037  0.0349  0.2962
 7879SOL    HW135099   2.079   1.514   5.410  2.7176  0.0881  0.1244
 7879SOL    HW235100   2.123   1.529   5.269 -0.1210  0.7016  0.8007
 7880SOL     OW35101   4.075   1.311   7.776 -0.3076 -0.2122  0.2150
 7880SOL    HW135102   4.041   1.282   7.691 -1.0546  0.0269  0.4306
 7880SOL    HW235103   4.098   1.398   7.742 -0.7296  0.4785  1.7150
 7881SOL     OW35104   4.054   0.492   9.930  0.4311 -0.0937  0.3294
 7881SOL    HW135105   3.974   0.448   9.901 -0.5264  2.4163 -0.7738
 7881SOL    HW235106   4.014   0.562   9.981  2.3008  0.0749  1.5516
 7882SOL     OW35107   2.988   0.453   5.026  0.5869  0.1781 -0.0932
 7882SOL    HW135108   2.983   0.455   5.122  0.0479  1.2861 -0.1479
 7882SOL    HW235109   2.982   0.544   4.997 -1.7408  0.6493  1.9219
 7883SOL     OW35110   2.073   3.078   0.122 -0.0653 -0.3464 -0.2013
 7883SOL    HW135111   1.994   3.127   0.146 -0.3439 -1.1602  0.5339
 7883SOL    HW235112   2.041   3.029   0.046  0.7416  0.2213 -0.9047
 7884SOL     OW35113   3.564   4.349   5.425 -0.8524  0.3689  0.0577
 7884SOL    HW135114   3.631   4.410   5.395 -2.2683  2.8692  2.0281
 7884SOL    HW235115   3.592   4.270   5.379  0.1560  0.2880  0.8095
 7885SOL     OW35116   1.311   2.284  11.433 -0.1825  0.1146  0.2113
 7885SOL    HW135117   1.398   2.250  11.455 -0.2830  0.4737  1.1283
 7885SOL    HW235118   1.257   2.228  11.488  0.5139 -0.4056  0.3785
 7886SOL     OW35119   4.494   3.619   5.046  0.0125  0.0235  0.8045
 7886SOL    HW135120   4.534   3.564   5.114 -2.6862 -2.4478  0.4155
 7886SOL    HW235121   4.514   3.562   4.971 -0.3594 -0.2321  0.8964
 7887SOL     OW35122   1.222   4.163   8.389  0.0728 -0.2071  0.2319
 7887SOL    HW135123   1.264   4.078   8.377  1.3373  0.5614 -0.7783
 7887SOL    HW235124   1.145   4.143   8.443 -0.6007 -0.4142 -0.8040
 7888SOL     OW35125   4.538   1.180  13.694 -0.2763 -0.4204 -0.8505
 7888SOL    HW135126   4.543   1.272  13.720  0.3602 -0.3674 -1.1444
 7888SOL    HW235127   4.609   1.143  13.746 -1.7810 -0.9594  0.8051
 7889SOL     OW35128   4.188   1.824  17.093 -0.0907  0.5496 -0.5823
 7889SOL    HW135129   4.094   1.824  17.075 -0.5870  1.1027  2.0307
 7889SOL    HW235130   4.187   1.820  17.189 -0.9103 -0.4757 -0.6388
 7890SOL     OW35131   3.242   2.535   4.974 -0.2622 -0.4397  0.4676
 7890SOL    HW135132   3.306   2.515   5.042  1.1238 -0.1545 -0.7500
 7890SOL    HW235133   3.302   2.530   4.899 -1.5383 -0.6374 -0.5370
 7891SOL     OW35134   3.719   1.347  14.707  0.1038 -0.2318 -0.5698
 7891SOL    HW135135   3.763   1.387  14.632 -0.8681  0.9378 -0.5150
 7891SOL    HW235136   3.780   1.371  14.777 -0.8351 -1.4082  0.6631
 7892SOL     OW35137   2.772   3.112   8.831 -0.0039 -0.4078  0.1003
 7892SOL    HW135138   2.809   3.039   8.880  0.9101  0.0006  0.0202
 7892SOL    HW235139   2.758   3.184   8.892 -3.0582  0.9679 -2.1988
 7893SOL     OW35140   3.250   1.228   5.132 -0.2876  0.1998  0.2757
 7893SOL    HW135141   3.224   1.145   5.171 -0.9031  1.5124  2.6825
 7893SOL    HW235142   3.220   1.222   5.041 -1.2600 -0.7020  0.6560
 7894SOL     OW35143   3.916   3.763   6.900 -0.6900  0.3079  0.6565
 7894SOL    HW135144   3.891   3.751   6.992 -0.8066 -0.5148  0.5153
 7894SOL    HW235145   3.974   3.839   6.910  1.4254 -1.3489  0.9539
 7895SOL     OW35146   1.176   1.266  13.601 -0.4455  0.2165 -0.3979
 7895SOL    HW135147   1.161   1.180  13.562 -0.2172 -0.1014  0.2077
 7895SOL    HW235148   1.124   1.250  13.681  0.3868 -2.4372 -0.3697
 7896SOL     OW35149   3.119   3.587  11.242  1.1176  0.1515  0.0122
 7896SOL    HW135150   3.080   3.623  11.322 -1.0177  1.2438 -1.5196
 7896SOL    HW235151   3.041   3.545  11.205  1.0995 -1.0769  1.4064
 7897SOL     OW35152   1.228   3.562   5.289  0.2331 -0.3369 -1.0328
 7897SOL    HW135153   1.242   3.652   5.320 -0.3636 -0.7672  0.4385
 7897SOL    HW235154   1.155   3.576   5.228  0.6187 -1.9337 -1.8488
 7898SOL     OW35155   0.970   4.582  14.003  0.1332 -0.5248  0.1472
 7898SOL    HW135156   0.986   4.509  13.943 -0.0590  0.7089 -1.4055
 7898SOL    HW235157   1.025   4.563  14.078 -0.8137  0.2875  1.0434
 7899SOL     OW35158   1.085   2.401   4.209  0.4291 -0.0879  0.6477
 7899SOL    HW135159   1.146   2.474   4.207 -0.8327  0.9622  0.9451
 7899SOL    HW235160   1.040   2.405   4.125 -1.2745 -2.8467  1.3970
 7900SOL     OW35161   2.584   0.306   3.047  0.0712 -0.1931  0.1398
 7900SOL    HW135162   2.623   0.239   3.103  1.0662  1.6490  1.6892
 7900SOL    HW235163   2.573   0.269   2.960 -0.3139 -1.0450  0.5558
 7901SOL     OW35164   4.164   2.582   7.037  0.0887 -0.6235 -0.2145
 7901SOL    HW135165   4.221   2.650   7.001  0.6727  0.4237  2.6774
 7901SOL    HW235166   4.227   2.510   7.026 -0.2359 -0.8350 -0.6962
 7902SOL     OW35167   2.255   1.490   8.239 -0.6901  0.0825  0.1837
 7902SOL    HW135168   2.248   1.410   8.187 -0.1274 -0.8166  1.5045
 7902SOL    HW235169   2.187   1.468   8.303  0.5048 -2.1799  0.6454
 7903SOL     OW35170   1.706   0.826  11.562 -0.0962  0.1042 -0.4315
 7903SOL    HW135171   1.633   0.831  11.501  0.3738 -2.7794 -1.2336
 7903SOL    HW235172   1.760   0.902  11.539 -1.0620  0.6158 -0.9905
 7904SOL     OW35173   3.912   4.349   5.566 -0.6570  0.1569  0.1430
 7904SOL    HW135174   3.992   4.310   5.602 -1.0414 -1.0079 -0.2689
 7904SOL    HW235175   3.871   4.276   5.522 -2.4297  1.3646 -0.2015
 7905SOL     OW35176   4.391   3.757   7.550 -0.2061 -0.3983 -0.0451
 7905SOL    HW135177   4.449   3.776   7.624  0.5122  3.1538 -1.5310
 7905SOL    HW235178   4.342   3.682   7.584 -1.0014  0.6339  1.0338
 7906SOL     OW35179   1.033   0.276   9.228 -0.1776  0.0171 -0.2051
 7906SOL    HW135180   1.063   0.198   9.182  1.6369 -0.2048  1.3162
 7906SOL    HW235181   1.087   0.276   9.308  0.8429  1.8381 -0.8971
 7907SOL     OW35182   3.716   2.563   0.085 -0.0210 -0.3779  0.4258
 7907SOL    HW135183   3.668   2.485   0.115 -0.3145  0.3175  1.7496
 7907SOL    HW235184   3.679   2.592   0.002 -2.7121  0.4634  1.8947
 7908SOL     OW35185   3.579   2.079   4.528  0.7832  0.0554  0.2515
 7908SOL    HW135186   3.616   2.048   4.446 -2.0920  1.7218 -1.6604
 7908SOL    HW235187   3.660   2.089   4.578  0.9958  1.8472 -0.4373
 7909SOL     OW35188   0.112   0.164   3.862  0.2520  0.0832 -0.0029
 7909SOL    HW135189   0.186   0.205   3.907  0.3017  2.0739 -1.8449
 7909SOL    HW235190   0.100   0.075   3.894  0.7805  0.1341  0.3222
 7910SOL     OW35191   4.442   3.935   7.340 -0.1067 -0.1632  0.2433
 7910SOL    HW135192   4.397   3.883   7.407 -0.1342 -1.8510 -1.0664
 7910SOL    HW235193   4.464   4.008   7.397  0.1380 -0.8127  0.9816
 7911SOL     OW35194   3.858   0.860   4.862 -0.0200  0.4919  0.1507
 7911SOL    HW135195   3.939   0.811   4.876  0.9415  1.4749 -1.9897
 7911SOL    HW235196   3.895   0.945   4.885  0.9007  0.4631 -1.2596
 7912SOL     OW35197   1.410   2.823   6.146 -0.4577 -0.4717  0.2627
 7912SOL    HW135198   1.418   2.852   6.055  0.1381 -2.1120 -0.2014
 7912SOL    HW235199   1.332   2.871   6.176  0.4396  1.1929 -0.0862
 7913SOL     OW35200   0.049   3.166   4.387  0.5046  0.2363 -0.3005
 7913SOL    HW135201   0.063   3.079   4.347  3.2924  0.1672  0.8593
 7913SOL    HW235202   0.025   3.152   4.478 -1.1254 -2.7442 -1.1600
 7914SOL     OW35203   2.368   0.932   9.668 -0.1523 -0.0724  0.0501
 7914SOL    HW135204   2.409   1.013   9.699  0.6344  0.4491 -2.3387
 7914SOL    HW235205   2.303   0.976   9.614 -1.1641 -0.7237  0.7384
 7915SOL     OW35206   3.362   3.101   5.014  0.2922  0.2054  0.6208
 7915SOL    HW135207   3.307   3.175   4.986  0.9532  0.8285  0.9620
 7915SOL    HW235208   3.359   3.052   4.932 -0.3806  0.2530  0.6162
 7916SOL     OW35209   3.302   0.521  12.000 -0.0061  0.8836  0.1284
 7916SOL    HW135210   3.223   0.552  12.045 -2.1750  0.6427 -3.4098
 7916SOL    HW235211   3.355   0.596  12.026  0.2989 -0.6732  3.9465
 7917SOL     OW35212   0.727   4.279  14.033  0.1760  0.1378 -0.2026
 7917SOL    HW135213   0.744   4.223  14.109 -2.8092  0.0039  0.3488
 7917SOL    HW235214   0.632   4.278  14.029  0.1403  0.2948  0.6863
 7918SOL     OW35215   0.035   1.891   1.825 -0.2394  0.0993 -0.4326
 7918SOL    HW135216   0.056   1.914   1.915  0.3146 -1.2801 -0.2152
 7918SOL    HW235217   0.122   1.873   1.790  1.0786  2.3310  1.6814
 7919SOL     OW35218   1.446   2.821  14.366 -0.0762  0.1174  0.2784
 7919SOL    HW135219   1.360   2.858  14.346 -0.5997 -0.0157  2.3130
 7919SOL    HW235220   1.477   2.903  14.406  0.1553  0.3943 -0.4618
 7920SOL     OW35221   4.311   0.594  13.267 -0.5458 -0.7893  0.2909
 7920SOL    HW135222   4.236   0.595  13.208 -0.0136  0.7882 -0.3665
 7920SOL    HW235223   4.356   0.525  13.220 -1.8775 -0.5878 -1.2856
 7921SOL     OW35224   1.234   0.193   9.425 -0.1201 -1.0863 -0.2595
 7921SOL    HW135225   1.165   0.140   9.462 -0.8425 -1.4261 -2.0649
 7921SOL    HW235226   1.263   0.222   9.511 -1.3819 -1.3194  0.2336
 7922SOL     OW35227   0.212   2.913   8.267  0.2114  0.0020  0.1297
 7922SOL    HW135228   0.175   2.845   8.324 -1.4961  2.3476  1.8154
 7922SOL    HW235229   0.198   2.984   8.330 -1.5473 -0.6351  0.4599
 7923SOL     OW35230   0.635   3.466  15.174 -0.3984  0.8824  0.0054
 7923SOL    HW135231   0.557   3.522  15.171 -0.8301  0.3014  0.2117
 7923SOL    HW235232   0.677   3.505  15.250  0.7683 -1.8018  0.7340
 7924SOL     OW35233   4.717   1.658   6.318 -0.3671  0.1798  0.0233
 7924SOL    HW135234   0.004   1.578   6.369  1.6729  0.6553  0.2894
 7924SOL    HW235235   4.626   1.684   6.333  0.0186  1.0693  0.7705
 7925SOL     OW35236   2.333   3.534   4.962  0.0062 -0.0703  0.0279
 7925SOL    HW135237   2.299   3.449   4.935  0.0358 -0.6980  2.0019
 7925SOL    HW235238   2.280   3.599   4.916 -1.5198  0.1146  2.0976
 7926SOL     OW35239   4.521   1.101  11.234 -0.3277  0.4439 -0.2070
 7926SOL    HW135240   4.480   1.073  11.152 -1.3128 -1.9455  1.1153
 7926SOL    HW235241   4.487   1.190  11.239  0.8374  0.7777  1.5519
 7927SOL     OW35242   0.824   2.019   9.072  0.0578 -0.1648  0.3153
 7927SOL    HW135243   0.817   2.019   9.168 -0.1517 -1.1783  0.3022
 7927SOL    HW235244   0.885   2.088   9.044 -0.6224  0.4718  0.4126
 7928SOL     OW35245   2.626   4.165   5.766 -0.1614  0.6079  1.0715
 7928SOL    HW135246   2.582   4.092   5.723  1.4787 -0.4932  1.2449
 7928SOL    HW235247   2.713   4.126   5.765  0.6079  2.3820 -0.0059
 7929SOL     OW35248   3.948   3.559   3.801 -0.2362 -0.0173  0.7099
 7929SOL    HW135249   3.950   3.639   3.854  2.0169  0.8949 -0.7282
 7929SOL    HW235250   4.030   3.568   3.751 -0.3104 -1.9854  0.2252
 7930SOL     OW35251   0.263   0.321  10.224 -0.1199 -0.5102 -0.1424
 7930SOL    HW135252   0.289   0.237  10.263 -1.0348 -0.2844  0.9306
 7930SOL    HW235253   0.265   0.381  10.298 -3.1050 -3.4795  2.3130
 7931SOL     OW35254   4.544   1.453   5.196 -0.0575  0.2439 -1.1741
 7931SOL    HW135255   4.547   1.512   5.272 -3.4195 -1.3184  0.1831
 7931SOL    HW235256   4.589   1.506   5.130  0.6907 -1.2313 -1.8460
 7932SOL     OW35257   4.512   0.239   7.144 -0.2217  0.0416 -1.1066
 7932SOL    HW135258   4.591   0.292   7.157 -0.5860 -0.0308  1.4573
 7932SOL    HW235259   4.492   0.249   7.051  1.1488 -1.1809 -1.5320
 7933SOL     OW35260   2.949   2.479   6.876 -0.1524  0.2348 -0.2381
 7933SOL    HW135261   2.972   2.386   6.865  0.0438  0.2806 -0.2088
 7933SOL    HW235262   2.966   2.500   6.968 -2.6061  0.9226  0.0610
 7934SOL     OW35263   3.732   2.907   2.357  0.2355 -0.0144 -0.2279
 7934SOL    HW135264   3.755   2.981   2.414 -0.2780  0.1499 -0.2366
 7934SOL    HW235265   3.691   2.838   2.411 -1.0996 -0.4123 -1.7654
 7935SOL     OW35266   1.271   2.021  14.544  0.2521 -0.4892 -0.4234
 7935SOL    HW135267   1.366   2.026  14.533  0.3970 -2.6935 -0.2612
 7935SOL    HW235268   1.254   2.114  14.535 -0.1529 -0.5364 -0.1049
 7936SOL     OW35269   1.203   2.382   8.444  0.4089 -0.1087 -0.5840
 7936SOL    HW135270   1.249   2.416   8.521 -0.5351 -1.4326  0.5537
 7936SOL    HW235271   1.182   2.296   8.481 -0.2579  0.9083  1.4388
 7937SOL     OW35272   4.543   2.524   6.820 -0.0068  0.0447  0.0518
 7937SOL    HW135273   4.552   2.439   6.862 -1.1653 -0.3921 -0.5734
 7937SOL    HW235274   4.624   2.569   6.843  0.2190 -0.3205 -0.0266
 7938SOL     OW35275   2.038   1.933   5.636  0.7315 -0.4121  0.0268
 7938SOL    HW135276   1.985   1.993   5.585 -0.7440 -1.5508  0.2245
 7938SOL    HW235277   2.121   1.981   5.628 -1.3295  3.0936 -0.4273
 7939SOL     OW35278   3.742   2.916   2.802 -0.3038 -0.3926  0.2736
 7939SOL    HW135279   3.817   2.975   2.792 -2.0506  2.0138  1.2084
 7939SOL    HW235280   3.740   2.930   2.897  0.0156 -0.4607  0.2910
 7940SOL     OW35281   1.123   4.544   6.469  0.1206  0.5417  0.0681
 7940SOL    HW135282   1.172   4.596   6.533 -1.2338  0.0648  1.5221
 7940SOL    HW235283   1.106   4.617   6.411  1.4214  0.4147 -0.4632
 7941SOL     OW35284   0.913   1.278  13.380  0.1508  0.4850  0.2506
 7941SOL    HW135285   0.922   1.281  13.284 -0.3988  1.8330  0.2510
 7941SOL    HW235286   0.952   1.362  13.405  0.0924  0.7417 -0.5156
 7942SOL     OW35287   1.232   2.608   0.174  0.9472 -0.0380  0.2638
 7942SOL    HW135288   1.232   2.704   0.167 -0.6679 -0.2705 -2.6435
 7942SOL    HW235289   1.177   2.579   0.102  0.8259 -0.0028  0.3425
 7943SOL     OW35290   2.749   3.466   5.163 -0.2317 -0.4884  0.3909
 7943SOL    HW135291   2.799   3.387   5.144 -0.7837 -0.6712 -0.3214
 7943SOL    HW235292   2.817   3.516   5.209 -0.9015 -0.7976  1.7047
 7944SOL     OW35293   1.917   0.558   4.041  0.4694  0.5224 -0.3454
 7944SOL    HW135294   1.966   0.627   3.997  1.0168 -0.9443 -2.0748
 7944SOL    HW235295   1.987   0.521   4.095 -1.3807  1.1274  2.4907
 7945SOL     OW35296   3.185   3.941   4.885  0.3250 -0.7532 -0.1529
 7945SOL    HW135297   3.174   4.024   4.839  1.5481  0.4684  1.7271
 7945SOL    HW235298   3.145   3.884   4.819 -2.5587  1.1338 -0.0377
 7946SOL     OW35299   2.281   0.758  10.318  0.2978 -0.1558  0.0003
 7946SOL    HW135300   2.193   0.781  10.289  0.0198 -2.3329 -0.9260
 7946SOL    HW235301   2.342   0.807  10.264  2.1981 -2.2540  0.2245
 7947SOL     OW35302   2.340   3.241   7.091 -0.4798 -0.5539 -0.2163
 7947SOL    HW135303   2.246   3.246   7.109 -0.2282 -0.8626  1.2493
 7947SOL    HW235304   2.357   3.328   7.054  1.0442 -0.7478  0.0190
 7948SOL     OW35305   3.111   1.212   7.473  0.4920 -0.3046 -0.2293
 7948SOL    HW135306   3.040   1.170   7.522  0.2737 -1.4444 -1.5051
 7948SOL    HW235307   3.065   1.294   7.455 -2.1083 -1.8180 -0.5977
 7949SOL     OW35308   0.546   4.246  14.770 -0.3731 -0.7973  0.3838
 7949SOL    HW135309   0.587   4.246  14.856 -2.3678 -1.9070  1.3113
 7949SOL    HW235310   0.463   4.208  14.797 -1.2949 -0.5306 -2.0289
 7950SOL     OW35311   0.583   2.408   6.864 -0.6086 -0.0359 -0.2697
 7950SOL    HW135312   0.539   2.482   6.823 -1.4342 -0.7919 -0.7389
 7950SOL    HW235313   0.534   2.328   6.847  4.6008 -3.1479 -0.7798
 7951SOL     OW35314   1.275   2.900   8.192 -0.1969 -0.1910 -0.6139
 7951SOL    HW135315   1.343   2.955   8.231  0.3274 -1.2869 -0.0012
 7951SOL    HW235316   1.282   2.934   8.103 -2.2869  0.5838 -0.4898
 7952SOL     OW35317   1.656   0.886  13.225  0.5435 -0.0645  0.5360
 7952SOL    HW135318   1.609   0.929  13.296  0.5640 -0.9808  1.0988
 7952SOL    HW235319   1.586   0.869  13.161  0.0904  0.0639  0.9970
 7953SOL     OW35320   2.322   2.241   3.360 -0.1706  0.0594  0.0909
 7953SOL    HW135321   2.273   2.162   3.337 -0.9215  0.0869  1.6358
 7953SOL    HW235322   2.366   2.258   3.277 -0.0892  0.7072  0.2670
 7954SOL     OW35323   4.380   1.226   6.762  0.4776 -0.2126 -0.3954
 7954SOL    HW135324   4.341   1.297   6.814  3.6204 -0.7258  2.5560
 7954SOL    HW235325   4.331   1.146   6.781 -1.3949  1.5722  2.3435
 7955SOL     OW35326   3.044   4.709   8.061 -0.6574  0.3500  0.1601
 7955SOL    HW135327   3.138   0.002   8.055 -0.3296 -1.2980  0.3920
 7955SOL    HW235328   3.018   4.725   7.971 -1.5404  0.4300  0.4287
 7956SOL     OW35329   1.228   3.970   3.804  0.6299 -0.0448 -0.6517
 7956SOL    HW135330   1.308   3.919   3.813  1.7263  1.7319 -0.4568
 7956SOL    HW235331   1.252   4.061   3.792 -1.8301  1.0173  2.8035
 7957SOL     OW35332   1.947   1.682   8.100 -0.3708 -0.0042 -0.4463
 7957SOL    HW135333   1.932   1.592   8.130 -0.0090 -0.1845 -0.8070
 7957SOL    HW235334   1.933   1.673   8.006 -0.5162  1.7762 -0.5947
 7958SOL     OW35335   3.496   4.606   8.186  0.0012  0.3935 -0.5069
 7958SOL    HW135336   3.540   4.674   8.238  0.3419  0.3083 -0.6872
 7958SOL    HW235337   3.441   4.655   8.125 -1.0815  1.2932  1.2026
 7959SOL     OW35338   4.151   3.126   5.297  0.1190 -0.0826 -0.9337
 7959SOL    HW135339   4.198   3.209   5.290  1.9282 -1.0081  0.1014
 7959SOL    HW235340   4.181   3.084   5.216 -0.1244 -2.4204  0.1731
 7960SOL     OW35341   0.179   3.014   7.866 -0.3488 -0.4387 -0.1497
 7960SOL    HW135342   0.258   2.984   7.912  0.1587  0.3975 -0.4755
 7960SOL    HW235343   0.206   3.104   7.848  0.6163 -0.4088  1.4482
 7961SOL     OW35344   4.578   1.811   1.403  0.1406 -0.2103 -0.5421
 7961SOL    HW135345   4.490   1.833   1.375  0.0409  1.1073  0.8586
 7961SOL    HW235346   4.616   1.893   1.433  0.7681 -1.0867  1.0635
 7962SOL     OW35347   1.540   2.367   2.253  0.0169 -0.5822 -0.4687
 7962SOL    HW135348   1.500   2.381   2.339  1.7643  1.9864 -0.0841
 7962SOL    HW235349   1.624   2.325   2.271 -0.0075  0.9777  3.2569
 7963SOL     OW35350   2.447   0.254   9.731 -0.7972  0.4539 -0.5925
 7963SOL    HW135351   2.420   0.342   9.757 -0.9866  0.3941 -0.5846
 7963SOL    HW235352   2.499   0.224   9.805 -0.1399  1.2794 -0.7163
 7964SOL     OW35353   2.288   4.436   2.899 -0.1494 -0.1947  0.5468
 7964SOL    HW135354   2.193   4.425   2.899 -0.3091  1.2649 -0.7225
 7964SOL    HW235355   2.308   4.507   2.960 -2.5427 -1.0378  2.3352
 7965SOL     OW35356   1.862   3.756   6.607  0.4792  0.0354  0.1590
 7965SOL    HW135357   1.798   3.805   6.557  0.2227  1.6115  2.0263
 7965SOL    HW235358   1.834   3.795   6.690 -0.9975  1.5777 -1.0933
 7966SOL     OW35359   1.493   0.994   6.532 -0.3281 -0.0669 -0.5431
 7966SOL    HW135360   1.490   1.083   6.498  1.8597  0.3962  0.4723
 7966SOL    HW235361   1.513   0.950   6.449  1.6677  0.7244 -0.4887
 7967SOL     OW35362   2.098   0.977  12.939 -0.3617 -0.4515 -0.7196
 7967SOL    HW135363   2.138   0.910  12.884  1.3685 -0.0516  0.0526
 7967SOL    HW235364   2.024   0.930  12.976 -0.9619  0.3627 -0.8717
 7968SOL     OW35365   0.501   1.216   4.510 -0.0513  0.4756 -0.1200
 7968SOL    HW135366   0.539   1.253   4.431 -1.5995  0.7194 -0.7538
 7968SOL    HW235367   0.532   1.125   4.505 -2.1339 -0.4955  3.8129
 7969SOL     OW35368   0.847   3.101   6.950  0.9354  0.1671 -0.1500
 7969SOL    HW135369   0.817   3.019   6.988 -0.5158  0.3762 -0.8593
 7969SOL    HW235370   0.833   3.161   7.023 -2.3975  0.6091 -1.1815
 7970SOL     OW35371   1.284   3.899  12.906  0.5105 -0.5957 -0.4850
 7970SOL    HW135372   1.235   3.903  12.824 -0.5478 -0.8579  0.1282
 7970SOL    HW235373   1.281   3.989  12.939 -1.7363  0.3012 -3.1035
 7971SOL     OW35374   4.652   1.484   3.293 -0.3374 -0.0272 -0.3714
 7971SOL    HW135375   4.605   1.565   3.274  2.2248  0.7954 -3.2442
 7971SOL    HW235376   4.714   1.497   3.365  1.9682  0.0596 -2.3759
 7972SOL     OW35377   1.551   1.786  17.344  0.7483  0.3994 -0.2024
 7972SOL    HW135378   1.487   1.849  17.311 -0.8775 -0.3327  1.5684
 7972SOL    HW235379   1.495   1.765  17.419  1.0679  3.5921  0.9291
 7973SOL     OW35380   0.778   0.322   0.948  0.0837  0.1798  0.3357
 7973SOL    HW135381   0.838   0.300   1.019  1.1437  0.2394 -0.5505
 7973SOL    HW235382   0.758   0.415   0.963  2.7919  0.5657  1.6077
 7974SOL     OW35383   0.829   1.205   9.110  0.1618 -0.5776 -0.1109
 7974SOL    HW135384   0.920   1.232   9.097 -0.1822  2.1053  3.1256
 7974SOL    HW235385   0.818   1.213   9.204  0.3157  1.4122 -0.2674
 7975SOL     OW35386   3.018   2.953   7.089  0.0125 -0.0764 -0.4494
 7975SOL    HW135387   2.987   2.935   7.000 -0.2728 -0.2838 -0.3100
 7975SOL    HW235388   2.937   2.935   7.137  0.1452  0.1778 -0.1404
 7976SOL     OW35389   0.507   4.285   6.407  0.2813 -0.1646 -0.2553
 7976SOL    HW135390   0.560   4.359   6.436 -0.1160 -0.5269  1.3779
 7976SOL    HW235391   0.518   4.285   6.312 -1.5933  0.6067 -0.4625
 7977SOL     OW35392   4.010   4.175  14.373  0.0190 -0.1297 -0.9197
 7977SOL    HW135393   3.939   4.210  14.426  0.7204  2.0713 -1.4467
 7977SOL    HW235394   3.974   4.186  14.285  0.3751  0.2184 -1.0186
 7978SOL     OW35395   0.930   1.138   8.166 -0.2887 -0.9302 -0.9160
 7978SOL    HW135396   0.889   1.057   8.198  1.7085 -1.3397  0.6277
 7978SOL    HW235397   0.952   1.186   8.245 -0.1465 -3.0797  0.3611
 7979SOL     OW35398   3.156   2.891  17.330  0.5107  0.2117  0.1727
 7979SOL    HW135399   3.224   2.853  17.274  0.4109 -0.9915  0.8774
 7979SOL    HW235400   3.096   2.929  17.265  0.4403  0.2894  0.2828
 7980SOL     OW35401   0.034   4.045   0.808  0.3881  0.1799  0.4533
 7980SOL    HW135402   4.724   3.957   0.802  1.8815 -0.3524 -0.4541
 7980SOL    HW235403   0.031   4.065   0.714 -0.9080 -2.6182 -0.1053
 7981SOL     OW35404   1.483   1.062   2.097  0.0510 -0.4421  0.0310
 7981SOL    HW135405   1.463   0.980   2.051 -2.1827  0.6967 -1.0096
 7981SOL    HW235406   1.402   1.103   2.067 -0.2080 -0.0676  1.2356
 7982SOL     OW35407   3.138   0.173   5.550  0.2697 -0.1092  0.1966
 7982SOL    HW135408   3.062   0.228   5.567 -0.4133 -0.9592 -0.0782
 7982SOL    HW235409   3.164   0.203   5.464 -0.7534 -0.1215 -0.1149
 7983SOL     OW35410   0.536   1.067   5.491  0.1656  0.1001 -0.2328
 7983SOL    HW135411   0.465   1.056   5.428  1.7010  4.3911 -2.6779
 7983SOL    HW235412   0.581   0.983   5.487  2.2948  1.2293  0.1603
 7984SOL     OW35413   3.948   0.926   5.483 -0.3237  0.3268  0.3168
 7984SOL    HW135414   3.881   0.905   5.547 -0.5819  0.6274  0.1461
 7984SOL    HW235415   3.935   0.867   5.409  1.1720  1.4503 -0.8457
 7985SOL     OW35416   1.766   4.184   6.104  0.5575 -0.4044  0.2386
 7985SOL    HW135417   1.848   4.230   6.088  0.5167 -0.1324  0.8211
 7985SOL    HW235418   1.782   4.122   6.175 -1.7352 -1.5847 -0.2558
 7986SOL     OW35419   0.328   3.122   0.182 -0.6003 -0.8012 -0.1156
 7986SOL    HW135420   0.260   3.133   0.114  1.7663  0.3100 -2.3115
 7986SOL    HW235421   0.284   3.182   0.243 -0.7329  0.4219 -1.3895
 7987SOL     OW35422   2.079   3.320   0.827  0.3474 -0.6608  0.2926
 7987SOL    HW135423   2.100   3.302   0.736 -1.1228 -0.2956 -0.1181
 7987SOL    HW235424   2.134   3.252   0.866 -1.6606 -2.9535 -0.8498
 7988SOL     OW35425   2.755   0.449   4.109 -0.2647 -0.2608  0.6279
 7988SOL    HW135426   2.800   0.438   4.193  1.4917 -0.2547 -0.3007
 7988SOL    HW235427   2.755   0.544   4.102 -0.9081 -0.1858  1.7491
 7989SOL     OW35428   4.171   0.538   2.365  0.4497 -0.3207 -0.5187
 7989SOL    HW135429   4.139   0.502   2.447  0.7061  2.0517  0.6181
 7989SOL    HW235430   4.118   0.497   2.296  1.9571 -1.4222 -1.0096
 7990SOL     OW35431   1.034   2.375  12.429 -0.2296  0.8156  0.3232
 7990SOL    HW135432   1.016   2.315  12.503  1.2018  0.6892  0.5567
 7990SOL    HW235433   1.037   2.317  12.353 -0.6363 -0.3391  1.1792
 7991SOL     OW35434   2.383   0.219   6.625 -0.3137 -0.4372  0.1513
 7991SOL    HW135435   2.385   0.308   6.589 -0.5562  0.4558  2.3248
 7991SOL    HW235436   2.477   0.203   6.631  0.0418  0.5833 -2.7097
 7992SOL     OW35437   0.889   2.704  11.279  0.1214  0.1381 -0.2195
 7992SOL    HW135438   0.933   2.640  11.334  3.0818  1.6067 -0.8923
 7992SOL    HW235439   0.798   2.676  11.291  0.5702 -1.1384  0.1568
 7993SOL     OW35440   3.619   0.809   6.586  0.3648 -0.4288 -0.3000
 7993SOL    HW135441   3.603   0.732   6.640 -3.7291  1.7930  1.6727
 7993SOL    HW235442   3.671   0.775   6.513  0.6396  1.0947 -0.8204
 7994SOL     OW35443   0.250   1.589   4.582  0.0477  0.2138 -1.0531
 7994SOL    HW135444   0.275   1.647   4.653  1.0909 -0.1417 -1.1302
 7994SOL    HW235445   0.228   1.505   4.622 -2.7427  2.4759  2.1618
 7995SOL     OW35446   4.019   2.182   8.011  0.4645  0.3094 -0.7572
 7995SOL    HW135447   4.023   2.087   8.023  3.9002  0.5246 -0.1797
 7995SOL    HW235448   4.074   2.219   8.080 -0.9940  1.3522 -0.1475
 7996SOL     OW35449   0.515   2.547   7.803 -0.3197 -0.1030  0.3917
 7996SOL    HW135450   0.557   2.462   7.789  0.8955  0.4761  0.5067
 7996SOL    HW235451   0.535   2.558   7.896  0.3716  0.2361  0.2102
 7997SOL     OW35452   2.074   3.161   9.810  0.3823  0.1220  0.3385
 7997SOL    HW135453   2.009   3.232   9.804  0.1375 -0.1748 -0.4935
 7997SOL    HW235454   2.020   3.084   9.793 -0.3027  0.7101 -0.1939
 7998SOL     OW35455   0.401   3.281   6.262 -0.2978  0.7178 -0.4047
 7998SOL    HW135456   0.445   3.251   6.183  0.8697  2.5166 -0.4387
 7998SOL    HW235457   0.440   3.233   6.336  1.2506 -0.4631 -1.9974
 7999SOL     OW35458   1.582   0.731   2.474  0.6159 -0.0310 -0.1114
 7999SOL    HW135459   1.531   0.807   2.444  0.7566 -0.9577 -2.7136
 7999SOL    HW235460   1.670   0.768   2.467  1.1223 -0.8642  1.7572
 8000SOL     OW35461   3.253   4.201  10.136 -0.2191 -0.2844  0.1058
 8000SOL    HW135462   3.337   4.204  10.183 -0.1700  0.7393 -0.0340
 8000SOL    HW235463   3.275   4.130  10.075 -2.2652 -2.3110  1.7450
 8001SOL     OW35464   3.679   1.328  17.308  0.3228  0.2036 -0.2795
 8001SOL    HW135465   3.728   1.271  17.248  0.2410  2.2458 -2.2809
 8001SOL    HW235466   3.755   1.376  17.339  0.7735  1.1836 -2.8893
 8002SOL     OW35467   4.221   2.530   5.671 -0.0368  0.2656  0.0877
 8002SOL    HW135468   4.126   2.541   5.669 -0.1266 -0.1811  1.4574
 8002SOL    HW235469   4.249   2.553   5.760  1.6412 -0.3583 -0.2784
 8003SOL     OW35470   4.227   2.716   7.877  0.3680 -0.7135  0.3085
 8003SOL    HW135471   4.189   2.648   7.932  0.4684  0.8569  2.3406
 8003SOL    HW235472   4.161   2.703   7.809 -1.9629  0.6383  2.3417
 8004SOL     OW35473   1.390   1.392  13.527 -0.3050  0.2821 -0.0048
 8004SOL    HW135474   1.309   1.343  13.544  0.1121 -0.0607  0.9778
 8004SOL    HW235475   1.428   1.369  13.612 -1.3939  2.7995  1.1830
 8005SOL     OW35476   3.011   1.708   4.691  0.3120  0.7052  1.0325
 8005SOL    HW135477   2.978   1.623   4.663 -0.0025  1.6476 -1.4179
 8005SOL    HW235478   2.938   1.765   4.669  1.6759  2.4989  1.1769
 8006SOL     OW35479   0.558   1.659   5.910 -0.3837 -0.1228  0.7191
 8006SOL    HW135480   0.616   1.585   5.928 -0.0634 -0.2886 -0.9934
 8006SOL    HW235481   0.544   1.710   5.990  2.0228 -0.7085  1.5109
 8007SOL     OW35482   3.274   3.963  11.862  0.3944 -0.3503  0.1532
 8007SOL    HW135483   3.214   3.890  11.849 -0.9966  0.9352 -0.7249
 8007SOL    HW235484   3.290   4.001  11.776 -1.5222 -1.6571 -0.7808
 8008SOL     OW35485   2.179   0.777   8.860  0.0890 -0.0574  0.0253
 8008SOL    HW135486   2.268   0.743   8.864 -0.4614 -1.7650 -2.1628
 8008SOL    HW235487   2.193   0.843   8.792  2.0119 -0.6855 -0.1857
 8009SOL     OW35488   1.049   0.061   2.648  0.5340  0.4501  0.1183
 8009SOL    HW135489   0.977   0.028   2.594 -1.1280  2.4253  1.1423
 8009SOL    HW235490   1.115   0.076   2.579  0.5472  1.8997  0.4465
 8010SOL     OW35491   4.212   3.630   9.232 -0.7402  0.2060 -0.0749
 8010SOL    HW135492   4.261   3.553   9.260  0.6647  1.0605 -0.1729
 8010SOL    HW235493   4.286   3.680   9.197  1.2911 -4.3745 -2.3095
 8011SOL     OW35494   3.488   3.540  15.204  0.1912  0.3124 -0.0076
 8011SOL    HW135495   3.565   3.498  15.165 -0.3070  2.6803 -3.5673
 8011SOL    HW235496   3.456   3.466  15.256 -0.9707  1.3367  0.7207
 8012SOL     OW35497   1.459   2.897   6.704 -0.5824 -0.1378  0.1737
 8012SOL    HW135498   1.408   2.966   6.663  1.6000  0.7248 -1.1098
 8012SOL    HW235499   1.483   2.831   6.639 -0.8402 -0.5438  0.4910
 8013SOL     OW35500   2.303   0.953   4.527 -0.5622  0.2593 -0.5127
 8013SOL    HW135501   2.252   0.872   4.521  0.7033 -0.6264  0.6010
 8013SOL    HW235502   2.232   1.012   4.549 -0.0284  0.5196  0.5237
 8014SOL     OW35503   0.750   2.802   7.116 -0.1556  0.5988  0.1478
 8014SOL    HW135504   0.784   2.794   7.205 -1.2913  0.8184  0.6026
 8014SOL    HW235505   0.833   2.800   7.068 -0.1747  2.6802  0.0417
 8015SOL     OW35506   4.108   1.418   4.867 -0.5731 -0.0364  0.3753
 8015SOL    HW135507   4.093   1.500   4.822  0.0504  1.5950  3.1083
 8015SOL    HW235508   4.172   1.432   4.937  0.1541  1.6563 -0.6384
 8016SOL     OW35509   2.458   3.679  15.626  0.0629 -0.1556 -0.0186
 8016SOL    HW135510   2.374   3.724  15.630  1.0265  1.4273  2.2837
 8016SOL    HW235511   2.499   3.711  15.545 -1.6488 -2.3105 -1.7112
 8017SOL     OW35512   1.453   2.729   4.943 -0.2947  0.6596  0.0020
 8017SOL    HW135513   1.489   2.765   5.024  1.5073 -0.8779 -0.1276
 8017SOL    HW235514   1.473   2.800   4.882  0.9607 -1.7039 -2.3102
 8018SOL     OW35515   3.255   1.910   7.077 -0.3631 -0.3614 -0.1532
 8018SOL    HW135516   3.161   1.929   7.076 -0.1751  0.3757 -2.5530
 8018SOL    HW235517   3.254   1.882   7.169 -0.6274  0.3827  0.0649
 8019SOL     OW35518   1.154   2.937   7.223 -0.1871 -0.0979 -1.1583
 8019SOL    HW135519   1.090   2.907   7.289  0.7240  2.2469  0.8033
 8019SOL    HW235520   1.202   2.856   7.211  0.2383  0.1035 -0.8136
 8020SOL     OW35521   3.307   1.988  14.945  0.5537  0.1035  0.1096
 8020SOL    HW135522   3.212   1.998  14.956  0.4434  0.1857 -0.8916
 8020SOL    HW235523   3.346   2.054  15.003  0.5577  0.1482  0.0571
 8021SOL     OW35524   3.188   3.958   8.053 -0.8277 -0.3531 -0.6012
 8021SOL    HW135525   3.102   3.987   8.021 -0.2643  0.5476 -1.2988
 8021SOL    HW235526   3.218   4.036   8.099 -0.8905 -1.5116  1.3786
 8022SOL     OW35527   1.917   2.670   4.010 -0.6187 -0.0149 -0.1918
 8022SOL    HW135528   1.992   2.649   4.067 -0.3765  1.4014  0.0219
 8022SOL    HW235529   1.915   2.764   4.027  0.4906 -0.3941  2.0963
 8023SOL     OW35530   0.361   2.379  17.188  0.1480 -0.3845  0.3084
 8023SOL    HW135531   0.325   2.439  17.124  0.2760 -0.9700 -0.3103
 8023SOL    HW235532   0.321   2.413  17.268  0.3593  0.0866  0.2115
 8024SOL     OW35533   2.012   3.360   5.011 -0.2185 -0.0067 -0.2203
 8024SOL    HW135534   1.941   3.409   4.970  1.0371  0.7551 -1.4320
 8024SOL    HW235535   1.962   3.311   5.077  0.9592 -0.9677 -0.0422
 8025SOL     OW35536   4.146   3.360   3.295 -0.0605  0.1467  0.0996
 8025SOL    HW135537   4.107   3.318   3.372  0.9232  1.3656  1.2757
 8025SOL    HW235538   4.144   3.455   3.306  0.6234  0.1883 -0.0927
 8026SOL     OW35539   1.369   4.439   7.516 -0.0726  0.0645  0.1514
 8026SOL    HW135540   1.367   4.531   7.540  1.7259  0.1240  0.0256
 8026SOL    HW235541   1.429   4.412   7.585 -0.9443 -2.9312 -0.2508
 8027SOL     OW35542   2.467   4.635  15.646 -0.4746  0.2467 -0.5523
 8027SOL    HW135543   2.479   4.655  15.553  3.0730  0.3135 -0.0866
 8027SOL    HW235544   2.376   4.607  15.633 -1.0451  0.5883  2.7593
 8028SOL     OW35545   3.589   2.398   4.550 -0.8514  0.8188  0.4771
 8028SOL    HW135546   3.544   2.455   4.487 -0.6662  0.1091 -0.3053
 8028SOL    HW235547   3.578   2.312   4.510  4.8044  0.0300  0.6332
 8029SOL     OW35548   4.435   4.460   7.407 -0.3306 -0.3125  0.2000
 8029SOL    HW135549   4.381   4.519   7.460  1.3643 -0.5937  2.2251
 8029SOL    HW235550   4.510   4.443   7.464 -0.4879  1.8066  1.0329
 8030SOL     OW35551   1.914   2.861   1.902  0.0322 -0.3395  0.1179
 8030SOL    HW135552   1.844   2.926   1.911 -0.0297  0.0319 -3.0655
 8030SOL    HW235553   1.870   2.785   1.938  0.3510  0.7947  2.9073
 8031SOL     OW35554   3.557   3.630   9.126 -0.3590 -0.1618 -0.5164
 8031SOL    HW135555   3.551   3.594   9.038 -0.9272 -1.0892 -0.0972
 8031SOL    HW235556   3.491   3.698   9.113 -1.3966 -1.2797 -1.0263
 8032SOL     OW35557   2.341   0.916  12.375 -0.4918 -0.1238  0.5254
 8032SOL    HW135558   2.319   0.953  12.460  0.0496 -0.5092  0.8329
 8032SOL    HW235559   2.415   0.862  12.404 -1.0887 -1.1032  0.2186
 8033SOL     OW35560   1.238   3.978   6.695 -0.0413  0.2898  0.1124
 8033SOL    HW135561   1.313   3.979   6.636  1.9451  2.7747  2.7189
 8033SOL    HW235562   1.256   3.901   6.749  0.0858 -1.3992 -2.3319
 8034SOL     OW35563   2.049   3.589   0.839 -0.1877  0.0499 -0.3556
 8034SOL    HW135564   2.051   3.496   0.863 -1.0583 -0.5067 -2.4733
 8034SOL    HW235565   2.024   3.579   0.748  0.8415 -0.3968 -0.5809
 8035SOL     OW35566   4.554   4.291  14.462 -0.3350 -0.0810  0.1615
 8035SOL    HW135567   4.509   4.210  14.437 -0.4428  0.4958 -1.4889
 8035SOL    HW235568   4.613   4.265  14.533 -0.0750 -0.5249 -0.2204
 8036SOL     OW35569   0.873   3.539   5.453 -0.5405 -0.1082  0.3599
 8036SOL    HW135570   0.801   3.602   5.455 -0.2900  0.1899 -0.1023
 8036SOL    HW235571   0.909   3.554   5.541  0.1276  3.7673 -0.5977
 8037SOL     OW35572   3.493   3.459   0.601 -0.3032 -0.3220 -0.0278
 8037SOL    HW135573   3.547   3.409   0.662 -0.9289  0.2706  0.9977
 8037SOL    HW235574   3.474   3.540   0.647 -2.3105 -1.3026  0.8746
 8038SOL     OW35575   4.000   2.424  14.122  0.7041 -0.4663  0.7875
 8038SOL    HW135576   3.995   2.446  14.029 -3.0824  0.2926  1.1521
 8038SOL    HW235577   3.925   2.367  14.141  0.0370  0.1304 -0.0633
 8039SOL     OW35578   1.213   0.442   1.765  0.4424 -0.4033 -0.1835
 8039SOL    HW135579   1.156   0.388   1.710 -1.4555  1.6812 -0.2589
 8039SOL    HW235580   1.153   0.492   1.821 -1.3785 -2.3156 -0.4501
 8040SOL     OW35581   2.160   1.278   0.222 -0.3708 -0.7334 -0.1184
 8040SOL    HW135582   2.201   1.272   0.136 -0.1946  1.5658 -0.1729
 8040SOL    HW235583   2.197   1.198   0.261 -0.5436  1.0095  3.6325
 8041SOL     OW35584   0.541   0.635   5.586  0.4562  0.1469 -0.0505
 8041SOL    HW135585   0.541   0.551   5.540  0.6921 -0.3501  0.8662
 8041SOL    HW235586   0.540   0.692   5.509 -0.2938  0.1936 -0.0033
 8042SOL     OW35587   2.220   2.148   5.602 -0.7001  0.0607  0.0455
 8042SOL    HW135588   2.191   2.239   5.607 -0.5458  0.0219  1.8534
 8042SOL    HW235589   2.279   2.149   5.678  0.0727 -1.9785 -0.5341
 8043SOL     OW35590   1.236   2.690   7.101 -0.0072 -0.5338  0.8124
 8043SOL    HW135591   1.143   2.686   7.079  0.4853  0.0205 -1.4309
 8043SOL    HW235592   1.275   2.668   7.016 -0.3938  0.8117  0.2896
 8044SOL     OW35593   0.386   2.428   9.393 -0.2493  0.6569 -0.1347
 8044SOL    HW135594   0.363   2.492   9.460  1.5434  1.0683  0.0852
 8044SOL    HW235595   0.480   2.445   9.388 -0.1610  0.3289  0.4026
 8045SOL     OW35596   3.383   2.647  17.664 -0.1579 -0.0434 -0.0414
 8045SOL    HW135597   3.453   2.653  17.599 -0.8948  1.5869 -0.6836
 8045SOL    HW235598   3.312   2.599  17.621 -0.6013 -0.3114  0.9797
 8046SOL     OW35599   4.419   1.398   6.549  0.9764 -0.2672  0.2018
 8046SOL    HW135600   4.402   1.328   6.612  0.7610  0.0718  0.5173
 8046SOL    HW235601   4.373   1.365   6.472  2.2740 -1.4215 -0.0789
 8047SOL     OW35602   1.352   4.602   1.516 -0.5930 -0.6558  0.2019
 8047SOL    HW135603   1.385   4.674   1.570 -1.4192  0.5427 -0.8728
 8047SOL    HW235604   1.426   4.584   1.458  0.2415  0.2647  0.9764
 8048SOL     OW35605   2.335   2.114   6.608  0.0815  0.6779  0.1417
 8048SOL    HW135606   2.281   2.148   6.537  1.4788 -1.4003 -1.9134
 8048SOL    HW235607   2.348   2.190   6.664  2.1784 -0.5197  1.3096
 8049SOL     OW35608   2.412   3.205   5.150 -0.1765  0.2663  0.1653
 8049SOL    HW135609   2.463   3.259   5.211 -1.0985  0.8229  0.4559
 8049SOL    HW235610   2.463   3.126   5.135 -0.5490 -0.2171  1.4203
 8050SOL     OW35611   1.829   2.300   3.883 -0.5865 -0.4072  0.5132
 8050SOL    HW135612   1.804   2.382   3.841  0.7084  1.5863  3.6928
 8050SOL    HW235613   1.771   2.291   3.958 -1.2813  1.0421  0.1461
 8051SOL     OW35614   2.318   3.347   6.096  0.3438 -0.2000  0.1376
 8051SOL    HW135615   2.365   3.429   6.081 -0.6127  0.2655 -0.3582
 8051SOL    HW235616   2.371   3.295   6.035 -0.2228 -0.9078  0.2488
 8052SOL     OW35617   0.310   2.874   9.453 -0.4239 -0.1005  0.3431
 8052SOL    HW135618   0.325   2.784   9.481 -0.3271 -0.1888  0.0103
 8052SOL    HW235619   0.216   2.882   9.470 -0.4926 -2.0032  0.8423
 8053SOL     OW35620   4.643   3.794   3.576 -0.0961  0.1093 -0.2067
 8053SOL    HW135621   4.687   3.727   3.629  0.9462  0.3592 -0.7581
 8053SOL    HW235622   4.714   3.842   3.533 -0.2175  1.4626  1.1360
 8054SOL     OW35623   0.496   3.522   1.550  0.4928 -0.4266 -0.2028
 8054SOL    HW135624   0.545   3.476   1.618  0.0606  1.3276  1.3057
 8054SOL    HW235625   0.550   3.505   1.472  0.9952  1.8219 -0.3488
 8055SOL     OW35626   2.664   2.505  16.891  0.1333  0.0999  0.5817
 8055SOL    HW135627   2.744   2.512  16.943 -0.0108 -0.7801  0.9318
 8055SOL    HW235628   2.683   2.547  16.807  1.7112 -1.3347  0.2092
 8056SOL     OW35629   4.470   2.541   3.627  0.2979  0.0263 -0.1933
 8056SOL    HW135630   4.389   2.591   3.638 -1.3315 -2.7989  0.8669
 8056SOL    HW235631   4.523   2.614   3.597  1.3091 -1.0220 -0.9637
 8057SOL     OW35632   2.608   1.071  17.007 -0.1885 -0.7963 -0.9830
 8057SOL    HW135633   2.599   1.016  17.086  2.0442 -0.8435 -0.7724
 8057SOL    HW235634   2.515   1.085  16.986 -0.4724 -0.3967  0.5406
 8058SOL     OW35635   4.157   2.698   1.973  0.4976  0.5055 -0.2407
 8058SOL    HW135636   4.230   2.702   2.036  0.3631  1.7984 -0.1535
 8058SOL    HW235637   4.200   2.660   1.897  2.3488  0.4144  0.8409
 8059SOL     OW35638   2.751   3.746   2.340 -0.2132  0.2504  0.4593
 8059SOL    HW135639   2.835   3.706   2.361  0.0939  0.2677 -0.6896
 8059SOL    HW235640   2.683   3.693   2.381 -0.1810 -0.5195 -0.4880
 8060SOL     OW35641   1.340   1.037   4.663 -0.3966  0.1383  0.0396
 8060SOL    HW135642   1.330   0.951   4.622  1.3252 -0.1372  0.1727
 8060SOL    HW235643   1.413   1.016   4.721 -1.6848  0.6878  1.8521
 8061SOL     OW35644   4.170   2.123   2.385  0.0437 -0.1225  0.1977
 8061SOL    HW135645   4.218   2.188   2.436  1.6578 -0.9948 -0.2103
 8061SOL    HW235646   4.117   2.175   2.325  1.8995 -0.0190 -1.3622
 8062SOL     OW35647   1.056   4.432   8.495  0.4592 -0.1092  0.2639
 8062SOL    HW135648   0.988   4.365   8.503  0.8161 -0.7446 -2.1007
 8062SOL    HW235649   1.094   4.393   8.416 -0.9521  1.8101 -1.3651
 8063SOL     OW35650   3.066   2.113   0.561 -0.1004  0.2359 -0.3143
 8063SOL    HW135651   3.124   2.099   0.486 -0.0090 -2.2385  0.2169
 8063SOL    HW235652   2.978   2.123   0.524 -0.9791  0.1334  1.7797
 8064SOL     OW35653   1.483   4.104   7.895  0.0488  0.1113 -0.0488
 8064SOL    HW135654   1.422   4.114   7.968 -0.8968  0.3157 -0.8613
 8064SOL    HW235655   1.562   4.095   7.948  1.0637  0.6309 -1.4883
 8065SOL     OW35656   3.850   1.111   8.292 -0.6194  0.0441 -0.2290
 8065SOL    HW135657   3.768   1.064   8.302  0.6358 -1.7523  1.7227
 8065SOL    HW235658   3.898   1.094   8.373  0.1192  2.6022 -0.1099
 8066SOL     OW35659   3.509   1.361   3.913 -0.2100  0.1488 -0.4472
 8066SOL    HW135660   3.445   1.300   3.950 -0.4098  0.9753  0.5841
 8066SOL    HW235661   3.532   1.308   3.837 -1.4622 -1.0611  0.0232
 8067SOL     OW35662   0.424   2.238   2.186  0.2816 -0.0335  0.2347
 8067SOL    HW135663   0.466   2.272   2.266  1.8166  0.8381 -0.9456
 8067SOL    HW235664   0.480   2.167   2.159 -1.5308 -0.7943 -1.5035
 8068SOL     OW35665   2.160   3.143   3.441  0.3827 -0.2435  0.2399
 8068SOL    HW135666   2.237   3.131   3.385  0.3839 -0.0232  0.1923
 8068SOL    HW235667   2.125   3.216   3.389  1.9655 -0.2421 -0.8142
 8069SOL     OW35668   2.042   1.431   4.630  0.0369 -0.0733 -0.7272
 8069SOL    HW135669   2.124   1.460   4.592 -0.6322  2.4488 -0.2263
 8069SOL    HW235670   1.981   1.474   4.571 -1.1751  0.6757  1.0527
 8070SOL     OW35671   3.021   0.758   5.275 -0.2542  0.1434 -0.3682
 8070SOL    HW135672   3.108   0.736   5.308  0.4198  2.5333 -0.5263
 8070SOL    HW235673   2.984   0.796   5.355 -0.8374 -0.7653 -0.2057
 8071SOL     OW35674   3.031   0.899  11.623  0.9011  0.5539  0.1213
 8071SOL    HW135675   2.949   0.919  11.668  0.5437 -0.1958 -0.2044
 8071SOL    HW235676   3.083   0.980  11.615  0.5765  0.9714  2.1766
 8072SOL     OW35677   3.467   3.211   7.970  0.3707 -0.1061 -0.0551
 8072SOL    HW135678   3.559   3.194   7.989  0.8800  1.7452 -0.8767
 8072SOL    HW235679   3.460   3.257   7.886  0.9198 -2.8495 -1.6033
 8073SOL     OW35680   3.304   1.675   1.060 -0.3630  0.2871 -0.0673
 8073SOL    HW135681   3.370   1.632   1.006 -1.1793 -0.8867 -0.1456
 8073SOL    HW235682   3.320   1.758   1.015 -2.2567 -1.0283 -3.1556
 8074SOL     OW35683   2.207   0.357   5.432 -0.1811 -0.2681 -0.1510
 8074SOL    HW135684   2.292   0.397   5.446 -0.1640  0.4190 -2.1868
 8074SOL    HW235685   2.179   0.408   5.356 -1.3246  1.6104  1.5389
 8075SOL     OW35686   0.104   1.095   3.134 -0.0952  0.4630 -0.1922
 8075SOL    HW135687   0.024   1.147   3.128 -0.4947 -0.4496 -2.6969
 8075SOL    HW235688   0.176   1.155   3.152  0.5287 -0.2818 -0.1841
 8076SOL     OW35689   3.869   3.888   0.156  0.2065 -0.1859  0.1723
 8076SOL    HW135690   3.881   3.971   0.203  1.2926  0.3111 -0.9985
 8076SOL    HW235691   3.778   3.861   0.170  0.2983  0.4657  2.0778
 8077SOL     OW35692   0.274   1.426   3.970  0.0345 -0.0572 -0.2769
 8077SOL    HW135693   0.327   1.367   3.916 -0.6196 -0.3786 -0.5722
 8077SOL    HW235694   0.263   1.490   3.899  0.4068  1.2606  0.8472
 8078SOL     OW35695   3.244   2.685   4.459  0.5557 -0.2473 -0.4662
 8078SOL    HW135696   3.212   2.769   4.427 -1.9638 -1.3001 -0.7394
 8078SOL    HW235697   3.234   2.633   4.380  0.9246 -0.9066 -0.0780
 8079SOL     OW35698   3.065   4.064  12.129  0.0614 -0.0117  0.0624
 8079SOL    HW135699   3.080   3.981  12.083  2.1443 -0.0085  0.7171
 8079SOL    HW235700   3.030   4.025  12.210  2.2394 -1.9781  0.0823
 8080SOL     OW35701   2.071   3.907   7.189  0.1942  0.1643 -0.3818
 8080SOL    HW135702   2.002   3.865   7.240  2.7049 -0.7428  2.2621
 8080SOL    HW235703   2.012   3.945   7.124  0.8235  0.6241 -0.6930
 8081SOL     OW35704   1.540   1.520  11.395 -0.3673  0.7364  0.0530
 8081SOL    HW135705   1.472   1.586  11.410 -0.7111  0.6952 -1.3721
 8081SOL    HW235706   1.551   1.530  11.301  0.0120  0.3013  0.0474
 8082SOL     OW35707   2.423   3.180   8.784  0.5555 -0.1109 -0.4520
 8082SOL    HW135708   2.364   3.113   8.751 -2.3881  1.4205  1.6770
 8082SOL    HW235709   2.446   3.133   8.864 -1.1470  0.5104  0.4199
 8083SOL     OW35710   2.156   0.352   3.933  0.6483  0.2383  0.4768
 8083SOL    HW135711   2.118   0.355   4.022 -0.4187 -1.7346  0.0950
 8083SOL    HW235712   2.106   0.281   3.894  1.3955  0.2977 -0.5774
 8084SOL     OW35713   1.712   3.451   4.926 -0.0089 -0.1088  0.7603
 8084SOL    HW135714   1.703   3.486   5.015  1.2862  3.3713 -0.4825
 8084SOL    HW235715   1.700   3.522   4.862  0.4883 -2.5624 -2.0473
 8085SOL     OW35716   1.214   1.027   9.651  0.0496  0.1789  0.2584
 8085SOL    HW135717   1.279   0.967   9.616  0.1331  1.0603 -1.1048
 8085SOL    HW235718   1.261   1.048   9.732  1.4295  2.4942 -1.1335
 8086SOL     OW35719   0.995   2.853   3.409  0.1566  0.2714 -0.1689
 8086SOL    HW135720   1.032   2.866   3.322 -0.0979 -1.0743 -0.4698
 8086SOL    HW235721   1.062   2.892   3.466 -1.9687  1.1176  1.7429
 8087SOL     OW35722   4.092   4.689   6.631 -0.2589 -0.3133  0.1929
 8087SOL    HW135723   4.060   0.051   6.654  0.5099  0.4837 -1.8054
 8087SOL    HW235724   4.028   4.670   6.562 -0.0379 -0.2091 -0.0379
 8088SOL     OW35725   3.988   2.091   2.054 -0.2078 -0.1190  0.0785
 8088SOL    HW135726   4.067   2.085   2.000 -0.7552  2.8542 -1.0175
 8088SOL    HW235727   4.006   2.168   2.107 -2.8181 -0.6520  1.7419
 8089SOL     OW35728   2.251   4.414   7.504  0.1079  0.5178  0.0687
 8089SOL    HW135729   2.300   4.473   7.561  2.4194  0.1453 -1.5294
 8089SOL    HW235730   2.253   4.451   7.416 -0.7541  0.2047 -0.0815
 8090SOL     OW35731   3.085   2.594  12.723  0.3208 -0.6545  0.4756
 8090SOL    HW135732   3.116   2.683  12.739 -0.4027 -0.3229  0.0335
 8090SOL    HW235733   3.044   2.594  12.637 -3.1074  0.2213  2.1185
 8091SOL     OW35734   0.845   0.500   5.768  0.0132  0.0533  0.0141
 8091SOL    HW135735   0.753   0.476   5.781 -0.0457 -0.5585 -1.5167
 8091SOL    HW235736   0.872   0.523   5.857 -1.5967  1.8254  0.0500
 8092SOL     OW35737   0.516   2.323   8.032 -0.0212  0.1697 -0.1054
 8092SOL    HW135738   0.610   2.302   8.041 -0.0323  0.5311  0.8749
 8092SOL    HW235739   0.515   2.409   8.074  3.1762 -0.0885  0.5295
 8093SOL     OW35740   3.271   3.567  17.465  0.1691 -0.0413  0.6040
 8093SOL    HW135741   3.288   3.568  17.559  1.2559 -2.7020  0.4465
 8093SOL    HW235742   3.337   3.631  17.441 -0.5789  1.0858  1.5703
 8094SOL     OW35743   2.975   0.210   4.885  0.5477 -0.3135 -0.1218
 8094SOL    HW135744   2.986   0.301   4.915 -1.5341 -0.2906  0.5397
 8094SOL    HW235745   2.984   0.158   4.965  1.7272 -0.5387 -0.3984
 8095SOL     OW35746   2.552   2.060   4.879 -0.4256  0.1161  0.2706
 8095SOL    HW135747   2.643   2.034   4.894 -0.1230  1.2811  0.3922
 8095SOL    HW235748   2.529   2.009   4.801 -0.1193  0.4961 -0.0675
 8096SOL     OW35749   3.596   0.378  14.010  0.0346  0.1198 -0.1679
 8096SOL    HW135750   3.615   0.361  13.918 -2.1685  0.5469 -0.7165
 8096SOL    HW235751   3.668   0.433  14.043  0.7107 -0.9915  0.1894
 8097SOL     OW35752   1.729   2.025   5.286 -0.1751  0.1589 -0.4799
 8097SOL    HW135753   1.730   2.027   5.381  2.3907 -2.2737 -0.4712
 8097SOL    HW235754   1.668   2.096   5.264 -1.0190 -0.4048  0.0369
 8098SOL     OW35755   2.966   1.759   9.995  0.3282 -0.3916  0.3861
 8098SOL    HW135756   3.056   1.790  10.001  0.9357 -1.9360 -0.7898
 8098SOL    HW235757   2.908   1.836   9.992  1.6462  0.5539 -0.4146
 8099SOL     OW35758   3.560   4.067  15.917 -0.2954 -0.1336  0.1298
 8099SOL    HW135759   3.468   4.086  15.903 -0.4198 -0.0291  1.0687
 8099SOL    HW235760   3.599   4.153  15.903 -0.5665 -0.1249 -0.5457
 8100SOL     OW35761   0.866   1.276   6.681  0.1425 -0.3219 -0.7208
 8100SOL    HW135762   0.860   1.183   6.658 -0.6691 -0.0672 -1.5204
 8100SOL    HW235763   0.924   1.313   6.613  0.4205 -0.8134 -0.7523
 8101SOL     OW35764   3.600   3.405  16.994  0.0411 -0.0205  1.0192
 8101SOL    HW135765   3.585   3.377  16.904 -2.3313  1.5854  0.9002
 8101SOL    HW235766   3.629   3.332  17.048  1.5277 -2.3189 -2.9420
 8102SOL     OW35767   3.093   3.875  10.812 -0.0449  0.0680 -0.4843
 8102SOL    HW135768   3.185   3.882  10.788 -0.5376  1.9734 -1.8221
 8102SOL    HW235769   3.064   3.967  10.809  1.1334  0.5490  2.8484
 8103SOL     OW35770   4.513   0.107   4.411  0.0186  0.1631 -0.0653
 8103SOL    HW135771   4.529   0.186   4.358 -1.1906  0.0018 -0.6839
 8103SOL    HW235772   4.536   0.141   4.497  0.5213  0.5039 -0.3340
 8104SOL     OW35773   3.275   1.171   2.390  0.2077  0.3343  0.5672
 8104SOL    HW135774   3.281   1.083   2.352 -2.1179  0.1929  0.5324
 8104SOL    HW235775   3.363   1.208   2.391  0.9010 -1.3127  0.5154
 8105SOL     OW35776   1.736   1.375   8.752  0.0053 -0.2550  0.3300
 8105SOL    HW135777   1.773   1.375   8.664 -2.5515 -0.3503 -0.7478
 8105SOL    HW235778   1.653   1.332   8.731 -0.5572  1.0261 -0.0632
 8106SOL     OW35779   3.892   3.686   2.328 -0.8181 -0.0418  0.0110
 8106SOL    HW135780   3.864   3.768   2.288  0.8005  0.8530  0.6985
 8106SOL    HW235781   3.983   3.691   2.299 -0.3214 -1.6258  1.3268
 8107SOL     OW35782   1.044   3.138   3.182  0.0931  0.1708  0.3825
 8107SOL    HW135783   1.067   3.106   3.094  1.0572  0.4872  0.5291
 8107SOL    HW235784   1.103   3.213   3.180  0.6617 -0.2560  0.9785
 8108SOL     OW35785   0.377   3.417  14.436  0.2904  0.0051 -0.0753
 8108SOL    HW135786   0.306   3.372  14.481 -1.6533  0.7550 -2.4188
 8108SOL    HW235787   0.402   3.355  14.367 -0.1707 -0.6611  0.3558
 8109SOL     OW35788   1.849   1.647   4.670 -0.3257  0.2427  0.1464
 8109SOL    HW135789   1.887   1.629   4.756  0.1156  1.5513  0.2311
 8109SOL    HW235790   1.762   1.683   4.688 -0.5054 -0.8956  1.6067
 8110SOL     OW35791   1.166   0.091   3.400 -0.9113  0.6053  0.0057
 8110SOL    HW135792   1.104   0.103   3.472  0.9588 -2.0873  2.0513
 8110SOL    HW235793   1.110   0.070   3.324 -0.9675 -2.7147  0.9926
 8111SOL     OW35794   2.912   1.724   7.967  0.5319 -0.0733 -0.0446
 8111SOL    HW135795   2.973   1.742   7.895  1.9178 -0.6483  0.9861
 8111SOL    HW235796   2.961   1.752   8.044  0.2241 -1.0893  0.5308
 8112SOL     OW35797   0.281   0.626   5.267  0.4834 -0.0652  0.8746
 8112SOL    HW135798   0.341   0.698   5.247  1.1227 -0.4402  1.4435
 8112SOL    HW235799   0.210   0.647   5.207  2.3365  0.4447 -1.1441
 8113SOL     OW35800   3.576   3.255   4.537 -0.4573  0.2147 -0.9129
 8113SOL    HW135801   3.621   3.336   4.560  1.0325 -0.7685 -0.4089
 8113SOL    HW235802   3.641   3.201   4.493 -0.3741 -1.9169  1.8838
 8114SOL     OW35803   2.278   3.047   5.782  0.4006 -0.8357 -0.1354
 8114SOL    HW135804   2.286   3.133   5.823  0.1638 -0.8245 -0.1148
 8114SOL    HW235805   2.283   3.073   5.690 -0.3152 -1.2523 -0.2896
 8115SOL     OW35806   3.992   3.262   3.783 -0.0929  0.3534  0.0380
 8115SOL    HW135807   3.970   3.213   3.863  0.0513 -1.3138 -0.9290
 8115SOL    HW235808   3.909   3.279   3.738 -0.4187  0.4402  0.6757
 8116SOL     OW35809   0.827   1.027   5.972  0.0008 -0.2843 -0.2044
 8116SOL    HW135810   0.844   0.946   6.019  1.3759 -0.7750 -1.5498
 8116SOL    HW235811   0.742   1.050   6.011  0.7026  2.1308 -0.0621
 8117SOL     OW35812   4.450   0.515   2.276 -0.7534  0.4917 -0.0075
 8117SOL    HW135813   4.368   0.536   2.321  0.5424  0.7186  2.2107
 8117SOL    HW235814   4.429   0.545   2.187  0.5446  2.6492  0.3894
 8118SOL     OW35815   0.114   3.408   8.999 -0.0896 -0.3890  0.2724
 8118SOL    HW135816   0.047   3.354   8.957  1.7611 -1.3904 -1.4476
 8118SOL    HW235817   0.182   3.376   8.940 -1.3122 -1.1037 -0.7486
 8119SOL     OW35818   2.171   1.068  13.385 -0.4388 -0.2567  0.0023
 8119SOL    HW135819   2.213   1.092  13.467 -1.6746 -3.6985  1.6426
 8119SOL    HW235820   2.081   1.045  13.410 -0.1289 -1.0241  0.3964
 8120SOL     OW35821   2.866   3.635  14.768  0.4425 -0.4252  0.0904
 8120SOL    HW135822   2.942   3.693  14.780  0.3403 -0.0292 -1.1817
 8120SOL    HW235823   2.830   3.689  14.698 -0.0638 -1.4187 -0.4088
 8121SOL     OW35824   2.825   0.600   4.342 -0.4761 -0.4630 -0.3143
 8121SOL    HW135825   2.785   0.680   4.376 -0.4214  0.2773 -2.0285
 8121SOL    HW235826   2.760   0.539   4.378 -0.3556  1.3397  2.9485
 8122SOL     OW35827   4.371   0.424   3.235  0.3415  1.0123  0.3191
 8122SOL    HW135828   4.452   0.431   3.184 -0.0967  3.6878 -0.0375
 8122SOL    HW235829   4.320   0.503   3.215 -0.6766  0.4784  0.7977
 8123SOL     OW35830   3.351   0.606  13.973  0.3156 -0.0451 -0.3511
 8123SOL    HW135831   3.324   0.527  13.925  2.1600 -1.0095  0.2059
 8123SOL    HW235832   3.439   0.620  13.940  1.4056  2.0255  3.4773
 8124SOL     OW35833   1.641   0.519   7.430 -0.0061 -0.3072 -0.0835
 8124SOL    HW135834   1.697   0.489   7.359 -0.4543 -1.4442  0.0470
 8124SOL    HW235835   1.606   0.437   7.465  1.0042 -0.0697  1.5346
 8125SOL     OW35836   1.994   3.886   3.802 -0.5827  0.2221  0.0500
 8125SOL    HW135837   1.925   3.819   3.797 -1.9345  1.6583 -0.3713
 8125SOL    HW235838   2.038   3.872   3.718  1.2330 -1.0200  1.1886
 8126SOL     OW35839   0.618   0.353   5.511  0.5934  0.0743  0.1636
 8126SOL    HW135840   0.552   0.284   5.505 -0.4909  1.0880  0.3724
 8126SOL    HW235841   0.695   0.313   5.469  0.2293 -0.5524  0.0922
 8127SOL     OW35842   0.560   3.996  17.365  0.0225 -0.7983 -0.0441
 8127SOL    HW135843   0.502   4.006  17.290 -0.4287  2.9249  0.7870
 8127SOL    HW235844   0.614   3.920  17.344 -0.0904 -1.0357  0.5058
 8128SOL     OW35845   0.798   4.184  14.290 -0.1340  0.0516 -0.3560
 8128SOL    HW135846   0.761   4.206  14.375  0.9659  0.9163 -0.1069
 8128SOL    HW235847   0.824   4.271  14.262  0.8892 -0.4290 -0.9052
 8129SOL     OW35848   1.197   2.189   3.504  0.0003 -0.6477 -0.4904
 8129SOL    HW135849   1.236   2.151   3.583  1.2727  1.4257 -0.1391
 8129SOL    HW235850   1.269   2.174   3.443  2.0290  0.1733  1.6953
 8130SOL     OW35851   2.186   3.722   4.571  0.2658 -0.5441  0.1591
 8130SOL    HW135852   2.180   3.634   4.533 -0.3120  0.0720 -1.1711
 8130SOL    HW235853   2.271   3.748   4.535  0.3637  1.0777  1.5792
 8131SOL     OW35854   1.381   0.859   9.480 -0.0935  0.0795 -0.2211
 8131SOL    HW135855   1.422   0.794   9.538  0.3732 -0.7592 -1.4907
 8131SOL    HW235856   1.303   0.818   9.441  0.7308 -0.0992 -1.6718
 8132SOL     OW35857   3.103   3.847   2.761  0.0424  0.1758 -0.4371
 8132SOL    HW135858   3.011   3.838   2.735  0.1400  1.8922 -1.4367
 8132SOL    HW235859   3.138   3.871   2.676  2.7953  1.0313  0.9368
 8133SOL     OW35860   0.534   3.309   8.845  0.5650 -0.3188  0.4019
 8133SOL    HW135861   0.497   3.366   8.912 -2.8431 -0.4998 -1.3007
 8133SOL    HW235862   0.628   3.307   8.861  0.5405 -1.3474  0.4149
 8134SOL     OW35863   1.918   0.672   1.533 -0.7728 -0.7142 -0.0353
 8134SOL    HW135864   1.880   0.591   1.565 -2.0980 -0.0933 -0.0383
 8134SOL    HW235865   1.848   0.698   1.473  1.8610  0.2502 -2.6738
 8135SOL     OW35866   3.603   0.504  13.240 -0.5707  0.2614 -0.5920
 8135SOL    HW135867   3.645   0.483  13.157 -0.5728 -1.1222 -0.2388
 8135SOL    HW235868   3.667   0.560  13.284  1.7027 -3.5463  0.9817
 8136SOL     OW35869   3.211   1.852   9.993 -0.0034  0.2050 -0.0832
 8136SOL    HW135870   3.254   1.938   9.994  2.1812 -0.8742 -0.9312
 8136SOL    HW235871   3.210   1.837   9.899  3.5067 -1.0234  0.0683
 8137SOL     OW35872   0.612   2.480   5.883  0.2030  0.3675 -0.1913
 8137SOL    HW135873   0.521   2.474   5.853 -0.6403 -0.1707  2.5556
 8137SOL    HW235874   0.658   2.525   5.812  1.6580 -0.0790  0.4632
 8138SOL     OW35875   0.158   1.579   5.244  0.3427 -0.0039  0.2372
 8138SOL    HW135876   0.154   1.599   5.337 -0.7423  2.5608 -0.3541
 8138SOL    HW235877   0.182   1.486   5.250 -0.8732 -0.2597  1.0692
 8139SOL     OW35878   0.656   1.521  13.248  0.3294 -0.5409  0.3981
 8139SOL    HW135879   0.739   1.567  13.261 -0.3883  0.9758 -0.3694
 8139SOL    HW235880   0.603   1.595  13.218  2.9400  0.4485 -1.7366
 8140SOL     OW35881   3.336   2.525   6.263  0.6409  0.2618 -0.0695
 8140SOL    HW135882   3.377   2.528   6.350 -0.2334  0.6939  0.3327
 8140SOL    HW235883   3.406   2.543   6.201  1.1633  1.6761  0.9415
 8141SOL     OW35884   0.695   3.737   3.532  0.4211  0.2466  0.1678
 8141SOL    HW135885   0.625   3.675   3.554  1.0578  0.0241  1.5680
 8141SOL    HW235886   0.703   3.782   3.616  1.9822  0.3565 -0.0476
 8142SOL     OW35887   2.746   1.652   0.210  0.3826 -0.0436  0.3657
 8142SOL    HW135888   2.806   1.622   0.142 -1.8749  0.3755 -1.8213
 8142SOL    HW235889   2.679   1.688   0.153 -0.1897 -0.0788  1.0118
 8143SOL     OW35890   4.461   1.254   2.048  0.2462 -0.8372  0.2471
 8143SOL    HW135891   4.369   1.253   2.073  0.0414  0.5265 -0.4232
 8143SOL    HW235892   4.483   1.346   2.034  1.6242 -1.0845  0.7431
 8144SOL     OW35893   4.696   0.297  17.374 -0.1759 -0.2604 -0.4725
 8144SOL    HW135894   0.024   0.357  17.426  1.3001 -2.6808  0.8386
 8144SOL    HW235895   4.724   0.210  17.402  0.0654 -0.2479 -0.6706
 8145SOL     OW35896   3.702   4.077   3.732 -0.6770  0.0137  0.0304
 8145SOL    HW135897   3.665   4.164   3.716 -2.3726 -1.0319 -1.8011
 8145SOL    HW235898   3.656   4.030   3.663 -0.5223 -0.4136  0.2228
 8146SOL     OW35899   2.011   3.237   2.576  0.6680 -0.3831  0.2551
 8146SOL    HW135900   2.038   3.241   2.668  1.4759 -1.9988  0.0865
 8146SOL    HW235901   2.012   3.142   2.567 -2.6652 -0.4215  0.4495
 8147SOL     OW35902   2.672   0.237  10.338 -0.3046 -0.9570 -0.5678
 8147SOL    HW135903   2.748   0.243  10.281  1.2973 -1.7405  1.4864
 8147SOL    HW235904   2.621   0.171  10.291 -2.2808 -0.4340  0.8333
 8148SOL     OW35905   2.098   2.293  11.081  0.2039 -0.5227  0.1556
 8148SOL    HW135906   2.043   2.227  11.124  0.6698 -0.5683  0.6879
 8148SOL    HW235907   2.179   2.242  11.069 -0.5646 -1.3349 -1.4619
 8149SOL     OW35908   0.224   4.004  15.813  0.1411 -0.2218  0.1706
 8149SOL    HW135909   0.243   4.038  15.901 -1.9561  1.4489 -0.0448
 8149SOL    HW235910   0.267   4.070  15.759  0.5043 -1.1335 -0.6625
 8150SOL     OW35911   2.281   0.429  10.954  0.1781 -0.3616  0.3887
 8150SOL    HW135912   2.311   0.455  10.867 -3.4331  0.7271 -0.5166
 8150SOL    HW235913   2.188   0.428  10.931  0.1178  0.0734  0.6203
 8151SOL     OW35914   1.427   1.800   6.483  0.0876 -0.0668  0.5137
 8151SOL    HW135915   1.492   1.810   6.552  2.1249  1.6233 -1.6660
 8151SOL    HW235916   1.446   1.881   6.436 -1.4886  0.2317  0.4030
 8152SOL     OW35917   0.590   2.165   4.652 -0.2982  0.3834 -0.3201
 8152SOL    HW135918   0.677   2.149   4.617  0.1336  0.2047  0.8293
 8152SOL    HW235919   0.603   2.169   4.747  0.1975  1.3114 -0.4287
 8153SOL     OW35920   1.673   2.480   7.817 -0.1830 -0.7020  0.6205
 8153SOL    HW135921   1.762   2.480   7.781  0.6104 -1.1862  2.5571
 8153SOL    HW235922   1.682   2.412   7.884 -1.8640 -0.7107  0.8378
 8154SOL     OW35923   2.695   4.121   7.169  0.6373  0.0685 -0.0620
 8154SOL    HW135924   2.626   4.073   7.215  1.1299 -0.8334 -0.2587
 8154SOL    HW235925   2.770   4.062   7.170  0.0579 -0.6620  0.3724
 8155SOL     OW35926   2.935   2.814   4.335  0.1635 -0.1420 -0.8123
 8155SOL    HW135927   2.869   2.842   4.271 -2.0329 -3.0819  0.1774
 8155SOL    HW235928   2.893   2.730   4.352 -1.5708  1.0433  0.7999
 8156SOL     OW35929   2.019   0.205   7.175  0.0665 -0.0955  0.2112
 8156SOL    HW135930   2.094   0.246   7.217 -0.3103 -0.3851  1.1781
 8156SOL    HW235931   2.075   0.153   7.117  0.1216 -2.3774  2.3019
 8157SOL     OW35932   0.842   4.469  14.259  0.0925 -0.5968 -0.2210
 8157SOL    HW135933   0.795   4.500  14.182  1.0177  0.3800 -0.3979
 8157SOL    HW235934   0.885   4.551  14.284 -1.2040 -0.7571  2.4980
 8158SOL     OW35935   0.341   1.322   3.725 -0.0067  0.0258 -0.1655
 8158SOL    HW135936   0.317   1.405   3.683  3.2270  1.1216  0.1065
 8158SOL    HW235937   0.281   1.258   3.689 -1.4247  0.5642  1.2342
 8159SOL     OW35938   2.757   1.716  17.178 -0.2165  0.7596 -0.4457
 8159SOL    HW135939   2.733   1.738  17.089 -2.1952 -1.5360 -0.4885
 8159SOL    HW235940   2.822   1.646  17.168  0.5012  1.5008 -0.9934
 8160SOL     OW35941   2.856   4.721   5.404  0.0254  0.0368 -0.6215
 8160SOL    HW135942   2.853   4.670   5.323  0.4905 -0.5095 -0.3030
 8160SOL    HW235943   2.782   0.056   5.406 -1.6414 -2.0589  1.3613
 8161SOL     OW35944   0.417   0.439  10.015  0.5959  0.0897 -0.2832
 8161SOL    HW135945   0.363   0.381  10.068  0.7332  0.8664  0.7103
 8161SOL    HW235946   0.465   0.387   9.950  1.3155  0.4846 -0.0730
 8162SOL     OW35947   2.671   1.646   3.946  0.0448  0.2746 -0.0768
 8162SOL    HW135948   2.751   1.609   3.984  0.9332  1.5508 -0.7206
 8162SOL    HW235949   2.666   1.602   3.861 -1.3709 -1.4887  0.9295
 8163SOL     OW35950   4.276   1.831   6.781  0.0559 -0.3040  0.1790
 8163SOL    HW135951   4.186   1.800   6.775 -0.9530  2.1557  2.4176
 8163SOL    HW235952   4.322   1.759   6.738 -1.3190 -1.7733  1.1773
 8164SOL     OW35953   1.051   2.651  14.466  0.2885  0.0033  0.0470
 8164SOL    HW135954   1.129   2.609  14.430  0.0444 -0.4848  0.0776
 8164SOL    HW235955   1.008   2.686  14.387  1.2411 -0.7424 -0.8027
 8165SOL     OW35956   0.944   1.253   6.066  0.5461  0.1578 -0.2631
 8165SOL    HW135957   0.893   1.269   6.145  1.9023 -1.1900  0.8827
 8165SOL    HW235958   0.919   1.164   6.041 -0.1162 -0.3271  2.1802
 8166SOL     OW35959   0.684   3.625  12.644 -0.2042 -0.3174  0.8563
 8166SOL    HW135960   0.768   3.614  12.689 -0.2166 -0.3433  0.8728
 8166SOL    HW235961   0.706   3.627  12.551  0.0249  1.4689  0.9416
 8167SOL     OW35962   2.977   0.348   4.346 -0.1144  0.2375 -0.0760
 8167SOL    HW135963   2.963   0.434   4.386  1.2468  0.2333  0.3964
 8167SOL    HW235964   3.047   0.360   4.282  1.0276 -1.8020  0.7956
 8168SOL     OW35965   1.206   1.592   5.171  0.3974  0.0306  0.5532
 8168SOL    HW135966   1.205   1.682   5.204 -1.7970  0.3176 -0.2947
 8168SOL    HW235967   1.114   1.566   5.166  0.5442 -0.0442 -1.7743
 8169SOL     OW35968   0.975   1.489  16.053 -1.2853 -0.7373 -0.2717
 8169SOL    HW135969   0.914   1.538  16.108  0.7461 -0.7313  2.0356
 8169SOL    HW235970   0.953   1.503  15.961 -1.3411  0.0394 -0.1394
 8170SOL     OW35971   0.856   3.832   9.974 -0.1448 -0.0725  0.4409
 8170SOL    HW135972   0.775   3.785   9.956  0.1307 -0.6632  0.7199
 8170SOL    HW235973   0.879   3.811  10.065  0.8009  1.5391  0.5655
 8171SOL     OW35974   1.427   0.026  12.066 -0.6387  0.0276 -0.4173
 8171SOL    HW135975   1.345   0.037  12.017 -1.4171  0.9246  1.0855
 8171SOL    HW235976   1.487   0.036  11.992  0.3446  0.5654  0.4649
 8172SOL     OW35977   3.721   2.431  15.649  0.6227  0.4477 -0.5696
 8172SOL    HW135978   3.784   2.493  15.687  0.4363  0.7435 -0.7493
 8172SOL    HW235979   3.759   2.429  15.561  2.0595 -0.7266  0.0696
 8173SOL     OW35980   4.002   3.994   3.145 -0.4273 -0.5231 -0.2023
 8173SOL    HW135981   4.085   4.039   3.135 -0.7917 -0.2254 -1.9049
 8173SOL    HW235982   4.008   3.912   3.095  0.6676 -0.1609 -0.6455
 8174SOL     OW35983   0.808   2.781   7.867 -0.6426 -0.2418  0.0475
 8174SOL    HW135984   0.859   2.861   7.873  0.9127 -1.1539 -1.1775
 8174SOL    HW235985   0.766   2.786   7.953  1.1576  1.7847  0.8036
 8175SOL     OW35986   1.542   2.798   7.359 -0.1550 -0.2253 -0.0690
 8175SOL    HW135987   1.637   2.786   7.348 -0.3835 -0.6274 -1.6145
 8175SOL    HW235988   1.528   2.874   7.416 -1.8683 -0.5337 -0.0746
 8176SOL     OW35989   1.191   4.564   0.711  0.4056 -0.4383 -0.1348
 8176SOL    HW135990   1.168   4.656   0.729 -0.4773 -0.6668 -0.1087
 8176SOL    HW235991   1.114   4.532   0.665  1.1888 -1.8394 -0.4685
 8177SOL     OW35992   1.453   2.606   4.288  0.0508 -0.4791 -0.1004
 8177SOL    HW135993   1.483   2.679   4.342 -3.1825  1.0196 -0.3653
 8177SOL    HW235994   1.538   2.583   4.250 -0.1161 -0.7131 -0.3299
 8178SOL     OW35995   2.879   0.364   2.886  0.1304  0.3938 -0.4965
 8178SOL    HW135996   2.887   0.309   2.963  0.7663  0.7987 -0.2656
 8178SOL    HW235997   2.961   0.357   2.836 -0.8981 -3.0972 -1.6218
 8179SOL     OW35998   4.061   2.623   4.503  0.4669  0.6218  0.3749
 8179SOL    HW135999   4.005   2.603   4.428  0.6865 -0.2033  0.4346
 8179SOL    HW236000   4.088   2.536   4.530 -1.0461 -0.2458 -0.8972
 8180SOL     OW36001   0.609   2.634   7.503 -0.3802 -0.1779 -0.2458
 8180SOL    HW136002   0.550   2.707   7.485 -0.3549  0.2457  1.3737
 8180SOL    HW236003   0.603   2.624   7.598 -1.0595 -4.1353 -0.7328
 8181SOL     OW36004   3.591   0.086   9.978 -0.0089 -0.4374 -0.5275
 8181SOL    HW136005   3.571   0.120  10.065  0.2320 -2.2984  0.2522
 8181SOL    HW236006   3.540   0.145   9.922  0.9015 -0.4412 -1.3703
 8182SOL     OW36007   1.474   2.937   1.961  0.1237  0.0903  0.5780
 8182SOL    HW136008   1.423   2.933   2.042 -1.2011  1.2291 -0.1911
 8182SOL    HW236009   1.414   2.979   1.899  1.4903 -0.3520 -1.0560
 8183SOL     OW36010   2.038   3.293   3.240  0.1151 -0.7331 -0.2816
 8183SOL    HW136011   2.089   3.364   3.201 -0.8426 -0.6091 -1.3033
 8183SOL    HW236012   1.953   3.309   3.200 -1.5577 -1.6399  2.9044
 8184SOL     OW36013   4.258   0.181   3.256  0.5608  0.0547 -0.1786
 8184SOL    HW136014   4.292   0.269   3.243  0.9882 -0.2978 -1.5121
 8184SOL    HW236015   4.165   0.198   3.264  0.4455 -1.0383  0.7613
 8185SOL     OW36016   0.071   4.092  12.762 -0.2395  0.1241  0.1560
 8185SOL    HW136017   4.720   4.065  12.814  0.5370 -0.6373  0.9066
 8185SOL    HW236018   0.137   4.030  12.794 -1.3485 -0.6886  0.9044
 8186SOL     OW36019   1.673   1.681   1.347 -0.1047 -0.3741 -0.0640
 8186SOL    HW136020   1.675   1.743   1.419  1.4338  0.0884 -0.4864
 8186SOL    HW236021   1.697   1.611   1.408 -1.9514  0.4042  1.5122
 8187SOL     OW36022   3.260   1.959   1.216 -0.5220 -0.9707  0.2063
 8187SOL    HW136023   3.278   2.031   1.155  1.2187  0.6672  2.6998
 8187SOL    HW236024   3.308   1.887   1.176 -2.5619 -1.7064 -0.9264
 8188SOL     OW36025   0.465   2.489   2.057  0.2990 -0.0448  0.1344
 8188SOL    HW136026   0.491   2.499   1.965 -3.4323 -0.5076 -0.9659
 8188SOL    HW236027   0.453   2.396   2.080 -0.2213  0.4793  1.9880
 8189SOL     OW36028   2.432   3.840   4.912 -0.3218  0.0808  0.1946
 8189SOL    HW136029   2.486   3.770   4.947  1.1488  0.3223 -1.5808
 8189SOL    HW236030   2.360   3.791   4.873  0.2892 -1.1992  0.6995
 8190SOL     OW36031   4.703   0.739   4.853  0.4037 -0.5337  0.3132
 8190SOL    HW136032   0.020   0.803   4.796  0.6086 -2.0241 -1.2335
 8190SOL    HW236033   4.616   0.775   4.871 -0.3794 -1.4519 -1.6275
 8191SOL     OW36034   2.932   0.466  11.372 -0.4680  0.0318 -0.1038
 8191SOL    HW136035   2.956   0.555  11.398  0.5785 -0.7637  1.6378
 8191SOL    HW236036   2.999   0.417  11.418  1.2775  3.3327  0.8375
 8192SOL     OW36037   0.468   1.233   6.049 -0.2606  0.3319  0.5973
 8192SOL    HW136038   0.482   1.172   5.977 -0.5815  0.9469  0.0114
 8192SOL    HW236039   0.489   1.174   6.121 -1.0054 -2.7453 -1.6854
 8193SOL     OW36040   1.411   0.246   8.089 -0.5724 -0.0691  0.1173
 8193SOL    HW136041   1.421   0.246   7.994  1.3048  0.7631  0.3173
 8193SOL    HW236042   1.501   0.262   8.115 -1.0972 -0.1946  2.0547
 8194SOL     OW36043   0.510   1.290   1.728  0.4632 -0.1272  0.0501
 8194SOL    HW136044   0.467   1.207   1.706 -0.1736  0.2390 -0.0803
 8194SOL    HW236045   0.589   1.249   1.764 -0.3089 -1.2281  0.5067
 8195SOL     OW36046   2.083   0.040   7.615 -0.0621  0.1966  0.1935
 8195SOL    HW136047   2.169   0.050   7.573 -0.0909  1.5179  0.4291
 8195SOL    HW236048   2.023   0.061   7.544 -0.6088  0.1818  0.6438
 8196SOL     OW36049   4.411   1.061  10.958 -0.2664  0.1775  0.6063
 8196SOL    HW136050   4.490   1.100  10.921  0.3682 -1.4221  0.3005
 8196SOL    HW236051   4.386   1.008  10.882  1.0284  1.8328 -0.9721
 8197SOL     OW36052   1.701   3.472  16.091  0.5457  0.3904  0.0087
 8197SOL    HW136053   1.717   3.396  16.146  3.5060 -0.6863 -2.2708
 8197SOL    HW236054   1.792   3.481  16.060  1.0354 -1.1932  1.0024
 8198SOL     OW36055   3.052   0.600   3.817 -0.3750  0.4948  0.0045
 8198SOL    HW136056   3.072   0.563   3.730 -0.6107  0.1820  0.0836
 8198SOL    HW236057   3.031   0.524   3.871 -1.2165  0.1701 -0.7693
 8199SOL     OW36058   1.000   0.174   3.595 -0.0054  0.0684  0.4166
 8199SOL    HW136059   0.944   0.121   3.652 -0.2239  1.1616  1.2266
 8199SOL    HW236060   1.037   0.224   3.668  0.0687 -0.1841  0.5523
 8200SOL     OW36061   3.292   2.883   3.759 -0.6964  0.1387  0.3842
 8200SOL    HW136062   3.228   2.869   3.689 -1.7252 -2.4485  1.8023
 8200SOL    HW236063   3.245   2.858   3.839  0.5774 -1.5264  0.6266
 8201SOL     OW36064   2.088   2.479   5.271 -0.3075  0.8145  0.3509
 8201SOL    HW136065   2.177   2.482   5.234  1.0836 -1.5332  3.5486
 8201SOL    HW236066   2.100   2.396   5.316 -0.8871  0.6520  0.2060
 8202SOL     OW36067   4.584   2.273  16.454  0.2035 -0.3125  0.9356
 8202SOL    HW136068   4.575   2.220  16.533 -1.7333  1.1670  1.6936
 8202SOL    HW236069   4.666   2.320  16.465 -0.9839  1.8653  0.5452
 8203SOL     OW36070   2.766   3.011   2.046  0.0774  0.0650 -0.1426
 8203SOL    HW136071   2.678   2.997   2.009 -0.3244  1.4308  0.2905
 8203SOL    HW236072   2.817   2.950   1.992  1.7913  1.0764  0.3398
 8204SOL     OW36073   4.413   4.281   2.666 -0.4715 -0.3562 -0.1390
 8204SOL    HW136074   4.453   4.276   2.579 -0.5585 -1.0259 -0.1391
 8204SOL    HW236075   4.417   4.374   2.690 -0.9199  0.3489 -2.7506
 8205SOL     OW36076   2.720   3.132   7.683  0.4254  0.2116 -0.0123
 8205SOL    HW136077   2.767   3.192   7.740 -1.2392  2.1653 -0.7034
 8205SOL    HW236078   2.674   3.193   7.626  0.6389  0.9496  0.6084
 8206SOL     OW36079   2.267   3.291   9.999 -0.1061 -0.2480 -0.3786
 8206SOL    HW136080   2.243   3.243   9.920 -0.2311  0.4058 -0.7307
 8206SOL    HW236081   2.234   3.380   9.989 -2.8171 -1.3225 -1.0155
 8207SOL     OW36082   1.643   3.392   7.997  0.2327 -0.3546 -0.0645
 8207SOL    HW136083   1.721   3.368   7.947  0.8111  1.2865  0.0676
 8207SOL    HW236084   1.621   3.303   8.025  0.3536 -1.0573 -2.1562
 8208SOL     OW36085   0.272   1.102   3.449  0.6226 -0.6166  0.4320
 8208SOL    HW136086   0.267   1.150   3.366  4.0271  0.6706  0.9593
 8208SOL    HW236087   0.203   1.148   3.498  1.0807 -1.4252  1.8406
 8209SOL     OW36088   2.866   3.218   5.228  0.2314 -0.0002 -0.0063
 8209SOL    HW136089   2.941   3.160   5.222 -0.2167 -0.3652 -2.2184
 8209SOL    HW236090   2.846   3.216   5.321 -0.7623  1.5824 -0.1766
 8210SOL     OW36091   1.090   3.879   5.270  0.6151 -0.3011  0.3953
 8210SOL    HW136092   1.174   3.845   5.300  0.5863  0.3753  1.2380
 8210SOL    HW236093   1.037   3.876   5.350  0.1275  0.5507  0.1108
 8211SOL     OW36094   0.824   4.156   5.490  0.1994 -0.2097 -0.2487
 8211SOL    HW136095   0.831   4.241   5.447 -3.4677  0.0581 -0.2948
 8211SOL    HW236096   0.833   4.177   5.583 -3.7738  0.6199 -0.0826
 8212SOL     OW36097   0.893   2.606   4.640 -0.1496  0.0129 -0.0116
 8212SOL    HW136098   0.883   2.700   4.654  1.5098  0.2499 -0.3513
 8212SOL    HW236099   0.910   2.593   4.547 -2.2022  0.1069 -0.4001
 8213SOL     OW36100   0.538   2.163  13.976 -0.3942 -0.3810  0.2481
 8213SOL    HW136101   0.476   2.100  14.013  2.8490 -2.5520  2.0271
 8213SOL    HW236102   0.625   2.127  13.995 -0.0092 -0.3728 -1.4761
 8214SOL     OW36103   2.514   4.193   6.599 -0.3117  0.0016  0.3175
 8214SOL    HW136104   2.489   4.238   6.680  0.8824  2.9160 -0.9437
 8214SOL    HW236105   2.608   4.189   6.617 -0.3522 -0.4221  0.4505
 8215SOL     OW36106   3.073   0.123   7.338  0.0499 -0.1685 -0.3349
 8215SOL    HW136107   3.051   0.101   7.248  0.4137  0.7453 -0.6438
 8215SOL    HW236108   3.000   0.179   7.363 -1.1848 -1.2042 -1.6157
 8216SOL     OW36109   3.828   1.191   4.072 -0.2095 -0.2851 -0.3544
 8216SOL    HW136110   3.770   1.115   4.067  1.3339 -1.5995  1.4437
 8216SOL    HW236111   3.876   1.177   4.154  0.7379  1.7005 -0.5845
 8217SOL     OW36112   2.441   2.255   2.261  0.4638  0.0630  0.2646
 8217SOL    HW136113   2.488   2.283   2.182 -1.5908  1.5401 -0.4474
 8217SOL    HW236114   2.376   2.194   2.226 -0.1228  1.6674 -1.4639
 8218SOL     OW36115   3.336   4.287   7.047  0.4293  0.8292  0.1557
 8218SOL    HW136116   3.298   4.292   6.960 -1.4251 -0.2991  0.9170
 8218SOL    HW236117   3.410   4.228   7.032 -0.5346 -0.2319 -0.3807
 8219SOL     OW36118   3.532   1.326   7.076 -0.1888 -0.4103  0.4490
 8219SOL    HW136119   3.558   1.260   7.140  1.1919 -2.0236 -1.7875
 8219SOL    HW236120   3.459   1.374   7.115 -0.6658 -0.9810  0.2673
 8220SOL     OW36121   4.217   2.297  15.760  0.0673 -0.6675 -0.3989
 8220SOL    HW136122   4.205   2.228  15.695 -1.0350 -1.2308  0.3904
 8220SOL    HW236123   4.145   2.357  15.738 -0.4392 -1.3072 -0.5063
 8221SOL     OW36124   1.690   1.121   7.079  0.3587 -0.4817 -0.1861
 8221SOL    HW136125   1.650   1.136   6.993  1.9968 -2.5737 -1.3376
 8221SOL    HW236126   1.617   1.081   7.125 -0.3383 -0.0921 -0.9575
 8222SOL     OW36127   1.506   3.252  15.897  0.3782  0.0039  0.2623
 8222SOL    HW136128   1.520   3.345  15.914 -2.5871  0.4647  0.1151
 8222SOL    HW236129   1.422   3.242  15.941  0.3377 -1.4554 -0.1446
 8223SOL     OW36130   2.852   1.060   8.943 -0.2645  0.5976 -0.0364
 8223SOL    HW136131   2.916   1.128   8.963  1.1356 -1.0542  1.1003
 8223SOL    HW236132   2.792   1.084   9.014 -3.0845  1.7255 -2.7802
 8224SOL     OW36133   0.972   2.590   3.544  0.0154  0.4405 -0.0339
 8224SOL    HW136134   1.056   2.551   3.519 -0.3372  0.5372 -1.3819
 8224SOL    HW236135   0.991   2.682   3.525  2.7260 -0.2997 -0.9539
 8225SOL     OW36136   0.638   2.571   6.132 -0.1219  0.0700  0.0054
 8225SOL    HW136137   0.627   2.483   6.169 -1.8727 -0.1350 -1.0051
 8225SOL    HW236138   0.632   2.557   6.038 -0.5806 -3.3726  0.5333
 8226SOL     OW36139   0.977   2.483   6.654  0.4024 -0.5159 -0.5867
 8226SOL    HW136140   1.034   2.454   6.726 -0.5527  0.8051  0.6917
 8226SOL    HW236141   1.028   2.466   6.575  0.2128 -0.6441 -0.6795
 8227SOL     OW36142   0.449   4.420   2.828 -0.0582  0.6421  0.8997
 8227SOL    HW136143   0.412   4.435   2.915 -0.1807  1.3450  0.7236
 8227SOL    HW236144   0.398   4.345   2.795 -0.1316  0.7032  0.8756
 8228SOL     OW36145   0.699   2.372   6.584 -0.0049 -0.7114  0.3214
 8228SOL    HW136146   0.657   2.446   6.628 -1.2441 -0.3709 -1.4518
 8228SOL    HW236147   0.791   2.385   6.609  0.5475 -2.1082 -0.9476
 8229SOL     OW36148   1.137   4.401  17.277 -0.1580  0.0610  0.8382
 8229SOL    HW136149   1.173   4.443  17.355 -1.9674 -2.2509  2.9227
 8229SOL    HW236150   1.072   4.345  17.319 -2.2163  2.2202  0.4870
 8230SOL     OW36151   0.968   0.711   8.821  0.4933 -0.5667  1.3058
 8230SOL    HW136152   0.959   0.774   8.892  2.6594  1.1429  0.0555
 8230SOL    HW236153   0.901   0.647   8.845  1.1567 -0.8699  2.3676
 8231SOL     OW36154   2.035   3.521   5.430 -0.0111 -0.2587 -0.1585
 8231SOL    HW136155   2.080   3.474   5.500 -2.1208 -2.7184 -0.4559
 8231SOL    HW236156   2.082   3.496   5.351 -1.1076 -2.0124 -0.2594
 8232SOL     OW36157   3.828   1.490   7.603  0.0505 -0.0423 -0.4200
 8232SOL    HW136158   3.823   1.396   7.618  0.2638 -0.1479 -1.0156
 8232SOL    HW236159   3.890   1.492   7.530 -1.2931  0.2667 -1.5429
 8233SOL     OW36160   2.799   1.329  14.910 -0.5427 -0.1117 -0.6594
 8233SOL    HW136161   2.860   1.362  14.845 -0.7573 -0.5000 -1.0508
 8233SOL    HW236162   2.852   1.282  14.974 -1.7113 -1.7286 -0.8849
 8234SOL     OW36163   2.064   3.758   1.060 -0.7471  0.5243 -0.4839
 8234SOL    HW136164   2.154   3.773   1.031  0.4244 -1.0375  2.3271
 8234SOL    HW236165   2.035   3.692   0.996 -1.9296  0.3821  0.1870
 8235SOL     OW36166   4.358   2.615  11.503 -0.6090 -0.2510 -0.0421
 8235SOL    HW136167   4.364   2.652  11.591 -1.6337 -2.0040  0.7617
 8235SOL    HW236168   4.284   2.554  11.507  0.1987 -1.2439 -0.4071
 8236SOL     OW36169   0.986   2.146   3.780  0.6761  0.1103  0.5001
 8236SOL    HW136170   1.076   2.114   3.770  0.2918 -1.1991  1.2372
 8236SOL    HW236171   1.004   2.238   3.759 -3.1967  0.2916 -1.9692
 8237SOL     OW36172   3.058   2.487   7.953 -0.1148  0.0944 -0.4385
 8237SOL    HW136173   3.145   2.528   7.960  0.7126 -1.2938 -2.6051
 8237SOL    HW236174   3.059   2.428   8.029  0.9455 -0.4073 -0.8346
 8238SOL     OW36175   2.154   4.224  15.167 -0.8736  0.2190 -0.4200
 8238SOL    HW136176   2.172   4.162  15.097  0.5043 -0.2170  0.3247
 8238SOL    HW236177   2.142   4.310  15.126 -1.2979 -0.8086 -2.4338
 8239SOL     OW36178   3.494   4.023   9.338 -0.0162  0.3841 -0.8262
 8239SOL    HW136179   3.412   3.980   9.362  0.0417  0.3363 -0.7169
 8239SOL    HW236180   3.502   4.002   9.245 -1.0588 -2.4136 -0.2675
 8240SOL     OW36181   4.626   2.186   1.832  0.1988  0.0520 -0.2286
 8240SOL    HW136182   4.705   2.216   1.786  0.7936  0.3017  0.9605
 8240SOL    HW236183   4.650   2.098   1.860 -0.8340 -0.8443 -2.1570
 8241SOL     OW36184   0.014   2.505   8.584  0.1146  0.3819  0.1707
 8241SOL    HW136185   4.684   2.541   8.653 -0.7232  0.8892 -0.7490
 8241SOL    HW236186   0.049   2.422   8.616  0.0073  0.1409 -0.3316
 8242SOL     OW36187   1.910   0.202   4.593 -0.4210 -0.1464  0.1373
 8242SOL    HW136188   1.826   0.178   4.552  0.2097  1.3331 -2.0214
 8242SOL    HW236189   1.896   0.295   4.610  0.7760 -0.1860  1.3578
 8243SOL     OW36190   4.045   4.016   6.947 -0.2826 -0.4347 -0.2422
 8243SOL    HW136191   4.100   4.025   7.025 -0.8078  1.5575 -0.1067
 8243SOL    HW236192   4.110   4.023   6.876  0.7472 -0.2952  0.7077
 8244SOL     OW36193   1.169   2.414  12.704 -0.4480  0.1316  0.4448
 8244SOL    HW136194   1.083   2.373  12.691 -0.6839  0.5977  0.5138
 8244SOL    HW236195   1.189   2.434  12.613 -0.9574  0.6751  0.4458
 8245SOL     OW36196   1.324   3.914   5.840  0.0191  0.4804 -0.6458
 8245SOL    HW136197   1.355   3.828   5.813  0.5641  0.7764 -0.9494
 8245SOL    HW236198   1.391   3.934   5.905 -1.2496 -0.4605  0.9710
 8246SOL     OW36199   3.986   4.528   8.105  0.2800 -0.2501  0.0162
 8246SOL    HW136200   4.033   4.573   8.035 -2.1439  0.1562 -1.3343
 8246SOL    HW236201   3.945   4.607   8.141  1.5984 -0.1288  1.2698
 8247SOL     OW36202   1.827   2.215   1.555 -0.7285 -0.7602  0.3228
 8247SOL    HW136203   1.893   2.207   1.625 -0.7131  0.1654  0.4169
 8247SOL    HW236204   1.745   2.192   1.597 -0.7269 -0.1259  0.6642
 8248SOL     OW36205   4.388   0.142  14.235 -0.3214 -0.4015 -1.0745
 8248SOL    HW136206   4.416   0.230  14.209 -2.4069  1.1946  1.9282
 8248SOL    HW236207   4.391   0.098  14.151 -0.4437 -2.4688  0.0090
 8249SOL     OW36208   3.923   1.675   5.272  0.1464  0.4046 -0.5851
 8249SOL    HW136209   3.831   1.658   5.291 -0.1764  1.4662 -1.2174
 8249SOL    HW236210   3.967   1.589   5.276 -1.7311 -0.4487  2.1778
 8250SOL     OW36211   0.951   3.518   0.286 -0.0888 -0.4991  0.2429
 8250SOL    HW136212   1.015   3.457   0.249  0.3770 -1.0954  2.0499
 8250SOL    HW236213   0.874   3.502   0.231 -1.1585  0.2659  1.5097
 8251SOL     OW36214   3.732   4.488   5.275 -0.9337 -0.0638 -0.0192
 8251SOL    HW136215   3.818   4.465   5.240  1.2969  2.3949  3.8029
 8251SOL    HW236216   3.685   4.473   5.193 -0.7571 -2.6081  0.3463
 8252SOL     OW36217   4.125   0.051   8.248 -0.1857  0.1405  0.3841
 8252SOL    HW136218   4.035   0.081   8.260 -0.3967 -1.0524  1.9367
 8252SOL    HW236219   4.146   0.071   8.157 -2.2757 -0.5554 -0.2565
 8253SOL     OW36220   1.826   2.028   6.318  1.0608  0.6498  0.3743
 8253SOL    HW136221   1.824   2.098   6.252 -0.9831 -1.4205 -1.7520
 8253SOL    HW236222   1.738   2.020   6.356 -0.4262 -0.4435 -3.2843
 8254SOL     OW36223   0.522   2.003  11.926  0.2193  0.1273 -0.4060
 8254SOL    HW136224   0.590   2.058  11.886  0.2301  0.0674 -0.4689
 8254SOL    HW236225   0.577   1.937  11.969  0.6271  0.3006 -0.6526
 8255SOL     OW36226   2.384   2.598  11.677 -0.0685  0.7408 -0.5427
 8255SOL    HW136227   2.413   2.533  11.613 -0.8619 -0.8952  0.7858
 8255SOL    HW236228   2.402   2.684  11.639 -0.7657 -0.6713 -4.1296
 8256SOL     OW36229   2.171   2.005   4.264 -0.1541  0.0619 -0.2347
 8256SOL    HW136230   2.191   1.995   4.171 -1.6317 -0.9577 -0.4552
 8256SOL    HW236231   2.254   1.986   4.309 -0.4330 -1.4309 -0.3354
 8257SOL     OW36232   3.077   3.483   3.364  0.0891 -0.4359  0.4537
 8257SOL    HW136233   3.039   3.431   3.293  1.8211  1.1367 -1.5913
 8257SOL    HW236234   3.017   3.557   3.365 -0.5701 -0.9716  2.1180
 8258SOL     OW36235   4.655   2.791   5.151  0.5197 -0.2477  0.1593
 8258SOL    HW136236   4.700   2.818   5.071 -2.8519  0.4732 -1.5170
 8258SOL    HW236237   4.706   2.712   5.167 -0.4846 -0.7958  0.6860
 8259SOL     OW36238   3.380   3.929   4.084 -0.5389  0.3312 -0.4580
 8259SOL    HW136239   3.385   3.845   4.128  1.0428  2.0531  2.7094
 8259SOL    HW236240   3.457   3.924   4.027  0.0861 -1.8067  0.5678
 8260SOL     OW36241   0.321   4.643   2.502 -0.6513  0.2213  0.0587
 8260SOL    HW136242   0.293   4.554   2.479  0.3680  0.0543 -0.5431
 8260SOL    HW236243   0.247   4.686   2.460 -2.2864 -1.6611  0.9921
 8261SOL     OW36244   2.931   1.755   5.818  0.0260  0.5678 -0.2826
 8261SOL    HW136245   3.004   1.693   5.816 -0.7553 -0.2435 -3.6232
 8261SOL    HW236246   2.968   1.829   5.866 -0.7169  2.0251 -1.9310
 8262SOL     OW36247   3.402   4.146   5.155  0.4313 -0.1644 -0.5722
 8262SOL    HW136248   3.439   4.070   5.110  0.8764 -0.3682  0.1369
 8262SOL    HW236249   3.353   4.110   5.229 -0.3220  2.1452  0.0651
 8263SOL     OW36250   0.207   3.705   2.381  0.5337  0.3903 -0.4039
 8263SOL    HW136251   0.179   3.637   2.320 -1.2118  2.5504 -2.0001
 8263SOL    HW236252   0.121   3.746   2.387  1.2203  1.7873 -0.1653
 8264SOL     OW36253   2.739   0.633   2.128 -0.1658  0.1894 -0.0924
 8264SOL    HW136254   2.690   0.713   2.106 -0.9438 -0.5957 -1.2416
 8264SOL    HW236255   2.666   0.584   2.166 -0.4362 -1.4447 -2.7281
 8265SOL     OW36256   3.088   2.182  17.457 -0.6334  0.2594 -0.2859
 8265SOL    HW136257   3.059   2.112  17.515  2.8797  0.3943  1.5744
 8265SOL    HW236258   3.094   2.262  17.509  0.6991  0.2514 -0.4310
 8266SOL     OW36259   2.572   4.483   7.023  0.3003 -0.1617 -0.0711
 8266SOL    HW136260   2.614   4.459   6.940 -1.5154 -0.5350 -0.8672
 8266SOL    HW236261   2.484   4.498   6.989  0.1210  0.3605  0.6109
 8267SOL     OW36262   3.154   1.394   8.480 -0.0079 -0.3216  0.2668
 8267SOL    HW136263   3.109   1.478   8.478 -0.9931 -0.8600 -0.0519
 8267SOL    HW236264   3.242   1.424   8.504 -0.9447  2.4338  0.2103
 8268SOL     OW36265   1.188   0.955   2.592 -0.2008 -0.4925  0.0855
 8268SOL    HW136266   1.104   0.950   2.546 -0.4164 -0.9599  0.5183
 8268SOL    HW236267   1.194   0.879   2.650  0.5638 -0.6721 -0.2386
 8269SOL     OW36268   0.263   1.307   7.265  0.4318  0.0593  0.1928
 8269SOL    HW136269   0.263   1.296   7.360 -3.0526 -0.1594  0.1871
 8269SOL    HW236270   0.243   1.214   7.251  1.9622 -0.1478 -0.5722
 8270SOL     OW36271   0.999   4.007   3.200  0.1921 -0.0351  0.0905
 8270SOL    HW136272   1.081   3.957   3.199 -0.4305 -1.0068 -2.8320
 8270SOL    HW236273   0.971   3.994   3.291 -0.9138 -1.5542 -0.4688
 8271SOL     OW36274   2.515   2.982   5.033  0.2190  0.1550  0.3034
 8271SOL    HW136275   2.511   3.014   4.943 -1.3202 -0.2198  0.2241
 8271SOL    HW236276   2.512   2.888   5.014  1.0685 -0.2341  2.1180
 8272SOL     OW36277   0.477   1.307  10.404 -0.2175 -0.1626 -0.1751
 8272SOL    HW136278   0.559   1.263  10.424  0.7121  2.0933  0.9378
 8272SOL    HW236279   0.417   1.280  10.473 -0.6786  0.0361 -0.4914
 8273SOL     OW36280   2.134   0.117   9.019  0.2913 -0.3747 -0.3643
 8273SOL    HW136281   2.209   0.092   8.966  1.5969 -0.2782  1.4412
 8273SOL    HW236282   2.084   0.038   8.997  0.1033  0.0843 -1.5808
 8274SOL     OW36283   1.997   2.555  14.845  0.4891  0.4626  0.2421
 8274SOL    HW136284   1.948   2.560  14.763 -0.5371  0.1136  0.8410
 8274SOL    HW236285   2.079   2.595  14.816  0.7068 -0.7336 -0.7904
 8275SOL     OW36286   3.796   1.153  17.112 -0.2337 -0.5007 -0.0233
 8275SOL    HW136287   3.731   1.097  17.069 -1.7658  2.2562 -1.3297
 8275SOL    HW236288   3.872   1.173  17.058 -0.3889  0.1611  0.0014
 8276SOL     OW36289   3.642   1.661   5.421  0.0217  0.0041 -0.5770
 8276SOL    HW136290   3.650   1.744   5.469  0.1058 -1.6774  2.2948
 8276SOL    HW236291   3.558   1.675   5.377 -0.9634 -0.0261  1.2874
 8277SOL     OW36292   3.628   0.118   5.913 -0.3999 -0.0384 -0.0748
 8277SOL    HW136293   3.547   0.141   5.959  0.0776 -0.8121  1.1466
 8277SOL    HW236294   3.641   0.172   5.835 -0.2254  0.1331  0.0736
 8278SOL     OW36295   0.178   3.709  10.761 -0.1858  0.2998 -0.5181
 8278SOL    HW136296   0.245   3.640  10.759  0.8247  1.3410 -2.2076
 8278SOL    HW236297   0.225   3.768  10.819  2.6529 -2.2478 -0.2458
 8279SOL     OW36298   3.195   0.592   2.458  0.3050 -0.3203  0.3837
 8279SOL    HW136299   3.287   0.568   2.466  0.3176 -0.1831  0.6714
 8279SOL    HW236300   3.194   0.610   2.364 -0.6290  0.1416  0.4761
 8280SOL     OW36301   1.379   3.028   0.400 -0.0675  0.0678  0.0655
 8280SOL    HW136302   1.375   2.980   0.482  1.0315 -2.2979 -1.2429
 8280SOL    HW236303   1.362   3.119   0.423  0.0812 -0.4930  2.3205
 8281SOL     OW36304   1.247   0.744   4.373 -0.1819  0.5928 -0.1918
 8281SOL    HW136305   1.158   0.748   4.407 -0.1471  1.6359 -0.2171
 8281SOL    HW236306   1.231   0.669   4.316 -1.3353  2.2401 -2.0510
 8282SOL     OW36307   1.498   1.632   1.946  0.4360 -0.3274  0.0179
 8282SOL    HW136308   1.575   1.674   1.907  0.6337  0.9540  1.7767
 8282SOL    HW236309   1.439   1.705   1.933 -0.5691 -1.0854  0.3387
 8283SOL     OW36310   3.739   1.472  13.604 -0.2654 -0.9707  0.0194
 8283SOL    HW136311   3.800   1.520  13.548  1.0254 -3.2487 -0.5212
 8283SOL    HW236312   3.654   1.499  13.569  1.0837  2.7550 -0.3275
 8284SOL     OW36313   1.477   2.858  15.298 -0.0022 -0.2775 -0.3223
 8284SOL    HW136314   1.409   2.896  15.242 -0.1489  2.0367  1.4406
 8284SOL    HW236315   1.438   2.780  15.337  2.4178 -1.3307  0.0229
 8285SOL     OW36316   0.667   3.091   5.811 -0.8127 -0.2980 -0.6058
 8285SOL    HW136317   0.718   3.170   5.793  1.8392 -1.4521  1.7141
 8285SOL    HW236318   0.724   3.052   5.877  0.1989  0.0677 -1.2704
 8286SOL     OW36319   2.014   3.893   2.659  0.1975  0.1082 -0.4923
 8286SOL    HW136320   2.085   3.843   2.620  1.6442 -0.0719  2.3597
 8286SOL    HW236321   2.061   3.977   2.658  1.1523 -0.3831  2.5948
 8287SOL     OW36322   1.692   0.533   7.944 -0.1957 -0.1859 -0.1886
 8287SOL    HW136323   1.721   0.619   7.915  0.1587 -0.9287 -2.0294
 8287SOL    HW236324   1.684   0.481   7.864 -1.5354 -1.6710  0.9019
 8288SOL     OW36325   4.580   3.367   1.409 -0.1618 -0.2102  0.1921
 8288SOL    HW136326   4.515   3.349   1.476 -1.2559  0.1614 -0.7714
 8288SOL    HW236327   4.651   3.305   1.426  0.6187  0.1555 -1.6844
 8289SOL     OW36328   1.730   3.029  12.518  0.0819  0.3908  0.0041
 8289SOL    HW136329   1.682   2.954  12.481  0.5316  0.1384 -0.0628
 8289SOL    HW236330   1.700   3.019  12.609  0.7985  0.0076  0.2018
 8290SOL     OW36331   0.163   3.858   0.545 -0.6174 -0.3584  0.2699
 8290SOL    HW136332   0.163   3.954   0.544  0.7099 -0.3610 -0.1057
 8290SOL    HW236333   0.069   3.841   0.551 -0.7980  1.1656  1.8667
 8291SOL     OW36334   4.536   4.708   7.148 -0.1076  0.0696 -0.0997
 8291SOL    HW136335   4.444   4.689   7.130 -0.6086 -0.1886  2.6725
 8291SOL    HW236336   4.538   0.078   7.153 -0.8295 -0.0308  1.9699
 8292SOL     OW36337   1.193   0.423   0.725  0.6260 -0.5303 -0.5718
 8292SOL    HW136338   1.282   0.416   0.690  0.7733 -0.9464 -0.1198
 8292SOL    HW236339   1.129   0.395   0.660 -1.5790  2.0426  0.4639
 8293SOL     OW36340   4.181   2.320  16.343 -0.6962 -0.2324  0.3005
 8293SOL    HW136341   4.115   2.385  16.318  0.3504  0.5171 -0.5166
 8293SOL    HW236342   4.125   2.253  16.383  0.7526 -1.4663  0.2850
 8294SOL     OW36343   1.961   1.868   1.811  0.0341 -0.2178  0.3871
 8294SOL    HW136344   1.988   1.927   1.741 -1.2770  0.2211  0.2586
 8294SOL    HW236345   2.010   1.790   1.783 -0.5580  0.0322 -1.3442
 8295SOL     OW36346   0.725   3.195   3.171  0.0863  0.0409 -0.0687
 8295SOL    HW136347   0.695   3.284   3.184  1.8277  0.6843 -0.4428
 8295SOL    HW236348   0.764   3.201   3.083  1.1664 -0.8374  0.3438
 8296SOL     OW36349   3.554   2.139   2.637 -0.0484  0.1973  0.3619
 8296SOL    HW136350   3.547   2.227   2.673 -0.3797 -0.5868  2.1824
 8296SOL    HW236351   3.648   2.124   2.627 -0.1169 -0.3210  0.5267
 8297SOL     OW36352   1.652   1.437   1.221 -0.2064  0.4136  0.4181
 8297SOL    HW136353   1.640   1.525   1.257 -0.6867  0.8133 -0.7419
 8297SOL    HW236354   1.709   1.393   1.285  1.3755  0.6241 -0.8660
 8298SOL     OW36355   1.835   4.440  13.593 -0.4666  0.0729  0.2646
 8298SOL    HW136356   1.827   4.451  13.688 -0.4306 -2.4208  0.5531
 8298SOL    HW236357   1.774   4.504  13.556 -2.0767 -1.8452 -0.4027
 8299SOL     OW36358   0.595   3.512   8.271  0.1202  0.1575  0.0725
 8299SOL    HW136359   0.621   3.588   8.324 -0.0424 -0.9798  1.7961
 8299SOL    HW236360   0.654   3.449   8.312  0.3058  1.5899  2.0260
 8300SOL     OW36361   0.582   3.682   6.562  0.3140 -0.8441 -0.1710
 8300SOL    HW136362   0.508   3.638   6.603  0.3515 -0.5415  0.2303
 8300SOL    HW236363   0.602   3.740   6.636 -1.3805  0.4851 -0.7536
 8301SOL     OW36364   0.005   0.427   7.159  0.1118  0.0041  0.4074
 8301SOL    HW136365   0.020   0.485   7.234  1.0286 -0.7617  0.8130
 8301SOL    HW236366   0.079   0.446   7.101  0.7824 -0.4245  1.1220
 8302SOL     OW36367   3.166   1.365   4.126 -0.2494 -0.0314  0.4245
 8302SOL    HW136368   3.114   1.426   4.074 -0.1457  0.7461  1.2411
 8302SOL    HW236369   3.231   1.426   4.159 -2.2023  3.0289 -1.4064
 8303SOL     OW36370   1.391   2.827   2.491  0.0178 -0.1348  0.6515
 8303SOL    HW136371   1.390   2.814   2.586  0.5465  0.6404  0.7664
 8303SOL    HW236372   1.419   2.918   2.486 -0.6290  0.1416  1.9690
 8304SOL     OW36373   4.004   1.584   8.468 -0.4818  0.0988  0.0909
 8304SOL    HW136374   4.037   1.668   8.502 -0.3104  0.1707 -0.2567
 8304SOL    HW236375   3.920   1.582   8.515  0.5885 -1.2750  1.9124
 8305SOL     OW36376   0.054   2.795   7.434  0.0633 -0.0432  0.8149
 8305SOL    HW136377   0.126   2.791   7.497 -0.2681 -1.1979  1.1243
 8305SOL    HW236378   0.065   2.710   7.391  1.7367  0.0985  0.9440
 8306SOL     OW36379   4.094   4.500   2.370  0.2221  0.3824 -0.7216
 8306SOL    HW136380   4.013   4.504   2.319 -0.9538 -2.7728  0.9084
 8306SOL    HW236381   4.160   4.476   2.305 -1.3563  2.6422 -3.1517
 8307SOL     OW36382   1.568   4.610   6.973  0.2406  0.5433 -0.1565
 8307SOL    HW136383   1.549   4.543   6.906 -0.2129  0.6133 -0.0988
 8307SOL    HW236384   1.661   4.592   6.990 -0.0233 -2.2372 -1.7213
 8308SOL     OW36385   1.353   1.673   2.338 -0.4386 -0.1404 -0.8544
 8308SOL    HW136386   1.334   1.657   2.431  3.4337 -0.6149 -0.1376
 8308SOL    HW236387   1.306   1.604   2.293 -0.5473  0.5206 -1.7471
 8309SOL     OW36388   0.951   0.899   5.256 -0.7455 -0.1019  0.3273
 8309SOL    HW136389   0.864   0.888   5.217 -0.0573 -0.5500 -1.1022
 8309SOL    HW236390   0.962   0.807   5.280 -0.9870 -0.0251  0.7265
 8310SOL     OW36391   3.658   0.178   2.545 -0.0285 -0.2109 -0.3794
 8310SOL    HW136392   3.581   0.129   2.517 -1.1176  0.2727  1.8078
 8310SOL    HW236393   3.711   0.118   2.597 -1.4804  0.4492  1.8564
 8311SOL     OW36394   3.755   0.093   6.362 -0.2489 -0.2258  0.4969
 8311SOL    HW136395   3.700   0.021   6.332 -0.6465  1.3110 -2.5248
 8311SOL    HW236396   3.835   0.044   6.384 -0.4752 -0.0529  1.7095
 8312SOL     OW36397   0.991   2.073   6.884  0.1572  0.0163  0.6023
 8312SOL    HW136398   1.039   2.134   6.827 -1.6717  1.8628  1.0580
 8312SOL    HW236399   0.929   2.138   6.917  0.5790  1.1904 -0.9231
 8313SOL     OW36400   2.524   2.861   8.172 -0.3975  0.1135  0.1755
 8313SOL    HW136401   2.543   2.829   8.084  1.5625  1.0367  0.2576
 8313SOL    HW236402   2.438   2.900   8.155 -1.5666 -2.8453 -0.7224
 8314SOL     OW36403   0.037   4.268  11.281 -0.2366  0.1256 -0.5453
 8314SOL    HW136404   0.011   4.360  11.275 -3.9596 -0.9221 -0.2635
 8314SOL    HW236405   0.092   4.275  11.202  0.5956  0.3692  0.0543
 8315SOL     OW36406   3.750   0.270  12.548 -0.3715 -0.0230 -0.5959
 8315SOL    HW136407   3.737   0.179  12.519  0.8844  0.2789 -2.1015
 8315SOL    HW236408   3.750   0.321  12.467 -2.7341  2.1794  0.8134
 8316SOL     OW36409   3.918   0.253   7.916 -0.6682 -0.0780 -0.4104
 8316SOL    HW136410   3.949   0.340   7.892 -0.8933  0.1258  0.0195
 8316SOL    HW236411   3.864   0.233   7.840  0.6739 -0.4576 -1.2611
 8317SOL     OW36412   4.100   1.330   8.577  0.6914 -0.7815 -0.6128
 8317SOL    HW136413   4.047   1.405   8.553  0.6000 -0.0534  1.8401
 8317SOL    HW236414   4.170   1.371   8.629 -0.4736 -0.0652  0.3747
 8318SOL     OW36415   1.510   1.809   3.909 -0.0868  0.2944  0.0273
 8318SOL    HW136416   1.454   1.811   3.832 -0.5077 -0.4447  0.3073
 8318SOL    HW236417   1.493   1.893   3.951 -1.5833 -0.3554  0.7223
 8319SOL     OW36418   0.364   3.534   7.593 -0.4787 -0.0771  0.2167
 8319SOL    HW136419   0.321   3.605   7.545 -0.2512  1.2796  2.0299
 8319SOL    HW236420   0.290   3.482   7.623  1.4075 -2.3608  0.8919
 8320SOL     OW36421   0.675   3.311   6.467 -0.1704 -0.0812 -0.7096
 8320SOL    HW136422   0.680   3.229   6.417 -2.5990  0.5011 -1.8776
 8320SOL    HW236423   0.761   3.342   6.439  0.6314  0.0550  1.8929
 8321SOL     OW36424   1.005   2.842   6.985  0.1615 -0.5032 -0.3332
 8321SOL    HW136425   1.064   2.901   7.032 -0.8733  2.3856 -2.7141
 8321SOL    HW236426   1.048   2.840   6.899  1.5211 -1.4089  0.3613
 8322SOL     OW36427   0.083   3.790   3.905 -0.3440 -0.0602 -0.3178
 8322SOL    HW136428   0.161   3.844   3.917 -1.0341  1.1427 -1.2120
 8322SOL    HW236429   0.112   3.716   3.958  1.0592  0.1856 -0.7494
 8323SOL     OW36430   2.850   4.248   3.271 -0.8594  0.1702  0.3725
 8323SOL    HW136431   2.939   4.283   3.269 -0.4560 -0.8684  0.3893
 8323SOL    HW236432   2.851   4.207   3.184  0.4085 -0.6895  0.7810
 8324SOL     OW36433   2.686   1.154   4.372 -0.3101  0.0639 -0.1211
 8324SOL    HW136434   2.639   1.221   4.422  0.6248  0.5942  0.0528
 8324SOL    HW236435   2.668   1.079   4.428 -0.4121  1.5062  1.7947
 8325SOL     OW36436   2.283   4.695   3.878  0.4090 -0.4698 -0.3491
 8325SOL    HW136437   2.296   4.656   3.791 -0.2847 -3.4335  0.8896
 8325SOL    HW236438   2.373   4.674   3.903  0.1861 -0.7499  0.2053
 8326SOL     OW36439   3.412   0.187   2.099 -0.0358  0.1290  0.5286
 8326SOL    HW136440   3.357   0.110   2.083  1.7019 -0.8098 -0.9762
 8326SOL    HW236441   3.498   0.149   2.083 -0.1166  0.3088 -0.3405
 8327SOL     OW36442   2.785   1.230  17.523  0.0509 -0.0497 -0.7350
 8327SOL    HW136443   2.871   1.271  17.512  0.4267 -0.7528 -0.4452
 8327SOL    HW236444   2.807   1.174  17.598  0.7346  1.7460  0.4169
 8328SOL     OW36445   3.538   0.456   3.246  0.4736 -0.1000  0.0473
 8328SOL    HW136446   3.517   0.454   3.340  2.6208  0.8894  0.5513
 8328SOL    HW236447   3.587   0.537   3.231  0.5690 -0.4061 -1.2780
 8329SOL     OW36448   3.465   4.030   3.370  0.3224  0.3543  0.4186
 8329SOL    HW136449   3.422   4.108   3.405 -1.5206  0.5540 -2.3268
 8329SOL    HW236450   3.440   4.039   3.278  1.6376  1.4122  0.1554
 8330SOL     OW36451   3.313   3.434   8.993 -0.4718  0.3393  0.3118
 8330SOL    HW136452   3.286   3.512   9.041 -0.1868 -0.6694  2.1032
 8330SOL    HW236453   3.320   3.362   9.055  0.9322 -0.6298 -0.9631
 8331SOL     OW36454   1.597   0.728  13.510  0.2939  0.0684  0.5302
 8331SOL    HW136455   1.617   0.716  13.603  1.5029 -1.9170  0.0278
 8331SOL    HW236456   1.513   0.772  13.521 -0.4199 -0.7015 -1.8159
 8332SOL     OW36457   0.816   2.234   8.014  0.2909  0.8078  0.3536
 8332SOL    HW136458   0.878   2.201   8.079 -0.8276  2.5206  2.2599
 8332SOL    HW236459   0.863   2.234   7.931 -0.2401 -1.3739  0.0376
 8333SOL     OW36460   0.358   4.592   6.880  0.1838 -0.4843 -0.4940
 8333SOL    HW136461   0.289   4.535   6.915 -1.8191  2.4732  0.4105
 8333SOL    HW236462   0.430   4.576   6.941 -2.0988 -0.8379  2.1432
 8334SOL     OW36463   0.853   0.031   7.773 -0.6359 -0.1924 -0.1913
 8334SOL    HW136464   0.905   0.109   7.756  0.9636 -1.1569  0.2874
 8334SOL    HW236465   0.762   0.059   7.758 -0.3156  0.5413 -0.7647
 8335SOL     OW36466   1.081   1.330   1.245 -0.2887  0.1396 -0.1656
 8335SOL    HW136467   1.176   1.322   1.243 -0.0958  1.5815  2.8657
 8335SOL    HW236468   1.052   1.288   1.327  0.4180 -0.4827 -0.2253
 8336SOL     OW36469   2.459   0.265   2.353  0.1338 -0.0393 -0.3687
 8336SOL    HW136470   2.525   0.205   2.320 -0.2543  0.0649 -1.3268
 8336SOL    HW236471   2.473   0.332   2.286 -0.2952  1.2932  0.8570
 8337SOL     OW36472   2.236   2.359  11.874 -0.0560  0.8358  0.0554
 8337SOL    HW136473   2.214   2.384  11.785 -0.9251  3.2061  0.9199
 8337SOL    HW236474   2.327   2.330  11.869 -0.2906 -0.4176  2.7694
 8338SOL     OW36475   1.482   1.172   4.488 -0.0785  0.5817 -0.3703
 8338SOL    HW136476   1.408   1.202   4.436  0.4447  1.3498 -0.6741
 8338SOL    HW236477   1.431   1.133   4.559 -1.9664  3.5895 -0.0498
 8339SOL     OW36478   0.835   1.449   2.552 -0.3021 -0.7201 -0.0815
 8339SOL    HW136479   0.890   1.521   2.580 -1.8419 -0.3542  2.0232
 8339SOL    HW236480   0.762   1.496   2.511 -0.2033 -0.1006  0.4658
 8340SOL     OW36481   2.929   1.198  17.180  0.2146  0.0171  0.0964
 8340SOL    HW136482   3.012   1.233  17.149 -0.0118  0.2263 -0.2761
 8340SOL    HW236483   2.864   1.242  17.125  2.5523  2.1698 -0.9543
 8341SOL     OW36484   2.528   2.069   2.973  0.8566  0.7110  0.2092
 8341SOL    HW136485   2.593   2.093   2.907 -0.2925  1.3783 -0.6699
 8341SOL    HW236486   2.581   2.035   3.045  0.2215 -0.7303  0.0043
 8342SOL     OW36487   2.586   0.634   8.455  0.1134 -0.0105  0.8105
 8342SOL    HW136488   2.614   0.681   8.376  2.1944  0.6168  1.9101
 8342SOL    HW236489   2.540   0.701   8.506 -1.9588 -0.2245 -0.7638
 8343SOL     OW36490   1.224   1.260   4.363  0.2432  0.2793  0.1673
 8343SOL    HW136491   1.165   1.261   4.438 -0.5315 -0.2429 -0.4409
 8343SOL    HW236492   1.161   1.275   4.293 -1.7824  1.7485  2.3077
 8344SOL     OW36493   0.534   3.961   7.427 -0.1028  0.4049  0.3545
 8344SOL    HW136494   0.443   3.934   7.433  0.0299  0.8297  4.2486
 8344SOL    HW236495   0.527   4.049   7.390  0.2547  0.5306  0.5875
 8345SOL     OW36496   2.372   2.538   1.766 -0.3346 -0.3181 -0.5023
 8345SOL    HW136497   2.466   2.551   1.757 -0.7746  2.8338 -0.6746
 8345SOL    HW236498   2.337   2.536   1.677 -0.7856 -0.3369 -0.3228
 8346SOL     OW36499   3.827   2.069   6.211  0.0230 -0.4137 -0.1461
 8346SOL    HW136500   3.911   2.030   6.185  0.5524  0.5661  0.1146
 8346SOL    HW236501   3.831   2.149   6.160 -0.3912  0.5158  1.2715
 8347SOL     OW36502   4.424   0.250   3.506 -0.3596  0.3746  0.6878
 8347SOL    HW136503   4.487   0.237   3.435  0.0073 -0.9753  1.2751
 8347SOL    HW236504   4.364   0.310   3.460 -2.6634 -0.4621  2.5963
 8348SOL     OW36505   3.786   1.381   2.954  0.2464 -0.2198 -0.1668
 8348SOL    HW136506   3.776   1.347   2.866  0.9625  1.4782 -0.9167
 8348SOL    HW236507   3.882   1.389   2.958  0.1451  1.1927 -0.4485
 8349SOL     OW36508   1.121   4.581   5.560  0.5003 -0.8641 -0.0310
 8349SOL    HW136509   1.150   4.533   5.483 -0.3187  0.2810 -1.0406
 8349SOL    HW236510   1.197   4.637   5.570 -1.8880  2.2520  0.7548
 8350SOL     OW36511   3.955   1.410  13.323 -0.3934 -0.1094 -0.0228
 8350SOL    HW136512   3.973   1.353  13.397  4.2517 -0.0748 -1.0779
 8350SOL    HW236513   4.044   1.433  13.295 -0.7543  1.0342 -0.2453
 8351SOL     OW36514   2.545   3.986   8.940 -0.2451 -0.4057  0.4261
 8351SOL    HW136515   2.539   3.891   8.927  1.4856 -0.3985 -0.4934
 8351SOL    HW236516   2.535   3.990   9.035 -1.6072 -1.4448  0.3138
 8352SOL     OW36517   1.416   4.188  12.898  0.7017 -0.1549  0.7444
 8352SOL    HW136518   1.474   4.204  12.825 -1.9433  1.5807 -1.0008
 8352SOL    HW236519   1.363   4.268  12.901 -1.6144 -1.6485 -0.4513
 8353SOL     OW36520   3.572   4.124   7.017  0.3252 -0.7158  0.1431
 8353SOL    HW136521   3.634   4.126   7.090  0.1999  0.2178  0.2129
 8353SOL    HW236522   3.621   4.060   6.963 -1.2785  0.1729 -2.3685
 8354SOL     OW36523   2.685   1.270  11.687 -0.7578  0.3560  0.3701
 8354SOL    HW136524   2.729   1.244  11.607 -2.2405  1.2743 -0.7423
 8354SOL    HW236525   2.700   1.365  11.690  0.8126  0.1202  0.2181
 8355SOL     OW36526   3.779   4.630   5.973 -0.5238 -0.1253  0.4575
 8355SOL    HW136527   3.715   4.700   5.959  1.0058  1.4651  1.4230
 8355SOL    HW236528   3.764   4.583   5.891  0.2590  1.2550 -0.4765
 8356SOL     OW36529   0.731   0.587   8.375  0.1388 -0.1576 -0.1462
 8356SOL    HW136530   0.709   0.660   8.433 -1.1908 -0.5312 -0.1925
 8356SOL    HW236531   0.661   0.597   8.310 -0.0007 -0.0601  0.0190
 8357SOL     OW36532   2.396   0.055   7.407  0.2122 -0.6819 -0.1788
 8357SOL    HW136533   2.451   0.090   7.337  0.6570  0.5768  0.8130
 8357SOL    HW236534   2.410   0.118   7.478  0.1441 -0.1943 -0.6040
 8358SOL     OW36535   3.783   2.117   5.674 -0.3030  0.5275  0.2573
 8358SOL    HW136536   3.716   2.065   5.629  1.7228 -3.7791  2.1844
 8358SOL    HW236537   3.833   2.051   5.722 -0.7069 -1.2773 -1.8269
 8359SOL     OW36538   1.975   3.097   9.461 -0.2975 -0.0767 -0.1613
 8359SOL    HW136539   1.972   3.027   9.395 -1.9336 -1.4584  1.3698
 8359SOL    HW236540   1.885   3.090   9.493  0.0733 -0.0889  0.8869
 8360SOL     OW36541   4.402   2.789  11.069 -0.2853 -0.6006 -0.1650
 8360SOL    HW136542   4.470   2.721  11.067 -1.1626 -1.4602 -0.5358
 8360SOL    HW236543   4.373   2.792  10.978 -2.0001 -2.5665  0.3107
 8361SOL     OW36544   1.993   1.639   8.980 -0.4690 -0.1350 -0.0846
 8361SOL    HW136545   2.077   1.595   8.996  0.3181  0.8335 -1.5953
 8361SOL    HW236546   1.943   1.585   9.042 -1.1942  1.0169  0.3242
 8362SOL     OW36547   3.498   0.156  14.693  0.5111 -0.4225 -0.3411
 8362SOL    HW136548   3.447   0.198  14.763  0.2908 -1.2012 -0.0303
 8362SOL    HW236549   3.469   0.204  14.616  1.9491 -0.1841 -0.7363
 8363SOL     OW36550   3.741   3.546   3.567 -0.4818 -0.0751  0.3217
 8363SOL    HW136551   3.686   3.492   3.624 -0.9065  0.6954  0.6477
 8363SOL    HW236552   3.817   3.543   3.625  1.3970 -1.1766 -2.2151
 8364SOL     OW36553   1.679   2.221   4.093 -0.2026  0.4578 -0.1662
 8364SOL    HW136554   1.591   2.259   4.097 -0.4895 -0.2737  0.6162
 8364SOL    HW236555   1.708   2.239   4.182  3.3043 -0.1802 -1.1978
 8365SOL     OW36556   0.488   1.351   4.988  0.5991 -0.5413 -0.6454
 8365SOL    HW136557   0.540   1.271   4.991  0.2352 -0.6636  2.3724
 8365SOL    HW236558   0.541   1.411   5.041 -0.4320  0.4857 -0.7651
 8366SOL     OW36559   1.527   4.409   1.648 -0.1614 -0.5556  0.0518
 8366SOL    HW136560   1.596   4.427   1.584 -0.7782  0.0321 -0.4491
 8366SOL    HW236561   1.578   4.407   1.729  0.2710 -3.1601 -0.2481
 8367SOL     OW36562   2.504   1.640   5.311 -0.3040  0.1038  0.3009
 8367SOL    HW136563   2.466   1.558   5.344 -0.3212 -0.8504 -2.0945
 8367SOL    HW236564   2.595   1.632   5.337  0.1530  1.4109 -0.9307
 8368SOL     OW36565   4.188   1.100  15.433 -0.8571 -0.3603  0.8806
 8368SOL    HW136566   4.169   1.006  15.428  0.2483 -0.7151  3.2658
 8368SOL    HW236567   4.099   1.134  15.426  0.0764  2.1461  1.3163
 8369SOL     OW36568   2.960   3.511   2.781  0.1703 -0.5663  0.0813
 8369SOL    HW136569   2.883   3.454   2.787 -0.2317  0.0060  0.3956
 8369SOL    HW236570   2.958   3.545   2.691 -2.4274 -2.9505 -0.7819
 8370SOL     OW36571   0.092   1.049  12.362 -0.1181 -0.0855  0.4272
 8370SOL    HW136572   0.008   1.024  12.401  0.6481 -1.3045  1.3082
 8370SOL    HW236573   0.083   1.143  12.351 -2.1710 -0.4773 -1.4650
 8371SOL     OW36574   1.150   4.422   8.797 -0.0514 -0.0547 -0.3977
 8371SOL    HW136575   1.118   4.332   8.793 -1.5132  0.4977 -0.8023
 8371SOL    HW236576   1.148   4.433   8.702  0.9991 -2.7614 -0.7463
 8372SOL     OW36577   2.591   1.457   6.608 -0.1048  0.2858 -0.2742
 8372SOL    HW136578   2.608   1.527   6.545 -2.5472 -1.0391 -2.3728
 8372SOL    HW236579   2.561   1.507   6.684 -0.3014  0.3061 -0.3633
 8373SOL     OW36580   1.307   3.309   9.288  0.4188  0.3964  0.4620
 8373SOL    HW136581   1.326   3.216   9.301 -1.0553 -0.2890 -2.2306
 8373SOL    HW236582   1.369   3.335   9.220 -0.3785  0.8348 -0.0898
 8374SOL     OW36583   1.233   4.003   9.182 -0.7078  0.7045 -0.1486
 8374SOL    HW136584   1.181   4.015   9.261  1.3586 -0.4883  1.3910
 8374SOL    HW236585   1.229   4.091   9.145 -1.5421  0.6701 -0.1383
 8375SOL     OW36586   2.802   1.110  15.250  0.1250  0.7186  0.9419
 8375SOL    HW136587   2.744   1.102  15.174 -1.0415 -0.4880  1.9633
 8375SOL    HW236588   2.874   1.154  15.206  2.0050 -0.3642  2.9301
 8376SOL     OW36589   4.625   1.143   7.209 -0.5726  0.3879  0.3041
 8376SOL    HW136590   4.574   1.115   7.133  2.3035  2.3286 -2.3352
 8376SOL    HW236591   4.696   1.203   7.184 -0.4907  0.0943 -0.1794
 8377SOL     OW36592   1.970   0.781   3.477 -0.4097  1.2164 -0.2410
 8377SOL    HW136593   2.048   0.756   3.427  0.1510  1.3630  0.5537
 8377SOL    HW236594   1.969   0.702   3.532 -0.6512  0.1976 -1.6939
 8378SOL     OW36595   3.518   3.470   8.070  0.2677 -0.2098 -0.1528
 8378SOL    HW136596   3.524   3.374   8.073  0.8586 -0.1322  1.1264
 8378SOL    HW236597   3.424   3.485   8.078  0.3084  0.3298 -0.6483
 8379SOL     OW36598   3.224   3.300   4.900 -0.3489 -0.3016  1.2822
 8379SOL    HW136599   3.195   3.369   4.960 -2.3375 -1.2417  1.4228
 8379SOL    HW236600   3.300   3.340   4.858 -0.1170 -0.9712  1.0534
 8380SOL     OW36601   3.708   3.255  14.615  0.1067 -0.4108  0.0941
 8380SOL    HW136602   3.688   3.265  14.522 -0.1400 -1.8566 -0.0063
 8380SOL    HW236603   3.747   3.168  14.621 -0.6763 -0.8446 -1.1246
 8381SOL     OW36604   1.273   0.107   1.076  0.1477  0.4552 -0.1062
 8381SOL    HW136605   1.354   0.057   1.064 -1.6059 -1.9095 -1.7778
 8381SOL    HW236606   1.284   0.140   1.165  1.6994 -0.4895  0.0598
 8382SOL     OW36607   3.786   4.540   4.550 -0.3449 -0.1873 -0.3531
 8382SOL    HW136608   3.866   4.488   4.543 -1.1426 -1.6224  1.4176
 8382SOL    HW236609   3.734   4.510   4.475  0.6389 -1.3257 -0.5780
 8383SOL     OW36610   2.374   1.564   2.153  0.2341  0.3656 -0.1165
 8383SOL    HW136611   2.468   1.543   2.145 -0.2100 -1.8703  0.6150
 8383SOL    HW236612   2.375   1.653   2.188  0.4409  0.3928 -0.1903
 8384SOL     OW36613   1.794   1.976   2.178  0.0758 -0.1693  0.7563
 8384SOL    HW136614   1.795   2.072   2.182  1.7979 -0.0952 -1.3653
 8384SOL    HW236615   1.886   1.951   2.167  0.0008 -0.9235  1.9288
 8385SOL     OW36616   1.818   1.663   0.482 -1.0205  0.1105 -0.3458
 8385SOL    HW136617   1.837   1.756   0.466 -0.6676  0.3048  1.1555
 8385SOL    HW236618   1.811   1.668   0.577  0.0675  1.1562 -0.3118
 8386SOL     OW36619   3.499   1.636  16.790 -0.7600 -0.1347  0.1884
 8386SOL    HW136620   3.419   1.689  16.788 -0.3879  0.4832  2.3899
 8386SOL    HW236621   3.466   1.551  16.820  0.2244  0.2658  2.3814
 8387SOL     OW36622   0.155   2.612   1.702 -0.2149  0.4115 -0.1672
 8387SOL    HW136623   0.163   2.528   1.657 -1.8766 -0.4283  1.1196
 8387SOL    HW236624   0.138   2.590   1.793 -2.0351 -0.2997 -0.6848
 8388SOL     OW36625   2.060   3.060   7.463 -0.2710  0.0123  0.0587
 8388SOL    HW136626   2.133   3.118   7.483 -1.5299  2.3255 -1.9967
 8388SOL    HW236627   2.023   3.043   7.550 -0.6602 -2.2646 -0.5669
 8389SOL     OW36628   3.024   3.133   1.252  0.3151 -0.7684 -0.2658
 8389SOL    HW136629   3.108   3.151   1.295  0.2141  0.9549 -0.7606
 8389SOL    HW236630   2.983   3.219   1.248  2.3140  0.2301  0.5229
 8390SOL     OW36631   0.766   1.224   7.543  0.3900  0.0194  0.1252
 8390SOL    HW136632   0.750   1.236   7.636  0.3790  0.6276  0.0449
 8390SOL    HW236633   0.768   1.319   7.536 -3.5901  0.3769  4.3225
 8391SOL     OW36634   2.903   2.170   3.137  0.0762 -0.0291  0.5509
 8391SOL    HW136635   2.972   2.211   3.188  1.4472 -1.0508 -0.4855
 8391SOL    HW236636   2.899   2.081   3.173 -0.1750 -0.4607 -0.5348
 8392SOL     OW36637   3.318   1.028   0.233 -0.0330  0.9165 -0.5047
 8392SOL    HW136638   3.311   0.951   0.291 -2.2706  0.5871 -1.2219
 8392SOL    HW236639   3.230   1.038   0.199  0.2573  0.1329 -1.4912
 8393SOL     OW36640   3.803   4.602   3.384  0.0431 -0.7592 -0.4410
 8393SOL    HW136641   3.889   4.643   3.380  0.7688 -2.0931  1.1386
 8393SOL    HW236642   3.818   4.511   3.357 -0.1317 -0.3794 -1.8149
 8394SOL     OW36643   1.710   4.089  16.960 -0.1877  0.4164 -0.1311
 8394SOL    HW136644   1.771   4.031  17.004 -1.8263 -0.2804  1.2276
 8394SOL    HW236645   1.749   4.174  16.981  0.4198  0.0005  0.3986
 8395SOL     OW36646   2.564   0.286   4.915  0.1263  0.3370  0.0701
 8395SOL    HW136647   2.490   0.231   4.942 -0.3543 -0.7118 -3.4225
 8395SOL    HW236648   2.619   0.270   4.992 -0.1798 -0.7990  0.0574
 8396SOL     OW36649   0.186   0.657   6.730 -0.0657 -0.2428 -0.0380
 8396SOL    HW136650   0.165   0.746   6.758  0.4350  0.0508 -0.5678
 8396SOL    HW236651   0.131   0.639   6.653  1.9809 -0.0420 -1.5619
 8397SOL     OW36652   4.525   2.557  13.373 -0.4250 -0.0326  0.8022
 8397SOL    HW136653   4.484   2.552  13.287  3.0984 -3.2272 -0.6914
 8397SOL    HW236654   4.601   2.608  13.344 -0.6204 -0.8650 -1.1330
 8398SOL     OW36655   3.691   1.122   6.133  0.8042 -0.1690  0.4034
 8398SOL    HW136656   3.617   1.158   6.182 -1.4349  0.0321 -3.1307
 8398SOL    HW236657   3.643   1.057   6.082 -1.1697 -1.0386  3.3439
 8399SOL     OW36658   4.552   2.186  15.469  0.5221 -0.2073 -0.0159
 8399SOL    HW136659   4.587   2.230  15.546 -1.9850  0.0211  1.0074
 8399SOL    HW236660   4.599   2.103  15.461  2.1056  0.3076  3.9103
 8400SOL     OW36661   3.839   1.431   6.891 -0.0903 -0.2649 -0.3680
 8400SOL    HW136662   3.852   1.499   6.958 -0.1831  0.4279 -1.0525
 8400SOL    HW236663   3.779   1.485   6.839 -0.0716  0.3389  0.2302
 8401SOL     OW36664   3.370   1.874  11.970 -0.3177  0.0776 -0.1963
 8401SOL    HW136665   3.330   1.896  11.886  0.6847 -1.1453 -0.9897
 8401SOL    HW236666   3.432   1.807  11.942  1.2650  2.3661 -2.1625
 8402SOL     OW36667   1.228   4.388   6.806 -0.1197 -0.0871 -1.0655
 8402SOL    HW136668   1.168   4.327   6.763  0.2005 -1.0517 -0.1432
 8402SOL    HW236669   1.267   4.442   6.737 -2.0248 -0.1004 -2.1365
 8403SOL     OW36670   2.503   0.104   9.300  0.4765 -0.2962  0.5710
 8403SOL    HW136671   2.581   0.106   9.355 -0.5167  0.7687  1.9686
 8403SOL    HW236672   2.453   0.037   9.348 -1.4394  1.2271  0.7201
 8404SOL     OW36673   3.437   3.368   9.469 -0.3459  0.6576  0.1871
 8404SOL    HW136674   3.513   3.345   9.416  0.5075 -0.6255  1.9875
 8404SOL    HW236675   3.365   3.336   9.414 -0.7261  1.4511  0.2145
 8405SOL     OW36676   3.128   4.123   5.316 -0.1046 -0.4296  0.4741
 8405SOL    HW136677   3.080   4.047   5.349  0.6832 -1.3855 -0.6016
 8405SOL    HW236678   3.198   4.140   5.378 -0.8041  0.9669  0.8853
 8406SOL     OW36679   2.458   1.952  10.450 -0.2831  0.3094 -0.7070
 8406SOL    HW136680   2.521   1.987  10.512 -0.3782  0.7855 -0.8789
 8406SOL    HW236681   2.395   2.022  10.435 -1.2746 -0.5739 -0.6806
 8407SOL     OW36682   3.360   2.912  15.938 -0.2812  0.5853 -0.0638
 8407SOL    HW136683   3.327   2.838  15.886  0.4128  0.1694  0.0706
 8407SOL    HW236684   3.333   2.986  15.885 -1.9576 -1.8821 -2.6938
 8408SOL     OW36685   3.602   1.692  14.264  0.4855  0.1739 -0.0176
 8408SOL    HW136686   3.613   1.786  14.249  2.4296  0.2027  1.5372
 8408SOL    HW236687   3.512   1.701  14.294 -0.0566 -2.7610 -0.7270
 8409SOL     OW36688   4.362   1.546   9.705  0.6068 -0.1329 -0.2460
 8409SOL    HW136689   4.457   1.556   9.713  0.6088 -1.7066  1.5580
 8409SOL    HW236690   4.352   1.575   9.614 -0.3002  0.0840 -0.0773
 8410SOL     OW36691   1.065   3.585   3.253 -0.1344 -0.1801 -0.8357
 8410SOL    HW136692   1.130   3.531   3.209 -0.5727 -0.4346 -1.1610
 8410SOL    HW236693   1.117   3.612   3.330 -0.6456 -0.0864 -0.5261
 8411SOL     OW36694   4.540   0.524   5.085 -0.1853 -0.3168 -0.2307
 8411SOL    HW136695   4.593   0.453   5.120  1.2095  0.0099 -1.6867
 8411SOL    HW236696   4.606   0.580   5.044 -0.3543 -1.4861 -2.1006
 8412SOL     OW36697   4.246   2.417  15.207  0.0434  0.3660  0.1115
 8412SOL    HW136698   4.264   2.488  15.269  1.8689 -0.7619  0.8757
 8412SOL    HW236699   4.326   2.414  15.155  0.2004 -1.4084  0.4411
 8413SOL     OW36700   4.552   4.284   6.681  0.4985 -0.7478  0.0530
 8413SOL    HW136701   4.531   4.212   6.741 -0.0347 -2.3648 -2.0337
 8413SOL    HW236702   4.568   4.235   6.600  0.5270  0.4448 -0.6676
 8414SOL     OW36703   4.653   3.602   9.074  0.2664  0.4607  0.1000
 8414SOL    HW136704   4.593   3.529   9.093  2.8142 -1.1699  1.7584
 8414SOL    HW236705   0.010   3.554   9.069  0.7382  1.2759  0.0111
 8415SOL     OW36706   4.169   2.360   1.970  0.5225  0.2334  0.5381
 8415SOL    HW136707   4.101   2.379   1.905 -0.8285 -1.7901  1.3607
 8415SOL    HW236708   4.237   2.340   1.906  0.7436  0.7343  0.6192
 8416SOL     OW36709   3.131   2.193   7.580  0.2314  0.2915  0.1388
 8416SOL    HW136710   3.059   2.163   7.635  0.6360 -0.7397  0.1143
 8416SOL    HW236711   3.150   2.277   7.622 -1.3613  0.0979  1.2453
 8417SOL     OW36712   4.246   3.380   5.323  0.2776 -0.0949  0.1171
 8417SOL    HW136713   4.340   3.363   5.323  0.5926  1.6648 -1.4729
 8417SOL    HW236714   4.236   3.475   5.331 -0.1520 -0.0718 -0.7128
 8418SOL     OW36715   1.772   1.669   3.464 -0.3433  0.1204 -0.0938
 8418SOL    HW136716   1.702   1.732   3.476 -1.0570 -0.7078  0.0574
 8418SOL    HW236717   1.844   1.732   3.460 -1.0339  0.8505 -0.8338
 8419SOL     OW36718   2.601   1.174  13.375  0.1252  0.7655 -0.2831
 8419SOL    HW136719   2.530   1.214  13.326  0.0427 -0.0791 -0.8635
 8419SOL    HW236720   2.620   1.094  13.325  2.6064  0.3900  1.2568
 8420SOL     OW36721   4.645   3.476   8.587  0.8952  0.3844  0.4033
 8420SOL    HW136722   4.592   3.512   8.658 -1.2671 -0.3182 -0.8456
 8420SOL    HW236723   4.571   3.437   8.541  0.8271  0.8587  0.1042
 8421SOL     OW36724   2.553   3.935   5.610  0.0010 -0.4554  0.0159
 8421SOL    HW136725   2.548   3.868   5.542  0.6077 -1.3818  0.8849
 8421SOL    HW236726   2.464   3.968   5.599  0.8759  0.9655 -2.7115
 8422SOL     OW36727   2.616   4.297   4.069 -0.1334  0.0010  0.4977
 8422SOL    HW136728   2.531   4.253   4.059  1.8711 -3.2064 -2.1776
 8422SOL    HW236729   2.601   4.385   4.103 -0.2856 -0.4203  1.5619
 8423SOL     OW36730   2.010   2.109   3.790  0.2989  0.3205 -0.3830
 8423SOL    HW136731   1.937   2.158   3.827  1.2581  0.6102  1.1250
 8423SOL    HW236732   1.987   2.018   3.810  2.1818 -0.1844 -0.5169
 8424SOL     OW36733   2.692   2.265   1.469 -0.1606  0.5333  0.2290
 8424SOL    HW136734   2.630   2.239   1.537 -0.2333  1.1591  0.3980
 8424SOL    HW236735   2.703   2.354   1.501 -2.6202  1.8470 -2.5465
 8425SOL     OW36736   1.438   0.637  14.585  0.1705 -0.1477  0.4222
 8425SOL    HW136737   1.487   0.556  14.575  3.0129  1.4638  1.3447
 8425SOL    HW236738   1.460   0.659  14.676 -0.9251  0.7641  0.4796
 8426SOL     OW36739   2.522   2.869   8.622  0.1910 -0.1771  0.2885
 8426SOL    HW136740   2.462   2.795   8.615 -2.2644  1.6666  1.6994
 8426SOL    HW236741   2.528   2.874   8.717  0.5182  0.4574  0.2347
 8427SOL     OW36742   0.780   3.468   8.515 -0.5906  0.2961 -0.2521
 8427SOL    HW136743   0.796   3.418   8.435 -0.3181 -0.1796  0.0971
 8427SOL    HW236744   0.868   3.502   8.531 -0.9256  0.5244  1.1006
 8428SOL     OW36745   1.715   2.135   7.238 -0.3124 -0.3464 -0.4027
 8428SOL    HW136746   1.681   2.050   7.266  2.3709 -2.1052 -2.3734
 8428SOL    HW236747   1.657   2.192   7.288  1.8014  0.2734  1.3443
 8429SOL     OW36748   3.483   1.927   1.994  0.4345  0.2349  0.0270
 8429SOL    HW136749   3.554   1.990   2.008  0.6027 -0.3807  1.9406
 8429SOL    HW236750   3.431   1.932   2.075 -0.3872  2.0128 -0.6149
 8430SOL     OW36751   3.692   0.470   5.169 -0.1437  0.5511  0.5150
 8430SOL    HW136752   3.699   0.377   5.150  1.6651  1.1229 -1.5834
 8430SOL    HW236753   3.772   0.494   5.122 -0.4052  0.2274 -0.1091
 8431SOL     OW36754   1.580   1.809  14.855  0.0869  0.1926  0.4317
 8431SOL    HW136755   1.485   1.797  14.867  0.1008 -0.2225  0.1378
 8431SOL    HW236756   1.617   1.728  14.891  0.0482  0.3788  0.8937
 8432SOL     OW36757   2.767   0.856   8.772  0.3111 -0.6389 -0.3633
 8432SOL    HW136758   2.817   0.924   8.817 -0.4663 -1.7458  2.1660
 8432SOL    HW236759   2.786   0.781   8.828 -1.2255  1.0932  2.4697
 8433SOL     OW36760   2.996   2.161   5.790  0.5755  0.1231  0.2412
 8433SOL    HW136761   3.086   2.193   5.779 -0.3596  2.3407 -1.0880
 8433SOL    HW236762   2.950   2.233   5.748 -0.6253  0.2406  1.7642
 8434SOL     OW36763   0.246   3.921   4.193 -0.0565 -0.1380 -0.0175
 8434SOL    HW136764   0.321   3.931   4.252 -0.6478 -1.4751  0.9642
 8434SOL    HW236765   0.246   3.825   4.199  2.8325 -0.1491 -0.0140
 8435SOL     OW36766   2.873   1.185   4.942 -0.4550 -0.0760 -0.8878
 8435SOL    HW136767   2.818   1.208   5.017  0.1759 -0.2167 -0.3839
 8435SOL    HW236768   2.926   1.121   4.989 -0.8267  1.9651  2.3055
 8436SOL     OW36769   2.718   1.125   0.781 -0.5336 -0.3464  0.2138
 8436SOL    HW136770   2.750   1.048   0.828  0.1413  0.3604  0.8956
 8436SOL    HW236771   2.697   1.177   0.858  1.6404 -2.7299  2.4280
 8437SOL     OW36772   0.029   4.413   5.747 -0.3678  0.1052 -0.4725
 8437SOL    HW136773   0.061   4.392   5.835  4.0362  2.9425 -1.4050
 8437SOL    HW236774   0.030   4.508   5.762 -3.0153 -0.1429  1.3283
 8438SOL     OW36775   2.325   2.216   0.918 -0.6325  0.2547  0.0314
 8438SOL    HW136776   2.240   2.256   0.898  0.8780  1.8239 -3.2982
 8438SOL    HW236777   2.381   2.243   0.845  1.2983 -2.7941  0.3642
 8439SOL     OW36778   3.659   2.040   0.504 -0.4024  0.4467  0.2012
 8439SOL    HW136779   3.652   1.952   0.542  0.9138  0.1982 -0.1232
 8439SOL    HW236780   3.615   2.039   0.419 -0.4353 -1.1520  0.2318
 8440SOL     OW36781   2.810   4.298   7.825  0.1438 -0.3731  0.2675
 8440SOL    HW136782   2.859   4.335   7.899  1.6761 -1.5530 -0.1539
 8440SOL    HW236783   2.781   4.379   7.783  0.0413 -0.7094 -0.3127
 8441SOL     OW36784   0.198   0.340   6.340 -0.2570  0.0116  0.4235
 8441SOL    HW136785   0.256   0.266   6.357 -1.3725 -0.9345  0.0947
 8441SOL    HW236786   0.115   0.298   6.316 -0.4567  1.0005 -0.5942
 8442SOL     OW36787   2.760   0.208  13.766 -0.2245 -0.2214 -0.0128
 8442SOL    HW136788   2.670   0.177  13.773 -0.0228 -0.2058  2.5975
 8442SOL    HW236789   2.790   0.173  13.682  0.0057  0.1289 -0.0797
 8443SOL     OW36790   1.958   3.870   4.937 -0.2998 -0.0040  0.4964
 8443SOL    HW136791   1.940   3.961   4.959  0.1611  0.3427 -0.5383
 8443SOL    HW236792   1.942   3.835   5.024 -2.6083  0.7983  0.3902
 8444SOL     OW36793   1.061   0.208   4.594 -0.2474  0.2848 -0.0472
 8444SOL    HW136794   1.000   0.175   4.527  0.8396  1.3625 -1.5757
 8444SOL    HW236795   1.000   0.202   4.667  0.9331 -0.7659  0.8438
 8445SOL     OW36796   1.886   0.942   4.879 -0.2577 -0.3249 -0.6489
 8445SOL    HW136797   1.908   0.866   4.934 -2.4182  0.5076  1.3352
 8445SOL    HW236798   1.850   1.011   4.935  1.5912 -2.8242  3.6032
 8446SOL     OW36799   2.134   2.159  11.380  0.0337  0.1636  0.1993
 8446SOL    HW136800   2.183   2.086  11.419 -1.4076 -0.5398  0.7310
 8446SOL    HW236801   2.091   2.113  11.309 -0.3429  0.3802  0.2871
 8447SOL     OW36802   2.246   2.463   4.912  0.3451  0.2759  0.4436
 8447SOL    HW136803   2.183   2.397   4.942 -0.4727  0.7337 -0.2599
 8447SOL    HW236804   2.320   2.406   4.931  0.7233  0.4022 -0.6249
 8448SOL     OW36805   3.993   2.305  15.148 -0.4221 -0.3422 -0.3854
 8448SOL    HW136806   3.994   2.214  15.176 -0.1638 -0.6797 -1.4840
 8448SOL    HW236807   4.073   2.339  15.187 -0.6432 -0.8340  0.4971
 8449SOL     OW36808   4.428   4.447  17.278 -0.6450 -0.0006  0.0020
 8449SOL    HW136809   4.389   4.528  17.309 -1.9570 -1.0455  1.0418
 8449SOL    HW236810   4.414   4.459  17.184 -1.2540  0.4779  0.1585
 8450SOL     OW36811   1.799   3.802   7.272  0.0680  0.2253  0.6642
 8450SOL    HW136812   1.710   3.828   7.295  0.1585  0.6827  0.5056
 8450SOL    HW236813   1.838   3.796   7.359  1.1858 -0.5993  0.1074
 8451SOL     OW36814   0.050   4.593   3.887 -0.5193  0.4608 -0.5841
 8451SOL    HW136815   4.713   4.583   3.815 -2.7876  3.8352  0.8840
 8451SOL    HW236816   0.136   4.583   3.846 -1.1402  0.7883 -1.9740
 8452SOL     OW36817   0.659   0.747  12.828  0.0543 -0.0848 -0.5076
 8452SOL    HW136818   0.662   0.842  12.816  2.5178 -0.1315 -0.1682
 8452SOL    HW236819   0.663   0.742  12.924  0.7268 -1.2230 -0.5915
 8453SOL     OW36820   1.187   0.257   4.820  0.8697 -0.3453 -0.1982
 8453SOL    HW136821   1.158   0.226   4.734  0.4367  0.6142 -0.3970
 8453SOL    HW236822   1.109   0.301   4.855 -0.9806 -1.3344 -3.1081
 8454SOL     OW36823   3.891   4.166   4.651 -0.0322  0.1584 -0.0796
 8454SOL    HW136824   3.947   4.226   4.601 -0.4307 -0.4357 -1.2483
 8454SOL    HW236825   3.915   4.081   4.614 -0.9312 -0.0533 -0.1630
 8455SOL     OW36826   3.168   1.433   6.440  0.7038  0.0733  0.5522
 8455SOL    HW136827   3.109   1.457   6.512  1.4462 -0.1191  1.2304
 8455SOL    HW236828   3.247   1.458   6.488  1.2397 -0.5732  0.0046
 8456SOL     OW36829   3.885   2.357  13.033  0.1754  0.1814 -0.2825
 8456SOL    HW136830   3.882   2.360  13.128 -2.6290 -0.2721 -0.3605
 8456SOL    HW236831   3.975   2.325  13.023  0.4126  0.3183  1.4004
 8457SOL     OW36832   2.555   0.358  15.034 -0.3489 -0.8482 -0.1704
 8457SOL    HW136833   2.520   0.300  15.101 -3.8162  0.2794 -0.9923
 8457SOL    HW236834   2.639   0.366  15.077 -0.3443  0.4810 -0.4106
 8458SOL     OW36835   4.672   0.576  11.663 -0.0474  0.1679  0.2643
 8458SOL    HW136836   4.640   0.651  11.613  0.4430  1.3297  1.6679
 8458SOL    HW236837   4.589   0.537  11.691 -1.1061  0.2125 -2.8745
 8459SOL     OW36838   1.118   1.794  14.560 -0.0413 -0.1776  0.0090
 8459SOL    HW136839   1.176   1.870  14.561 -0.9651  0.5332 -0.2838
 8459SOL    HW236840   1.104   1.786  14.465 -0.3481 -1.9665  0.2071
 8460SOL     OW36841   3.583   3.784  12.139 -0.1217 -0.1201  0.2500
 8460SOL    HW136842   3.537   3.867  12.138 -1.3491 -0.7843  2.4437
 8460SOL    HW236843   3.573   3.747  12.051 -1.5804  0.0624  0.3506
 8461SOL     OW36844   1.319   0.948   4.206  0.4450  0.4145 -0.7641
 8461SOL    HW136845   1.290   0.872   4.256  2.2616  2.8052  3.8973
 8461SOL    HW236846   1.247   1.010   4.218  0.1948 -0.1162  0.4430
 8462SOL     OW36847   0.002   2.216  14.855  0.4229 -0.0254 -0.1955
 8462SOL    HW136848   4.691   2.255  14.775 -1.2244 -0.8124  0.1735
 8462SOL    HW236849   0.034   2.137  14.810 -1.5954 -0.0190 -1.6564
 8463SOL     OW36850   4.480   4.302  13.782  0.0259 -0.0554  0.0176
 8463SOL    HW136851   4.517   4.214  13.783  0.3461  0.0788 -0.3291
 8463SOL    HW236852   4.547   4.343  13.837  0.3110  0.1803 -0.5143
 8464SOL     OW36853   3.167   4.635   4.020 -0.1208 -0.0401 -0.1469
 8464SOL    HW136854   3.090   4.692   4.013  1.6048  2.0909 -1.7416
 8464SOL    HW236855   3.128   4.556   3.981  0.6568 -1.7166  2.4502
 8465SOL     OW36856   2.689   4.483   6.776 -0.4072  0.1402  0.1605
 8465SOL    HW136857   2.669   4.390   6.767  4.1729 -0.8687  0.0897
 8465SOL    HW236858   2.780   4.486   6.744 -0.0816 -1.9987  0.8969
 8466SOL     OW36859   0.708   0.993   8.968  0.5705 -0.4052  0.7394
 8466SOL    HW136860   0.726   1.056   9.037  0.8133 -0.0314  0.3376
 8466SOL    HW236861   0.794   0.957   8.947  1.3360  1.0897  1.3799
 8467SOL     OW36862   0.324   1.945  13.792  0.0443  0.4050  0.5346
 8467SOL    HW136863   0.308   2.034  13.763  1.9928 -0.2511 -2.5734
 8467SOL    HW236864   0.320   1.954  13.887  0.4293 -2.0516  0.7947
 8468SOL     OW36865   1.343   0.225   3.264  0.1172 -0.1861 -0.5441
 8468SOL    HW136866   1.423   0.173   3.273  1.4266  1.9588  0.1115
 8468SOL    HW236867   1.277   0.162   3.295  1.5278 -0.5492  1.6686
 8469SOL     OW36868   4.270   3.208   4.813 -0.6053 -0.1641 -0.4316
 8469SOL    HW136869   4.207   3.240   4.878 -0.1780 -0.9558  0.3724
 8469SOL    HW236870   4.319   3.287   4.793 -0.5077 -0.2096 -0.3737
 8470SOL     OW36871   2.249   4.624   8.346 -0.1708  0.2598 -0.1690
 8470SOL    HW136872   2.197   4.566   8.290 -0.4353 -2.8441  3.2546
 8470SOL    HW236873   2.170   4.660   8.387 -0.7120 -0.6551 -0.3852
 8471SOL     OW36874   0.277   4.484   3.727  0.0785  0.3412  0.0059
 8471SOL    HW136875   0.351   4.428   3.749  0.1678  1.1981  1.8428
 8471SOL    HW236876   0.235   4.426   3.663  0.9693  0.2981 -0.5357
 8472SOL     OW36877   4.668   0.752  11.106  0.8826  0.0887  0.6213
 8472SOL    HW136878   4.580   0.790  11.105  0.8475 -0.0868 -2.2603
 8472SOL    HW236879   4.724   0.811  11.156  0.5139  1.7165 -0.9149
 8473SOL     OW36880   1.801   0.213   7.003  0.9129  0.2099 -0.2390
 8473SOL    HW136881   1.789   0.299   6.963  2.5234  0.6019  0.1214
 8473SOL    HW236882   1.897   0.212   7.009  0.8747  1.0990  0.6033
 8474SOL     OW36883   2.341   1.344   0.435 -1.0605  0.0117  0.2004
 8474SOL    HW136884   2.276   1.367   0.501 -0.0938  1.2920  0.7016
 8474SOL    HW236885   2.326   1.411   0.368  0.0450  0.5425  0.4741
 8475SOL     OW36886   4.403   1.579  11.760  0.2643 -0.3174 -0.1365
 8475SOL    HW136887   4.354   1.537  11.689  0.2703 -0.4914 -0.0387
 8475SOL    HW236888   4.329   1.603  11.816 -0.4435  0.5637 -1.4626
 8476SOL     OW36889   0.476   4.208   6.766  0.1700 -0.1810  0.1166
 8476SOL    HW136890   0.427   4.207   6.848  0.4659  0.0999  0.3001
 8476SOL    HW236891   0.560   4.250   6.786 -0.7469  0.7304  2.0959
 8477SOL     OW36892   3.427   2.761  11.893  0.9135 -0.0345  0.2116
 8477SOL    HW136893   3.408   2.710  11.813  0.9752  2.0745 -1.1389
 8477SOL    HW236894   3.504   2.713  11.925  1.5717  0.1691 -1.0475
 8478SOL     OW36895   4.177   3.567   3.691 -0.5268  0.5570 -0.0448
 8478SOL    HW136896   4.247   3.564   3.626  0.1029 -1.5747  0.7400
 8478SOL    HW236897   4.230   3.592   3.767 -1.5754  2.7540 -0.0391
 8479SOL     OW36898   2.409   4.179   2.050 -0.4801 -0.1609  0.2060
 8479SOL    HW136899   2.433   4.262   2.009 -0.2831  0.0778  0.8092
 8479SOL    HW236900   2.456   4.117   1.994 -0.1017 -0.5447  0.9449
 8480SOL     OW36901   0.120   1.274   5.528 -0.3845 -0.0324  0.3660
 8480SOL    HW136902   0.111   1.299   5.620 -1.9265  0.1860  0.1550
 8480SOL    HW236903   0.027   1.281   5.504  0.2245  0.6916 -1.7642
 8481SOL     OW36904   1.309   1.176   2.650  0.6168 -0.0030 -0.5412
 8481SOL    HW136905   1.271   1.217   2.728 -0.5216 -1.5568 -0.2961
 8481SOL    HW236906   1.250   1.105   2.625 -1.8306  1.4438  1.1350
 8482SOL     OW36907   1.940   1.784   4.233  0.7306  0.4537 -0.0987
 8482SOL    HW136908   1.990   1.829   4.301 -1.3757 -0.5500  2.1038
 8482SOL    HW236909   1.947   1.870   4.191 -2.2633  0.2170 -1.0454
 8483SOL     OW36910   1.983   0.540   3.553 -0.1148 -0.0991  0.3072
 8483SOL    HW136911   2.074   0.554   3.582  0.7274 -0.0493 -2.3324
 8483SOL    HW236912   1.998   0.514   3.462 -3.5356 -0.9214 -0.0154
 8484SOL     OW36913   3.744   3.908   2.185  0.6904  0.0371 -0.1432
 8484SOL    HW136914   3.651   3.927   2.181  0.3698 -1.9711 -2.0609
 8484SOL    HW236915   3.775   3.963   2.258 -2.0999  2.0304 -0.4554
 8485SOL     OW36916   0.632   1.095   5.038  0.3214 -0.2169  0.0476
 8485SOL    HW136917   0.700   1.073   5.101  1.3758 -0.2314 -1.1116
 8485SOL    HW236918   0.635   1.018   4.981 -2.6460  0.7461 -1.4210
 8486SOL     OW36919   1.045   3.979  12.372  0.4594 -0.5149  0.0080
 8486SOL    HW136920   1.001   3.910  12.323  0.7068 -1.0249  0.5072
 8486SOL    HW236921   1.008   3.969  12.460 -0.3761  1.0707 -0.1461
 8487SOL     OW36922   4.686   0.607   4.315  0.6855  0.0718 -0.5458
 8487SOL    HW136923   4.613   0.635   4.369 -1.5305 -0.6401 -3.1564
 8487SOL    HW236924   0.021   0.681   4.314 -1.2605  1.6556 -2.0524
 8488SOL     OW36925   0.588   0.254   8.309 -0.2191  0.1464 -0.0158
 8488SOL    HW136926   0.503   0.239   8.268 -0.8135 -1.8124  1.9042
 8488SOL    HW236927   0.607   0.161   8.325  3.4699  0.8056 -0.5969
 8489SOL     OW36928   1.084   0.460  12.963  0.5283 -0.5639 -0.1653
 8489SOL    HW136929   0.992   0.435  12.970 -0.1297  1.9337  0.1533
 8489SOL    HW236930   1.129   0.376  12.957 -1.9919 -1.8288 -1.3903
 8490SOL     OW36931   3.455   2.428   2.538 -0.1814  0.3303 -0.1330
 8490SOL    HW136932   3.516   2.423   2.612 -0.5806  0.1148  0.1822
 8490SOL    HW236933   3.464   2.522   2.523  2.7123  0.2029  0.8026
 8491SOL     OW36934   4.287   1.581  14.851 -0.3465 -0.0238  0.1250
 8491SOL    HW136935   4.255   1.558  14.764  1.5632  1.1785 -0.8909
 8491SOL    HW236936   4.228   1.527  14.905 -2.0382  0.7455 -0.9521
 8492SOL     OW36937   3.587   1.665   7.586 -0.3949  0.0596  0.2127
 8492SOL    HW136938   3.573   1.653   7.492  0.4730  0.7197  0.0015
 8492SOL    HW236939   3.676   1.634   7.603 -0.3806  0.8044  1.5778
 8493SOL     OW36940   0.989   4.475  11.396  0.4368 -0.2818 -0.1726
 8493SOL    HW136941   0.941   4.551  11.428 -0.1480 -0.5210 -0.4833
 8493SOL    HW236942   1.067   4.523  11.369  0.0574  1.0977  1.1854
 8494SOL     OW36943   0.172   1.397   9.020 -0.9192 -0.1119  0.0425
 8494SOL    HW136944   0.160   1.306   9.047  2.7346 -0.1646  1.5270
 8494SOL    HW236945   0.240   1.432   9.079 -0.3973 -1.1801  0.0751
 8495SOL     OW36946   0.425   1.914   0.151  0.0509 -0.0858 -0.4974
 8495SOL    HW136947   0.433   1.829   0.107  2.2527 -0.7870  1.2602
 8495SOL    HW236948   0.490   1.967   0.104 -2.2658  1.3476 -2.0884
 8496SOL     OW36949   3.961   0.753   4.282 -0.0999  0.1549  0.2229
 8496SOL    HW136950   3.942   0.660   4.294 -1.0440  0.0553 -2.0205
 8496SOL    HW236951   3.869   0.780   4.281 -0.2729 -0.5689 -2.1639
 8497SOL     OW36952   2.189   1.792   8.501 -0.5138 -0.4721  0.6724
 8497SOL    HW136953   2.217   1.794   8.409  0.0031  0.2276  0.8493
 8497SOL    HW236954   2.130   1.867   8.509  0.6086  0.3697  0.9977
 8498SOL     OW36955   4.628   3.453  12.990  0.4070  0.0822 -0.2152
 8498SOL    HW136956   4.625   3.493  13.077 -0.0747 -0.0448 -0.1737
 8498SOL    HW236957   4.721   3.465  12.973  0.3010  0.7365 -0.3209
 8499SOL     OW36958   2.406   3.985   6.966  0.5830 -0.4221  0.0176
 8499SOL    HW136959   2.332   3.934   6.932  0.4926  0.1960 -0.7077
 8499SOL    HW236960   2.373   4.008   7.053  2.2282  0.4763  0.3889
 8500SOL     OW36961   2.640   1.197   0.227  0.2472 -0.6849 -1.2793
 8500SOL    HW136962   2.551   1.171   0.251  1.3050  0.3659  3.8140
 8500SOL    HW236963   2.689   1.188   0.309 -0.5016 -0.8592 -0.8530
 8501SOL     OW36964   1.798   4.596   3.575 -0.2743  0.2028 -0.0345
 8501SOL    HW136965   1.753   4.569   3.494  2.1556  2.3058 -2.0721
 8501SOL    HW236966   1.886   4.617   3.545  0.5753 -0.0299  2.3368
 8502SOL     OW36967   4.426   3.425   4.760 -0.1440  0.5062 -0.3200
 8502SOL    HW136968   4.389   3.512   4.745  2.0986  1.4459 -0.4944
 8502SOL    HW236969   4.498   3.423   4.697 -0.4309  0.7486 -0.6579
 8503SOL     OW36970   2.953   2.090   8.743  0.0649  0.5114  0.2998
 8503SOL    HW136971   2.883   2.068   8.682  0.0503 -2.3005  1.3494
 8503SOL    HW236972   3.025   2.037   8.711 -0.3870  0.4931 -0.6809
 8504SOL     OW36973   1.130   4.317   8.198  0.4318 -0.2303  0.3817
 8504SOL    HW136974   1.195   4.250   8.221  1.3549 -0.0243 -1.5866
 8504SOL    HW236975   1.048   4.269   8.207  0.8814 -1.2624 -1.0000
 8505SOL     OW36976   4.326   4.345   6.987  0.0313  0.2687  0.2105
 8505SOL    HW136977   4.273   4.412   6.943  0.0080  0.3956  0.4312
 8505SOL    HW236978   4.414   4.381   6.977  0.2865 -0.3927  0.0886
 8506SOL     OW36979   0.395   0.551   1.363 -0.1642 -0.4671 -0.0733
 8506SOL    HW136980   0.484   0.519   1.350  1.1152  2.5366  1.1557
 8506SOL    HW236981   0.398   0.636   1.318 -4.0814 -0.5093 -0.4153
 8507SOL     OW36982   2.515   0.549   4.367 -0.1494 -0.0205 -0.0606
 8507SOL    HW136983   2.581   0.483   4.388 -0.7089  0.1116  2.0424
 8507SOL    HW236984   2.540   0.610   4.436 -0.6485  0.2662 -0.1286
 8508SOL     OW36985   2.725   2.939  16.629  0.0150 -0.9773  0.0849
 8508SOL    HW136986   2.707   3.003  16.560  0.4118 -1.3167 -0.3377
 8508SOL    HW236987   2.674   2.984  16.696  2.4951 -0.4019  1.5546
 8509SOL     OW36988   0.271   2.905   4.701 -0.0197  0.0356 -0.4475
 8509SOL    HW136989   0.263   2.826   4.647 -0.0743 -0.9098  0.9584
 8509SOL    HW236990   0.350   2.886   4.750 -0.7834 -1.0583  0.3683
 8510SOL     OW36991   2.604   0.255  14.789  0.3110  0.2015 -0.8066
 8510SOL    HW136992   2.597   0.287  14.879  0.6924  0.6364 -0.9324
 8510SOL    HW236993   2.526   0.200  14.777 -0.5419  1.2512 -0.0182
 8511SOL     OW36994   4.179   0.212   6.834 -0.3344 -0.0928 -0.4242
 8511SOL    HW136995   4.126   0.166   6.898  0.5173 -0.3397  0.0911
 8511SOL    HW236996   4.119   0.225   6.760  1.7461 -0.9575 -2.2868
 8512SOL     OW36997   4.142   2.121   8.297  0.3314 -0.2695 -0.4402
 8512SOL    HW136998   4.232   2.113   8.265 -0.3050  0.7212 -2.5077
 8512SOL    HW236999   4.154   2.186   8.366  0.4279  0.3713 -1.0578
 8513SOL     OW37000   0.998   0.816  11.962 -0.2338 -0.1418  0.0075
 8513SOL    HW137001   0.983   0.724  11.943  1.1723 -0.2105 -0.8176
 8513SOL    HW237002   0.905   0.838  11.954 -0.3425 -0.4679  0.3681
 8514SOL     OW37003   3.057   0.527   0.197 -0.2389  0.0476 -0.2795
 8514SOL    HW137004   3.100   0.442   0.189  0.5832  0.3496  1.0607
 8514SOL    HW237005   3.114   0.587   0.246  1.9678 -1.3049 -1.1880
 8515SOL     OW37006   4.299   1.198   9.415 -0.3017 -0.5224 -0.2167
 8515SOL    HW137007   4.234   1.159   9.357 -2.1585  2.1281  0.1014
 8515SOL    HW237008   4.376   1.159   9.373 -0.1348  0.1355 -0.5212
 8516SOL     OW37009   2.780   1.910   1.073  0.0116 -0.5457 -0.0573
 8516SOL    HW137010   2.754   1.971   1.004 -0.2185 -0.1872  0.3408
 8516SOL    HW237011   2.853   1.955   1.116  0.1408 -0.1416 -0.7109
 8517SOL     OW37012   4.003   0.705   2.847 -0.6202  0.1833  0.7618
 8517SOL    HW137013   4.061   0.653   2.791 -1.9316 -0.9834  0.4932
 8517SOL    HW237014   4.056   0.748   2.915  0.3590 -1.7878  1.2284
 8518SOL     OW37015   1.646   3.428   0.706  0.2312 -1.0021 -0.5893
 8518SOL    HW137016   1.665   3.490   0.777 -0.7261 -2.8754  1.3067
 8518SOL    HW237017   1.551   3.418   0.711  0.2809  0.2121  3.2849
 8519SOL     OW37018   1.492   3.963   5.548  0.7297  0.4803 -0.1263
 8519SOL    HW137019   1.571   4.017   5.541  2.3433 -1.9705 -1.1404
 8519SOL    HW237020   1.513   3.912   5.627 -2.7226 -1.5833 -0.5505
 8520SOL     OW37021   3.981   0.124   5.989  0.5831  0.1182 -0.0494
 8520SOL    HW137022   4.017   0.062   5.925  0.0550 -0.8064  0.5343
 8520SOL    HW237023   3.907   0.077   6.027  1.6169 -0.2126  1.5522
 8521SOL     OW37024   3.062   0.949   8.267 -0.1127  0.0243  0.1853
 8521SOL    HW137025   3.115   0.900   8.330 -1.2065  0.2310  1.2823
 8521SOL    HW237026   3.109   1.031   8.261 -0.9370  0.6294  1.8391
 8522SOL     OW37027   0.720   3.882   7.960 -0.1286 -0.2520 -0.2598
 8522SOL    HW137028   0.665   3.853   8.032  1.9798 -0.2836  1.3503
 8522SOL    HW237029   0.729   3.975   7.983 -1.7949  0.6733 -3.3859
 8523SOL     OW37030   1.635   4.643   4.121 -0.0451  0.5537  0.1219
 8523SOL    HW137031   1.555   4.695   4.115 -1.2913 -1.4072  0.0341
 8523SOL    HW237032   1.644   4.625   4.028 -0.5060 -0.1635  0.2139
 8524SOL     OW37033   4.138   1.795   3.676  0.1339  0.0139  0.1116
 8524SOL    HW137034   4.185   1.737   3.736  1.2702 -0.1384 -0.9309
 8524SOL    HW237035   4.156   1.874   3.727 -0.3182  1.5545 -2.1065
 8525SOL     OW37036   0.099   3.262   5.619 -0.2299  0.0783 -0.4283
 8525SOL    HW137037   0.184   3.303   5.629  0.2614 -0.4494 -2.5801
 8525SOL    HW237038   0.083   3.257   5.714 -0.6459 -2.5137 -0.6167
 8526SOL     OW37039   2.627   1.684   0.545  0.4555 -0.3783  0.2286
 8526SOL    HW137040   2.546   1.638   0.569 -1.2947  1.9813 -1.1076
 8526SOL    HW237041   2.629   1.740   0.622  2.8802 -0.4133  0.1871
 8527SOL     OW37042   3.400   0.614   7.182 -0.5718  0.6672 -0.3204
 8527SOL    HW137043   3.380   0.697   7.139  0.0362 -0.6701 -3.1541
 8527SOL    HW237044   3.495   0.617   7.181 -0.5093 -1.5512 -0.6871
 8528SOL     OW37045   1.383   1.661   7.869  0.6032  0.2897  0.0737
 8528SOL    HW137046   1.389   1.753   7.842 -0.2983  0.1787 -0.4787
 8528SOL    HW237047   1.476   1.640   7.878  0.8492  2.0047  1.5671
 8529SOL     OW37048   2.992   0.775  17.616 -0.1935  0.6073  0.0152
 8529SOL    HW137049   3.079   0.747  17.588 -0.4878  0.5868 -0.9046
 8529SOL    HW237050   3.002   0.860  17.573 -0.0673  0.1103 -0.9560
 8530SOL     OW37051   2.460   2.420   7.966 -0.3699  0.2377  0.1778
 8530SOL    HW137052   2.397   2.484   7.933 -0.3337 -0.7105 -1.7324
 8530SOL    HW237053   2.415   2.338   7.943  1.0411  0.0808 -2.0480
 8531SOL     OW37054   0.464   0.678   6.087  0.3819  0.1266  0.3291
 8531SOL    HW137055   0.382   0.629   6.091 -0.0617  1.0242  2.1074
 8531SOL    HW237056   0.451   0.726   6.006 -1.3081 -0.9262 -0.0157
 8532SOL     OW37057   2.515   2.874   9.837  0.4018 -0.6242 -0.4647
 8532SOL    HW137058   2.443   2.926   9.873  1.4004  1.1783 -1.0791
 8532SOL    HW237059   2.551   2.929   9.768  0.2175 -2.4253 -1.9996
 8533SOL     OW37060   3.832   4.216  14.805  0.5885  0.2765 -0.0466
 8533SOL    HW137061   3.820   4.306  14.773  3.0536  0.5106 -0.3063
 8533SOL    HW237062   3.926   4.219  14.789  0.4493  1.0210 -0.7383
 8534SOL     OW37063   0.662   0.929   7.097 -0.1039  0.1993  0.3164
 8534SOL    HW137064   0.679   1.000   7.159  2.2886 -0.7089  0.7085
 8534SOL    HW237065   0.701   0.859   7.150  0.9193  0.9536  0.5425
 8535SOL     OW37066   1.098   3.750   4.102 -0.1029  0.3738  0.3546
 8535SOL    HW137067   1.130   3.804   4.174  0.7156 -0.6036  0.7192
 8535SOL    HW237068   1.074   3.673   4.155 -0.2515  1.2027  1.4962
 8536SOL     OW37069   4.363   3.413   8.838 -0.0169  0.0664 -0.5250
 8536SOL    HW137070   4.414   3.494   8.832  1.2593 -0.4847  2.7780
 8536SOL    HW237071   4.402   3.383   8.920  1.0029 -1.1932 -1.4742
 8537SOL     OW37072   0.915   2.801   3.981  0.0592  0.2969  0.2590
 8537SOL    HW137073   1.002   2.806   3.943  0.9602 -0.4941  2.2364
 8537SOL    HW237074   0.862   2.819   3.903 -0.5574 -0.4239  0.5021
 8538SOL     OW37075   0.103   0.071   5.068  0.5609  0.1364  0.0503
 8538SOL    HW137076   0.059   0.040   4.989 -1.2009  2.1536  0.2520
 8538SOL    HW237077   0.035   0.055   5.133 -0.6062 -1.0439 -1.4453
 8539SOL     OW37078   0.990   3.971   9.781 -0.1894 -0.2493 -0.5331
 8539SOL    HW137079   1.066   3.993   9.836  0.1167 -2.0247 -0.2510
 8539SOL    HW237080   0.941   3.913   9.839  1.2152  0.2878  1.2061
 8540SOL     OW37081   3.148   3.247   3.546  0.3971 -0.6440 -0.0407
 8540SOL    HW137082   3.182   3.179   3.489 -2.2086  1.2747 -3.8988
 8540SOL    HW237083   3.130   3.313   3.480 -1.2321 -1.8332 -0.8160
 8541SOL     OW37084   0.738   1.152   7.256 -0.2466 -0.1027  0.9709
 8541SOL    HW137085   0.710   1.227   7.203 -2.3947 -0.1516  2.0100
 8541SOL    HW237086   0.775   1.181   7.339  0.5655 -0.5987  0.7878
 8542SOL     OW37087   4.381   1.081   8.788 -0.6690  0.1363 -0.8731
 8542SOL    HW137088   4.408   1.131   8.711  2.2776  0.2378  0.2354
 8542SOL    HW237089   4.303   1.031   8.763 -0.6214 -0.8239  0.9051
 8543SOL     OW37090   2.248   1.621   0.867  0.5979 -0.1473  0.4673
 8543SOL    HW137091   2.185   1.556   0.837  1.1768 -0.9366  0.9648
 8543SOL    HW237092   2.293   1.571   0.935  0.8623 -1.4251 -0.6562
 8544SOL     OW37093   4.407   2.097   5.128 -0.3288 -0.1410  0.8239
 8544SOL    HW137094   4.333   2.155   5.111  0.6475  0.6773 -0.6551
 8544SOL    HW237095   4.424   2.110   5.221  0.5336 -0.6881  0.7396
 8545SOL     OW37096   3.192   3.360   4.451  0.2862 -0.2719  0.2367
 8545SOL    HW137097   3.263   3.424   4.449 -0.5090  0.5836 -0.7503
 8545SOL    HW237098   3.125   3.403   4.505  1.0783 -1.0017  1.8061
 8546SOL     OW37099   2.754   3.698   6.992 -0.5173  0.6804 -0.3204
 8546SOL    HW137100   2.735   3.787   6.963 -0.7344  1.2901  1.6768
 8546SOL    HW237101   2.673   3.657   7.024  1.1019 -2.4187 -0.2064
 8547SOL     OW37102   3.548   1.045   8.343 -0.1824 -0.9003  0.0899
 8547SOL    HW137103   3.486   1.064   8.272  0.4011  0.4819 -0.0357
 8547SOL    HW237104   3.540   0.950   8.350 -1.3611 -1.0358 -3.4528
 8548SOL     OW37105   0.647   3.444   4.739 -1.0261 -0.2854  0.1331
 8548SOL    HW137106   0.567   3.486   4.708 -0.8401  0.4037  0.5728
 8548SOL    HW237107   0.641   3.366   4.685  0.2438 -0.5762  0.3977
 8549SOL     OW37108   1.226   4.380   3.614 -0.1320 -0.3648  0.1093
 8549SOL    HW137109   1.253   4.459   3.567 -1.1555 -0.8837 -1.3504
 8549SOL    HW237110   1.157   4.362   3.550 -0.1950 -1.6627  0.5598
 8550SOL     OW37111   3.182   0.284   0.225  0.0229  0.3348 -0.3710
 8550SOL    HW137112   3.226   0.268   0.308 -2.2195 -0.3008  0.6889
 8550SOL    HW237113   3.135   0.201   0.216 -2.2715  1.4586  1.1254
 8551SOL     OW37114   0.941   4.537   0.932  0.3316  0.1192 -0.0538
 8551SOL    HW137115   0.927   4.470   0.999  2.0392 -0.4441 -0.2697
 8551SOL    HW237116   0.968   4.609   0.989 -1.6200  2.6129 -2.2813
 8552SOL     OW37117   3.327   2.370   5.535 -0.5251  0.1786 -0.3398
 8552SOL    HW137118   3.350   2.322   5.455 -2.6295 -0.5051 -0.5217
 8552SOL    HW237119   3.270   2.439   5.502 -1.7147 -0.2232  0.8862
 8553SOL     OW37120   2.071   2.583   5.928 -0.1928  0.0484 -0.6550
 8553SOL    HW137121   2.163   2.592   5.953 -0.6596 -2.4316  1.9098
 8553SOL    HW237122   2.057   2.667   5.883 -1.2135 -0.1258 -0.6591
 8554SOL     OW37123   0.864   2.901  14.065 -0.3549 -0.0452  0.5345
 8554SOL    HW137124   0.903   2.843  14.131  1.0995  0.6787  0.3027
 8554SOL    HW237125   0.785   2.929  14.112 -0.6764 -0.6167  0.3376
 8555SOL     OW37126   0.134   3.578   6.478  0.0403  0.1569  0.6968
 8555SOL    HW137127   0.160   3.631   6.402  2.7450 -0.1195  1.4403
 8555SOL    HW237128   0.039   3.586   6.484 -0.2499 -1.5560 -1.5420
 8556SOL     OW37129   0.855   0.055  13.648 -0.7924 -0.0046  0.3915
 8556SOL    HW137130   0.922   0.093  13.705  0.4556 -0.6104 -0.7019
 8556SOL    HW237131   0.795   0.129  13.632  1.3157  1.4774 -0.6117
 8557SOL     OW37132   3.866   0.965   2.713  0.1735 -0.2878  0.1561
 8557SOL    HW137133   3.809   0.997   2.782  0.8502 -3.1182  2.0671
 8557SOL    HW237134   3.942   0.933   2.762 -0.8448 -1.2635  1.1120
 8558SOL     OW37135   0.175   1.955   8.317 -0.1373 -0.2841  0.2302
 8558SOL    HW137136   0.087   1.989   8.299  0.3899  1.4442  0.9765
 8558SOL    HW237137   0.236   2.017   8.279  0.6063 -1.7934 -1.0398
 8559SOL     OW37138   0.480   2.216   8.902 -0.2193 -0.1084 -0.6700
 8559SOL    HW137139   0.385   2.232   8.901  0.2008  2.1319 -2.6843
 8559SOL    HW237140   0.500   2.167   8.982 -2.0220 -0.4524 -0.4322
 8560SOL     OW37141   4.178   1.286   0.030  0.3531  0.1200 -0.0958
 8560SOL    HW137142   4.240   1.328  17.672  1.5045 -1.6092 -0.1379
 8560SOL    HW237143   4.237   1.280   0.105 -2.7601  2.0503  2.5080
 8561SOL     OW37144   1.322   4.124   2.989  0.0346 -0.3316 -0.2527
 8561SOL    HW137145   1.286   4.193   2.932 -0.7650 -1.3353 -0.9542
 8561SOL    HW237146   1.247   4.067   3.006  1.3603 -1.7191  0.9103
 8562SOL     OW37147   0.641   0.012   8.445 -0.1702  0.1842 -0.3702
 8562SOL    HW137148   0.581   4.671   8.478  0.0522 -0.6728 -1.6832
 8562SOL    HW237149   0.647   0.064   8.525 -1.8685  0.5208 -0.4647
 8563SOL     OW37150   1.089   1.371   4.880  0.2104  0.6397 -0.0184
 8563SOL    HW137151   1.119   1.398   4.793 -2.0407 -0.5914 -1.1764
 8563SOL    HW237152   1.150   1.299   4.893  2.2488  2.1406 -1.2171
 8564SOL     OW37153   4.215   2.935   8.498 -0.3980  0.0954  0.1493
 8564SOL    HW137154   4.172   3.019   8.481 -2.0460 -0.4793  1.5143
 8564SOL    HW237155   4.210   2.890   8.413 -0.7731  0.0699  0.1867
 8565SOL     OW37156   4.370   0.728  17.394 -0.1614  0.1557  0.3044
 8565SOL    HW137157   4.311   0.782  17.447  0.9915  0.2084  1.5226
 8565SOL    HW237158   4.450   0.779  17.388  0.7261 -1.2996 -0.0454
 8566SOL     OW37159   4.393   3.867  16.708 -0.0666 -0.3121  0.0121
 8566SOL    HW137160   4.368   3.855  16.799 -0.8886  2.3150  0.1483
 8566SOL    HW237161   4.327   3.816  16.661 -0.5868 -1.6282  2.1774
 8567SOL     OW37162   3.343   1.331  10.664  0.6409  0.5324 -0.2009
 8567SOL    HW137163   3.318   1.384  10.588  0.8251 -1.4436 -1.6508
 8567SOL    HW237164   3.270   1.355  10.720 -1.7183 -1.1763 -2.5125
 8568SOL     OW37165   3.183   0.509   8.500 -0.1798 -0.7861 -0.0856
 8568SOL    HW137166   3.174   0.554   8.584 -0.9795 -0.9380 -0.0890
 8568SOL    HW237167   3.130   0.432   8.518 -1.6054  0.2216  0.0323
 8569SOL     OW37168   1.612   0.555   5.454 -0.2721  0.0755  0.2917
 8569SOL    HW137169   1.615   0.651   5.458 -0.5670  0.0396  1.3563
 8569SOL    HW237170   1.666   0.540   5.532 -1.4253  0.3757  1.1558
 8570SOL     OW37171   4.694   0.240   8.611 -0.3429 -0.3774  0.6195
 8570SOL    HW137172   0.057   0.203   8.615 -0.1155  0.2408  1.4086
 8570SOL    HW237173   4.681   0.271   8.701 -0.8648 -3.2235  1.5115
 8571SOL     OW37174   0.010   1.378   4.022 -0.4914  0.3855  0.0683
 8571SOL    HW137175   0.011   1.294   4.068 -0.5622  1.0945  1.3691
 8571SOL    HW237176   0.103   1.399   4.009 -0.9559  1.5006 -1.4880
 8572SOL     OW37177   0.049   0.228  12.908 -0.1582 -0.3077  0.6193
 8572SOL    HW137178   4.716   0.173  12.856 -0.8148 -0.9904  2.0733
 8572SOL    HW237179   0.099   0.164  12.957  1.5466  1.5159  1.2433
 8573SOL     OW37180   2.733   4.052  12.403 -0.5233 -0.4542 -0.8557
 8573SOL    HW137181   2.796   3.985  12.379 -0.2241 -0.5466  0.1837
 8573SOL    HW237182   2.746   4.127  12.345 -0.6094 -0.4143 -0.8244
 8574SOL     OW37183   1.027   0.624  12.324 -0.0382 -0.3777  0.5931
 8574SOL    HW137184   1.109   0.671  12.309  0.0527 -0.4002  1.0390
 8574SOL    HW237185   1.027   0.609  12.418 -2.1767 -2.2617  0.2859
 8575SOL     OW37186   0.284   3.642   8.239 -0.5704  0.5068  0.3428
 8575SOL    HW137187   0.241   3.620   8.321 -3.5713 -1.0269 -1.6281
 8575SOL    HW237188   0.234   3.719   8.212 -1.6019  0.0629  0.9761
 8576SOL     OW37189   4.426   1.671   7.218 -0.2920 -0.0293  0.1392
 8576SOL    HW137190   4.486   1.597   7.209  1.0256  1.0433  0.1553
 8576SOL    HW237191   4.464   1.706   7.299 -1.1043  0.6592  0.2311
 8577SOL     OW37192   4.235   3.155   9.115 -0.2391 -0.6894 -0.3123
 8577SOL    HW137193   4.280   3.089   9.063 -1.7532 -1.7079 -0.3343
 8577SOL    HW237194   4.237   3.233   9.060  4.4849 -0.1431  0.6464
 8578SOL     OW37195   1.099   2.486   2.504 -0.6557  0.1215  0.7615
 8578SOL    HW137196   1.009   2.456   2.512 -1.6826  2.3592 -2.6367
 8578SOL    HW237197   1.135   2.486   2.594 -0.1484  2.0627  0.5619
 8579SOL     OW37198   1.032   3.520   6.686 -0.2626  0.1472  0.8483
 8579SOL    HW137199   0.987   3.512   6.770  0.1163  1.2276  1.1551
 8579SOL    HW237200   0.965   3.560   6.632 -2.6105 -0.5297  3.2527
 8580SOL     OW37201   2.198   1.716   5.542 -0.9165 -0.0612  0.0900
 8580SOL    HW137202   2.147   1.786   5.584  2.4852  2.0808  0.6733
 8580SOL    HW237203   2.257   1.766   5.485 -2.0394  0.2594 -0.7961
 8581SOL     OW37204   4.277   2.718  17.189 -0.4505 -0.0866 -0.2278
 8581SOL    HW137205   4.293   2.783  17.121  1.3293 -0.2341  0.0502
 8581SOL    HW237206   4.369   2.697  17.206 -1.0269 -1.2440  1.4821
 8582SOL     OW37207   3.605   3.892   3.914 -0.2612 -0.3216  0.6881
 8582SOL    HW137208   3.645   3.950   3.849 -0.3819 -0.2085  0.7155
 8582SOL    HW237209   3.540   3.848   3.859  0.7317 -2.3734  1.1658
 8583SOL     OW37210   4.282   4.364   0.517  0.7531 -0.0762  0.1134
 8583SOL    HW137211   4.314   4.337   0.431 -2.1507  0.5557 -1.1544
 8583SOL    HW237212   4.359   4.342   0.569 -0.6274 -0.7272  1.8992
 8584SOL     OW37213   2.551   4.411   5.785 -0.0155  0.4405  0.2757
 8584SOL    HW137214   2.594   4.327   5.771 -0.6862  0.3283 -1.0836
 8584SOL    HW237215   2.472   4.394   5.734  0.2389 -0.6589  0.2410
 8585SOL     OW37216   0.601   1.751   4.671 -0.2081 -0.0566  0.1690
 8585SOL    HW137217   0.649   1.709   4.743  1.8213  1.9052 -0.0427
 8585SOL    HW237218   0.515   1.759   4.711  0.8868 -1.8958  2.8570
 8586SOL     OW37219   0.379   3.620  13.605 -0.7686  0.1169 -0.0972
 8586SOL    HW137220   0.373   3.635  13.700 -0.7071  0.8486 -0.2068
 8586SOL    HW237221   0.290   3.584  13.598 -0.3215 -0.8662 -0.6445
 8587SOL     OW37222   3.569   2.426   6.152  0.2524  0.0535 -0.1480
 8587SOL    HW137223   3.588   2.455   6.241 -0.2720  2.6099 -0.8452
 8587SOL    HW237224   3.601   2.336   6.157 -1.1802 -0.5233 -1.3911
 8588SOL     OW37225   2.325   1.093   2.254  0.2678 -0.0687 -0.5887
 8588SOL    HW137226   2.413   1.061   2.273 -0.2351 -0.2003  1.4522
 8588SOL    HW237227   2.277   1.069   2.333  1.5997 -0.3248  0.1373
 8589SOL     OW37228   2.914   3.057   4.484 -0.2085 -0.5235  0.3901
 8589SOL    HW137229   2.892   3.038   4.575 -2.0608  1.3455  0.3439
 8589SOL    HW237230   2.983   2.993   4.465  1.2637  1.2250 -0.1804
 8590SOL     OW37231   3.037   2.523   3.867  0.2267  0.4325 -0.5117
 8590SOL    HW137232   2.952   2.565   3.857  1.8576  3.1727 -3.0374
 8590SOL    HW237233   3.006   2.435   3.846  1.5562 -0.2032  0.1492
 8591SOL     OW37234   4.115   4.336   4.879  0.2761  0.5311 -0.7733
 8591SOL    HW137235   4.110   4.266   4.814  0.8276 -1.8403  1.7515
 8591SOL    HW237236   4.185   4.309   4.939 -1.7095 -1.2372  0.7070
 8592SOL     OW37237   3.371   2.504   4.728 -0.2476  0.0969 -0.1065
 8592SOL    HW137238   3.459   2.540   4.717 -0.3930  0.4403 -0.1450
 8592SOL    HW237239   3.376   2.420   4.682  1.6444  0.4189 -0.4652
 8593SOL     OW37240   1.040   2.088   3.205 -0.0249 -0.1513 -0.0725
 8593SOL    HW137241   1.092   2.105   3.283 -0.7900  2.3082 -0.1050
 8593SOL    HW237242   0.960   2.061   3.251 -1.6606  3.3005 -0.8809
 8594SOL     OW37243   0.867   1.890   3.678 -0.1871 -0.1604  0.3627
 8594SOL    HW137244   0.846   1.868   3.769 -0.5759 -0.2660  0.2454
 8594SOL    HW237245   0.896   1.981   3.683 -0.9243  0.1794 -1.7222
 8595SOL     OW37246   0.470   0.969  11.901 -0.0917  0.5050  0.0725
 8595SOL    HW137247   0.405   0.986  11.832 -0.5769  0.8376  0.6101
 8595SOL    HW237248   0.428   1.010  11.977  1.1248  1.4476  0.2277
 8596SOL     OW37249   2.573   2.646   8.960 -0.2757 -0.1722  0.5478
 8596SOL    HW137250   2.600   2.676   9.047 -0.7259  2.0425 -0.0699
 8596SOL    HW237251   2.510   2.712   8.931 -0.5192 -0.9994 -0.8393
 8597SOL     OW37252   2.715   1.882   6.484  0.2161  0.0816 -0.3526
 8597SOL    HW137253   2.628   1.854   6.454 -0.2292 -0.1164  1.0966
 8597SOL    HW237254   2.683   1.943   6.551  0.3483 -0.6523  0.3805
 8598SOL     OW37255   3.214   3.477   8.324  0.5127  0.5390  0.1073
 8598SOL    HW137256   3.123   3.507   8.321 -0.1065 -1.2173  1.7441
 8598SOL    HW237257   3.199   3.410   8.390  0.7458  1.4062  1.0390
 8599SOL     OW37258   2.042   2.390   6.368 -0.2584  0.1264 -0.3492
 8599SOL    HW137259   2.018   2.394   6.275 -1.3014 -0.1503 -0.0895
 8599SOL    HW237260   2.067   2.478   6.398  1.7510 -0.4345 -0.3587
 8600SOL     OW37261   4.239   2.721   9.829 -0.4230 -0.2792  1.0649
 8600SOL    HW137262   4.211   2.630   9.824 -0.5788 -0.0681 -1.5232
 8600SOL    HW237263   4.218   2.731   9.922  1.5381  0.6959  1.3994
 8601SOL     OW37264   1.310   2.728   8.561 -0.1519  0.2437 -0.6500
 8601SOL    HW137265   1.385   2.723   8.502  0.5281 -0.9249  0.3088
 8601SOL    HW237266   1.319   2.820   8.585 -0.2239 -0.0677  0.6053
 8602SOL     OW37267   2.633   1.091   1.215  1.0980  0.2561 -0.2025
 8602SOL    HW137268   2.555   1.046   1.247  1.0615 -1.2090 -2.3294
 8602SOL    HW237269   2.624   1.066   1.123  0.7034 -0.6231  0.0773
 8603SOL     OW37270   3.893   2.157   2.726  0.4031 -0.4845  0.2266
 8603SOL    HW137271   3.915   2.250   2.737  0.0528 -0.6440  2.1030
 8603SOL    HW237272   3.866   2.140   2.816 -1.5754 -2.5415 -0.7681
 8604SOL     OW37273   3.368   0.329  11.361 -0.3140  0.1739  0.2254
 8604SOL    HW137274   3.422   0.282  11.425  0.2906  1.6318  0.7923
 8604SOL    HW237275   3.357   0.250  11.308  1.3529 -0.1066  0.3041
 8605SOL     OW37276   4.166   3.021  11.850 -0.2104  0.2058  0.0744
 8605SOL    HW137277   4.081   2.977  11.845  1.1606 -2.4594 -0.2099
 8605SOL    HW237278   4.195   3.028  11.759 -0.3834 -1.6893 -0.1375
 8606SOL     OW37279   2.650   3.196  10.032  0.1357 -0.2466  0.0592
 8606SOL    HW137280   2.560   3.191   9.998 -0.0966  1.9267  0.3401
 8606SOL    HW237281   2.634   3.267  10.094  1.0926  0.6995 -0.7784
 8607SOL     OW37282   1.912   2.308   1.290  0.6050  0.2739  0.5967
 8607SOL    HW137283   1.860   2.236   1.325  1.3987 -0.2964  0.6290
 8607SOL    HW237284   1.862   2.388   1.304 -0.2915 -0.1743 -0.0764
 8608SOL     OW37285   2.703   4.301   1.738  0.3807 -0.4075  0.0732
 8608SOL    HW137286   2.721   4.269   1.826 -1.3294  1.8713  1.2330
 8608SOL    HW237287   2.778   4.359   1.731 -0.9842  1.5183  1.4749
 8609SOL     OW37288   1.461   3.631   2.839  0.2701 -0.0201  0.0604
 8609SOL    HW137289   1.380   3.646   2.789  0.5460 -0.3106 -0.4692
 8609SOL    HW237290   1.476   3.723   2.862 -3.4791 -0.1101  2.8527
 8610SOL     OW37291   2.477   1.166  14.641 -0.5241  0.2440 -0.6834
 8610SOL    HW137292   2.503   1.232  14.706 -1.0067 -0.0142 -0.2291
 8610SOL    HW237293   2.521   1.095  14.687 -0.5432  2.4781  2.8542
 8611SOL     OW37294   2.640   1.676  10.392 -0.0213 -0.2543 -0.6488
 8611SOL    HW137295   2.726   1.706  10.421 -0.8982  1.7628 -0.1529
 8611SOL    HW237296   2.623   1.600  10.448 -0.7851 -0.3135 -0.9592
 8612SOL     OW37297   1.103   4.376   7.618 -0.0909  0.2072 -0.9149
 8612SOL    HW137298   1.196   4.385   7.599 -0.5170  1.3433 -2.4400
 8612SOL    HW237299   1.090   4.467   7.646 -0.7540 -0.4161  0.8234
 8613SOL     OW37300   4.211   3.648   8.643  0.3975  0.1745  0.4256
 8613SOL    HW137301   4.119   3.639   8.666  0.2034 -1.4805 -1.0135
 8613SOL    HW237302   4.252   3.695   8.716 -0.3391  1.2149  0.1651
 8614SOL     OW37303   2.546   2.548   1.292  0.3101 -0.2285 -0.0805
 8614SOL    HW137304   2.471   2.538   1.351  0.2530  0.1519 -0.0884
 8614SOL    HW237305   2.515   2.490   1.223 -1.5973  0.2589  0.3574
 8615SOL     OW37306   2.112   0.841   5.676  0.3079 -0.4541 -0.1086
 8615SOL    HW137307   2.057   0.828   5.598  1.3552  0.6944 -1.0494
 8615SOL    HW237308   2.171   0.767   5.660 -1.3565 -1.7390 -0.2394
 8616SOL     OW37309   0.865   1.901  11.929  0.3789 -0.0785 -0.3814
 8616SOL    HW137310   0.779   1.868  11.957  2.0509 -3.3602  0.8278
 8616SOL    HW237311   0.908   1.854  12.000 -1.1463  2.9254  2.4799
 8617SOL     OW37312   4.117   2.162   4.626 -0.2582 -0.0166  0.2662
 8617SOL    HW137313   4.208   2.180   4.649 -0.0865 -0.3990 -0.1077
 8617SOL    HW237314   4.117   2.129   4.536 -0.7945  3.7974 -1.1424
 8618SOL     OW37315   1.096   1.447   8.714 -0.0996 -0.1404 -0.8150
 8618SOL    HW137316   1.127   1.450   8.624 -0.4985  0.2880 -0.9385
 8618SOL    HW237317   1.160   1.499   8.763  0.3071  0.6336 -2.1557
 8619SOL     OW37318   2.238   1.828   2.282 -0.5464  0.4277 -0.3694
 8619SOL    HW137319   2.259   1.903   2.338  0.2752  1.1273 -1.6281
 8619SOL    HW237320   2.244   1.759   2.349 -1.6561  0.5568 -0.1388
 8620SOL     OW37321   2.936   0.267  10.264  0.0779 -0.2297  0.7104
 8620SOL    HW137322   2.989   0.216  10.325  0.0854  0.3248  1.1715
 8620SOL    HW237323   2.955   0.220  10.182 -1.3599  0.0387  0.2151
 8621SOL     OW37324   2.258   2.528   3.168 -0.3638  0.4415  0.0811
 8621SOL    HW137325   2.304   2.446   3.186  0.2666  0.8801  0.4900
 8621SOL    HW237326   2.224   2.552   3.254 -0.4495 -0.1568  0.2149
 8622SOL     OW37327   3.726   0.025   3.593  0.0766  0.2643  0.5042
 8622SOL    HW137328   3.756   4.690   3.525 -0.5488  0.5243  0.0026
 8622SOL    HW237329   3.794   0.009   3.659  1.0770 -0.3261 -0.6585
 8623SOL     OW37330   3.721   1.354   1.654  0.3013 -0.2033 -0.9254
 8623SOL    HW137331   3.789   1.288   1.642 -0.2198 -1.0131  0.5426
 8623SOL    HW237332   3.670   1.305   1.719  1.9605 -1.6767 -0.7333
 8624SOL     OW37333   0.485   4.286   3.125 -0.4453  0.0027  0.5015
 8624SOL    HW137334   0.471   4.218   3.059  0.3579  0.1568  0.1750
 8624SOL    HW237335   0.576   4.306   3.102 -0.6723 -2.0733 -2.2360
 8625SOL     OW37336   1.828   2.842   5.672  0.3521  0.3514  0.3007
 8625SOL    HW137337   1.817   2.806   5.760 -0.8705 -2.6889 -1.1113
 8625SOL    HW237338   1.916   2.814   5.651  0.3830 -0.3267  1.3387
 8626SOL     OW37339   0.805   0.838   8.115 -0.1059 -0.2806 -0.0000
 8626SOL    HW137340   0.884   0.872   8.072 -0.0862 -0.6286 -0.2373
 8626SOL    HW237341   0.828   0.873   8.201  0.7619  1.1725 -0.8251
 8627SOL     OW37342   2.178   2.989  14.232 -0.1204 -0.1156 -0.4250
 8627SOL    HW137343   2.138   3.040  14.161 -1.7624  1.2967  1.5268
 8627SOL    HW237344   2.190   3.052  14.302  3.0079 -2.4234  1.0956
 8628SOL     OW37345   3.919   0.812   7.708 -0.1053  0.3727 -0.0703
 8628SOL    HW137346   3.909   0.903   7.738  0.3234 -0.6194  2.9759
 8628SOL    HW237347   4.013   0.800   7.701 -0.2481  0.9809 -3.0633
 8629SOL     OW37348   3.032   4.663   5.922 -0.5324 -0.2340 -0.0474
 8629SOL    HW137349   2.986   4.670   5.839 -1.3754 -1.8763  0.2745
 8629SOL    HW237350   3.032   0.032   5.943  1.3690 -0.3921  0.6756
 8630SOL     OW37351   3.133   2.478   2.764 -0.1193  0.2359 -0.4841
 8630SOL    HW137352   3.056   2.481   2.706 -0.4073 -0.0371 -0.1147
 8630SOL    HW237353   3.191   2.445   2.695 -0.4222  0.8983 -1.0570
 8631SOL     OW37354   0.037   4.552  17.095  0.3338 -0.0171  0.5058
 8631SOL    HW137355   0.126   4.587  17.098  0.2356  0.1197  1.8680
 8631SOL    HW237356   4.708   4.632  17.093  0.0545 -0.1757  1.7391
 8632SOL     OW37357   0.167   3.728  13.051 -0.3300  0.5373 -0.2194
 8632SOL    HW137358   0.173   3.639  13.018  0.5635  0.4273  0.2489
 8632SOL    HW237359   0.217   3.720  13.132  1.4560  2.2466 -1.1449
 8633SOL     OW37360   1.294   4.513   9.883  0.0804  0.1038  0.1510
 8633SOL    HW137361   1.250   4.574   9.942 -0.7435  0.5740 -0.9424
 8633SOL    HW237362   1.378   4.558   9.872 -0.6229  1.9693  2.4141
 8634SOL     OW37363   0.574   0.701   8.167 -0.2211  0.0677  0.3368
 8634SOL    HW137364   0.532   0.773   8.214 -0.9992 -0.5790  0.6264
 8634SOL    HW237365   0.654   0.743   8.133  3.0360 -3.7748  3.3331
 8635SOL     OW37366   1.749   3.087   9.601  0.4195 -0.0684 -0.5032
 8635SOL    HW137367   1.791   3.012   9.644  1.0078  1.8038  2.1787
 8635SOL    HW237368   1.745   3.138   9.682  1.1978  0.0943 -0.5647
 8636SOL     OW37369   1.049   0.868   1.936 -0.4275 -0.1165 -0.3764
 8636SOL    HW137370   1.060   0.777   1.963  2.4128  0.1947 -0.4406
 8636SOL    HW237371   0.969   0.857   1.884  0.3589 -0.0436 -1.5948
 8637SOL     OW37372   3.941   3.659  15.498 -0.1100 -0.2826 -0.3456
 8637SOL    HW137373   3.868   3.658  15.435 -0.3784 -2.7824  0.0009
 8637SOL    HW237374   4.002   3.596  15.460 -2.4561 -1.2826 -2.4790
 8638SOL     OW37375   2.505   4.425   0.486  0.1760 -0.2214  0.1008
 8638SOL    HW137376   2.411   4.416   0.468 -0.2071  0.2193  1.8793
 8638SOL    HW237377   2.542   4.346   0.447  1.3118  0.8637 -1.0186
 8639SOL     OW37378   4.549   1.758   5.032  1.0071 -0.1368  0.4642
 8639SOL    HW137379   4.608   1.696   4.989  2.5383  3.1039 -2.1360
 8639SOL    HW237380   4.490   1.792   4.965  0.3490  1.7326  1.9720
 8640SOL     OW37381   3.413   0.246  12.479  0.2084  0.0371  0.6452
 8640SOL    HW137382   3.414   0.151  12.464 -0.0356  0.0944  0.2685
 8640SOL    HW237383   3.436   0.280  12.393 -2.1270 -2.5625 -1.0062
 8641SOL     OW37384   2.597   4.553   8.042  0.4977 -0.2370  0.1911
 8641SOL    HW137385   2.545   4.510   7.974 -1.5221 -0.2909  1.7458
 8641SOL    HW237386   2.671   4.587   7.992  1.5086 -0.0034  1.8410
 8642SOL     OW37387   2.267   1.231   0.929  0.3435 -0.2550 -0.1111
 8642SOL    HW137388   2.202   1.234   0.859  0.6929 -0.9612 -0.4608
 8642SOL    HW237389   2.303   1.320   0.930  0.3681 -0.2747  0.6594
 8643SOL     OW37390   4.449   3.745   9.435 -0.1065  0.2441  0.2847
 8643SOL    HW137391   4.424   3.757   9.344  4.3318 -0.8881 -1.1256
 8643SOL    HW237392   4.406   3.662   9.458  1.2665 -0.0174  2.0132
 8644SOL     OW37393   2.822   1.396   2.993 -0.3449 -0.6229 -0.1362
 8644SOL    HW137394   2.838   1.415   2.901 -1.6564 -1.0773 -0.4538
 8644SOL    HW237395   2.782   1.474   3.032  1.5986 -0.1137  0.8771
 8645SOL     OW37396   1.728   3.482   8.682 -0.2662 -0.0005 -0.2592
 8645SOL    HW137397   1.777   3.536   8.745 -2.0737  1.2344  0.0796
 8645SOL    HW237398   1.753   3.538   8.609  0.6484  1.2922  1.0289
 8646SOL     OW37399   2.383   3.613   7.815 -0.0675 -0.0802  0.1713
 8646SOL    HW137400   2.302   3.611   7.866  0.5493  0.3470  1.1586
 8646SOL    HW237401   2.438   3.541   7.845  0.2820 -0.6312 -1.7349
 8647SOL     OW37402   1.200   1.528   6.835  0.1989  0.1917 -0.6243
 8647SOL    HW137403   1.240   1.574   6.909 -1.2588 -3.0188  2.1412
 8647SOL    HW237404   1.113   1.568   6.830 -0.2747 -0.5987  1.4459
 8648SOL     OW37405   0.238   1.770  10.809  0.1670 -0.2902  0.2189
 8648SOL    HW137406   0.227   1.774  10.904 -0.5203  1.5883  0.0607
 8648SOL    HW237407   0.202   1.855  10.784  0.1194 -0.6353 -0.8790
 8649SOL     OW37408   0.101   2.435  14.975 -0.2870  0.1880 -0.0499
 8649SOL    HW137409   0.078   2.349  14.941  0.2200 -0.8545  2.1830
 8649SOL    HW237410   0.131   2.480  14.896  1.3915  0.2350  0.6118
 8650SOL     OW37411   1.876   0.649  14.761  0.0180  0.0003 -0.0542
 8650SOL    HW137412   1.840   0.730  14.723  0.9917 -0.0257 -1.0380
 8650SOL    HW237413   1.966   0.672  14.784 -0.1604  2.5305 -1.9319
 8651SOL     OW37414   1.682   3.909   9.162 -0.4298 -0.0167  0.1447
 8651SOL    HW137415   1.719   3.893   9.075  0.6778 -2.0697  0.9937
 8651SOL    HW237416   1.627   3.831   9.170 -2.3268  1.0439 -2.7507
 8652SOL     OW37417   2.623   3.867   9.563  0.2443  0.1236 -0.0080
 8652SOL    HW137418   2.638   3.930   9.634 -0.1230 -0.8993  0.9873
 8652SOL    HW237419   2.566   3.918   9.507  0.5396 -2.0294 -2.2613
 8653SOL     OW37420   1.069   0.384   2.391  0.1474 -0.0485 -0.6202
 8653SOL    HW137421   1.132   0.331   2.440  2.0861  1.3080 -1.6635
 8653SOL    HW237422   1.113   0.399   2.308  0.4504 -0.2496 -0.4933
 8654SOL     OW37423   2.083   1.029  14.718 -0.3680  0.2905  0.4947
 8654SOL    HW137424   2.146   1.101  14.706 -1.7337  1.2527 -1.0291
 8654SOL    HW237425   2.126   0.945  14.734 -0.7026 -0.0019 -0.1273
 8655SOL     OW37426   1.719   0.009   2.886  0.4140 -0.1251 -0.5958
 8655SOL    HW137427   1.652   4.685   2.933  0.9601 -0.5983 -0.3076
 8655SOL    HW237428   1.678   4.718   2.801  2.3844  0.5455 -1.6743
 8656SOL     OW37429   3.105   1.751   0.363 -0.8925 -0.3351 -0.0142
 8656SOL    HW137430   3.178   1.696   0.393 -0.9279  0.7499  2.1109
 8656SOL    HW237431   3.086   1.722   0.274  0.9638 -2.0734  0.1572
 8657SOL     OW37432   2.414   3.605   1.713  0.4147  0.1720  0.4164
 8657SOL    HW137433   2.430   3.513   1.693  1.3204  0.2402  0.8090
 8657SOL    HW237434   2.319   3.608   1.701  0.4157  1.5532  0.7282
 8658SOL     OW37435   2.808   2.004   8.152  0.3905 -0.4851  0.0851
 8658SOL    HW137436   2.815   2.089   8.195 -1.0118 -0.8212  0.9795
 8658SOL    HW237437   2.895   1.972   8.130 -0.2811 -1.4473 -1.2411
 8659SOL     OW37438   2.767   2.297  11.277  0.6447 -0.3246 -0.0086
 8659SOL    HW137439   2.729   2.218  11.315  0.7232 -0.7765 -0.8629
 8659SOL    HW237440   2.715   2.321  11.201 -1.6692 -0.0793  1.6594
 8660SOL     OW37441   2.580   3.796   3.168 -0.1839 -0.1719 -0.1731
 8660SOL    HW137442   2.554   3.825   3.080 -2.5337  2.4546  1.3547
 8660SOL    HW237443   2.495   3.765   3.200 -0.7262 -0.5082 -1.9334
 8661SOL     OW37444   0.221   1.244   9.391 -0.1408 -0.0990 -0.0312
 8661SOL    HW137445   0.283   1.310   9.424  0.6003 -0.2506 -1.1268
 8661SOL    HW237446   0.135   1.286   9.382  0.1794  0.4679 -0.4672
 8662SOL     OW37447   2.124   0.473   9.460  0.3007 -0.2271  0.1084
 8662SOL    HW137448   2.181   0.537   9.503 -0.6082  0.7284 -0.1243
 8662SOL    HW237449   2.183   0.402   9.434 -1.6245 -1.4660 -0.8263
 8663SOL     OW37450   1.604   1.687   3.210 -0.3993 -0.0166  0.7950
 8663SOL    HW137451   1.690   1.647   3.223 -1.3221 -2.2566 -0.0016
 8663SOL    HW237452   1.557   1.644   3.281 -1.2324  0.7932  0.7362
 8664SOL     OW37453   0.653   0.273   6.994  0.0091  0.0840 -0.5000
 8664SOL    HW137454   0.715   0.201   7.004 -0.2398  0.2102  2.0858
 8664SOL    HW237455   0.585   0.226   6.945 -1.4377  1.2608  0.3579
 8665SOL     OW37456   2.056   2.331   8.216  0.2536  0.1316 -0.0885
 8665SOL    HW137457   2.149   2.307   8.212 -0.3889 -2.3184 -0.0242
 8665SOL    HW237458   2.021   2.287   8.293 -1.3529  2.8058  0.7431
 8666SOL     OW37459   4.641   4.350   4.122 -0.5572 -0.4831  0.0649
 8666SOL    HW137460   4.674   4.333   4.034  0.2411 -0.6201  0.3931
 8666SOL    HW237461   4.693   4.427   4.147 -2.6293 -0.3207  4.0112
 8667SOL     OW37462   1.490   0.981   7.201 -0.8174 -0.2555  0.0131
 8667SOL    HW137463   1.512   0.956   7.291  0.3582  0.7011 -0.0064
 8667SOL    HW237464   1.404   1.017   7.220 -0.4010  0.5883  0.3437
 8668SOL     OW37465   3.706   1.635   2.876  0.1431 -0.0661 -0.0693
 8668SOL    HW137466   3.755   1.556   2.899  1.3872  0.8314  0.3630
 8668SOL    HW237467   3.708   1.671   2.964  0.9659  3.1012 -1.3940
 8669SOL     OW37468   3.066   2.257   3.358  0.4820  0.2832 -0.8043
 8669SOL    HW137469   3.138   2.315   3.383 -1.0139  1.2860  1.1681
 8669SOL    HW237470   3.106   2.174   3.386 -0.1946 -0.5218 -2.2318
 8670SOL     OW37471   4.712   3.650   4.498  0.0064 -0.2244 -0.0075
 8670SOL    HW137472   4.677   3.714   4.436 -2.6554  0.3810  2.1058
 8670SOL    HW237473   0.076   3.664   4.467  0.5665 -2.1770  0.7932
 8671SOL     OW37474   0.906   3.050   1.749  1.2173  0.4715  0.1637
 8671SOL    HW137475   0.881   2.961   1.774  1.0073  0.3811 -0.3805
 8671SOL    HW237476   0.833   3.100   1.786 -0.6186 -2.3650  0.3548
 8672SOL     OW37477   1.746   4.384   5.139 -0.0563 -0.1791 -0.2860
 8672SOL    HW137478   1.694   4.444   5.087 -3.0039 -1.4339  1.2093
 8672SOL    HW237479   1.736   4.420   5.227  2.6153  1.0913 -0.4780
 8673SOL     OW37480   1.363   3.389   2.926  0.1979 -0.4802 -0.3809
 8673SOL    HW137481   1.425   3.319   2.946  0.7286  1.2368  4.0088
 8673SOL    HW237482   1.420   3.466   2.926 -0.5570  0.0749  1.6865
 8674SOL     OW37483   2.332   2.855  10.189  0.0455  0.1535  0.5922
 8674SOL    HW137484   2.269   2.916  10.227  0.8223  1.2700  0.0809
 8674SOL    HW237485   2.354   2.907  10.112 -0.8517  1.2133  1.0619
 8675SOL     OW37486   2.811   0.983  17.352  0.3309 -0.0261 -0.2807
 8675SOL    HW137487   2.881   0.994  17.416  0.4071  0.4073 -0.4382
 8675SOL    HW237488   2.848   1.037  17.282  0.3199 -0.1960 -0.4172
 8676SOL     OW37489   2.449   2.845   6.707  0.1939 -0.1873  0.1961
 8676SOL    HW137490   2.405   2.914   6.657 -1.6084 -2.3537 -1.2599
 8676SOL    HW237491   2.404   2.849   6.791 -0.5567  0.4147 -0.2300
 8677SOL     OW37492   3.054   2.872   4.000  0.9179 -0.6512 -0.1799
 8677SOL    HW137493   3.034   2.948   4.055 -1.4170 -0.0426 -1.8748
 8677SOL    HW237494   2.969   2.834   3.977  0.4769  1.2025 -1.5949
 8678SOL     OW37495   2.481   4.568   7.585 -0.1907  0.5352  0.0038
 8678SOL    HW137496   2.441   4.648   7.552  1.9015  0.9553 -1.5262
 8678SOL    HW237497   2.528   4.546   7.504 -1.4994 -1.7862 -0.1411
 8679SOL     OW37498   3.455   3.332   6.608 -0.1696  0.2639 -0.3441
 8679SOL    HW137499   3.458   3.378   6.524  1.6590  2.1728  0.7763
 8679SOL    HW237500   3.398   3.260   6.581  1.2923  0.0190 -2.7861
 8680SOL     OW37501   4.558   4.678   3.730  0.3643  0.4397  0.0485
 8680SOL    HW137502   4.526   0.025   3.675 -1.8784 -0.8380 -0.2912
 8680SOL    HW237503   4.517   4.610   3.677 -0.2853  0.8187  0.0521
 8681SOL     OW37504   2.244   0.597   4.287 -0.3463  0.3465 -0.1211
 8681SOL    HW137505   2.248   0.625   4.195  2.1119 -0.5168 -0.2673
 8681SOL    HW237506   2.336   0.576   4.302  0.0352  1.0936 -1.3817
 8682SOL     OW37507   1.350   2.256   4.348  0.1586 -0.5158 -0.5197
 8682SOL    HW137508   1.349   2.171   4.393  2.1277 -0.4482 -0.3329
 8682SOL    HW237509   1.254   2.264   4.349  0.1076 -1.3035  1.9490
 8683SOL     OW37510   3.990   3.822   9.761 -0.1612 -0.2355 -0.6296
 8683SOL    HW137511   3.968   3.771   9.683  2.2843 -2.6583  0.2510
 8683SOL    HW237512   4.032   3.896   9.719 -1.7499 -0.4436 -2.5874
 8684SOL     OW37513   4.498   4.264  11.341  0.5140 -0.0170  0.1815
 8684SOL    HW137514   4.588   4.241  11.320  0.7061  2.8281 -2.1477
 8684SOL    HW237515   4.451   4.211  11.276  1.0380 -1.1719  0.7440
 8685SOL     OW37516   2.464   0.633  14.432 -0.0061 -0.5337 -0.2725
 8685SOL    HW137517   2.543   0.676  14.399 -0.0494 -0.9500 -0.9250
 8685SOL    HW237518   2.515   0.599  14.505  1.1564  0.1827 -0.7434
 8686SOL     OW37519   1.073   0.720  15.433  0.2577 -0.0932 -0.5439
 8686SOL    HW137520   1.046   0.732  15.343 -0.6334  3.2324  0.1958
 8686SOL    HW237521   1.131   0.794  15.453  1.6240 -1.3629  0.2647
 8687SOL     OW37522   1.644   3.402   7.236 -0.0692  1.0654  0.2815
 8687SOL    HW137523   1.615   3.464   7.170 -2.6705 -0.2918  0.1277
 8687SOL    HW237524   1.621   3.455   7.313  1.7851  0.2800  1.3916
 8688SOL     OW37525   1.369   1.437   2.845 -0.5244  0.1369 -0.3832
 8688SOL    HW137526   1.389   1.428   2.938  2.1561 -1.3640 -1.1093
 8688SOL    HW237527   1.280   1.404   2.832 -0.5899 -0.3714  1.3535
 8689SOL     OW37528   0.049   0.374   5.159  0.0499  0.2094 -0.2020
 8689SOL    HW137529   0.090   0.426   5.090 -2.0427 -0.7865 -2.1664
 8689SOL    HW237530   0.127   0.318   5.167  1.1990  1.6175 -1.5313
 8690SOL     OW37531   3.493   0.844   1.865  0.1930  0.5763  0.6554
 8690SOL    HW137532   3.558   0.775   1.852 -1.5119 -0.3898 -2.6204
 8690SOL    HW237533   3.421   0.823   1.805 -0.6890  0.2946  1.8098
 8691SOL     OW37534   0.455   2.324   3.974 -0.1840  0.1866 -0.7328
 8691SOL    HW137535   0.458   2.376   4.055 -1.5866 -0.7598 -0.0710
 8691SOL    HW237536   0.494   2.248   4.018  1.5016  2.5001  1.7445
 8692SOL     OW37537   2.269   1.471   5.642  0.3876 -0.2841 -0.3431
 8692SOL    HW137538   2.261   1.559   5.605 -0.8812 -1.4494 -2.7992
 8692SOL    HW237539   2.195   1.479   5.703  0.1494 -0.4060 -0.6187
 8693SOL     OW37540   4.677   0.745   8.711  0.1120  0.0820  0.6616
 8693SOL    HW137541   0.026   0.688   8.694  0.6855  0.7070  1.0942
 8693SOL    HW237542   4.675   0.800   8.632 -1.8801 -1.2309 -0.2025
 8694SOL     OW37543   0.997   2.005   2.232 -0.2501  0.1146 -0.4936
 8694SOL    HW137544   1.059   1.954   2.179 -0.5059 -0.3037 -0.3819
 8694SOL    HW237545   0.950   1.938   2.281  0.3141 -0.9871 -1.4473
 8695SOL     OW37546   2.594   3.760   2.691 -0.1449  0.0863  0.2688
 8695SOL    HW137547   2.558   3.744   2.603 -0.5919 -0.7501  0.6010
 8695SOL    HW237548   2.522   3.814   2.724 -0.6254  0.7649 -1.8268
 8696SOL     OW37549   2.638   1.430   8.712  0.7847  0.4091 -0.1606
 8696SOL    HW137550   2.610   1.435   8.620  2.2772 -0.3316 -0.6697
 8696SOL    HW237551   2.677   1.342   8.719 -0.7432 -0.4086 -1.7884
 8697SOL     OW37552   4.435   0.547   1.044 -0.0595  0.0773 -0.6222
 8697SOL    HW137553   4.364   0.516   1.100  0.9847 -2.0882 -0.4852
 8697SOL    HW237554   4.386   0.616   1.000 -1.0915 -1.4686 -1.9070
 8698SOL     OW37555   0.607   3.661   3.251 -0.0482  0.0615  0.0403
 8698SOL    HW137556   0.529   3.714   3.264  0.9731  1.3095  1.1211
 8698SOL    HW237557   0.656   3.693   3.326  0.0738 -0.2237  0.0850
 8699SOL     OW37558   1.680   1.669   8.620 -0.0396  0.6168  0.1092
 8699SOL    HW137559   1.721   1.693   8.703  1.8221 -0.0680 -0.6122
 8699SOL    HW237560   1.607   1.613   8.648  0.1862 -0.3584 -1.2206
 8700SOL     OW37561   0.994   4.369   4.591 -0.2167  0.5875  0.1273
 8700SOL    HW137562   1.069   4.389   4.647 -0.0770 -0.5137  0.3463
 8700SOL    HW237563   0.999   4.273   4.589 -1.5827  0.5052  0.7438
 8701SOL     OW37564   2.852   2.253  15.442 -0.1473  0.5119 -0.0380
 8701SOL    HW137565   2.760   2.275  15.458  0.1641  1.3187  0.6524
 8701SOL    HW237566   2.871   2.286  15.354 -2.1102 -0.4818 -0.8458
 8702SOL     OW37567   1.439   3.830  15.044  0.0045 -0.3567  0.7778
 8702SOL    HW137568   1.460   3.880  15.123 -0.1338  0.5530  0.2501
 8702SOL    HW237569   1.431   3.741  15.076 -1.6088 -0.0177  1.3595
 8703SOL     OW37570   3.090   1.683   8.508 -0.6010  0.3992 -0.1462
 8703SOL    HW137571   3.096   1.777   8.526 -0.6277  1.3160 -4.9552
 8703SOL    HW237572   3.035   1.672   8.430 -0.9424 -1.6660  0.3855
 8704SOL     OW37573   0.574   0.840   3.681 -0.0469  0.0215 -0.3571
 8704SOL    HW137574   0.563   0.854   3.587  3.5354 -1.1148 -0.9370
 8704SOL    HW237575   0.668   0.828   3.694 -0.0867 -0.3500 -0.4040
 8705SOL     OW37576   3.059   3.227   5.972 -0.1003 -0.6589  0.2621
 8705SOL    HW137577   3.139   3.191   5.933  0.4639  1.7517 -0.7895
 8705SOL    HW237578   3.099   3.273   6.046  0.9764  0.6379 -1.1280
 8706SOL     OW37579   0.457   4.104   8.199  0.1809  0.5934 -0.0584
 8706SOL    HW137580   0.409   4.121   8.118  0.7566  0.7914 -0.3598
 8706SOL    HW237581   0.485   4.013   8.187 -0.7538 -0.1948  3.6332
 8707SOL     OW37582   3.445   1.602   3.775  0.0821 -0.2896  0.0046
 8707SOL    HW137583   3.529   1.639   3.803  0.1665  1.1276 -2.1335
 8707SOL    HW237584   3.451   1.512   3.806 -0.7623  0.2922  1.8695
 8708SOL     OW37585   1.099   4.637  12.907 -0.1117  0.3603 -0.2927
 8708SOL    HW137586   1.165   4.705  12.908  0.1771  0.0778 -0.2030
 8708SOL    HW237587   1.043   4.669  12.977 -2.0006 -0.2346 -1.5198
 8709SOL     OW37588   4.126   0.097   2.947  0.3682  0.4897  0.0588
 8709SOL    HW137589   4.215   0.127   2.933  0.0372  1.0866 -0.8325
 8709SOL    HW237590   4.072   0.176   2.948 -2.2292 -1.3261  4.1222
 8710SOL     OW37591   3.959   0.215   6.677  0.4822  0.1222  0.7860
 8710SOL    HW137592   3.936   0.263   6.598  1.3786 -0.4721  0.1576
 8710SOL    HW237593   3.923   0.264   6.751 -0.6365 -0.7441  0.8139
 8711SOL     OW37594   3.689   2.749   6.303  0.0745  0.0899 -0.5378
 8711SOL    HW137595   3.607   2.788   6.274  1.6510  3.1334 -0.8834
 8711SOL    HW237596   3.747   2.773   6.230 -0.0734 -2.7532 -1.6236
 8712SOL     OW37597   4.245   2.236   5.433  0.4711  0.0935 -0.3050
 8712SOL    HW137598   4.219   2.152   5.470 -0.5139  1.2945  1.7467
 8712SOL    HW237599   4.159   2.265   5.400  0.8041  1.4399 -0.0013
 8713SOL     OW37600   1.720   3.539   5.162  0.0528  0.5964  0.1993
 8713SOL    HW137601   1.734   3.475   5.232 -1.0938 -0.0622 -0.1654
 8713SOL    HW237602   1.625   3.532   5.160  0.1009  1.1830 -3.0326
 8714SOL     OW37603   0.326   0.799   5.832  0.3601  0.0698 -0.6407
 8714SOL    HW137604   0.287   0.775   5.748  0.6076  0.4157 -0.8571
 8714SOL    HW237605   0.252   0.786   5.891 -0.8202  3.2225 -1.4333
 8715SOL     OW37606   2.525   3.552   8.396  0.2165  0.5093  0.0361
 8715SOL    HW137607   2.579   3.586   8.324 -0.8148  0.4199 -0.7801
 8715SOL    HW237608   2.490   3.469   8.365  3.4826 -1.4962  1.6708
 8716SOL     OW37609   1.704   0.340   7.738  0.4625 -0.0390  0.4345
 8716SOL    HW137610   1.751   0.327   7.655 -0.0066 -0.4326  0.2323
 8716SOL    HW237611   1.679   0.253   7.770 -0.8944  1.8462  4.4321
 8717SOL     OW37612   3.629   2.698  12.543 -0.1287 -0.0180  0.1940
 8717SOL    HW137613   3.577   2.756  12.489 -1.4283 -2.2409 -0.9680
 8717SOL    HW237614   3.713   2.744  12.548 -0.6309  0.9700 -0.5586
 8718SOL     OW37615   3.702   1.363   4.609  0.5454  0.0957  0.0141
 8718SOL    HW137616   3.621   1.412   4.611  1.1181  0.9994  0.8289
 8718SOL    HW237617   3.720   1.345   4.701 -0.1912  0.6055  0.2550
 8719SOL     OW37618   4.691   3.064  13.316  0.4345  0.0209 -0.3805
 8719SOL    HW137619   4.683   3.126  13.389  0.0765 -1.0112  0.4548
 8719SOL    HW237620   4.610   3.078  13.268  0.4536 -2.4770 -1.1438
 8720SOL     OW37621   1.752   0.963   0.096  0.3582  0.1945 -0.1779
 8720SOL    HW137622   1.845   0.964   0.117  0.4261 -1.9847 -0.4611
 8720SOL    HW237623   1.763   0.963   0.000 -2.4167 -0.6797 -0.4979
 8721SOL     OW37624   4.426   1.060  11.756  0.1681  0.3763 -0.4808
 8721SOL    HW137625   4.413   0.984  11.699 -1.7392  1.0790 -0.9898
 8721SOL    HW237626   4.359   1.039  11.822  0.5179  1.3513  0.1799
 8722SOL     OW37627   0.109   4.117   9.697 -0.3720  0.7309 -0.3974
 8722SOL    HW137628   0.148   4.140   9.613  2.3120  2.8744  1.4211
 8722SOL    HW237629   0.165   4.159   9.763 -0.7268  1.6543 -0.6864
 8723SOL     OW37630   2.885   4.298   5.602 -0.3058 -0.8439  0.0764
 8723SOL    HW137631   2.935   4.372   5.637  1.0148 -1.1692 -1.1580
 8723SOL    HW237632   2.892   4.232   5.671 -0.6698 -0.0989  0.8355
 8724SOL     OW37633   0.430   2.672   5.584 -0.0533  0.3697  0.7277
 8724SOL    HW137634   0.522   2.690   5.599  0.6995 -1.6365 -1.3823
 8724SOL    HW237635   0.406   2.616   5.658  1.6668 -0.5020  0.6316
 8725SOL     OW37636   2.457   1.015   1.002 -0.3845  0.2880 -0.6357
 8725SOL    HW137637   2.456   1.023   0.907  2.2864  1.8135 -0.5475
 8725SOL    HW237638   2.420   1.097   1.034 -0.0468  0.4687 -0.7084
 8726SOL     OW37639   1.959   3.579  16.275 -0.2666  0.1204  0.2007
 8726SOL    HW137640   1.949   3.557  16.183 -0.0682 -0.8708  0.4140
 8726SOL    HW237641   2.050   3.610  16.272  0.4947 -2.0557  0.4787
 8727SOL     OW37642   4.604   2.989   1.064 -0.5117  0.5063 -0.4523
 8727SOL    HW137643   4.593   3.084   1.060 -0.3024  0.5675  0.5572
 8727SOL    HW237644   4.572   2.960   1.149  3.0463 -0.0784  0.6534
 8728SOL     OW37645   3.335   3.145   6.009  0.0001 -0.2687 -0.0071
 8728SOL    HW137646   3.354   3.099   6.091 -0.4367  0.2899  0.4048
 8728SOL    HW237647   3.412   3.132   5.953  0.6014 -1.5116  1.0909
 8729SOL     OW37648   1.428   3.140   8.284 -0.1693 -0.5848  0.6215
 8729SOL    HW137649   1.443   3.233   8.303  1.4758 -0.7218  0.0241
 8729SOL    HW237650   1.478   3.132   8.203 -0.1199 -2.2883  0.8245
 8730SOL     OW37651   1.065   0.971   3.492  0.3660 -0.1563  0.5074
 8730SOL    HW137652   1.112   0.972   3.409 -1.3421 -1.3348 -0.4845
 8730SOL    HW237653   1.117   0.906   3.539 -0.6559 -1.5087 -0.2463
 8731SOL     OW37654   1.440   3.011   5.903 -0.2359 -0.1969 -0.4226
 8731SOL    HW137655   1.478   3.007   5.815 -0.5390  3.1231 -0.6969
 8731SOL    HW237656   1.389   2.930   5.898  0.6822 -0.6838 -2.0364
 8732SOL     OW37657   3.226   4.533   8.303  0.7410 -0.0958  0.0810
 8732SOL    HW137658   3.293   4.480   8.260  1.6469  0.2099  1.1193
 8732SOL    HW237659   3.259   4.617   8.270  1.8888 -0.5706  0.0231
 8733SOL     OW37660   0.650   3.438   7.266  0.3093 -0.2421  0.1579
 8733SOL    HW137661   0.736   3.479   7.280  0.2348  0.3400 -1.0418
 8733SOL    HW237662   0.604   3.506   7.216 -0.5158 -1.2320 -0.4247
 8734SOL     OW37663   1.542   0.205  17.013 -0.7499 -0.4567 -0.0142
 8734SOL    HW137664   1.468   0.154  16.980 -0.2946  0.2957 -2.1969
 8734SOL    HW237665   1.499   0.253  17.084 -1.3134  0.1090 -0.7394
 8735SOL     OW37666   3.234   0.726  13.217 -0.2567 -0.2753 -0.0199
 8735SOL    HW137667   3.256   0.768  13.134  0.2733  1.8362  1.1743
 8735SOL    HW237668   3.320   0.733  13.258 -0.0138  0.6204 -0.6755
 8736SOL     OW37669   2.200   3.708  15.686  0.1822  0.2104  0.1585
 8736SOL    HW137670   2.111   3.691  15.719 -0.0100  2.7843  0.9378
 8736SOL    HW237671   2.249   3.679  15.763  0.6541 -0.3661 -0.3543
 8737SOL     OW37672   3.194   2.804  15.549  0.4038 -0.0874  0.0486
 8737SOL    HW137673   3.247   2.736  15.591  0.5812  0.7839  1.2293
 8737SOL    HW237674   3.175   2.767  15.462  0.7428  0.1328 -0.1180
 8738SOL     OW37675   1.663   4.395  16.296  0.2553 -0.3313 -0.1203
 8738SOL    HW137676   1.664   4.340  16.218 -1.7128  1.8254 -1.6769
 8738SOL    HW237677   1.725   4.346  16.349  1.6127  1.3104 -0.1986
 8739SOL     OW37678   2.443   4.325  12.375 -0.2062  0.2089  0.0978
 8739SOL    HW137679   2.469   4.316  12.284  0.0300 -2.0410  0.3809
 8739SOL    HW237680   2.359   4.280  12.371  0.2681 -1.0205  3.6817
 8740SOL     OW37681   1.462   2.718   5.478 -0.0665 -0.3740 -0.2207
 8740SOL    HW137682   1.453   2.651   5.546  1.5798  1.0751  1.4114
 8740SOL    HW237683   1.429   2.663   5.406  3.1776  0.5511 -2.4275
 8741SOL     OW37684   2.376   0.165  11.446 -0.4327 -0.2695  0.6049
 8741SOL    HW137685   2.368   0.259  11.428 -1.2988 -0.5304 -0.3548
 8741SOL    HW237686   2.470   0.150  11.437 -0.4162 -0.6844  1.4660
 8742SOL     OW37687   3.643   1.734   5.063  0.0757  0.6796  0.0738
 8742SOL    HW137688   3.595   1.678   5.002 -0.5816  1.4476 -0.1025
 8742SOL    HW237689   3.725   1.753   5.019 -0.0650 -1.2273 -1.0246
 8743SOL     OW37690   1.192   2.516   4.675  0.2509 -0.0361 -0.4145
 8743SOL    HW137691   1.187   2.577   4.748 -0.5092 -2.3872  1.5258
 8743SOL    HW237692   1.113   2.464   4.693  0.1408 -0.1025 -1.1162
 8744SOL     OW37693   1.485   2.880   9.585 -0.3940  0.4116 -0.4946
 8744SOL    HW137694   1.535   2.833   9.652 -0.0671 -1.8792 -2.3540
 8744SOL    HW237695   1.393   2.870   9.610 -0.7766 -0.2210 -2.1405
 8745SOL     OW37696   3.309   2.756  13.301 -0.0199  0.1187  0.5172
 8745SOL    HW137697   3.215   2.756  13.288 -0.0884 -1.6644  1.0924
 8745SOL    HW237698   3.324   2.732  13.209  0.8238  3.0574 -0.1407
 8746SOL     OW37699   1.645   0.650   5.800 -0.6357 -0.1168  0.3646
 8746SOL    HW137700   1.713   0.715   5.781  0.2827 -0.4341  2.5833
 8746SOL    HW237701   1.576   0.709   5.829  0.9089  1.8079  0.1363
 8747SOL     OW37702   4.271   0.190   1.973  0.1310  0.1190  0.0671
 8747SOL    HW137703   4.294   0.282   1.962 -1.4123  0.5425  0.4441
 8747SOL    HW237704   4.312   0.175   2.058  0.2001 -2.2329 -0.3879
 8748SOL     OW37705   0.895   1.215   9.404  0.2090 -0.4997  0.3108
 8748SOL    HW137706   0.822   1.238   9.462  1.3895 -0.5316  1.8362
 8748SOL    HW237707   0.929   1.300   9.375  0.2467  1.0130  4.6968
 8749SOL     OW37708   0.181   0.462   7.354 -0.1430 -0.0783 -0.2606
 8749SOL    HW137709   0.263   0.435   7.314  1.1281 -1.0706  2.9917
 8749SOL    HW237710   0.198   0.411   7.433 -0.9479 -0.7033 -0.4932
 8750SOL     OW37711   1.304   4.582  15.572 -0.4172  0.1971 -0.1748
 8750SOL    HW137712   1.218   4.541  15.564 -0.3945  0.8985 -3.5843
 8750SOL    HW237713   1.285   4.675  15.568 -1.0728 -0.0455 -2.4154
 8751SOL     OW37714   1.616   1.276   9.147  0.3265 -0.2870 -0.3670
 8751SOL    HW137715   1.678   1.256   9.077  2.1312 -3.2453  2.0629
 8751SOL    HW237716   1.680   1.309   9.209  0.5897  0.0721 -0.8389
 8752SOL     OW37717   3.941   3.222   4.581 -0.6463 -0.2373  0.1614
 8752SOL    HW137718   3.957   3.269   4.663  0.3124  0.1992 -0.2779
 8752SOL    HW237719   4.030   3.191   4.566 -0.5969 -1.5426  3.0299
 8753SOL     OW37720   4.634   0.653   6.271 -0.1706 -0.3229  0.8791
 8753SOL    HW137721   4.703   0.718   6.261 -1.5170  0.6710 -1.8250
 8753SOL    HW237722   4.684   0.595   6.329 -2.0412 -1.6323  1.2049
 8754SOL     OW37723   2.541   4.212   7.494  0.0084 -0.2354 -0.2829
 8754SOL    HW137724   2.597   4.165   7.555  0.2258 -0.6265 -0.7805
 8754SOL    HW237725   2.459   4.205   7.543 -0.4864 -1.1488 -1.2354
 8755SOL     OW37726   1.301   2.596   0.709  0.1388 -0.5315  0.1042
 8755SOL    HW137727   1.227   2.538   0.691 -0.8012  0.9852 -0.9083
 8755SOL    HW237728   1.339   2.592   0.621  0.0541 -0.7723  0.0780
 8756SOL     OW37729   2.204   1.291  14.653 -0.5108 -0.1675  0.0340
 8756SOL    HW137730   2.280   1.232  14.654  0.7095  1.3545 -3.3014
 8756SOL    HW237731   2.251   1.367  14.619 -0.4032 -0.1755  0.1654
 8757SOL     OW37732   2.542   2.645   3.581  0.1240  0.5705 -0.3627
 8757SOL    HW137733   2.512   2.555   3.593  1.9946 -0.0412 -0.3253
 8757SOL    HW237734   2.561   2.638   3.487 -2.0215 -0.2577 -0.7290
 8758SOL     OW37735   2.019   3.213   6.671  0.4317  0.5513  0.4692
 8758SOL    HW137736   1.971   3.293   6.692 -1.6705 -1.1190  2.1094
 8758SOL    HW237737   2.044   3.182   6.758  0.3420  0.7236  0.5569
 8759SOL     OW37738   4.273   0.790   2.279  0.0086 -0.1270  0.1897
 8759SOL    HW137739   4.186   0.782   2.239  0.2567 -0.0882 -0.3455
 8759SOL    HW237740   4.270   0.711   2.333 -2.7216  0.2957  0.6648
 8760SOL     OW37741   2.120   0.497   2.625 -0.4599 -0.0192 -0.0926
 8760SOL    HW137742   2.135   0.568   2.688  1.8807 -1.9054  1.4720
 8760SOL    HW237743   2.123   0.553   2.548 -2.9292  0.1134 -0.0999
 8761SOL     OW37744   1.928   3.525   2.148  0.0671 -0.3451  0.7157
 8761SOL    HW137745   1.844   3.494   2.183 -0.1957 -1.4755 -0.9320
 8761SOL    HW237746   1.947   3.595   2.210  1.8570  1.6689 -2.1389
 8762SOL     OW37747   2.077   3.788   8.688  0.2441  0.1865 -0.0777
 8762SOL    HW137748   2.149   3.745   8.642 -0.3824  1.4157 -2.1685
 8762SOL    HW237749   2.136   3.814   8.759  1.2285  1.8680 -1.5012
 8763SOL     OW37750   4.010   0.562   5.661 -0.7001  0.0785  0.1761
 8763SOL    HW137751   3.978   0.588   5.747 -3.9445 -0.5996 -0.8212
 8763SOL    HW237752   4.085   0.513   5.695 -0.4372  1.4891  1.6237
 8764SOL     OW37753   2.503   2.435  11.491 -0.5341 -1.1416  0.1457
 8764SOL    HW137754   2.452   2.403  11.416 -1.7102 -0.9266  0.8494
 8764SOL    HW237755   2.567   2.493  11.452  0.4761 -2.2105  0.2034
 8765SOL     OW37756   2.158   1.953   5.149  0.3412  0.1077 -0.3053
 8765SOL    HW137757   2.155   2.028   5.207 -0.6506 -0.6542  0.6322
 8765SOL    HW237758   2.227   1.901   5.190  0.3034  1.8307  1.8781
 8766SOL     OW37759   2.191   0.753  11.942 -0.6520  0.9929  0.2107
 8766SOL    HW137760   2.271   0.701  11.944 -0.6486  0.8984 -2.5587
 8766SOL    HW237761   2.171   0.769  12.034  0.5607  0.9676  0.4703
 8767SOL     OW37762   4.084   1.790   1.895  0.3553 -0.2473 -0.0619
 8767SOL    HW137763   4.142   1.819   1.825 -0.0777  1.4472  0.2615
 8767SOL    HW237764   4.105   1.697   1.901  2.5891  0.1505 -1.7826
 8768SOL     OW37765   1.218   4.511   9.621  0.2579  0.4536 -0.0578
 8768SOL    HW137766   1.255   4.534   9.707 -0.6508 -0.4079  0.5610
 8768SOL    HW237767   1.236   4.580   9.557  0.5434  0.6828  0.2650
 8769SOL     OW37768   0.974   0.675   1.482  0.0402 -0.4849 -0.5984
 8769SOL    HW137769   1.062   0.638   1.481  0.5418  0.6264  1.6531
 8769SOL    HW237770   0.999   0.765   1.464  0.9511 -0.1130  2.5080
 8770SOL     OW37771   4.022   0.749   7.151  0.2511 -0.2333  0.2332
 8770SOL    HW137772   4.092   0.813   7.155  0.1124  0.0788 -2.6503
 8770SOL    HW237773   4.058   0.691   7.084  2.8626 -0.0501  1.5036
 8771SOL     OW37774   2.599   1.065   8.358 -0.1445  0.4365  0.3004
 8771SOL    HW137775   2.678   1.015   8.377 -0.6255 -0.1200  0.8142
 8771SOL    HW237776   2.594   1.040   8.265  2.0228 -0.5703  0.4563
 8772SOL     OW37777   4.495   1.667   4.502 -0.4262 -0.5741 -0.1560
 8772SOL    HW137778   4.491   1.716   4.419 -0.7205  0.2852  0.3588
 8772SOL    HW237779   4.572   1.707   4.542  0.6334 -1.0065 -1.7778
 8773SOL     OW37780   0.021   3.948   6.821 -0.0001  0.2705  0.2256
 8773SOL    HW137781   0.044   3.866   6.866 -0.5730 -1.3124 -2.3453
 8773SOL    HW237782   4.671   3.975   6.875 -0.7182 -1.2031 -0.0155
 8774SOL     OW37783   4.419   4.086  17.598 -0.3546  0.0606 -0.4237
 8774SOL    HW137784   4.384   4.124  17.518 -2.2013  0.9997  0.8269
 8774SOL    HW237785   4.345   4.032  17.628  0.2057 -2.6979 -3.9600
 8775SOL     OW37786   1.793   1.803   8.828 -0.0092 -0.3031  0.1338
 8775SOL    HW137787   1.878   1.848   8.834 -0.1241  0.0831 -1.1167
 8775SOL    HW237788   1.792   1.739   8.899 -0.3224 -0.5010 -0.0525
 8776SOL     OW37789   0.080   2.974   6.496 -0.5257 -0.7092  0.4477
 8776SOL    HW137790   0.077   3.062   6.534 -0.8640 -0.2941 -0.5300
 8776SOL    HW237791   0.011   2.970   6.430 -1.5537 -1.0376  1.5324
 8777SOL     OW37792   3.836   0.738  11.638  0.0347 -0.7512 -0.3902
 8777SOL    HW137793   3.843   0.704  11.549 -1.3164  0.5113 -0.9802
 8777SOL    HW237794   3.744   0.766  11.639 -0.0181 -0.8818 -1.5193
 8778SOL     OW37795   1.969   3.820   2.937  0.4254  0.0376 -0.1447
 8778SOL    HW137796   1.957   3.867   2.854 -0.3865  1.9466  1.0424
 8778SOL    HW237797   1.890   3.769   2.956  0.7131  0.0856  1.1673
 8779SOL     OW37798   1.328   1.490   5.838  0.1925 -0.0594  0.6168
 8779SOL    HW137799   1.250   1.456   5.882 -1.2600  1.7018 -0.5730
 8779SOL    HW237800   1.344   1.426   5.769 -0.3910  0.3653  0.0879
 8780SOL     OW37801   2.454   1.963   2.143 -0.3220 -0.4149 -0.3188
 8780SOL    HW137802   2.365   1.949   2.174 -1.1270  1.8460 -1.5825
 8780SOL    HW237803   2.451   2.035   2.079  2.3503 -0.4308 -0.4893
 8781SOL     OW37804   3.399   3.824   8.030  0.0212 -0.4214  0.9555
 8781SOL    HW137805   3.383   3.731   8.044 -1.5927 -0.3007  0.0196
 8781SOL    HW237806   3.308   3.855   8.039 -0.8699 -1.8798 -2.8764
 8782SOL     OW37807   0.020   4.329  10.436  0.0722 -0.2919  0.0643
 8782SOL    HW137808   4.689   4.381  10.379 -0.0856  1.3764  1.7751
 8782SOL    HW237809   4.685   4.289  10.498  1.1127  0.6892  1.6885
 8783SOL     OW37810   3.651   1.442  15.307 -0.4625 -0.5256 -0.4002
 8783SOL    HW137811   3.729   1.407  15.266 -0.9447 -0.6555 -1.1943
 8783SOL    HW237812   3.648   1.391  15.388 -0.0918  0.1327  0.0282
 8784SOL     OW37813   3.440   3.887   7.296  0.3687 -0.3475 -0.3424
 8784SOL    HW137814   3.451   3.845   7.210 -2.5423 -2.9718  0.5941
 8784SOL    HW237815   3.522   3.859   7.336 -0.4316 -1.2956  0.6239
 8785SOL     OW37816   4.432   1.234   9.655 -0.1323 -0.0884 -0.5529
 8785SOL    HW137817   4.513   1.205   9.612  0.1944 -0.9088  0.6105
 8785SOL    HW237818   4.363   1.227   9.588 -2.2347  2.2708  1.3622
 8786SOL     OW37819   1.927   3.518   1.641 -0.3194  0.3055 -0.5517
 8786SOL    HW137820   1.917   3.425   1.619 -1.5481 -0.1212  1.7605
 8786SOL    HW237821   1.954   3.507   1.732 -2.3973  1.2168  0.1890
 8787SOL     OW37822   2.329   3.800   7.216  0.4159 -0.1083 -0.4482
 8787SOL    HW137823   2.248   3.845   7.191  1.0934 -0.2456 -2.8887
 8787SOL    HW237824   2.384   3.876   7.232  0.1326  0.4704 -2.2928
 8788SOL     OW37825   1.851   3.378  14.769 -0.0356  0.6423 -0.0640
 8788SOL    HW137826   1.893   3.464  14.782  0.7342  0.0304  1.5379
 8788SOL    HW237827   1.827   3.368  14.861 -1.8399  1.4648 -0.4528
 8789SOL     OW37828   2.401   4.687   4.265  0.0935  0.2647  0.0823
 8789SOL    HW137829   2.414   4.650   4.178 -0.0265 -2.9516  1.4366
 8789SOL    HW237830   2.366   4.608   4.307 -3.4121  0.3650 -2.6972
 8790SOL     OW37831   4.494   2.547   4.408 -0.2876 -0.1795  0.1701
 8790SOL    HW137832   4.568   2.556   4.349 -1.7464 -1.1278 -1.8305
 8790SOL    HW237833   4.539   2.563   4.491  0.4273  2.2019 -0.6816
 8791SOL     OW37834   3.102   0.531   6.536  0.7273  0.1066  0.6745
 8791SOL    HW137835   3.123   0.443   6.504  3.3127  0.6248  0.9180
 8791SOL    HW237836   3.006   0.527   6.531  0.7358  0.6383  0.0389
 8792SOL     OW37837   1.390   2.098   5.846 -0.3179 -0.1956  0.2131
 8792SOL    HW137838   1.415   2.167   5.907 -0.1805  0.3228 -0.4352
 8792SOL    HW237839   1.356   2.034   5.909 -0.3728 -1.7250 -1.3736
 8793SOL     OW37840   1.130   3.178  14.595  0.5623 -0.8282  0.5234
 8793SOL    HW137841   1.221   3.191  14.571  0.0178  1.7631 -0.1179
 8793SOL    HW237842   1.122   3.083  14.588 -2.6400 -0.6727  1.8311
 8794SOL     OW37843   4.409   3.023   2.693  0.6990  0.2193  0.0371
 8794SOL    HW137844   4.426   2.947   2.749  0.3887 -0.4295 -0.7573
 8794SOL    HW237845   4.325   3.049   2.731 -0.6690 -0.7420 -2.3564
 8795SOL     OW37846   3.085   1.999  17.192 -0.3491 -0.3790  0.0459
 8795SOL    HW137847   3.166   2.037  17.158  0.7703 -1.5526  1.4134
 8795SOL    HW237848   3.063   2.062  17.261  1.0545  0.9255 -0.6708
 8796SOL     OW37849   1.317   1.040   6.233 -0.0139 -0.1733  0.0294
 8796SOL    HW137850   1.282   1.033   6.322 -1.3860  2.1922 -0.3477
 8796SOL    HW237851   1.352   0.951   6.232 -0.4569 -0.3816  2.6202
 8797SOL     OW37852   2.984   0.065   7.067  0.0024  0.2397  0.0965
 8797SOL    HW137853   2.900   0.032   7.100  0.2612  0.4629  0.9901
 8797SOL    HW237854   2.984   0.031   6.978 -1.2302 -0.7541  0.4710
 8798SOL     OW37855   1.114   0.671   5.035 -0.2363  0.8121 -1.0327
 8798SOL    HW137856   1.162   0.633   5.108 -0.7368  0.4533 -0.8858
 8798SOL    HW237857   1.026   0.632   5.034 -0.2668  0.8698 -0.1265
 8799SOL     OW37858   1.801   3.272   2.872  0.6287 -0.0835  0.8816
 8799SOL    HW137859   1.896   3.270   2.884  0.6692  0.1556  0.5939
 8799SOL    HW237860   1.791   3.343   2.809  0.3105  0.5634  1.6600
 8800SOL     OW37861   3.041   1.515   5.978  0.1095 -0.2171  0.0902
 8800SOL    HW137862   3.132   1.532   5.954 -0.1373 -2.9493 -2.7938
 8800SOL    HW237863   3.043   1.556   6.064 -2.8036  3.0560 -1.4193
 8801SOL     OW37864   0.106   4.182  10.208 -0.6891  0.4851  0.6017
 8801SOL    HW137865   0.120   4.107  10.265  1.2930 -0.9984 -1.8601
 8801SOL    HW237866   0.079   4.250  10.271  0.0792  0.2752  1.1685
 8802SOL     OW37867   3.998   0.238   1.955  0.0390 -0.7510  0.1121
 8802SOL    HW137868   4.082   0.192   1.949  0.4927  0.2977 -1.5659
 8802SOL    HW237869   4.003   0.261   2.047 -1.0835 -0.8124  0.1946
 8803SOL     OW37870   2.412   0.488   0.530 -0.6728  0.4137  0.1891
 8803SOL    HW137871   2.420   0.430   0.605  0.5695  1.4294  0.8382
 8803SOL    HW237872   2.331   0.460   0.488  0.2496 -3.8648  1.2601
 8804SOL     OW37873   3.580   0.090   8.322 -0.2441  0.1495 -0.3185
 8804SOL    HW137874   3.617   0.170   8.284 -1.0475 -0.6534 -2.7821
 8804SOL    HW237875   3.505   0.113   8.377  0.8713 -2.3306  2.2572
 8805SOL     OW37876   2.453   0.838   5.776 -0.3929 -0.1031  0.7509
 8805SOL    HW137877   2.509   0.840   5.699 -1.0159 -1.4400  0.2683
 8805SOL    HW237878   2.447   0.743   5.782 -1.7349 -0.0595  0.1690
 8806SOL     OW37879   2.147   1.731   6.537 -0.6140  0.1558  0.6454
 8806SOL    HW137880   2.196   1.657   6.573  2.3557  1.3407 -0.9925
 8806SOL    HW237881   2.200   1.773   6.469  0.2047 -0.8985  0.6316
 8807SOL     OW37882   3.047   0.089   4.404 -0.7434  0.3538 -0.3694
 8807SOL    HW137883   3.127   0.125   4.364  1.0855 -2.6071  0.5798
 8807SOL    HW237884   2.988   0.164   4.396  0.5775  1.2911 -1.4443
 8808SOL     OW37885   0.771   3.377   8.947 -0.1895 -0.1757  0.5486
 8808SOL    HW137886   0.825   3.334   8.880 -1.4876  1.6266 -1.6523
 8808SOL    HW237887   0.845   3.418   8.990  0.0886 -0.1127  0.0149
 8809SOL     OW37888   1.670   0.653   4.151  0.2249 -0.7617  0.5170
 8809SOL    HW137889   1.689   0.741   4.120 -0.7008 -1.1140 -1.0412
 8809SOL    HW237890   1.751   0.611   4.124  0.8070  0.8539 -0.2356
 8810SOL     OW37891   2.990   3.576   7.103  0.1151  0.1229  0.3534
 8810SOL    HW137892   2.975   3.506   7.165 -1.2373  1.0782  1.0965
 8810SOL    HW237893   2.897   3.598   7.096  0.0712  0.1580  1.0779
 8811SOL     OW37894   2.736   2.521   3.801  0.4298 -0.4104  0.6459
 8811SOL    HW137895   2.665   2.528   3.737  0.6390  2.4538  0.7436
 8811SOL    HW237896   2.724   2.429   3.823  0.0805  0.1694  2.8171
 8812SOL     OW37897   2.166   4.143   1.046 -0.1238 -0.1829 -0.1258
 8812SOL    HW137898   2.173   4.123   0.952 -1.3086  0.6315 -0.3963
 8812SOL    HW237899   2.236   4.091   1.085 -1.8073 -2.0483  0.3993
 8813SOL     OW37900   3.595   2.596   7.140 -0.5545  0.7280 -0.0563
 8813SOL    HW137901   3.686   2.624   7.151  0.5858 -2.8088 -0.6533
 8813SOL    HW237902   3.561   2.616   7.227 -0.8151  0.8259 -0.1808
 8814SOL     OW37903   3.597   4.069   0.133  0.2376 -0.1461  0.3929
 8814SOL    HW137904   3.516   4.023   0.156  0.3111 -2.2042 -3.4883
 8814SOL    HW237905   3.656   4.000   0.162 -1.4804 -1.5017  0.6577
 8815SOL     OW37906   3.107   4.458   5.705 -0.2223 -0.2244 -0.1737
 8815SOL    HW137907   3.129   4.461   5.612 -1.8085 -0.8495 -0.5824
 8815SOL    HW237908   3.170   4.522   5.736 -1.5087  0.6168  0.6701
 8816SOL     OW37909   3.545   4.322  12.977 -0.0736 -0.0050 -0.0489
 8816SOL    HW137910   3.641   4.329  12.982  0.0016 -1.4818  0.6617
 8816SOL    HW237911   3.533   4.383  12.904  0.2498  1.9534  1.5278
 8817SOL     OW37912   1.959   0.768   5.454 -0.8694 -0.2920  0.9419
 8817SOL    HW137913   1.887   0.831   5.465 -0.8718 -0.1020 -0.1609
 8817SOL    HW237914   1.993   0.798   5.370 -1.4282 -1.7885  0.1959
 8818SOL     OW37915   2.413   0.768   5.436 -0.0629 -0.0112 -0.1445
 8818SOL    HW137916   2.399   0.849   5.484 -1.8632 -0.2877 -0.1927
 8818SOL    HW237917   2.500   0.749   5.471  0.0232  1.3817  0.4087
 8819SOL     OW37918   4.347   2.927   3.805  0.5502  0.1863 -0.0364
 8819SOL    HW137919   4.373   2.870   3.878  0.4596 -0.5980 -0.6079
 8819SOL    HW237920   4.311   2.860   3.747 -0.2455  1.9214 -1.5441
 8820SOL     OW37921   2.819   2.382   5.246 -0.2777 -0.2084  0.4335
 8820SOL    HW137922   2.895   2.326   5.233 -0.8238 -0.5728 -1.1986
 8820SOL    HW237923   2.762   2.313   5.279  0.1104  0.4323  2.4854
 8821SOL     OW37924   3.672   3.971  13.437 -0.5913  0.5467  0.2101
 8821SOL    HW137925   3.750   3.918  13.421 -0.3545  1.3450 -1.2470
 8821SOL    HW237926   3.619   3.903  13.479 -1.1556  1.5054  1.0551
 8822SOL     OW37927   2.294   4.063   3.087  0.3788  0.2511 -0.1223
 8822SOL    HW137928   2.200   4.069   3.074  0.3856 -0.5322 -0.5172
 8822SOL    HW237929   2.324   4.152   3.110 -1.6657  0.6319  0.9993
 8823SOL     OW37930   3.596   2.304   3.722 -0.6906  0.4179  0.1280
 8823SOL    HW137931   3.629   2.320   3.634 -1.2258 -0.8229 -0.3016
 8823SOL    HW237932   3.664   2.323   3.786 -0.7074  3.4706 -0.7652
 8824SOL     OW37933   1.315   2.172   4.842  0.1549 -0.0194  0.1470
 8824SOL    HW137934   1.301   2.084   4.877 -0.7033  0.4096  0.9082
 8824SOL    HW237935   1.354   2.146   4.759 -0.5169  1.7246 -0.7194
 8825SOL     OW37936   3.485   0.539   4.056  0.3341  0.0574 -0.0901
 8825SOL    HW137937   3.561   0.483   4.041  0.3213  0.0397 -0.0899
 8825SOL    HW237938   3.518   0.601   4.121  0.2067  2.1417 -2.0118
 8826SOL     OW37939   0.339   3.550   6.663  0.5760  0.3959 -0.6913
 8826SOL    HW137940   0.273   3.574   6.598 -0.0961 -0.8245 -0.4570
 8826SOL    HW237941   0.346   3.455   6.663  1.7122  0.4787 -0.5107
 8827SOL     OW37942   3.486   4.089   1.963  0.4212 -0.1803  0.5285
 8827SOL    HW137943   3.492   4.066   2.055  0.9648 -1.2824  0.2243
 8827SOL    HW237944   3.521   4.011   1.918  0.9598 -0.2734  1.0987
 8828SOL     OW37945   0.765   0.977  11.905  0.9906  0.2212 -0.3260
 8828SOL    HW137946   0.795   0.997  11.817  0.5217  1.0869 -0.2863
 8828SOL    HW237947   0.671   0.998  11.901  1.5662  2.9415  0.6295
 8829SOL     OW37948   0.548   2.498   4.708 -0.2578  0.2744 -0.6269
 8829SOL    HW137949   0.542   2.403   4.705  0.8268  0.1373  1.9653
 8829SOL    HW237950   0.548   2.519   4.614  0.4466 -1.9535 -1.1145
 8830SOL     OW37951   4.329   2.877   2.389  0.4402 -0.5112 -0.5396
 8830SOL    HW137952   4.289   2.953   2.432 -0.7843 -0.5495 -1.5882
 8830SOL    HW237953   4.405   2.848   2.439  0.0564 -0.8117 -0.1412
 8831SOL     OW37954   3.027   4.663   7.797  0.1033 -1.1504  0.1126
 8831SOL    HW137955   3.072   4.680   7.714 -0.2308  2.3429  0.6745
 8831SOL    HW237956   3.016   4.568   7.801 -3.8149 -0.7345 -0.1758
 8832SOL     OW37957   3.420   4.082  13.067 -0.5400 -0.1199 -0.2938
 8832SOL    HW137958   3.461   4.158  13.028  1.0228  0.6485  2.7873
 8832SOL    HW237959   3.427   4.107  13.159 -0.6160 -0.1268 -0.2861
 8833SOL     OW37960   1.493   4.622  16.293  0.0387 -0.4683 -0.2623
 8833SOL    HW137961   1.466   4.610  16.384  0.4087  2.5842  0.2506
 8833SOL    HW237962   1.542   4.540  16.281 -1.3057 -1.2623 -0.2298
 8834SOL     OW37963   0.581   0.801   3.994  0.2164  0.3728 -0.1280
 8834SOL    HW137964   0.599   0.894   4.009  0.3723  0.3716 -0.3186
 8834SOL    HW237965   0.583   0.806   3.899 -2.0360  1.6642 -0.1049
 8835SOL     OW37966   0.144   1.873   6.446  0.1186  0.7602 -0.5567
 8835SOL    HW137967   0.133   1.830   6.531 -3.0844  2.9974  0.1449
 8835SOL    HW237968   0.065   1.845   6.400 -0.3638 -0.2673  0.9012
 8836SOL     OW37969   1.917   2.478  11.652 -0.2198  0.5693  0.2685
 8836SOL    HW137970   2.012   2.484  11.658 -0.3130  1.4763  0.9361
 8836SOL    HW237971   1.919   2.422  11.575  0.0408 -1.5061  1.7871
 8837SOL     OW37972   2.078   2.973   2.555  0.1169  0.4483 -0.1306
 8837SOL    HW137973   2.069   2.908   2.486  0.0236  1.3566 -0.9638
 8837SOL    HW237974   2.080   2.915   2.631 -0.9570  0.5132 -0.0528
 8838SOL     OW37975   3.586   2.619   4.908  0.3008 -0.9139 -0.1664
 8838SOL    HW137976   3.526   2.652   4.975  0.4457 -0.2809 -0.3449
 8838SOL    HW237977   3.668   2.624   4.958  1.8064 -1.8871 -2.5412
 8839SOL     OW37978   3.472   4.336   6.750  0.0676  0.4984  0.5787
 8839SOL    HW137979   3.446   4.244   6.754 -0.1357  0.6748  2.9333
 8839SOL    HW237980   3.460   4.354   6.656 -1.1704  0.1567  0.6667
 8840SOL     OW37981   1.212   4.007   2.241 -0.1452  0.5011  0.4521
 8840SOL    HW137982   1.293   4.037   2.281 -0.2817  2.0487 -0.4217
 8840SOL    HW237983   1.168   3.975   2.320 -2.3976  2.2465 -0.0949
 8841SOL     OW37984   3.407   1.863   0.889 -0.3100  0.2759  0.3603
 8841SOL    HW137985   3.344   1.905   0.831 -0.5367 -0.8905 -0.2569
 8841SOL    HW237986   3.493   1.875   0.848 -0.1502 -3.4168 -0.4767
 8842SOL     OW37987   1.569   3.520   6.417 -0.2779  0.2964  0.3908
 8842SOL    HW137988   1.619   3.456   6.366 -1.5167  0.5088 -1.0934
 8842SOL    HW237989   1.560   3.481   6.504  1.0486  0.7296  0.7293
 8843SOL     OW37990   4.411   4.266   3.075  0.4943 -0.0141 -0.2077
 8843SOL    HW137991   4.411   4.190   3.018 -1.7297  0.1261 -0.3904
 8843SOL    HW237992   4.494   4.310   3.053  1.3636 -1.3519  0.3803
 8844SOL     OW37993   4.723   3.567   8.122 -0.3275  0.1154  0.7527
 8844SOL    HW137994   4.685   3.598   8.041 -2.7072 -4.2118  0.2269
 8844SOL    HW237995   0.091   3.587   8.109 -0.0195 -1.6548  0.2752
 8845SOL     OW37996   1.556   2.243   3.783 -0.0151 -0.2214  0.3363
 8845SOL    HW137997   1.563   2.293   3.864 -0.5776  2.4247 -1.2752
 8845SOL    HW237998   1.601   2.301   3.722  0.7760 -0.7161  0.4475
 8846SOL     OW37999   3.976   3.279  12.904 -0.8201 -0.1098 -0.2027
 8846SOL    HW138000   4.062   3.240  12.923  0.0524  1.4695 -0.8742
 8846SOL    HW238001   3.985   3.368  12.938 -0.6184 -0.6711  1.2033
 8847SOL     OW38002   2.856   4.011   7.611  0.1532 -0.4323  0.2932
 8847SOL    HW138003   2.844   3.952   7.536 -1.2322  0.0842  0.1040
 8847SOL    HW238004   2.763   4.031   7.627  0.4594  2.1921 -1.2958
 8848SOL     OW38005   0.400   1.084  11.074 -0.2288 -0.4114  0.5990
 8848SOL    HW138006   0.447   1.157  11.035 -1.3808 -0.2130 -0.4016
 8848SOL    HW238007   0.349   1.136  11.136  1.4799  3.3731 -1.1910
 8849SOL     OW38008   0.058   1.822  12.445 -0.4938 -0.0429  0.4542
 8849SOL    HW138009   0.070   1.909  12.407 -0.1367 -0.3099 -0.0354
 8849SOL    HW238010   0.131   1.811  12.505  1.4154  1.2434 -1.6475
 8850SOL     OW38011   3.957   3.502   9.309 -0.0583 -0.1192 -0.5116
 8850SOL    HW138012   3.943   3.439   9.239  0.1983 -0.7122 -0.0308
 8850SOL    HW238013   4.040   3.539   9.280  0.3427 -0.8639 -0.2817
 8851SOL     OW38014   4.199   4.177   3.216 -0.3494  0.5289 -0.3380
 8851SOL    HW138015   4.271   4.176   3.279  0.4775 -1.1489 -1.3184
 8851SOL    HW238016   4.246   4.210   3.140  1.4862 -1.1178  0.0832
 8852SOL     OW38017   3.027   0.463   6.845  0.0329 -0.0491 -0.2366
 8852SOL    HW138018   3.049   0.458   6.752 -1.3504 -0.0072 -0.5750
 8852SOL    HW238019   2.985   0.378   6.857  2.8654 -1.2774  1.0113
 8853SOL     OW38020   2.830   2.606  17.303  0.6091  0.5798  0.0206
 8853SOL    HW138021   2.861   2.534  17.248  0.4084 -0.6908  1.5662
 8853SOL    HW238022   2.888   2.674  17.268  2.1861 -0.2999  0.9410
 8854SOL     OW38023   0.873   4.660   0.364  0.5519 -0.3993 -0.0745
 8854SOL    HW138024   0.933   4.586   0.354 -0.0309 -0.8809 -0.0379
 8854SOL    HW238025   0.791   4.616   0.388  0.7152 -1.3872 -1.3562
 8855SOL     OW38026   0.845   2.427   2.498  0.2308 -0.3144  0.4787
 8855SOL    HW138027   0.837   2.501   2.439 -0.5410 -0.0624  0.8885
 8855SOL    HW238028   0.819   2.473   2.578  0.9952  0.0960  0.4855
 8856SOL     OW38029   0.846   0.565  12.737  0.5317  0.0285 -0.5173
 8856SOL    HW138030   0.790   0.631  12.779 -0.0067 -0.5325 -0.3557
 8856SOL    HW238031   0.835   0.493  12.800  1.7970 -0.7241 -1.1580
 8857SOL     OW38032   3.024   0.051   1.527 -0.2534  0.3610 -0.3026
 8857SOL    HW138033   2.981   0.016   1.449  1.2690 -0.7675 -0.6376
 8857SOL    HW238034   2.974   0.011   1.598 -0.2296 -1.1704 -1.1638
 8858SOL     OW38035   0.397   1.316   8.502  0.5787 -0.1722 -0.3124
 8858SOL    HW138036   0.336   1.338   8.572  2.0860 -1.3614  1.3556
 8858SOL    HW238037   0.364   1.233   8.466 -1.9470 -0.5159  2.7420
 8859SOL     OW38038   3.214   1.695  16.053 -0.7687 -0.2572  0.3312
 8859SOL    HW138039   3.291   1.640  16.062 -0.7154 -0.3520 -0.8022
 8859SOL    HW238040   3.194   1.717  16.145  2.6375  1.8684  0.5541
 8860SOL     OW38041   3.446   3.618   7.805  0.6837 -0.4285 -0.4714
 8860SOL    HW138042   3.480   3.706   7.820 -0.6979  0.2629 -1.4326
 8860SOL    HW238043   3.457   3.577   7.890  0.5857 -3.6689 -2.0341
 8861SOL     OW38044   0.093   0.333   8.022 -0.3626 -0.0635 -0.2282
 8861SOL    HW138045   0.038   0.397   7.978  0.4186  2.8953  3.0762
 8861SOL    HW238046   0.035   0.295   8.088 -1.4755  3.4477  0.8347
 8862SOL     OW38047   2.300   3.690   8.577  0.0829 -0.3613  0.4028
 8862SOL    HW138048   2.314   3.596   8.592  0.9608 -0.2321  0.3897
 8862SOL    HW238049   2.386   3.730   8.563 -0.0713 -0.2602 -0.2214
 8863SOL     OW38050   1.994   0.581   5.915  0.5056  0.0814 -0.1496
 8863SOL    HW138051   2.038   0.662   5.940  1.6162 -1.0742  1.6517
 8863SOL    HW238052   1.978   0.536   5.998  1.0537 -1.2275 -0.7417
 8864SOL     OW38053   3.882   0.498   0.330  0.1379 -0.4451  0.4113
 8864SOL    HW138054   3.787   0.510   0.321  0.3908  1.0539 -0.2696
 8864SOL    HW238055   3.915   0.588   0.335 -3.5026  0.8981  0.4181
 8865SOL     OW38056   3.491   3.577   3.496  0.1222 -0.8579  0.0390
 8865SOL    HW138057   3.585   3.591   3.510  0.4240 -2.0700 -0.7661
 8865SOL    HW238058   3.472   3.636   3.423 -0.8054 -1.0775  0.1046
 8866SOL     OW38059   2.666   0.670   4.618  0.2888 -0.3228 -0.7315
 8866SOL    HW138060   2.629   0.601   4.673  0.5351 -1.4875 -2.0281
 8866SOL    HW238061   2.638   0.754   4.655 -0.4152 -1.1387  0.5817
 8867SOL     OW38062   3.168   2.606   3.637  0.3152 -0.0333 -0.3444
 8867SOL    HW138063   3.088   2.617   3.586  0.0865 -0.7224 -0.1365
 8867SOL    HW238064   3.133   2.592   3.725 -1.8162 -1.8672 -1.4890
 8868SOL     OW38065   1.019   4.601   3.803  0.0180 -0.0001  0.2948
 8868SOL    HW138066   0.939   4.645   3.774  1.2393  1.0631 -1.4816
 8868SOL    HW238067   1.035   4.553   3.721  0.8965  0.0651  0.4305
 8869SOL     OW38068   0.812   1.042   3.510  0.6563  0.2514 -0.3254
 8869SOL    HW138069   0.793   1.099   3.435  2.0389  0.7828 -0.2860
 8869SOL    HW238070   0.902   1.012   3.499  0.4806 -0.5804  0.5390
 8870SOL     OW38071   0.004   4.010   4.118  0.5834 -0.0271  0.5308
 8870SOL    HW138072   0.096   3.993   4.138  0.1400 -1.4625  1.3525
 8870SOL    HW238073   0.011   4.070   4.045  0.0717  0.7000  1.0739
 8871SOL     OW38074   2.248   0.516   5.086  0.0844 -0.0859 -0.2357
 8871SOL    HW138075   2.244   0.596   5.033  0.3338 -0.5136 -0.9053
 8871SOL    HW238076   2.339   0.518   5.115  0.0910  0.0290 -0.2647
 8872SOL     OW38077   3.216   4.358   7.961  0.4253  0.2751  0.2410
 8872SOL    HW138078   3.161   4.358   7.882 -0.1874 -1.5619  0.6597
 8872SOL    HW238079   3.288   4.413   7.930  0.0853  1.8607  2.3063
 8873SOL     OW38080   3.644   0.770   4.985  0.3115 -0.4337 -1.0908
 8873SOL    HW138081   3.725   0.804   4.948  1.1852 -0.3796  0.8597
 8873SOL    HW238082   3.667   0.678   5.002 -2.0543 -0.5481  1.6444
 8874SOL     OW38083   3.331   4.145   5.470 -0.0931  0.0736  0.3014
 8874SOL    HW138084   3.344   4.118   5.561 -2.3123  1.3404  1.0008
 8874SOL    HW238085   3.364   4.235   5.470  0.4023 -0.1069 -0.8396
 8875SOL     OW38086   3.738   3.774  12.378 -0.4054  0.1295  0.2460
 8875SOL    HW138087   3.688   3.767  12.296 -0.4827 -2.0381  0.4597
 8875SOL    HW238088   3.824   3.749  12.344  0.3312  1.6514  1.0137
 8876SOL     OW38089   2.352   3.401   3.885 -0.1375 -0.1790  0.4152
 8876SOL    HW138090   2.402   3.422   3.964 -0.0840 -2.0442  0.8653
 8876SOL    HW238091   2.296   3.334   3.924 -0.0952  0.1937  1.1276
 8877SOL     OW38092   2.622   0.109  15.839  0.2780  0.2719 -0.3291
 8877SOL    HW138093   2.692   0.052  15.807  1.8750  1.7697  0.5247
 8877SOL    HW238094   2.661   0.195  15.829 -0.5718  0.5779 -1.0371
 8878SOL     OW38095   2.806   2.417  10.966 -0.3568  0.3338 -0.6305
 8878SOL    HW138096   2.816   2.512  10.978 -2.0025  0.7443 -2.5731
 8878SOL    HW238097   2.883   2.378  11.007 -0.5780 -1.4050 -1.8696
 8879SOL     OW38098   1.317   4.068   8.108 -0.0980  0.2815 -1.0201
 8879SOL    HW138099   1.262   3.997   8.078  0.1753 -1.0702  1.6456
 8879SOL    HW238100   1.349   4.032   8.191 -0.2874  3.4897  0.4644
 8880SOL     OW38101   0.280   1.055   8.714  0.3101  0.1969  0.6522
 8880SOL    HW138102   0.305   1.097   8.797  0.4718  0.3784  0.5098
 8880SOL    HW238103   0.365   1.027   8.680 -1.1901 -1.4379 -1.7327
 8881SOL     OW38104   1.440   3.770   4.415 -0.1864  0.3699 -0.4127
 8881SOL    HW138105   1.485   3.716   4.480  1.5779  0.8305 -1.2559
 8881SOL    HW238106   1.493   3.850   4.418 -1.0965  0.9919 -0.9295
 8882SOL     OW38107   3.322   1.651   2.553  1.1402  0.5328 -0.1698
 8882SOL    HW138108   3.414   1.656   2.530  0.9930 -1.2532 -1.1799
 8882SOL    HW238109   3.314   1.577   2.614  2.0334  1.4819  1.0821
 8883SOL     OW38110   0.270   0.573  17.179 -0.4646 -0.5259 -0.4558
 8883SOL    HW138111   0.287   0.545  17.269  0.6104 -1.5594 -0.9804
 8883SOL    HW238112   0.176   0.591  17.177 -0.5606 -1.0058 -0.0701
 8884SOL     OW38113   4.079   3.145   8.452 -0.3925 -0.1999 -0.3978
 8884SOL    HW138114   4.005   3.135   8.394 -2.1672  0.0239  1.8092
 8884SOL    HW238115   4.109   3.231   8.421  0.6464  0.1841  1.6292
 8885SOL     OW38116   4.124   1.270   4.179 -0.3235  0.1709 -0.4110
 8885SOL    HW138117   4.096   1.180   4.194  0.5798  0.0667  0.6786
 8885SOL    HW238118   4.174   1.281   4.260 -0.4626  1.5615 -0.5084
 8886SOL     OW38119   1.602   2.842   7.859 -0.3077 -0.0169 -0.4523
 8886SOL    HW138120   1.582   2.879   7.773 -0.1386 -0.9615 -0.9033
 8886SOL    HW238121   1.661   2.771   7.832 -1.1555 -0.6640 -0.5938
 8887SOL     OW38122   4.565   2.749   7.183 -0.1284 -0.0406  0.2213
 8887SOL    HW138123   4.610   2.668   7.206 -0.7497 -0.8587 -1.4455
 8887SOL    HW238124   4.476   2.715   7.168 -0.0216 -0.5353  0.7299
 8888SOL     OW38125   3.805   1.339  12.891 -0.2023  0.5060  0.1872
 8888SOL    HW138126   3.882   1.313  12.840 -1.3983 -0.5764 -1.0735
 8888SOL    HW238127   3.726   1.314  12.843  1.2015 -1.9349 -0.8548
 8889SOL     OW38128   0.836   0.858   3.707 -0.0034  0.1064  0.1296
 8889SOL    HW138129   0.895   0.918   3.753 -1.0427  1.6017 -0.4976
 8889SOL    HW238130   0.813   0.906   3.628  1.2079  1.5602  0.6557
 8890SOL     OW38131   2.341   1.688   7.867  0.3444  0.3260 -0.6248
 8890SOL    HW138132   2.406   1.651   7.926  0.1348  0.1211 -0.5218
 8890SOL    HW238133   2.277   1.731   7.924  1.0008 -1.4750  1.4678
 8891SOL     OW38134   4.206   2.084  15.582  0.2779 -0.1562 -0.5434
 8891SOL    HW138135   4.227   2.153  15.518 -0.8900  0.5559 -0.1583
 8891SOL    HW238136   4.161   2.021  15.526  0.0691 -0.6690  0.1944
 8892SOL     OW38137   0.366   2.436   5.729 -0.1455 -0.1040 -0.0482
 8892SOL    HW138138   0.298   2.407   5.790  0.2991  1.6267  1.2726
 8892SOL    HW238139   0.411   2.357   5.700 -1.7259 -1.4424  1.1644
 8893SOL     OW38140   2.137   4.018   0.770  0.0476  0.0766 -1.2247
 8893SOL    HW138141   2.218   3.968   0.786 -1.2148 -0.7326  2.5216
 8893SOL    HW238142   2.097   3.961   0.704 -0.8105 -1.3023  0.4933
 8894SOL     OW38143   4.565   1.444  13.756 -0.4006  0.2464  0.5456
 8894SOL    HW138144   4.543   1.517  13.813 -0.7842 -1.5837  2.7442
 8894SOL    HW238145   4.661   1.454  13.753 -0.2860 -0.8500  0.4166
 8895SOL     OW38146   3.834   4.420  14.287 -0.3290 -0.4246 -0.2317
 8895SOL    HW138147   3.804   4.365  14.360  1.1196  0.4421  1.0169
 8895SOL    HW238148   3.873   4.351  14.232  1.9412 -0.3825  1.3170
 8896SOL     OW38149   0.858   4.156   3.748 -0.2968  0.7418  0.1877
 8896SOL    HW138150   0.873   4.062   3.738 -2.5171  0.4595 -0.5429
 8896SOL    HW238151   0.946   4.186   3.769 -0.0255  0.9669 -1.2558
 8897SOL     OW38152   2.603   1.393   9.107  0.3597 -0.4964  0.4687
 8897SOL    HW138153   2.683   1.411   9.058 -1.4070 -1.5662 -2.7516
 8897SOL    HW238154   2.536   1.398   9.039  0.0246  0.5503  0.8838
 8898SOL     OW38155   3.883   0.659   6.085  0.3269 -0.0509  0.0826
 8898SOL    HW138156   3.951   0.594   6.065 -1.0110 -1.3327 -0.2919
 8898SOL    HW238157   3.806   0.607   6.062 -0.3247  1.8666 -2.0490
 8899SOL     OW38158   1.273   3.890   2.571  0.1317 -0.1884 -0.1239
 8899SOL    HW138159   1.353   3.898   2.622  1.6499  0.6342 -2.6751
 8899SOL    HW238160   1.293   3.798   2.550 -1.1529 -0.0707 -1.9034
 8900SOL     OW38161   3.440   2.538  12.245 -0.7309 -0.1542 -0.0429
 8900SOL    HW138162   3.369   2.498  12.295 -0.1356  3.1762  3.4560
 8900SOL    HW238163   3.418   2.628  12.269  1.5112  1.1638 -2.9022
 8901SOL     OW38164   0.320   4.148  16.020 -0.3964  0.3816 -0.4249
 8901SOL    HW138165   0.396   4.113  16.067 -0.8268 -0.4225 -0.3456
 8901SOL    HW238166   0.260   4.161  16.093  0.1096  0.5582 -0.0450
 8902SOL     OW38167   3.737   0.002  12.461 -0.6028  0.2425 -0.4502
 8902SOL    HW138168   3.775   4.699  12.378  0.2920 -0.0161  0.0449
 8902SOL    HW238169   3.790   4.679  12.525 -1.1574 -1.0831 -1.0063
 8903SOL     OW38170   3.006   0.990   3.985  0.6230  0.0343 -0.5168
 8903SOL    HW138171   2.983   0.979   4.077 -0.3344  0.7168 -0.6767
 8903SOL    HW238172   2.942   1.057   3.961  0.1805 -0.8948 -1.9646
 8904SOL     OW38173   3.345   4.380   3.754 -0.2756  0.2310  0.2733
 8904SOL    HW138174   3.254   4.373   3.785 -0.7559  0.1840 -1.1368
 8904SOL    HW238175   3.390   4.386   3.838  2.7031  1.3745 -1.4133
 8905SOL     OW38176   3.727   1.399   5.388 -0.2355 -0.0759  0.1785
 8905SOL    HW138177   3.701   1.492   5.383  0.4297  0.0954  0.0001
 8905SOL    HW238178   3.649   1.343   5.382  1.1650 -1.9234 -0.5666
 8906SOL     OW38179   2.364   3.207  16.433 -0.1994 -0.4857  0.2781
 8906SOL    HW138180   2.302   3.144  16.396 -0.7561  0.3033 -0.1261
 8906SOL    HW238181   2.308   3.285  16.429  0.3236 -0.1505 -0.5150
 8907SOL     OW38182   4.383   0.925   8.998  0.0794 -0.5915 -0.0532
 8907SOL    HW138183   4.354   0.846   8.953  1.9687 -1.5330  0.4181
 8907SOL    HW238184   4.382   0.987   8.924 -0.6149 -0.7395 -0.1688
 8908SOL     OW38185   2.540   1.106  10.303  0.0422 -0.1730 -0.0500
 8908SOL    HW138186   2.529   1.201  10.301  1.4503  0.0553  1.9179
 8908SOL    HW238187   2.455   1.078  10.337 -0.1817  0.3569 -0.1768
 8909SOL     OW38188   3.976   2.552   2.247 -0.6683  0.3159 -0.3824
 8909SOL    HW138189   3.955   2.588   2.332 -1.5239  1.1897 -0.9622
 8909SOL    HW238190   4.071   2.564   2.244 -0.7372  0.8206 -0.4958
 8910SOL     OW38191   4.648   1.611   8.077  0.8519  0.2949 -0.5359
 8910SOL    HW138192   4.705   1.605   8.153  0.5126 -2.7471 -0.5156
 8910SOL    HW238193   4.711   1.633   8.009  0.6397  0.4513 -0.6848
 8911SOL     OW38194   0.024   4.291   0.371 -0.8234 -0.2057  0.0144
 8911SOL    HW138195   4.699   4.372   0.362  1.3294  1.0785 -0.4894
 8911SOL    HW238196   0.052   4.274   0.281  3.6750  0.8053  1.1861
 8912SOL     OW38197   1.406   4.483   6.410 -0.3319 -0.2017  0.2528
 8912SOL    HW138198   1.314   4.499   6.431 -1.0637 -0.0082 -2.9997
 8912SOL    HW238199   1.384   4.430   6.333 -1.1880 -0.9650  1.0132
 8913SOL     OW38200   0.473   1.443   7.768  0.1066 -0.4176 -0.4436
 8913SOL    HW138201   0.427   1.483   7.842  0.6433  1.5528 -1.1580
 8913SOL    HW238202   0.442   1.353   7.778 -0.0981 -0.1743  1.1710
 8914SOL     OW38203   1.938   2.002   3.232 -0.1268 -0.2799  0.8378
 8914SOL    HW138204   1.950   2.045   3.317  1.6204  1.9980 -0.5499
 8914SOL    HW238205   1.845   1.983   3.237 -0.9258  3.6035  0.3857
 8915SOL     OW38206   4.619   2.420  10.824  0.5682 -0.2211 -0.1561
 8915SOL    HW138207   4.591   2.416  10.732 -1.0743 -0.4281  0.3575
 8915SOL    HW238208   4.612   2.328  10.849  2.4425 -0.0120  1.1437
 8916SOL     OW38209   3.284   2.503   1.650 -0.2476  0.5545  0.0163
 8916SOL    HW138210   3.323   2.547   1.724 -1.8879  2.9984 -0.5729
 8916SOL    HW238211   3.358   2.446   1.629  0.8062  2.6154 -1.8531
 8917SOL     OW38212   3.361   4.722   1.832  0.3328 -0.1714  0.1983
 8917SOL    HW138213   3.313   0.003   1.914 -0.7903  2.1357 -0.6263
 8917SOL    HW238214   3.335   4.632   1.810  0.6221 -0.6282  1.7514
 8918SOL     OW38215   4.446   3.963   1.116 -0.2054  0.3460 -0.7538
 8918SOL    HW138216   4.412   3.986   1.029  2.2044 -2.5093 -2.4608
 8918SOL    HW238217   4.484   3.876   1.104 -0.9213 -0.4801  3.0213
 8919SOL     OW38218   1.129   0.025   6.003 -0.0838  0.3019 -0.7963
 8919SOL    HW138219   1.136   4.657   5.980 -0.7714  0.1188 -0.2571
 8919SOL    HW238220   1.222   0.040   5.987  0.3902 -1.4775  0.2058
 8920SOL     OW38221   1.249   4.240  12.097  0.0494  0.6567  0.0863
 8920SOL    HW138222   1.241   4.164  12.039  0.0196  1.3227 -0.7784
 8920SOL    HW238223   1.221   4.310  12.038 -2.0122 -0.3769 -0.1419
 8921SOL     OW38224   2.839   1.141   5.397 -0.2501 -0.1947 -0.0218
 8921SOL    HW138225   2.794   1.086   5.461  1.4562 -2.3658 -0.7060
 8921SOL    HW238226   2.911   1.169   5.454 -0.2075 -0.3795  0.0131
 8922SOL     OW38227   3.216   3.843   3.439 -0.4816 -0.1273 -0.2662
 8922SOL    HW138228   3.259   3.920   3.476  0.0025 -0.3359 -0.3961
 8922SOL    HW238229   3.154   3.830   3.511 -1.4016  1.4685 -0.7541
 8923SOL     OW38230   1.774   0.575  12.951 -0.1171  0.4676 -0.1797
 8923SOL    HW138231   1.843   0.510  12.961 -0.0236  0.6149  0.1286
 8923SOL    HW238232   1.699   0.529  12.914  0.3183  0.5346 -1.1459
 8924SOL     OW38233   3.814   1.440   3.995 -0.0103  0.4655 -0.4109
 8924SOL    HW138234   3.725   1.405   4.000  0.5536 -0.8405  0.4104
 8924SOL    HW238235   3.852   1.360   4.031  0.0850  1.5549  1.9670
 8925SOL     OW38236   2.919   4.089   5.784  0.2569  0.1564 -0.1274
 8925SOL    HW138237   2.893   4.046   5.866 -1.3410 -1.0138 -1.2358
 8925SOL    HW238238   3.007   4.115   5.812 -0.7018  1.3895  1.7923
 8926SOL     OW38239   1.711   0.414   3.305 -0.3227 -0.1672 -0.3011
 8926SOL    HW138240   1.670   0.331   3.327 -1.8242  0.9912  1.3382
 8926SOL    HW238241   1.656   0.482   3.346  1.9524  1.0157  0.8181
 8927SOL     OW38242   0.585   3.412   0.857 -0.3057 -0.2256 -0.2822
 8927SOL    HW138243   0.567   3.327   0.816 -3.0186  0.0066  0.4295
 8927SOL    HW238244   0.565   3.465   0.780 -2.0837 -0.3274  0.1122
 8928SOL     OW38245   0.836   2.503  12.659 -0.4597  0.2911  0.8486
 8928SOL    HW138246   0.851   2.414  12.690  2.2636  0.7514  0.8175
 8928SOL    HW238247   0.904   2.514  12.592 -1.5968 -1.3283 -0.5708
 8929SOL     OW38248   1.435   1.435   6.734 -0.1244 -0.1350 -0.4278
 8929SOL    HW138249   1.422   1.452   6.641 -0.2969  0.0884 -0.3635
 8929SOL    HW238250   1.356   1.475   6.772 -0.0337  1.5341 -1.9923
 8930SOL     OW38251   4.392   2.990   9.808  0.6886  0.1658 -0.9586
 8930SOL    HW138252   4.459   3.052   9.780  0.1108  0.8777 -0.7866
 8930SOL    HW238253   4.369   3.024   9.894  0.8033  0.9250 -1.2280
 8931SOL     OW38254   3.139   1.371   2.514 -0.2610  0.4019  0.1423
 8931SOL    HW138255   3.155   1.282   2.484 -2.4539  0.0647 -0.0135
 8931SOL    HW238256   3.223   1.413   2.494  0.5692 -0.8078  1.1074
 8932SOL     OW38257   3.297   1.552   9.157 -0.4297 -0.1379  0.0016
 8932SOL    HW138258   3.289   1.639   9.196  2.5250  0.9183 -1.7454
 8932SOL    HW238259   3.379   1.525   9.197 -0.9854 -2.7777 -0.6248
 8933SOL     OW38260   3.510   2.333   5.883  0.3884  0.4002  0.2512
 8933SOL    HW138261   3.502   2.380   5.966 -1.5282  1.1505 -0.3490
 8933SOL    HW238262   3.556   2.252   5.904 -0.4653 -0.2797 -0.4705
 8934SOL     OW38263   4.324   3.473   6.373 -0.1167 -0.2203  0.1164
 8934SOL    HW138264   4.411   3.442   6.348 -0.6253  0.0566 -2.0900
 8934SOL    HW238265   4.286   3.492   6.287  1.9501 -0.1361 -0.7696
 8935SOL     OW38266   4.632   4.328   3.490  0.2357  0.7338  0.0168
 8935SOL    HW138267   4.599   4.417   3.504 -0.7353  0.3652  0.0652
 8935SOL    HW238268   0.001   4.345   3.492  0.3204  0.3257 -0.6449
 8936SOL     OW38269   4.477   2.360   5.530 -0.2696 -0.2151  0.1809
 8936SOL    HW138270   4.499   2.309   5.608  1.5757  0.1925 -0.0795
 8936SOL    HW238271   4.387   2.327   5.524 -0.9836  1.9872 -1.0671
 8937SOL     OW38272   1.564   2.914  14.117 -0.0273 -0.1738 -0.2594
 8937SOL    HW138273   1.523   2.922  14.203  2.4222  0.6459  0.8163
 8937SOL    HW238274   1.581   3.005  14.093  0.8484 -0.0944  0.6433
 8938SOL     OW38275   4.089   0.775   4.591  0.4265 -0.1812 -0.2706
 8938SOL    HW138276   4.062   0.689   4.560 -0.7728  0.6062 -1.3985
 8938SOL    HW238277   4.108   0.756   4.683  1.1772 -0.2094 -0.4326
 8939SOL     OW38278   1.492   3.904   6.134 -0.6441  0.0829  0.2405
 8939SOL    HW138279   1.584   3.881   6.120 -0.4698  2.4661 -2.4617
 8939SOL    HW238280   1.451   3.818   6.131 -2.1681  0.7874  0.5249
 8940SOL     OW38281   4.121   3.436  15.394 -0.2911  0.2988  0.0680
 8940SOL    HW138282   4.203   3.466  15.353 -0.9586  2.0496 -0.0018
 8940SOL    HW238283   4.129   3.341  15.397 -0.2594  0.3043  0.1532
 8941SOL     OW38284   4.516   1.789  10.629  0.6938 -0.7857 -0.0137
 8941SOL    HW138285   4.599   1.821  10.595  0.6334  1.4743  1.9422
 8941SOL    HW238286   4.552   1.736  10.700  1.6875  0.0730  0.1143
 8942SOL     OW38287   3.355   2.716   7.052 -0.2359  0.0007 -0.0953
 8942SOL    HW138288   3.304   2.717   7.133 -1.3278  0.1561 -0.7837
 8942SOL    HW238289   3.440   2.680   7.078 -1.2580 -1.4962  1.1320
 8943SOL     OW38290   2.281   4.522  16.240  0.2620  0.2244  0.3936
 8943SOL    HW138291   2.235   4.542  16.322 -1.9595  0.0660 -0.8067
 8943SOL    HW238292   2.289   4.430  16.264  0.2775  0.3684  0.9365
 8944SOL     OW38293   2.017   0.178   2.359 -0.2964 -0.1781  0.4490
 8944SOL    HW138294   2.087   0.223   2.406  0.0265 -0.2992  0.0883
 8944SOL    HW238295   2.055   0.092   2.342  0.8753  0.1000  1.7090
 8945SOL     OW38296   0.485   0.953   3.435 -0.3878 -0.4171  0.1938
 8945SOL    HW138297   0.448   0.864   3.432 -0.1073 -0.5507  0.7695
 8945SOL    HW238298   0.410   1.009   3.456 -1.9447 -1.6598 -1.9589
 8946SOL     OW38299   3.961   3.256   8.221 -0.4005  0.1761  0.1257
 8946SOL    HW138300   3.994   3.343   8.245  2.3740 -1.0094  0.5894
 8946SOL    HW238301   4.040   3.220   8.182 -1.2366 -0.9001 -0.5640
 8947SOL     OW38302   3.239   0.283   6.896  0.7414  0.6258  0.3273
 8947SOL    HW138303   3.172   0.224   6.930  0.9005 -0.2687 -0.9219
 8947SOL    HW238304   3.197   0.364   6.925 -2.3143 -0.7266 -0.2960
 8948SOL     OW38305   1.859   2.204  13.942 -0.6329 -0.0329  0.0581
 8948SOL    HW138306   1.953   2.195  13.932 -0.9199 -3.4388  0.1562
 8948SOL    HW238307   1.836   2.200  13.849 -1.5072  0.8469  0.2382
 8949SOL     OW38308   3.202   4.286   2.486 -0.0085  0.6163  0.1192
 8949SOL    HW138309   3.123   4.288   2.540  0.6766 -1.1380  1.1584
 8949SOL    HW238310   3.184   4.201   2.445 -0.6534  0.3691  0.9164
 8950SOL     OW38311   4.328   2.619   5.917 -0.2024  0.6182 -0.4454
 8950SOL    HW138312   4.369   2.554   5.974 -0.1115  0.3363 -0.8332
 8950SOL    HW238313   4.276   2.664   5.984  0.6587  1.4704 -0.3422
 8951SOL     OW38314   0.402   0.341   5.231 -0.8540  1.0330 -0.0592
 8951SOL    HW138315   0.393   0.436   5.241  0.1891  0.8759  2.1933
 8951SOL    HW238316   0.394   0.312   5.322 -0.7654  0.6298 -0.1787
 8952SOL     OW38317   3.310   0.085   6.729 -0.4110  0.1478 -0.5106
 8952SOL    HW138318   3.231   0.100   6.679 -0.8622 -1.5113 -0.2984
 8952SOL    HW238319   3.305   0.149   6.800 -0.5463  0.3731 -0.7289
 8953SOL     OW38320   0.340   1.445   2.702 -0.1709  0.3591 -0.0125
 8953SOL    HW138321   0.424   1.416   2.738 -0.3477 -0.0285  0.0961
 8953SOL    HW238322   0.358   1.476   2.614  0.2319  0.5655  0.1402
 8954SOL     OW38323   4.365   0.366   8.990 -0.0116 -0.4070 -0.4450
 8954SOL    HW138324   4.299   0.408   9.046  0.8158  0.8641 -0.4314
 8954SOL    HW238325   4.365   0.419   8.911  0.5447 -0.0354 -0.1944
 8955SOL     OW38326   4.427   3.762   9.157 -0.2742  0.0514 -0.7833
 8955SOL    HW138327   4.502   3.724   9.112  0.8071 -0.4127  1.4179
 8955SOL    HW238328   4.411   3.842   9.108 -1.8971 -0.6292 -1.3874
 8956SOL     OW38329   2.448   2.867  17.613 -0.2780 -0.3256 -0.2754
 8956SOL    HW138330   2.494   2.950  17.603  1.1459 -1.3080 -1.9789
 8956SOL    HW238331   2.504   2.801  17.572  1.8296  2.2861 -1.5518
 8957SOL     OW38332   1.943   3.000   5.287 -0.8753 -0.0535  0.5490
 8957SOL    HW138333   1.925   2.918   5.333 -2.0098 -0.3350 -0.3937
 8957SOL    HW238334   2.035   3.006   5.314 -0.6872 -1.4507  0.2413
 8958SOL     OW38335   1.592   3.605   0.927 -0.5049 -0.0621 -0.6113
 8958SOL    HW138336   1.528   3.674   0.909  0.2864  0.6156 -0.8040
 8958SOL    HW238337   1.538   3.561   0.993 -0.7634 -0.4226 -1.0656
 8959SOL     OW38338   1.057   4.612   4.061  0.5593  0.2762 -0.1531
 8959SOL    HW138339   1.012   4.611   3.977  0.5818  1.1139 -0.1829
 8959SOL    HW238340   1.147   4.597   4.033  0.8593  0.9096  0.4603
 8960SOL     OW38341   0.732   2.220  12.401 -0.1986  0.3114  0.2231
 8960SOL    HW138342   0.795   2.185  12.463  1.7099  0.8072 -1.4570
 8960SOL    HW238343   0.754   2.312  12.419 -1.1875  0.4361  0.8287
 8961SOL     OW38344   1.005   1.079   2.312  0.1877  0.7928 -0.3241
 8961SOL    HW138345   1.083   1.124   2.344  0.6275  0.9202 -1.5679
 8961SOL    HW238346   0.985   1.117   2.226 -0.5462 -0.9037 -0.9100
 8962SOL     OW38347   4.151   3.195   7.302 -0.3488 -0.1925  0.1108
 8962SOL    HW138348   4.162   3.209   7.208  3.6565  0.2217  0.6509
 8962SOL    HW238349   4.172   3.281   7.338  0.4318 -0.6723  0.8020
 8963SOL     OW38350   4.356   0.122  15.340 -0.0433  0.4186 -0.1523
 8963SOL    HW138351   4.436   0.069  15.348 -1.5313 -1.4967  1.8747
 8963SOL    HW238352   4.369   0.156  15.251  1.7444 -1.2487 -0.5521
 8964SOL     OW38353   3.162   1.873   1.561  0.1431  0.4247 -0.2778
 8964SOL    HW138354   3.139   1.789   1.599  2.3101  0.5734  1.3673
 8964SOL    HW238355   3.174   1.921   1.643 -0.3131  0.3979 -0.1996
 8965SOL     OW38356   2.666   3.472   7.849  0.5687 -0.2350 -0.9010
 8965SOL    HW138357   2.693   3.533   7.780  0.1892  0.4018 -0.4919
 8965SOL    HW238358   2.735   3.407   7.861  0.4857 -0.3171 -0.8765
 8966SOL     OW38359   2.739   4.352   2.196 -0.8691  0.6884 -0.6218
 8966SOL    HW138360   2.813   4.308   2.239 -1.5805 -1.0400 -1.2088
 8966SOL    HW238361   2.720   4.301   2.118  2.2271 -0.4303 -0.6515
 8967SOL     OW38362   1.565   3.755   8.499  0.3769 -0.2342 -0.1010
 8967SOL    HW138363   1.483   3.739   8.546  0.3278 -0.4637 -0.2645
 8967SOL    HW238364   1.576   3.850   8.498  0.6859 -0.2700 -0.1107
 8968SOL     OW38365   4.349   3.996  16.290  0.0597 -0.4444  0.0179
 8968SOL    HW138366   4.271   4.051  16.287  0.2536 -0.0670  1.9700
 8968SOL    HW238367   4.320   3.906  16.298 -0.5232 -0.4965 -2.7054
 8969SOL     OW38368   3.455   2.770   8.291  0.1802  0.4850 -0.5981
 8969SOL    HW138369   3.451   2.763   8.387  0.9132  2.7284 -0.4025
 8969SOL    HW238370   3.516   2.697   8.282  1.3330  1.6237 -2.0181
 8970SOL     OW38371   4.493   4.011   3.231 -0.1263 -0.0256  0.4152
 8970SOL    HW138372   4.537   4.096   3.226 -0.6752  0.2503  0.2512
 8970SOL    HW238373   4.443   4.019   3.313 -1.0367 -1.7300  0.0270
 8971SOL     OW38374   1.228   1.079  13.147  0.2572 -0.6978  0.2184
 8971SOL    HW138375   1.320   1.093  13.128 -0.6038  2.7196 -1.4082
 8971SOL    HW238376   1.200   1.170  13.156 -1.4972 -1.0698 -1.3265
 8972SOL     OW38377   1.576   0.049  13.762 -0.3554  0.5658  0.2708
 8972SOL    HW138378   1.531   0.132  13.777  1.7909  1.6384  0.7385
 8972SOL    HW238379   1.523   0.019  13.688  2.7795 -0.2827 -1.6428
 8973SOL     OW38380   2.773   2.983  11.905 -0.1453 -0.9113  0.1411
 8973SOL    HW138381   2.848   3.018  11.857 -0.8861  0.6295  0.1281
 8973SOL    HW238382   2.778   2.891  11.878  1.9985 -1.4817  2.5899
 8974SOL     OW38383   0.795   3.856   2.868 -0.2295 -0.0533  0.2938
 8974SOL    HW138384   0.708   3.827   2.841  0.9287 -1.3223 -2.0815
 8974SOL    HW238385   0.828   3.790   2.930  2.0134  0.1909 -0.6246
 8975SOL     OW38386   3.606   0.183   4.413  0.1845  0.1854 -0.8370
 8975SOL    HW138387   3.515   0.162   4.434  0.5559  0.4221  0.9591
 8975SOL    HW238388   3.586   0.268   4.373  0.0447  0.1459 -0.8518
 8976SOL     OW38389   0.960   2.821  13.820  0.6226 -0.4362  0.0086
 8976SOL    HW138390   0.923   2.844  13.906  1.3760  0.7265  0.0288
 8976SOL    HW238391   0.944   2.895  13.761  2.0078  0.8949  1.2890
 8977SOL     OW38392   3.809   0.982   7.448 -0.1730  0.4593 -0.0468
 8977SOL    HW138393   3.782   0.963   7.358 -0.8583 -1.0756  0.4851
 8977SOL    HW238394   3.726   0.960   7.491  0.2077  1.2649  1.1158
 8978SOL     OW38395   3.309   2.595  15.159  0.5198 -0.4309  0.2340
 8978SOL    HW138396   3.261   2.513  15.159  2.0789 -1.3428 -1.0068
 8978SOL    HW238397   3.379   2.584  15.222 -0.1888  4.4480  1.9131
 8979SOL     OW38398   1.597   2.162  12.377 -0.1272 -0.3731 -0.0404
 8979SOL    HW138399   1.568   2.143  12.288 -3.4974  2.1318  0.5165
 8979SOL    HW238400   1.674   2.105  12.379  0.8253  0.8366 -1.8313
 8980SOL     OW38401   2.052   2.147   3.014 -0.0416  0.1359  1.0443
 8980SOL    HW138402   2.053   2.053   3.033  1.3212 -0.1818 -0.6275
 8980SOL    HW238403   2.073   2.149   2.921 -1.6493 -0.8504  0.6568
 8981SOL     OW38404   1.194   0.877   2.236  0.2682 -0.0352 -0.0138
 8981SOL    HW138405   1.113   0.929   2.235 -1.5246 -2.8342 -0.4802
 8981SOL    HW238406   1.153   0.793   2.255 -0.3813 -0.0387 -1.4269
 8982SOL     OW38407   3.541   0.965   0.390  0.3756 -0.4180  0.5134
 8982SOL    HW138408   3.564   0.958   0.297  0.1701 -0.9168  0.5014
 8982SOL    HW238409   3.463   0.912   0.406 -0.0390 -0.2501 -0.9180
 8983SOL     OW38410   3.502   4.495  15.341  0.5042 -0.0192 -0.0511
 8983SOL    HW138411   3.499   4.441  15.262  0.8556  1.5903 -1.1616
 8983SOL    HW238412   3.437   4.443  15.389  0.7762 -0.8367 -0.5619
 8984SOL     OW38413   3.208   2.441  17.515 -0.0549  0.0749 -0.3210
 8984SOL    HW138414   3.249   2.435  17.429 -0.0774  1.5575 -0.4388
 8984SOL    HW238415   3.153   2.519  17.507 -1.0522 -0.6926 -0.8972
 8985SOL     OW38416   4.007   4.049   9.607  0.6948 -0.0706  0.3431
 8985SOL    HW138417   3.923   4.013   9.578  0.1299  1.5915 -0.0618
 8985SOL    HW238418   3.981   4.118   9.668  0.2724  0.4485 -0.4252
 8986SOL     OW38419   2.475   3.122   7.330  0.2833  0.0519 -0.1173
 8986SOL    HW138420   2.419   3.152   7.258 -1.6457 -0.8877  0.9744
 8986SOL    HW238421   2.414   3.122   7.404 -0.9175  0.4620 -1.1034
 8987SOL     OW38422   4.010   3.004   6.570  0.0850 -0.5314  0.0449
 8987SOL    HW138423   3.936   2.988   6.512 -0.5296  0.5350  0.5281
 8987SOL    HW238424   4.041   2.919   6.602 -2.1063 -1.4799 -0.3841
 8988SOL     OW38425   0.624   0.134   0.292 -0.0531 -0.7769  0.4936
 8988SOL    HW138426   0.697   0.075   0.275  0.4367  0.1008 -0.4443
 8988SOL    HW238427   0.593   0.148   0.203  1.2281  0.1167  0.1913
 8989SOL     OW38428   0.315   2.889   3.625  0.6772 -0.1282  0.9755
 8989SOL    HW138429   0.408   2.908   3.636  0.4367  1.1316  0.8541
 8989SOL    HW238430   0.300   2.939   3.545  0.9536 -1.6129 -0.0049
 8990SOL     OW38431   3.150   3.446  12.268 -0.2319 -0.0336 -0.0181
 8990SOL    HW138432   3.101   3.365  12.254  2.5310 -1.6267 -0.3386
 8990SOL    HW238433   3.239   3.435  12.234  0.3338  2.3537  0.6933
 8991SOL     OW38434   0.247   0.360   1.440 -0.2484  0.0781 -0.3969
 8991SOL    HW138435   0.227   0.402   1.523 -1.7084  1.2223 -1.3304
 8991SOL    HW238436   0.302   0.426   1.397 -0.1253 -0.6843 -1.4195
 8992SOL     OW38437   0.727   4.307   7.134 -0.0910 -0.0444 -0.0451
 8992SOL    HW138438   0.637   4.337   7.116  0.2625  1.0817  0.1073
 8992SOL    HW238439   0.785   4.346   7.069  0.0832  0.0039  0.1432
 8993SOL     OW38440   2.089   3.171   2.218 -0.1319 -0.2350 -0.8138
 8993SOL    HW138441   2.039   3.223   2.156  0.7272 -0.4110 -1.6470
 8993SOL    HW238442   2.028   3.100   2.237 -1.2859  0.5887 -1.4324
 8994SOL     OW38443   2.392   1.270   4.253  0.2237 -0.3990 -0.2249
 8994SOL    HW138444   2.384   1.174   4.259 -0.8247 -0.4331 -2.3129
 8994SOL    HW238445   2.425   1.274   4.163 -0.4983  1.0437 -0.4150
 8995SOL     OW38446   1.487   2.317   6.000  0.4171 -0.4449 -0.5568
 8995SOL    HW138447   1.514   2.406   5.978  1.1796 -0.1675  1.4251
 8995SOL    HW238448   1.439   2.331   6.082 -1.2565  1.3372 -1.8346
 8996SOL     OW38449   2.515   3.844   8.489  1.0079 -0.0139  0.3178
 8996SOL    HW138450   2.558   3.925   8.461 -0.5796  0.4890 -0.6934
 8996SOL    HW238451   2.525   3.780   8.419 -0.0713 -0.3096  0.4353
 8997SOL     OW38452   0.552   3.671  13.208 -0.1385  0.1409  0.0229
 8997SOL    HW138453   0.459   3.691  13.214 -0.0457  0.3073  0.8997
 8997SOL    HW238454   0.559   3.644  13.116 -3.1628  0.4008 -0.2631
 8998SOL     OW38455   3.023   0.978   3.643 -0.5479 -0.4085  0.7796
 8998SOL    HW138456   2.965   0.908   3.673 -0.8352 -0.6136 -0.2595
 8998SOL    HW238457   3.106   0.931   3.636 -0.5963 -0.0975 -1.8030
 8999SOL     OW38458   0.477   1.428   3.292  0.2366 -0.2291  0.0598
 8999SOL    HW138459   0.500   1.514   3.257 -1.5877 -0.8771 -2.7861
 8999SOL    HW238460   0.564   1.388   3.294 -0.0996 -0.9367  0.5773
 9000SOL     OW38461   0.318   4.285  13.674  0.7089  0.0134 -0.3441
 9000SOL    HW138462   0.246   4.254  13.620 -0.6091 -0.2077  1.5495
 9000SOL    HW238463   0.349   4.358  13.620  1.5896 -1.0173 -1.2356
 9001SOL     OW38464   0.099   3.042   5.009 -0.3697  0.6876  0.0110
 9001SOL    HW138465   0.019   3.029   4.958 -0.9789 -1.3130  1.4467
 9001SOL    HW238466   0.146   3.112   4.964  1.6827 -1.4235 -1.1095
 9002SOL     OW38467   2.551   0.767  10.200 -0.0395 -0.3365  0.0822
 9002SOL    HW138468   2.598   0.685  10.211  1.1809  0.4852  0.9901
 9002SOL    HW238469   2.492   0.748  10.127 -0.4939 -0.2973  0.4417
 9003SOL     OW38470   3.320   2.708  10.480 -0.2730  0.4208  0.4503
 9003SOL    HW138471   3.238   2.714  10.431 -0.9963 -1.7170  1.3594
 9003SOL    HW238472   3.359   2.624  10.457 -0.3086  0.6611 -0.4546
 9004SOL     OW38473   0.503   4.242   9.026 -0.4237 -0.2620 -0.2997
 9004SOL    HW138474   0.556   4.198   8.959 -0.5914 -1.1160  0.1403
 9004SOL    HW238475   0.489   4.180   9.097 -2.1560  0.1065 -0.3293
 9005SOL     OW38476   1.508   0.052   9.485  0.1593  0.3196  0.7811
 9005SOL    HW138477   1.571   0.122   9.466 -0.6162  1.0554  0.9389
 9005SOL    HW238478   1.426   0.096   9.507 -0.4604 -1.1853  1.4904
 9006SOL     OW38479   1.427   0.150   2.270 -0.1473 -0.3819  0.6088
 9006SOL    HW138480   1.410   0.108   2.186  2.7562 -0.9064  0.2794
 9006SOL    HW238481   1.509   0.103   2.279 -0.1461 -0.1514  1.7623
 9007SOL     OW38482   3.823   0.791   8.584 -0.4266  0.1804  0.7033
 9007SOL    HW138483   3.895   0.731   8.604 -0.0352 -0.0551 -1.4098
 9007SOL    HW238484   3.877   0.863   8.551 -2.1876  0.8497 -0.7411
 9008SOL     OW38485   3.602   2.171   4.066 -0.3844  0.1637  0.6426
 9008SOL    HW138486   3.610   2.122   3.985  0.0787  0.9793  0.2006
 9008SOL    HW238487   3.636   2.257   4.042  1.3545 -0.1657  1.8953
 9009SOL     OW38488   2.795   3.250  15.301  0.2336 -0.0363 -0.3134
 9009SOL    HW138489   2.884   3.279  15.319 -0.1614 -0.4604  2.4617
 9009SOL    HW238490   2.761   3.226  15.388 -0.2853  1.1081 -0.2065
 9010SOL     OW38491   1.943   3.198   6.945 -0.7278  0.3911  0.5903
 9010SOL    HW138492   1.852   3.216   6.967 -1.0197 -1.5341  1.0029
 9010SOL    HW238493   1.977   3.176   7.032 -2.0596  1.1890  1.3060
 9011SOL     OW38494   3.887   0.556  11.026  0.3782  0.4556 -0.5848
 9011SOL    HW138495   3.956   0.547  10.960  0.3035 -1.9127 -0.3447
 9011SOL    HW238496   3.935   0.579  11.105 -0.5602 -0.5473  0.2798
 9012SOL     OW38497   4.127   4.131   0.165  0.3963  0.9394  0.0598
 9012SOL    HW138498   4.055   4.117   0.227 -0.8950 -1.2998 -1.9099
 9012SOL    HW238499   4.139   4.048   0.119  1.9324  0.6159  1.0439
 9013SOL     OW38500   4.085   0.598  10.272  0.1620  0.3040 -0.3089
 9013SOL    HW138501   4.093   0.517  10.221 -0.6878  0.5162 -0.7800
 9013SOL    HW238502   4.166   0.578  10.318  0.5428 -1.9002 -1.8993
 9014SOL     OW38503   4.168   0.642   1.976 -0.3430  0.3889  0.2496
 9014SOL    HW138504   4.251   0.674   2.011  0.7347  0.7100 -2.5729
 9014SOL    HW238505   4.191   0.614   1.887 -1.1430  1.9523 -0.4403
 9015SOL     OW38506   0.962   1.199   2.976  0.4503 -0.0668  0.1062
 9015SOL    HW138507   0.871   1.191   2.947  0.0318  1.9071  0.8498
 9015SOL    HW238508   0.995   1.114   2.947 -2.6831 -1.8318  1.7434
 9016SOL     OW38509   2.735   2.941   3.387 -0.2806 -0.1885  0.7209
 9016SOL    HW138510   2.649   2.966   3.351  0.1494 -0.8701 -0.7556
 9016SOL    HW238511   2.771   3.030   3.394  0.5356 -0.4351 -0.4207
 9017SOL     OW38512   3.912   0.441   9.501 -0.0998 -0.0545 -0.3478
 9017SOL    HW138513   3.820   0.427   9.526  0.7738 -1.0304  2.2904
 9017SOL    HW238514   3.938   0.360   9.457  3.4659  1.0406 -0.2397
 9018SOL     OW38515   0.459   1.786   3.969 -0.5269 -0.4079  0.3688
 9018SOL    HW138516   0.374   1.830   3.981  0.4352  1.3345  0.8602
 9018SOL    HW238517   0.436   1.739   3.888  0.3345 -1.1039  0.5303
 9019SOL     OW38518   4.376   0.206  15.068 -0.1687  0.3357 -0.2314
 9019SOL    HW138519   4.286   0.224  15.096  0.0315  1.1241 -0.0826
 9019SOL    HW238520   4.366   0.137  15.003 -0.7503  2.3488 -2.2795
 9020SOL     OW38521   2.567   1.050   8.628  0.4676  0.6164  0.2988
 9020SOL    HW138522   2.556   1.039   8.534  0.8475  0.3729  0.2845
 9020SOL    HW238523   2.660   1.062   8.644  0.4840  0.9631 -0.0554
 9021SOL     OW38524   0.292   2.299   5.153 -0.2631 -0.1615 -0.4763
 9021SOL    HW138525   0.299   2.362   5.225  0.0237  2.3943 -2.7401
 9021SOL    HW238526   0.384   2.279   5.134  0.3414  1.8068  0.3300
 9022SOL     OW38527   4.350   1.277   2.319  0.6218 -0.4031 -0.2360
 9022SOL    HW138528   4.304   1.222   2.255  1.0735  0.5325 -1.3665
 9022SOL    HW238529   4.439   1.249   2.297  1.3631  0.9419  1.0706
 9023SOL     OW38530   2.961   2.083   7.896 -0.2189  0.5829 -0.2565
 9023SOL    HW138531   3.005   2.132   7.965 -2.1908  2.7397 -0.5486
 9023SOL    HW238532   3.029   2.030   7.855 -1.3678 -2.9497  2.3918
 9024SOL     OW38533   3.399   1.513   8.662  0.3542  0.3634 -0.1523
 9024SOL    HW138534   3.361   1.560   8.736  0.0961  1.1184 -0.7613
 9024SOL    HW238535   3.461   1.455   8.706 -0.4654 -0.3350  0.0765
 9025SOL     OW38536   3.605   2.492  14.065  0.4608  0.0958  0.2846
 9025SOL    HW138537   3.534   2.539  14.110  0.9431 -0.6328  1.8130
 9025SOL    HW238538   3.557   2.453  13.992 -0.4182 -1.1355  1.5248
 9026SOL     OW38539   0.391   0.490   4.825 -0.1046  0.0574 -0.1546
 9026SOL    HW138540   0.301   0.516   4.806  0.6592  1.8394 -1.3417
 9026SOL    HW238541   0.377   0.407   4.870  1.6483 -0.9090 -1.3363
 9027SOL     OW38542   3.920   3.266   7.475 -0.3311 -0.3469  0.5988
 9027SOL    HW138543   3.918   3.274   7.380 -0.1846  1.2685  0.7440
 9027SOL    HW238544   3.973   3.187   7.487 -0.0413 -0.2035  0.2654
 9028SOL     OW38545   1.266   0.082   0.060  0.0098  0.3396  0.4891
 9028SOL    HW138546   1.179   0.061   0.093 -0.1943  0.9367  0.3319
 9028SOL    HW238547   1.313   4.724   0.072  1.9158  1.2345 -0.8609
 9029SOL     OW38548   1.780   0.105   8.573  0.2133 -0.0911 -0.2379
 9029SOL    HW138549   1.848   0.149   8.625 -1.0196  2.5406 -0.8698
 9029SOL    HW238550   1.735   0.177   8.529 -0.7186 -1.1660 -1.0182
 9030SOL     OW38551   0.333   1.479   8.724 -0.5600  0.3998 -0.2681
 9030SOL    HW138552   0.384   1.517   8.796 -2.4511  2.1753  0.1362
 9030SOL    HW238553   0.381   1.514   8.649  0.6989  0.8121  0.7236
 9031SOL     OW38554   4.174   0.910   8.681  0.3505  0.2105  0.0446
 9031SOL    HW138555   4.143   0.847   8.617 -0.5208 -1.5355  2.2026
 9031SOL    HW238556   4.183   0.846   8.752  1.0665  1.7305  1.3353
 9032SOL     OW38557   1.182   0.647   6.790  0.3104 -0.9711 -0.7198
 9032SOL    HW138558   1.249   0.709   6.763 -1.2347 -0.3334 -3.0417
 9032SOL    HW238559   1.204   0.565   6.746 -0.6959  0.1500 -3.3141
 9033SOL     OW38560   4.564   4.188   5.828  0.9136 -0.2147  0.6369
 9033SOL    HW138561   4.626   4.139   5.882  0.6223 -1.2597  0.0137
 9033SOL    HW238562   4.625   4.250   5.786  0.6440 -0.9926 -0.9018
 9034SOL     OW38563   4.403   2.520   6.147  0.3665  0.1913  0.3366
 9034SOL    HW138564   4.421   2.603   6.193  1.5015 -1.0882  2.2004
 9034SOL    HW238565   4.319   2.500   6.190  0.1323  1.6025  0.5606
 9035SOL     OW38566   0.489   1.650   6.212 -0.7038  0.3259 -0.0277
 9035SOL    HW138567   0.450   1.582   6.157 -0.0341  0.2540 -0.4166
 9035SOL    HW238568   0.478   1.605   6.295 -0.5771 -1.2449 -0.8692
 9036SOL     OW38569   1.550   3.003   4.831 -0.2275  0.1753  0.1730
 9036SOL    HW138570   1.563   3.072   4.896  1.4042  0.4037 -0.3967
 9036SOL    HW238571   1.636   2.962   4.830  0.9701  2.6411  0.9782
 9037SOL     OW38572   0.224   0.977  12.128 -0.1576 -0.0873 -0.2231
 9037SOL    HW138573   0.171   1.006  12.203 -2.8314 -0.0911 -2.1296
 9037SOL    HW238574   0.205   0.883  12.125  0.7799 -0.1711 -3.0127
 9038SOL     OW38575   0.022   1.086   5.894  0.5052  0.4578 -0.3031
 9038SOL    HW138576   0.062   1.171   5.909  0.2197  0.1225  2.2671
 9038SOL    HW238577   0.043   1.069   5.802  0.9037 -3.0775  0.4218
 9039SOL     OW38578   3.557   3.357   3.740 -0.3199 -0.2773  0.1933
 9039SOL    HW138579   3.569   3.330   3.831 -3.4843 -3.3022 -0.2638
 9039SOL    HW238580   3.464   3.336   3.735  0.0118 -1.5861 -0.5100
 9040SOL     OW38581   4.483   1.405   8.254  0.1566  0.4065 -0.6205
 9040SOL    HW138582   4.469   1.487   8.301 -1.6671 -0.1962 -0.1125
 9040SOL    HW238583   4.399   1.361   8.264  1.1409 -1.2755  0.4378
 9041SOL     OW38584   2.919   3.939   0.059  0.3309  0.2729  0.2563
 9041SOL    HW138585   3.013   3.954   0.056  0.1042  1.4609 -1.0961
 9041SOL    HW238586   2.919   3.845   0.042 -1.5307  0.2534  0.3367
 9042SOL     OW38587   0.566   2.992   6.405 -0.3263  0.2071  0.4900
 9042SOL    HW138588   0.633   2.982   6.473 -2.0329  1.4149  2.3343
 9042SOL    HW238589   0.494   2.951   6.454 -1.7622  0.2290 -1.6106
 9043SOL     OW38590   1.357   4.308   6.210 -0.7567 -0.0323 -0.3790
 9043SOL    HW138591   1.334   4.303   6.117  0.7214  0.9337 -0.7901
 9043SOL    HW238592   1.343   4.218   6.240 -0.0413  0.4088  1.2753
 9044SOL     OW38593   1.016   1.685   6.225  0.7904 -0.4431  0.8295
 9044SOL    HW138594   1.002   1.596   6.256 -1.6144  0.1121  1.3247
 9044SOL    HW238595   0.971   1.748   6.281 -0.8392 -0.0538 -0.9058
 9045SOL     OW38596   3.731   1.319   2.702 -0.1816 -0.6307 -0.2608
 9045SOL    HW138597   3.651   1.268   2.708 -0.4132  0.0370  2.1192
 9045SOL    HW238598   3.783   1.266   2.641 -0.3934 -1.1667  0.0298
 9046SOL     OW38599   4.470   4.509   5.079  0.4020  0.1088 -0.2479
 9046SOL    HW138600   4.537   4.572   5.107 -3.3349  3.5636  0.9656
 9046SOL    HW238601   4.506   4.473   4.998  2.3835 -0.6051  0.9373
 9047SOL     OW38602   0.537   1.101   3.864  0.5286 -0.2502 -0.2745
 9047SOL    HW138603   0.530   1.027   3.803  0.3455  0.1795 -0.7825
 9047SOL    HW238604   0.505   1.172   3.808  1.5920  0.6613  0.2799
 9048SOL     OW38605   3.798   1.018   1.781  0.0080  0.1466 -0.1357
 9048SOL    HW138606   3.825   0.942   1.832  3.0842  0.5454 -1.1529
 9048SOL    HW238607   3.877   1.072   1.776 -0.0913  0.3113  0.1138
 9049SOL     OW38608   0.455   1.957   2.444  0.4309 -0.4679 -0.2041
 9049SOL    HW138609   0.549   1.973   2.434  0.4398  0.9895  2.2237
 9049SOL    HW238610   0.452   1.882   2.503  0.3498 -1.5243 -1.5575
 9050SOL     OW38611   0.392   0.294   8.877 -0.2508 -0.4522  0.1830
 9050SOL    HW138612   0.476   0.341   8.873 -1.0018  0.9016  0.3409
 9050SOL    HW238613   0.386   0.277   8.971  1.3268  1.0410  0.5488
 9051SOL     OW38614   3.630   2.437   2.015 -0.0766  0.2045  0.5318
 9051SOL    HW138615   3.671   2.390   1.943 -0.9606  1.6584 -0.8962
 9051SOL    HW238616   3.545   2.393   2.024 -0.5613  0.8069 -1.1833
 9052SOL     OW38617   2.931   2.643  12.264  0.2780 -0.4285 -0.4541
 9052SOL    HW138618   2.964   2.583  12.197  0.4087  0.2198 -0.9769
 9052SOL    HW238619   2.843   2.667  12.235 -0.6879 -0.6689  2.2924
 9053SOL     OW38620   4.063   3.639   3.278 -0.0921  0.1793 -0.2431
 9053SOL    HW138621   4.071   3.671   3.188  0.5781  2.1874  0.5211
 9053SOL    HW238622   4.014   3.701   3.332 -1.3423 -0.9381 -0.0758
 9054SOL     OW38623   0.989   1.915   7.807  0.0197  0.2229  0.3789
 9054SOL    HW138624   1.009   1.941   7.716 -1.1064  0.9934  0.3410
 9054SOL    HW238625   0.985   1.998   7.856  1.9404  0.7119 -0.2988
 9055SOL     OW38626   4.105   0.581   0.111  0.2217  0.1536 -0.1953
 9055SOL    HW138627   4.027   0.528   0.097 -0.4194  0.6264  1.6412
 9055SOL    HW238628   4.096   0.597   0.205 -1.1999  0.3957 -0.3755
 9056SOL     OW38629   1.472   3.979   1.442 -0.4882  0.2030  0.0984
 9056SOL    HW138630   1.389   3.973   1.489 -2.0544  0.6014 -2.6329
 9056SOL    HW238631   1.439   3.994   1.354 -1.1130 -0.9773  0.1250
 9057SOL     OW38632   3.613   2.706   5.808 -0.2149 -0.5125 -0.4932
 9057SOL    HW138633   3.647   2.676   5.724  0.3074 -1.4510  0.0528
 9057SOL    HW238634   3.542   2.763   5.778 -1.5793 -1.3083  1.1996
 9058SOL     OW38635   3.347   1.685   2.278  0.9108  0.2653  0.2332
 9058SOL    HW138636   3.377   1.745   2.346 -2.4875  2.7310 -0.4719
 9058SOL    HW238637   3.313   1.618   2.338 -0.0063  0.8457  0.3655
 9059SOL     OW38638   1.441   1.419   5.249 -0.3243  0.0195 -0.2211
 9059SOL    HW138639   1.453   1.399   5.156  1.9766  1.9374 -0.3498
 9059SOL    HW238640   1.362   1.471   5.237 -0.1458  0.8406  2.3391
 9060SOL     OW38641   4.713   1.965  10.898  0.1456  0.1706  0.2443
 9060SOL    HW138642   0.057   2.029  10.914  0.9446 -1.0130  1.5047
 9060SOL    HW238643   4.638   2.021  10.918 -0.1854  0.2314 -1.2001
 9061SOL     OW38644   0.022   3.235   3.188 -0.8722 -0.2990  0.2433
 9061SOL    HW138645   4.708   3.296   3.250  1.1095  0.6228  0.5818
 9061SOL    HW238646   0.116   3.254   3.192 -0.8075 -0.9035  1.6611
 9062SOL     OW38647   2.255   3.774  15.408 -0.1883 -0.6999  0.6044
 9062SOL    HW138648   2.267   3.864  15.438 -1.9081 -0.3814  0.3274
 9062SOL    HW238649   2.217   3.737  15.487  0.0654 -0.3308  0.8990
 9063SOL     OW38650   0.637   0.496   3.532  0.1256  0.0484  0.7958
 9063SOL    HW138651   0.666   0.420   3.483 -2.3317 -1.4388  1.6692
 9063SOL    HW238652   0.715   0.543   3.563  0.6599 -0.8986  0.8687
 9064SOL     OW38653   2.272   0.705   0.848 -0.1442 -0.4362  0.0886
 9064SOL    HW138654   2.204   0.747   0.794  1.2999  1.3505 -0.3395
 9064SOL    HW238655   2.228   0.675   0.927 -0.8315 -1.9312 -0.8726
 9065SOL     OW38656   1.744   0.257  14.526 -0.6283  0.1320 -0.0535
 9065SOL    HW138657   1.779   0.306  14.452 -0.4888  0.4925  0.2523
 9065SOL    HW238658   1.771   0.311  14.600  1.4848  2.1755 -2.3291
 9066SOL     OW38659   3.796   4.629   0.801  0.0173  0.2559 -0.0602
 9066SOL    HW138660   3.754   4.681   0.870 -0.3272  1.0567 -0.8776
 9066SOL    HW238661   3.888   4.646   0.823  0.0378 -0.0100  0.0554
 9067SOL     OW38662   1.537   2.950  11.041 -0.5078 -0.3185 -0.0640
 9067SOL    HW138663   1.540   3.042  11.068 -0.2285 -1.3444  3.3595
 9067SOL    HW238664   1.587   2.912  11.112  0.7402 -0.0937 -0.8189
 9068SOL     OW38665   3.538   3.637  17.135  0.0847 -0.1114  0.0178
 9068SOL    HW138666   3.571   3.561  17.088 -2.6012 -0.4618 -1.3092
 9068SOL    HW238667   3.446   3.629  17.110  0.5325  0.9630 -1.9491
 9069SOL     OW38668   0.744   4.046   2.670 -0.3119 -0.2955  0.8098
 9069SOL    HW138669   0.720   4.128   2.712  1.5139  1.8258 -2.2604
 9069SOL    HW238670   0.749   3.995   2.751 -0.0803 -1.1256  0.2741
 9070SOL     OW38671   2.953   3.666   8.650  0.0256  0.2027  0.4695
 9070SOL    HW138672   2.864   3.639   8.625  0.3993 -1.2591  0.7342
 9070SOL    HW238673   2.958   3.626   8.737  1.1103 -1.4988 -0.4038
 9071SOL     OW38674   4.160   3.126   2.448  0.0214 -0.1716  0.2586
 9071SOL    HW138675   4.134   3.194   2.386  0.6214  1.3950  1.7220
 9071SOL    HW238676   4.156   3.183   2.525 -0.9567 -0.8999  0.7569
 9072SOL     OW38677   3.436   0.705  12.298  0.2378  0.4284 -0.3934
 9072SOL    HW138678   3.371   0.764  12.260 -1.0733 -1.6253 -1.2696
 9072SOL    HW238679   3.382   0.672  12.370  2.2073  0.6979  1.2035
 9073SOL     OW38680   0.355   1.538   3.520  0.1836 -0.3583 -0.3204
 9073SOL    HW138681   0.396   1.478   3.458  0.3902 -1.5389  0.9495
 9073SOL    HW238682   0.431   1.581   3.559 -1.6205  1.4796  1.1995
 9074SOL     OW38683   2.438   2.485   3.953  0.4402 -0.8190  0.0369
 9074SOL    HW138684   2.478   2.439   4.027  0.5709  0.4509  0.7653
 9074SOL    HW238685   2.495   2.440   3.891  0.4501 -2.2517  1.0847
 9075SOL     OW38686   2.469   1.227   6.734  0.3096 -0.7141 -0.1220
 9075SOL    HW138687   2.528   1.289   6.690  1.0762 -0.1598  1.6814
 9075SOL    HW238688   2.427   1.285   6.797  0.7475  0.3612 -0.8170
 9076SOL     OW38689   3.313   2.120   6.027  0.6484  0.5951  0.1738
 9076SOL    HW138690   3.398   2.094   6.065  0.9633 -1.4715 -1.9386
 9076SOL    HW238691   3.330   2.213   6.014 -0.4064  1.0026  1.6810
 9077SOL     OW38692   0.450   1.170  16.461  0.2626 -0.4451 -0.0001
 9077SOL    HW138693   0.378   1.179  16.524  1.2253  1.7190  0.7488
 9077SOL    HW238694   0.406   1.176  16.376 -0.0303  4.6236  0.5421
 9078SOL     OW38695   2.850   1.838  12.970 -0.6197  0.1511 -0.3257
 9078SOL    HW138696   2.912   1.776  13.007 -0.8425  1.3993  2.1323
 9078SOL    HW238697   2.811   1.890  13.041  0.8751 -0.5361  0.9992
 9079SOL     OW38698   0.043   4.632   3.039  0.6646 -0.5933 -0.1450
 9079SOL    HW138699   0.019   4.715   3.080 -0.1119 -0.9043  0.0216
 9079SOL    HW238700   0.003   4.631   2.952 -2.5069  2.0289  1.2953
 9080SOL     OW38701   3.533   2.846  12.845 -0.1179  0.3896  0.6044
 9080SOL    HW138702   3.575   2.760  12.848 -0.5935  0.1236 -0.4348
 9080SOL    HW238703   3.604   2.903  12.813 -0.1575  0.3199  0.3913
 9081SOL     OW38704   3.889   1.166   8.875 -0.3713  0.2646 -0.5364
 9081SOL    HW138705   3.878   1.261   8.883  1.4123  0.1544  3.1398
 9081SOL    HW238706   3.909   1.162   8.781 -0.1752 -1.3449 -0.4280
 9082SOL     OW38707   4.046   4.580   5.584  0.0006  0.0842 -0.0331
 9082SOL    HW138708   4.091   4.546   5.661  1.6400 -1.6718 -1.7302
 9082SOL    HW238709   3.983   4.509   5.570 -0.3484  0.7827 -2.1317
 9083SOL     OW38710   1.285   0.550  13.781 -0.3691  0.2036 -0.3540
 9083SOL    HW138711   1.238   0.630  13.758  0.2979  1.3230  2.2163
 9083SOL    HW238712   1.336   0.591  13.850  0.3374 -2.4994  0.7216
 9084SOL     OW38713   2.545   2.387   8.962  0.3235  0.1711 -0.6343
 9084SOL    HW138714   2.491   2.363   8.887 -1.7159 -1.6571  1.4339
 9084SOL    HW238715   2.551   2.483   8.958 -1.0041  0.3044  0.5827
 9085SOL     OW38716   0.657   0.477   6.351  0.2867  0.0576 -0.4088
 9085SOL    HW138717   0.586   0.419   6.377  0.6599 -0.9878 -1.7269
 9085SOL    HW238718   0.642   0.486   6.257  0.5766  1.5036 -0.3122
 9086SOL     OW38719   1.261   3.362   7.594  0.0946 -0.4987  0.2648
 9086SOL    HW138720   1.245   3.272   7.563  3.0403 -1.7955  2.4866
 9086SOL    HW238721   1.176   3.403   7.576  0.3361  0.4719  1.3708
 9087SOL     OW38722   4.317   1.485  15.257 -0.0922  0.2693 -0.1063
 9087SOL    HW138723   4.412   1.496  15.249  0.2989 -2.6783  0.5280
 9087SOL    HW238724   4.279   1.548  15.195  0.0589  2.2627  1.8136
 9088SOL     OW38725   4.612   0.795   9.119 -0.1350  0.1788 -0.0854
 9088SOL    HW138726   4.536   0.844   9.088 -0.3562  0.0962  0.3285
 9088SOL    HW238727   4.569   0.710   9.128  0.6552 -0.3369 -1.1269
 9089SOL     OW38728   2.561   1.469  13.334 -0.5787 -0.1504 -0.2718
 9089SOL    HW138729   2.488   1.519  13.369 -1.3256 -1.3094 -0.1902
 9089SOL    HW238730   2.520   1.401  13.280 -0.8305 -1.6833  1.8769
 9090SOL     OW38731   1.872   1.611  17.666 -0.6274  0.0235 -0.2502
 9090SOL    HW138732   1.900   1.676   0.029 -3.0979  1.5476 -0.6951
 9090SOL    HW238733   1.840   1.544   0.024 -0.6498  0.8254  0.6269
 9091SOL     OW38734   2.506   0.162  12.678  0.4677  0.3803  0.5157
 9091SOL    HW138735   2.586   0.207  12.705  0.0956 -0.3071  2.7371
 9091SOL    HW238736   2.535   0.072  12.691 -1.9403 -0.5716 -0.8151
 9092SOL     OW38737   2.586   0.239   8.126  0.7592 -0.2829 -0.4398
 9092SOL    HW138738   2.512   0.285   8.166  1.5892  1.1938 -0.6071
 9092SOL    HW238739   2.571   0.151   8.162  0.8482  1.2842  3.4966
 9093SOL     OW38740   4.096   4.687   7.402 -0.0477 -0.2971  0.1390
 9093SOL    HW138741   4.088   4.604   7.448 -0.8391  0.4397  1.3347
 9093SOL    HW238742   4.130   0.022   7.469 -0.5752  0.4864 -0.2984
 9094SOL     OW38743   0.679   1.785  14.157 -0.1212  1.1089  0.2844
 9094SOL    HW138744   0.749   1.790  14.221 -0.0743 -1.9495  0.4397
 9094SOL    HW238745   0.675   1.876  14.125 -2.1679  1.0461  0.3684
 9095SOL     OW38746   2.574   3.714  11.915 -0.1899 -0.0314 -0.0835
 9095SOL    HW138747   2.524   3.672  11.985 -2.3934  0.7424 -1.1884
 9095SOL    HW238748   2.598   3.630  11.876  2.4659  0.4405  0.4763
 9096SOL     OW38749   3.739   3.210   5.975 -0.1568  0.1393  0.0817
 9096SOL    HW138750   3.755   3.129   5.927 -0.3309  0.1415  0.0203
 9096SOL    HW238751   3.830   3.237   5.990 -0.1738  0.3473 -0.1773
 9097SOL     OW38752   0.580   0.753   9.078  0.0929  0.4575  0.5397
 9097SOL    HW138753   0.586   0.841   9.041 -2.7918 -0.4275 -1.9757
 9097SOL    HW238754   0.599   0.784   9.167 -1.6633  3.5186 -0.1775
 9098SOL     OW38755   3.138   1.392   3.166 -0.2542 -0.1180 -0.3085
 9098SOL    HW138756   3.131   1.427   3.077 -2.0133 -1.0851 -0.5684
 9098SOL    HW238757   3.127   1.299   3.144  0.6699 -0.8460  2.3340
 9099SOL     OW38758   0.822   0.034   2.133  0.0565 -0.4319 -0.2034
 9099SOL    HW138759   0.815   0.003   2.043 -0.2651  0.0566 -0.3501
 9099SOL    HW238760   0.914   0.016   2.150  0.3936  1.8983  0.5013
 9100SOL     OW38761   0.322   0.103  13.735 -0.6153 -0.2509  0.3444
 9100SOL    HW138762   0.260   0.159  13.782 -0.5445 -1.0464  1.3867
 9100SOL    HW238763   0.406   0.133  13.768 -1.3413  2.5717 -0.3846
 9101SOL     OW38764   4.611   2.961  17.284  0.2454 -0.7613 -0.6612
 9101SOL    HW138765   4.568   2.936  17.365 -2.2270  1.5419 -1.2848
 9101SOL    HW238766   4.649   3.049  17.290 -0.1219 -0.6670  0.1392
 9102SOL     OW38767   3.393   2.867   9.757  0.5948  0.0416 -0.3018
 9102SOL    HW138768   3.376   2.927   9.685  0.1021  1.2524  0.8335
 9102SOL    HW238769   3.338   2.793   9.731 -0.4526  1.1418 -1.2025
 9103SOL     OW38770   0.832   3.103   3.988 -0.2884  0.0142  0.0219
 9103SOL    HW138771   0.854   3.025   4.039  0.4521 -1.0653 -1.9277
 9103SOL    HW238772   0.887   3.162   4.041  1.1775 -1.1782 -0.1571
 9104SOL     OW38773   3.841   1.880  11.272  0.4462  0.6943 -0.2002
 9104SOL    HW138774   3.918   1.841  11.312 -0.0754 -1.8350 -1.6675
 9104SOL    HW238775   3.790   1.801  11.254  1.6051  0.1511 -1.1467
 9105SOL     OW38776   1.996   1.785  10.506  0.2187  0.0448  0.0309
 9105SOL    HW138777   1.952   1.809  10.588  0.1678  0.6616 -0.1742
 9105SOL    HW238778   2.083   1.801  10.540 -0.0184 -0.0514  0.6773
 9106SOL     OW38779   1.296   0.598   4.808 -0.4582  0.5678 -0.3574
 9106SOL    HW138780   1.363   0.540   4.843 -2.5008  0.2032  2.9498
 9106SOL    HW238781   1.254   0.608   4.894 -0.1851 -0.6501 -0.0903
 9107SOL     OW38782   2.321   0.202   8.380 -0.2655 -0.6860 -0.0088
 9107SOL    HW138783   2.360   0.137   8.322 -0.2082 -0.1830 -0.5318
 9107SOL    HW238784   2.348   0.284   8.340  0.3850  0.4877  2.8008
 9108SOL     OW38785   2.286   1.199   8.130 -0.2951  0.4334 -0.2828
 9108SOL    HW138786   2.194   1.186   8.107  0.0787 -0.4377 -1.3089
 9108SOL    HW238787   2.331   1.119   8.103  1.2419  1.1390  0.1896
 9109SOL     OW38788   0.977   1.212   2.651 -0.2380 -0.1812 -0.4692
 9109SOL    HW138789   1.030   1.275   2.701 -1.7393  0.8970 -0.2525
 9109SOL    HW238790   0.942   1.279   2.593 -0.5262  1.7256  1.8755
 9110SOL     OW38791   4.244   2.114   6.985  0.4387 -0.3582 -0.2701
 9110SOL    HW138792   4.249   2.029   7.028 -3.6451 -0.2915  0.3637
 9110SOL    HW238793   4.154   2.137   7.009  1.3715  2.2530  0.7514
 9111SOL     OW38794   1.711   1.239   5.530 -0.4029 -0.2672  0.0611
 9111SOL    HW138795   1.681   1.323   5.496 -0.5173  0.6343  2.3741
 9111SOL    HW238796   1.694   1.249   5.624 -0.8223  0.8089 -0.1314
 9112SOL     OW38797   1.272   3.099   7.486  0.8261 -0.0910 -0.6006
 9112SOL    HW138798   1.227   3.018   7.511  0.2739 -0.3564 -2.5080
 9112SOL    HW238799   1.357   3.058   7.470  0.5758 -1.8323  2.4562
 9113SOL     OW38800   1.763   0.951   3.516  0.1443  0.4338  0.3455
 9113SOL    HW138801   1.837   0.892   3.497  0.3357  0.4802  0.9486
 9113SOL    HW238802   1.800   1.039   3.523 -2.1456  1.3333  0.8446
 9114SOL     OW38803   0.772   3.106   4.484  0.2462 -0.2800 -0.1006
 9114SOL    HW138804   0.694   3.152   4.515  0.7793  1.3638 -1.1796
 9114SOL    HW238805   0.832   3.177   4.463 -0.5415 -0.2029 -2.0554
 9115SOL     OW38806   0.975   0.386  15.762  0.1372 -0.2466 -0.6801
 9115SOL    HW138807   0.955   0.464  15.711 -0.8553 -1.5491 -2.2605
 9115SOL    HW238808   1.058   0.416  15.800  0.2818 -1.4948 -0.0115
 9116SOL     OW38809   4.647   2.976   8.290 -0.0035  0.1573  0.4151
 9116SOL    HW138810   4.610   2.933   8.367  0.4247  0.6658  0.9031
 9116SOL    HW238811   0.009   2.937   8.279 -0.5764 -1.0670  0.2149
 9117SOL     OW38812   3.623   2.328   8.307  0.0663  0.2785 -0.2437
 9117SOL    HW138813   3.528   2.317   8.296  0.0194  0.8767 -0.4277
 9117SOL    HW238814   3.649   2.275   8.231  0.6647  4.4050 -2.8914
 9118SOL     OW38815   3.171   1.415   1.607  0.2910 -0.6702 -0.5326
 9118SOL    HW138816   3.113   1.491   1.609  0.8995 -0.2515  1.3021
 9118SOL    HW238817   3.240   1.436   1.545  0.6993  0.2733  0.2407
 9119SOL     OW38818   0.463   0.172  16.865  0.1176  0.1667 -0.0647
 9119SOL    HW138819   0.412   0.228  16.924 -0.2284  0.4252 -0.6119
 9119SOL    HW238820   0.420   0.201  16.784 -2.0363 -1.3908  0.5195
 9120SOL     OW38821   3.844   4.548  13.405  0.1895 -0.1658  0.7501
 9120SOL    HW138822   3.842   4.458  13.373 -0.6186  1.1388 -2.8424
 9120SOL    HW238823   3.934   4.569  13.381  0.0829 -2.5285 -1.6960
 9121SOL     OW38824   1.360   4.299  17.587 -0.0659 -0.3206  0.2001
 9121SOL    HW138825   1.359   4.211  17.626 -3.0290 -0.2145  0.3497
 9121SOL    HW238826   1.417   4.289  17.511 -2.8352 -0.8123 -1.7936
 9122SOL     OW38827   4.629   3.985   7.125 -0.2614 -0.1762 -0.0629
 9122SOL    HW138828   4.576   3.946   7.195 -1.5007  0.5024 -0.6300
 9122SOL    HW238829   4.696   3.916   7.124 -0.9621 -0.8643  0.7592
 9123SOL     OW38830   4.282   3.731  16.318 -0.3458 -0.1651  0.1001
 9123SOL    HW138831   4.231   3.677  16.258  1.6833 -2.5943  0.5640
 9123SOL    HW238832   4.345   3.664  16.345 -0.6169 -1.2200 -1.8916
 9124SOL     OW38833   1.690   0.558   3.098 -0.0172 -0.2423 -0.0677
 9124SOL    HW138834   1.731   0.638   3.132  1.0380 -0.3623 -1.0425
 9124SOL    HW238835   1.694   0.491   3.166 -0.6219  0.0597  0.2656
 9125SOL     OW38836   2.567   0.146   2.798 -0.3477 -0.1072 -0.3982
 9125SOL    HW138837   2.645   0.174   2.751 -0.4929  0.9039 -0.0420
 9125SOL    HW238838   2.510   0.124   2.724  1.2926  0.2104 -1.7443
 9126SOL     OW38839   1.896   3.819   9.359 -0.0382 -0.2085 -0.5564
 9126SOL    HW138840   1.845   3.874   9.300  0.9877 -1.3316 -2.4963
 9126SOL    HW238841   1.924   3.751   9.298  2.7753  0.0057  0.5085
 9127SOL     OW38842   2.317   1.319   3.500 -0.5671  0.2036  0.1376
 9127SOL    HW138843   2.301   1.300   3.593  0.6166 -1.1190  0.0655
 9127SOL    HW238844   2.299   1.228   3.473  2.5289  0.0957 -1.4668
 9128SOL     OW38845   0.553   3.950  13.941  0.1502 -0.1059  0.3713
 9128SOL    HW138846   0.487   3.981  13.879  1.0052  1.2608  0.1540
 9128SOL    HW238847   0.509   3.957  14.026 -1.9835  4.7221 -1.1297
 9129SOL     OW38848   3.879   0.471   3.834  0.0559 -0.3867 -0.0581
 9129SOL    HW138849   3.926   0.395   3.799  0.6880  0.3908 -0.9067
 9129SOL    HW238850   3.950   0.527   3.866 -1.3584  1.6938 -0.5457
 9130SOL     OW38851   3.142   3.821  13.302  0.4316 -0.2623  0.2620
 9130SOL    HW138852   3.173   3.732  13.282 -0.2586 -0.5507  0.4944
 9130SOL    HW238853   3.151   3.858  13.214 -1.9207  0.5211  0.3649
 9131SOL     OW38854   2.046   2.362   0.045  0.1728 -0.3972 -0.5229
 9131SOL    HW138855   2.095   2.416   0.107  0.5027  1.9188 -2.7935
 9131SOL    HW238856   2.017   2.287   0.098  0.9379 -0.7519 -0.6002
 9132SOL     OW38857   4.159   3.874  10.754  0.2300 -0.1562  0.0711
 9132SOL    HW138858   4.154   3.862  10.849 -1.0060  0.1806  0.0540
 9132SOL    HW238859   4.207   3.795  10.731  1.4613 -0.6934  4.5150
 9133SOL     OW38860   4.311   0.445   7.512  0.4303  0.0049 -0.2070
 9133SOL    HW138861   4.373   0.492   7.455  0.5521  1.2385  0.9377
 9133SOL    HW238862   4.231   0.457   7.460  1.3875  1.1233 -1.4219
 9134SOL     OW38863   2.338   2.703   0.400 -0.0536  0.4575 -0.3028
 9134SOL    HW138864   2.285   2.663   0.469  0.6088 -2.4942 -1.4832
 9134SOL    HW238865   2.307   2.794   0.397 -1.0446  0.1839  1.7879
 9135SOL     OW38866   2.221   1.794   0.469  0.6172  0.1000  0.5859
 9135SOL    HW138867   2.297   1.842   0.503  0.4065 -0.0059  1.2042
 9135SOL    HW238868   2.156   1.859   0.495  0.5232 -0.0043  0.6097
 9136SOL     OW38869   2.827   2.182   2.314  0.0171  0.8244 -0.0596
 9136SOL    HW138870   2.765   2.109   2.320  2.0559 -0.9089 -0.1253
 9136SOL    HW238871   2.836   2.180   2.219  1.1920  0.4858  0.0580
 9137SOL     OW38872   3.411   3.789   4.924  0.2807 -0.3439  0.1314
 9137SOL    HW138873   3.346   3.859   4.914 -1.0755 -1.2161  2.7677
 9137SOL    HW238874   3.407   3.757   4.835 -1.1408  3.8602 -1.3332
 9138SOL     OW38875   4.078   2.689   3.386  0.0213  0.0219  0.1900
 9138SOL    HW138876   4.049   2.766   3.336 -3.3492 -1.7009 -0.5164
 9138SOL    HW238877   4.004   2.668   3.443 -1.9411  2.3865 -1.4689
 9139SOL     OW38878   0.793   3.299   2.493  0.3175  0.5487 -0.0427
 9139SOL    HW138879   0.822   3.362   2.427  0.4849  0.3611 -0.1453
 9139SOL    HW238880   0.708   3.333   2.521  1.1252 -0.7543  4.1209
 9140SOL     OW38881   4.723   3.971   2.739 -0.1950  0.5349 -0.0747
 9140SOL    HW138882   4.655   4.029   2.773  0.6071  1.5854 -0.2897
 9140SOL    HW238883   0.018   4.014   2.656  3.1062 -0.5361  0.1806
 9141SOL     OW38884   1.887   0.404  14.253  0.6288 -0.0208  0.0228
 9141SOL    HW138885   1.868   0.497  14.237  0.5961 -0.3221 -1.6978
 9141SOL    HW238886   1.869   0.359  14.171 -0.1428  2.5377 -1.2149
 9142SOL     OW38887   4.017   2.220   6.752  0.0577 -0.3040 -0.8803
 9142SOL    HW138888   3.975   2.148   6.799  0.6996 -0.8853 -1.2055
 9142SOL    HW238889   3.940   2.267   6.721  1.0093  1.1248 -1.1124
 9143SOL     OW38890   3.541   3.634  11.907  0.3664  0.2242  0.0850
 9143SOL    HW138891   3.476   3.643  11.837  1.3330 -1.1435 -0.9623
 9143SOL    HW238892   3.552   3.539  11.907  1.8347  0.4058 -0.9506
 9144SOL     OW38893   3.758   2.434  11.753 -0.1324  0.4184  0.1126
 9144SOL    HW138894   3.785   2.353  11.798 -2.0881 -1.0684 -1.4259
 9144SOL    HW238895   3.663   2.427  11.746  0.1086 -1.3662 -1.3315
 9145SOL     OW38896   3.217   4.682   2.044  0.1228  0.2906 -0.7684
 9145SOL    HW138897   3.177   4.694   2.130 -0.8117 -0.8639 -1.0188
 9145SOL    HW238898   3.149   4.627   2.005  1.9958 -2.4828 -0.1338
 9146SOL     OW38899   2.573   1.923   5.541  0.4506 -0.1203  0.1519
 9146SOL    HW138900   2.665   1.941   5.523  0.5185  0.3132  0.8886
 9146SOL    HW238901   2.575   1.889   5.631  2.8236  0.3848  0.2845
 9147SOL     OW38902   0.808   1.582  15.862  0.0405  0.4126  0.3887
 9147SOL    HW138903   0.843   1.651  15.919 -0.6257 -1.0001  2.5328
 9147SOL    HW238904   0.883   1.582  15.804 -0.8860  0.2978 -0.8088
 9148SOL     OW38905   0.459   4.552   4.340 -0.3428  0.3550  0.2212
 9148SOL    HW138906   0.419   4.468   4.362  0.2052 -0.2161 -0.9700
 9148SOL    HW238907   0.389   4.615   4.325 -1.0059 -0.3511  0.4129
 9149SOL     OW38908   1.971   2.429   1.896 -0.3125  0.1636  0.1876
 9149SOL    HW138909   1.886   2.473   1.887 -0.3844  0.0850  0.4961
 9149SOL    HW238910   1.926   2.344   1.891 -0.8344  0.2632  2.8515
 9150SOL     OW38911   1.319   3.786   5.391  0.1649 -0.4400  0.0834
 9150SOL    HW138912   1.384   3.719   5.414 -0.6777 -0.7502  1.5639
 9150SOL    HW238913   1.359   3.861   5.435  2.2336 -1.3198 -0.2916
 9151SOL     OW38914   3.757   4.360   6.821 -0.5387  0.0085 -0.1461
 9151SOL    HW138915   3.803   4.438   6.852 -0.5998  0.6347 -1.6090
 9151SOL    HW238916   3.663   4.379   6.824  0.1545  3.7588 -2.4348
 9152SOL     OW38917   3.610   3.046   5.220  0.0098 -0.7515 -0.7323
 9152SOL    HW138918   3.690   3.098   5.219  0.5835 -1.6107  0.0661
 9152SOL    HW238919   3.564   3.071   5.140 -0.0209 -3.1231 -1.4521
 9153SOL     OW38920   0.363   2.258   6.786 -0.0961  0.5238  0.7848
 9153SOL    HW138921   0.276   2.219   6.776  0.4281  0.0334 -2.1439
 9153SOL    HW238922   0.411   2.180   6.755 -1.6750  0.7421 -2.2286
 9154SOL     OW38923   2.681   0.887  16.623  0.4229 -0.0240 -0.7821
 9154SOL    HW138924   2.696   0.882  16.529  1.3721 -1.2238 -0.5570
 9154SOL    HW238925   2.609   0.824  16.626  0.5958 -0.1174  1.2416
 9155SOL     OW38926   4.438   3.670   4.287  0.4263  0.0454 -0.1858
 9155SOL    HW138927   4.467   3.582   4.265  3.1252  1.1386 -0.9808
 9155SOL    HW238928   4.343   3.657   4.282  0.7435 -2.0902 -0.4914
 9156SOL     OW38929   4.254   4.303  13.122  0.0729  0.0586 -0.7664
 9156SOL    HW138930   4.288   4.275  13.037  0.2674  0.7623 -0.9179
 9156SOL    HW238931   4.255   4.397  13.104 -0.8292  0.9342  3.7443
 9157SOL     OW38932   4.218   2.634   2.275  0.1753 -0.4701  0.2930
 9157SOL    HW138933   4.268   2.554   2.257 -1.7201 -1.5106 -0.4127
 9157SOL    HW238934   4.285   2.697   2.299  0.1688 -0.6502  0.7777
 9158SOL     OW38935   1.569   2.601  14.020 -0.1432 -0.3174 -0.6632
 9158SOL    HW138936   1.578   2.591  13.925 -0.1081 -1.8101 -0.4998
 9158SOL    HW238937   1.549   2.695  14.022 -1.9484 -0.7264  0.2911
 9159SOL     OW38938   4.484   4.585  12.525 -0.0829 -0.1534  0.6244
 9159SOL    HW138939   4.462   4.640  12.600 -1.8781  0.5467 -0.4241
 9159SOL    HW238940   4.431   4.629  12.458 -1.9943  1.2326  3.0589
 9160SOL     OW38941   2.971   4.357   5.314  0.0254 -0.5514 -0.2086
 9160SOL    HW138942   3.026   4.279   5.314  0.0709 -0.5268 -1.6943
 9160SOL    HW238943   2.930   4.337   5.398 -2.4811 -2.2724 -1.8166
 9161SOL     OW38944   2.156   0.012   9.813 -0.0592 -0.9041  0.4368
 9161SOL    HW138945   2.231   0.027   9.755 -0.0718  0.1310  0.6931
 9161SOL    HW238946   2.082   0.026   9.754  1.1818  1.2623 -0.5949
 9162SOL     OW38947   2.329   4.091   9.391 -0.1082 -0.0676 -0.3364
 9162SOL    HW138948   2.234   4.096   9.399 -0.1835 -0.4535 -1.0250
 9162SOL    HW238949   2.343   4.085   9.486  2.4969 -1.3407 -0.8068
 9163SOL     OW38950   2.725   1.637   3.041  0.1029 -0.8633  0.1517
 9163SOL    HW138951   2.691   1.664   3.127 -0.6366 -0.1455 -0.3774
 9163SOL    HW238952   2.779   1.713   3.023  1.5636 -1.6409  1.2389
 9164SOL     OW38953   0.090   4.251   0.097  0.0068  0.3856 -0.2794
 9164SOL    HW138954   0.118   4.315   0.032 -0.7513 -0.4399 -1.4275
 9164SOL    HW238955   0.015   4.216   0.047 -0.5752  1.6878 -0.3251
 9165SOL     OW38956   4.610   3.415  15.872 -0.2357 -0.3231  0.0952
 9165SOL    HW138957   4.630   3.508  15.859  0.4923 -0.5852 -0.6675
 9165SOL    HW238958   4.516   3.417  15.854 -0.0299  0.6854 -0.9086
 9166SOL     OW38959   0.047   1.214   3.595 -0.1246 -0.0833  0.8440
 9166SOL    HW138960   4.712   1.192   3.524  1.1283  2.1012 -0.9004
 9166SOL    HW238961   0.007   1.300   3.607  0.8338  0.3121  1.2432
 9167SOL     OW38962   2.938   1.736   9.047 -0.1758 -0.2192 -0.7546
 9167SOL    HW138963   2.854   1.776   9.024 -0.1396 -0.7112 -1.7299
 9167SOL    HW238964   2.980   1.722   8.962  1.9707  0.9111  0.1354
 9168SOL     OW38965   1.888   4.441   8.666 -0.0082 -0.2622  0.4398
 9168SOL    HW138966   1.978   4.456   8.696  0.6824 -1.7951 -0.8576
 9168SOL    HW238967   1.873   4.348   8.681 -0.3882 -0.4566 -1.1532
 9169SOL     OW38968   4.257   3.801   4.514  0.2656 -0.7543 -0.5563
 9169SOL    HW138969   4.286   3.720   4.556  0.4198 -0.2038  0.4014
 9169SOL    HW238970   4.196   3.772   4.446 -1.2223 -0.6426  0.7317
 9170SOL     OW38971   2.678   3.517  15.442 -0.1756  0.2565  0.6429
 9170SOL    HW138972   2.707   3.527  15.352  0.7419 -0.0550  0.9053
 9170SOL    HW238973   2.659   3.609  15.459  0.3196  0.6934 -1.2690
 9171SOL     OW38974   0.197   3.157   2.531 -0.2499  0.3164  0.2723
 9171SOL    HW138975   0.148   3.239   2.536  0.1698  0.6257 -0.6583
 9171SOL    HW238976   0.149   3.093   2.584  2.0284  0.1359  2.1091
 9172SOL     OW38977   1.432   2.296   4.096  0.5292 -0.1980  0.1058
 9172SOL    HW138978   1.406   2.284   4.188 -0.7502  0.7757 -0.1341
 9172SOL    HW238979   1.379   2.371   4.072  2.4168  0.6667 -1.3615
 9173SOL     OW38980   0.396   1.541  12.273 -0.3181 -0.4214 -0.5211
 9173SOL    HW138981   0.308   1.513  12.297  0.6176 -1.2922  1.8004
 9173SOL    HW238982   0.409   1.621  12.324  2.8039 -1.2641  0.0185
 9174SOL     OW38983   0.998   4.215   3.039  0.5452  0.5348 -0.0930
 9174SOL    HW138984   1.043   4.275   3.099 -1.8984  1.4716  0.7694
 9174SOL    HW238985   0.991   4.135   3.092 -0.3355 -0.3057 -1.4756
 9175SOL     OW38986   1.403   2.826   2.785 -0.7480 -0.3182  1.0383
 9175SOL    HW138987   1.383   2.920   2.783  4.0367  0.7102  2.6991
 9175SOL    HW238988   1.359   2.798   2.865  0.2261  1.2985  2.1493
 9176SOL     OW38989   3.986   2.334   4.265 -0.1701 -0.5852 -0.2025
 9176SOL    HW138990   3.955   2.322   4.355 -0.2757  3.1517  0.2774
 9176SOL    HW238991   3.941   2.417   4.249  1.0734  0.2194  0.4509
 9177SOL     OW38992   3.361   3.514   0.073 -0.3235  0.1235  0.3093
 9177SOL    HW138993   3.350   3.535   0.165  0.7581 -0.2329  0.5209
 9177SOL    HW238994   3.437   3.571   0.061 -0.2760 -0.1049 -0.5224
 9178SOL     OW38995   0.633   4.516   2.113 -0.2035  0.0908  0.2785
 9178SOL    HW138996   0.668   4.546   2.029 -0.6925 -1.5200 -0.5128
 9178SOL    HW238997   0.691   4.570   2.166 -0.6327 -1.2246  2.0603
 9179SOL     OW38998   4.284   0.987   3.412  0.3658  0.5158  0.3126
 9179SOL    HW138999   4.282   1.012   3.504 -0.8683 -1.7114  0.9076
 9179SOL    HW239000   4.373   1.009   3.385  0.8913  0.9223  2.3462
 9180SOL     OW39001   2.974   0.914   5.781 -0.0371  0.1928  0.0667
 9180SOL    HW139002   3.035   0.854   5.823 -0.9937  0.7041  2.1602
 9180SOL    HW239003   2.902   0.931   5.841 -0.3453  0.7896 -0.4633
 9181SOL     OW39004   0.993   2.873   2.155 -0.1621  0.3968  0.3564
 9181SOL    HW139005   1.028   2.815   2.088  1.7935  0.9213  0.9129
 9181SOL    HW239006   1.053   2.847   2.225 -1.0603 -1.1588  0.5482
 9182SOL     OW39007   3.534   2.297  15.303 -0.1283  0.2802 -0.6022
 9182SOL    HW139008   3.536   2.391  15.319  2.2012 -0.0806  1.0727
 9182SOL    HW239009   3.456   2.270  15.352 -1.5576  2.7739 -1.5158
 9183SOL     OW39010   1.710   3.085  10.792  0.0329  0.1588  0.1406
 9183SOL    HW139011   1.693   2.991  10.796  1.1623  0.0467  2.2477
 9183SOL    HW239012   1.800   3.084  10.825  0.2338 -1.2663 -0.4816
 9184SOL     OW39013   1.382   4.350   4.295 -0.0443  0.0979 -0.1581
 9184SOL    HW139014   1.297   4.345   4.251 -0.1616 -0.5230  0.1441
 9184SOL    HW239015   1.364   4.412   4.366  0.9323 -0.2795  0.4130
 9185SOL     OW39016   0.426   4.469   7.874  0.5239  0.1280 -0.2573
 9185SOL    HW139017   0.448   4.547   7.925 -0.0407  0.2992 -0.2824
 9185SOL    HW239018   0.416   4.503   7.785 -2.3355  0.7707  0.3099
 9186SOL     OW39019   4.286   1.841   7.069  0.1706 -0.4018  0.3894
 9186SOL    HW139020   4.334   1.845   6.986 -0.0520 -3.1914  0.1341
 9186SOL    HW239021   4.345   1.796   7.129  1.0318 -0.2152 -0.3158
 9187SOL     OW39022   2.947   2.216  13.007  0.0521  0.0385 -0.0139
 9187SOL    HW139023   2.989   2.278  12.947 -3.5220  1.0290 -1.5156
 9187SOL    HW239024   2.858   2.240  12.981 -0.3416 -1.2667  0.1502
 9188SOL     OW39025   1.092   1.354   6.545  0.0903  0.6046  0.0847
 9188SOL    HW139026   1.155   1.412   6.501  0.3081 -0.0010 -0.4018
 9188SOL    HW239027   1.143   1.293   6.599 -0.8832  0.2256  0.5695
 9189SOL     OW39028   1.851   2.491  11.178 -0.2357 -0.0284 -0.4606
 9189SOL    HW139029   1.846   2.399  11.203  0.7946  0.1486  0.3990
 9189SOL    HW239030   1.876   2.487  11.086 -0.0174 -0.3626 -0.3871
 9190SOL     OW39031   3.471   4.534   4.298 -0.6364  0.5755  0.3042
 9190SOL    HW139032   3.495   4.518   4.389 -0.1420 -0.0715  0.0593
 9190SOL    HW239033   3.561   4.541   4.266 -0.3430  0.7394  1.1643
 9191SOL     OW39034   2.331   1.070  15.140 -0.0839 -0.1075 -0.1079
 9191SOL    HW139035   2.320   1.041  15.231 -2.0302  0.9348 -0.0153
 9191SOL    HW239036   2.346   1.163  15.160  0.8146 -0.5296  1.2387
 9192SOL     OW39037   1.187   4.008   1.470  0.0637  0.1754  0.1726
 9192SOL    HW139038   1.092   3.996   1.466 -0.1831  1.4820  2.1512
 9192SOL    HW239039   1.204   4.026   1.378 -2.0440 -0.7623 -0.4025
 9193SOL     OW39040   1.889   0.118   8.298 -0.1819  0.2230  0.7373
 9193SOL    HW139041   1.802   0.106   8.335 -0.3058 -3.6521 -0.8235
 9193SOL    HW239042   1.941   0.084   8.371 -1.8975 -0.9058  1.4463
 9194SOL     OW39043   2.707   2.663   6.306  0.1785 -0.0882  0.0455
 9194SOL    HW139044   2.677   2.612   6.230 -0.3171 -1.6118  1.2769
 9194SOL    HW239045   2.798   2.681   6.285  0.6070  0.9882  2.9644
 9195SOL     OW39046   4.388   0.766   4.121  0.0569 -0.4128 -0.3841
 9195SOL    HW139047   4.332   0.778   4.198 -1.0018  1.2151 -1.3931
 9195SOL    HW239048   4.412   0.858   4.109  1.1118 -0.7698 -0.9801
 9196SOL     OW39049   0.214   4.075   3.382  0.0353  0.1341  0.0226
 9196SOL    HW139050   0.231   4.000   3.324 -3.4799  1.1915 -2.3938
 9196SOL    HW239051   0.303   4.097   3.410  0.5726 -2.0878  0.0316
 9197SOL     OW39052   2.536   4.670   5.699 -0.0941 -0.2619 -0.2485
 9197SOL    HW139053   2.560   4.583   5.732  0.3440 -0.7617 -1.8597
 9197SOL    HW239054   2.586   0.001   5.759 -0.2403 -0.3723 -0.0231
 9198SOL     OW39055   0.741   3.714   0.427 -0.0308  0.0417 -0.8985
 9198SOL    HW139056   0.664   3.761   0.395 -1.8507 -1.5047  1.2581
 9198SOL    HW239057   0.757   3.641   0.366 -0.8748  2.2913 -3.8364
 9199SOL     OW39058   0.160   3.478  12.928  0.1626 -0.0787 -0.1240
 9199SOL    HW139059   0.234   3.418  12.940  1.1865  1.4952  1.3831
 9199SOL    HW239060   0.154   3.451  12.837  1.1201 -0.0282 -0.2027
 9200SOL     OW39061   0.629   0.047   6.642 -0.4078  0.3633  0.6936
 9200SOL    HW139062   0.570   0.088   6.706  0.6768  1.3045  1.0868
 9200SOL    HW239063   0.623   0.105   6.566  1.3111 -2.5159 -1.5746
 9201SOL     OW39064   2.053   4.606   3.479 -0.3596  0.9581 -0.2801
 9201SOL    HW139065   2.057   4.569   3.390 -0.5871  1.5437 -0.5346
 9201SOL    HW239066   2.099   4.690   3.471  2.6852 -1.0030 -3.2142
 9202SOL     OW39067   1.200   3.246   3.564 -0.3149 -0.2801  0.3328
 9202SOL    HW139068   1.289   3.274   3.545  0.0001 -0.4240  1.5937
 9202SOL    HW239069   1.169   3.313   3.625 -0.4877 -1.9274  2.0690
 9203SOL     OW39070   4.674   2.121   2.702 -0.0670  0.1997 -0.2569
 9203SOL    HW139071   4.616   2.055   2.664 -0.5051  0.8784 -0.7583
 9203SOL    HW239072   4.620   2.198   2.720  3.0312  2.0835  1.0232
 9204SOL     OW39073   0.144   1.656   8.983  0.0268 -0.8571 -0.1909
 9204SOL    HW139074   0.092   1.614   9.052 -2.0879  0.4429 -0.9763
 9204SOL    HW239075   0.196   1.583   8.950  0.1538 -0.5739 -0.6260
 9205SOL     OW39076   3.105   1.940   5.932  0.2241  0.6132  0.0840
 9205SOL    HW139077   3.173   1.974   5.990 -0.5324 -1.6784  2.2931
 9205SOL    HW239078   3.077   2.019   5.885 -3.4336  0.5414  2.1456
 9206SOL     OW39079   0.595   2.961   3.571  0.3460  0.0047 -0.1433
 9206SOL    HW139080   0.622   3.050   3.595  2.6233 -0.9044  0.6720
 9206SOL    HW239081   0.627   2.935   3.485  0.0991 -2.8099  0.6147
 9207SOL     OW39082   4.075   3.468   6.187 -0.2334  0.2207 -0.2296
 9207SOL    HW139083   4.008   3.485   6.121 -0.3148 -3.3456 -1.0377
 9207SOL    HW239084   4.141   3.525   6.149 -0.2610  0.4493  0.0623
 9208SOL     OW39085   3.794   4.541   2.482  0.3268  0.8404 -0.1075
 9208SOL    HW139086   3.774   4.448   2.468  1.5933  0.0925  3.1019
 9208SOL    HW239087   3.796   4.573   2.392  2.2601  1.5324  0.1705
 9209SOL     OW39088   0.492   0.433  10.613  0.4050  0.1722 -0.5052
 9209SOL    HW139089   0.441   0.453  10.692  0.5742  0.7465 -0.5438
 9209SOL    HW239090   0.437   0.473  10.546  0.8169  1.4557 -0.0697
 9210SOL     OW39091   3.327   1.368   6.801 -0.0780  0.7269 -0.6638
 9210SOL    HW139092   3.377   1.350   6.881  0.1243  1.3112 -0.6502
 9210SOL    HW239093   3.280   1.286   6.794  0.5880  0.4226 -1.6058
 9211SOL     OW39094   3.295   0.963   5.921 -0.1460 -0.3672  0.0098
 9211SOL    HW139095   3.282   1.057   5.926  3.1275  0.1504 -0.7379
 9211SOL    HW239096   3.383   0.946   5.956 -1.1858 -0.7208  2.4603
 9212SOL     OW39097   1.948   0.988  10.943  0.0956  0.1691 -0.5017
 9212SOL    HW139098   1.985   0.902  10.922 -3.3489 -1.3557 -0.2658
 9212SOL    HW239099   2.024   1.040  10.918 -0.6899  1.8692  0.6789
 9213SOL     OW39100   2.932   1.978   1.869 -0.1888 -0.5571 -0.0176
 9213SOL    HW139101   2.901   1.888   1.876 -0.4090 -0.5281 -0.6532
 9213SOL    HW239102   3.022   1.969   1.840 -0.2292  2.5929 -1.2051
 9214SOL     OW39103   2.786   1.021   3.228  0.1242 -0.0754 -0.3178
 9214SOL    HW139104   2.813   1.050   3.140 -1.9239  1.7895 -0.3268
 9214SOL    HW239105   2.787   0.927   3.212 -0.3164 -0.6930  3.3045
 9215SOL     OW39106   1.426   0.793  17.400 -0.3161 -0.1096  0.0162
 9215SOL    HW139107   1.397   0.730  17.334  1.6731 -1.0593  0.0425
 9215SOL    HW239108   1.434   0.876  17.354 -0.2955  0.4913  1.1262
 9216SOL     OW39109   1.260   0.126   6.871  0.2071 -0.3878 -0.1532
 9216SOL    HW139110   1.355   0.125   6.877  0.1064 -1.2501  1.2783
 9216SOL    HW239111   1.239   0.085   6.955  2.2383  0.3154  0.6892
 9217SOL     OW39112   3.344   0.108   5.746 -0.3002  0.1292  0.5069
 9217SOL    HW139113   3.270   0.118   5.686  0.4361  1.5354 -0.1563
 9217SOL    HW239114   3.391   0.187   5.722  0.2235 -0.1144  0.7340
 9218SOL     OW39115   4.610   2.403   1.998  1.0148  0.0025 -0.2610
 9218SOL    HW139116   4.702   2.406   2.024  1.0752  1.1656 -0.6079
 9218SOL    HW239117   4.603   2.341   1.926 -0.3738 -0.6692  0.4468
 9219SOL     OW39118   0.885   2.648  14.681  0.4018 -0.1319 -0.0530
 9219SOL    HW139119   0.938   2.632  14.760  1.2184  1.5316 -0.2584
 9219SOL    HW239120   0.955   2.658  14.617 -0.2495 -0.2168 -0.7702
 9220SOL     OW39121   0.995   1.224   6.968  0.1220  0.5261 -0.0594
 9220SOL    HW139122   0.948   1.187   6.893 -0.6443 -0.2326  0.7891
 9220SOL    HW239123   0.926   1.256   7.027  1.4635 -0.9705  2.3583
 9221SOL     OW39124   1.814   4.562   2.210 -0.7373  0.6248 -0.3310
 9221SOL    HW139125   1.737   4.530   2.163 -2.0684  1.7933  1.0590
 9221SOL    HW239126   1.889   4.519   2.170 -1.8648  0.2924 -2.0750
 9222SOL     OW39127   4.287   2.297  15.459 -0.0509 -0.4636 -0.3437
 9222SOL    HW139128   4.378   2.269  15.472  0.1524  0.4241  0.1568
 9222SOL    HW239129   4.290   2.319  15.365 -0.5049 -0.3503 -0.3329
 9223SOL     OW39130   4.244   3.654   2.907  0.2069 -0.1185 -0.5364
 9223SOL    HW139131   4.254   3.598   2.829  1.5077  0.9462 -1.1315
 9223SOL    HW239132   4.333   3.686   2.924  0.1602 -0.1136 -0.3096
 9224SOL     OW39133   3.922   3.565   8.657 -0.3823  0.0618 -0.0720
 9224SOL    HW139134   3.870   3.593   8.733 -2.2386 -1.1184 -0.8918
 9224SOL    HW239135   3.867   3.493   8.624 -1.5012  0.3547  1.1550
 9225SOL     OW39136   2.752   0.657   8.156  0.3090 -0.2049 -0.0721
 9225SOL    HW139137   2.774   0.581   8.210  1.2656  0.3943  0.3912
 9225SOL    HW239138   2.765   0.721   8.227  1.9460 -2.6912  1.8975
 9226SOL     OW39139   1.475   2.856  14.714 -0.3099  0.6447  0.7264
 9226SOL    HW139140   1.515   2.869  14.628 -0.4918  1.6525  0.7908
 9226SOL    HW239141   1.545   2.865  14.778  1.1634 -1.0298 -0.6434
 9227SOL     OW39142   2.617   4.110   7.731  0.6117  0.2426 -0.3256
 9227SOL    HW139143   2.672   4.168   7.784  1.1261 -1.6649  1.1944
 9227SOL    HW239144   2.571   4.064   7.801  0.8465  2.6236  1.3789
 9228SOL     OW39145   4.506   0.227   5.475  0.0395  0.1315 -0.4964
 9228SOL    HW139146   4.477   0.162   5.538 -1.1523  0.2623 -0.9206
 9228SOL    HW239147   4.428   0.282   5.470 -1.1221 -1.7128 -2.4201
 9229SOL     OW39148   0.987   2.662  12.998  0.0694 -0.7811 -0.1467
 9229SOL    HW139149   0.985   2.758  12.997 -0.5041 -0.7992 -0.6345
 9229SOL    HW239150   0.916   2.645  12.936 -0.4369  1.3602 -0.1412
 9230SOL     OW39151   0.530   1.183   3.010 -0.2852 -0.2065 -0.6979
 9230SOL    HW139152   0.570   1.169   3.096  0.6887  2.4405 -0.6995
 9230SOL    HW239153   0.573   1.119   2.953  0.5409  1.3594 -1.8365
 9231SOL     OW39154   0.967   1.241   1.492  0.3271 -0.0064  0.4314
 9231SOL    HW139155   1.021   1.188   1.551 -1.6477 -2.6742 -0.1441
 9231SOL    HW239156   0.881   1.239   1.534  0.6637  0.2785  1.1355
 9232SOL     OW39157   2.548   0.919  17.281  0.5196 -0.6105 -0.4949
 9232SOL    HW139158   2.554   0.824  17.270 -1.0806 -0.9192  1.2924
 9232SOL    HW239159   2.639   0.930  17.306  0.2590 -0.7783  0.5284
 9233SOL     OW39160   2.029   3.301  16.578  0.4052  0.0369  0.8671
 9233SOL    HW139161   2.017   3.206  16.567 -1.3380  0.2424  1.0797
 9233SOL    HW239162   2.086   3.325  16.505 -1.2931 -0.1287 -0.5005
 9234SOL     OW39163   3.790   2.729   6.721  0.4775  0.6024 -0.6279
 9234SOL    HW139164   3.744   2.785   6.659 -0.7902 -2.1605 -2.1698
 9234SOL    HW239165   3.880   2.761   6.718  0.9846 -0.7960 -0.4633
 9235SOL     OW39166   0.188   1.090   4.292  0.0075  0.5384  0.3307
 9235SOL    HW139167   0.238   1.101   4.211 -1.0253  0.1963 -0.3381
 9235SOL    HW239168   0.189   0.996   4.308  0.7940  0.3765 -0.6286
 9236SOL     OW39169   4.409   0.436   7.940  0.1438 -0.8850 -0.2708
 9236SOL    HW139170   4.455   0.361   7.977 -0.9152  0.6152  4.0779
 9236SOL    HW239171   4.330   0.429   7.995 -1.2475 -1.7696 -2.3577
 9237SOL     OW39172   2.693   0.321   9.974 -0.0802 -0.6472 -0.6110
 9237SOL    HW139173   2.632   0.314  10.047 -0.6058  0.2734 -0.9636
 9237SOL    HW239174   2.687   0.238   9.927 -1.9165  0.4756 -2.3712
 9238SOL     OW39175   4.669   2.276   3.970  0.0127  0.5356  0.1256
 9238SOL    HW139176   4.678   2.230   3.886 -0.1423  1.2008 -0.2552
 9238SOL    HW239177   0.030   2.250   4.004 -0.7253 -1.0149  0.7822
 9239SOL     OW39178   3.970   4.487   7.745  0.3679 -0.5421 -0.3057
 9239SOL    HW139179   3.915   4.427   7.796 -0.6490  1.8602  1.4262
 9239SOL    HW239180   4.035   4.510   7.811  0.2799  0.4367 -0.5705
 9240SOL     OW39181   2.225   3.602   9.141 -0.6364 -0.0451 -0.2731
 9240SOL    HW139182   2.254   3.618   9.231 -1.2879 -1.1387  0.1317
 9240SOL    HW239183   2.162   3.533   9.162 -2.3244  1.5194 -0.2020
 9241SOL     OW39184   1.973   3.019   8.028  0.5554 -0.6118 -0.0016
 9241SOL    HW139185   1.949   2.929   8.049 -0.4578 -0.3503 -0.0388
 9241SOL    HW239186   2.031   3.056   8.095 -2.2235  3.1285  0.3573
 9242SOL     OW39187   0.110   2.377   5.614 -0.1062  0.1839  0.2355
 9242SOL    HW139188   0.193   2.420   5.592 -0.6271  1.3148  0.4616
 9242SOL    HW239189   0.061   2.368   5.532  1.3063 -0.8365 -0.4988
 9243SOL     OW39190   0.153   4.636   6.280 -0.1836 -0.9289 -0.2655
 9243SOL    HW139191   0.188   4.713   6.324 -1.4372 -1.2101  1.2108
 9243SOL    HW239192   0.201   4.626   6.198 -0.2789 -0.2008 -0.4158
 9244SOL     OW39193   3.167   1.148   7.138 -0.3638  0.8140  0.0811
 9244SOL    HW139194   3.115   1.113   7.067 -2.2748  1.4122  1.1868
 9244SOL    HW239195   3.141   1.238   7.159  2.1759  1.2802  1.3733
 9245SOL     OW39196   1.423   4.558   5.933  0.3749 -0.5803  0.2071
 9245SOL    HW139197   1.330   4.537   5.945  0.4346 -0.6575  0.5287
 9245SOL    HW239198   1.471   4.506   5.997 -3.5393 -1.0541  2.8054
 9246SOL     OW39199   1.042   0.038   9.095  1.3290 -0.3461  0.6244
 9246SOL    HW139200   1.068   4.716   9.174  2.3051 -0.9015 -0.0267
 9246SOL    HW239201   1.026   4.697   9.028 -2.1217  0.9997  0.0960
 9247SOL     OW39202   2.756   0.565  10.979  0.4087  0.8747  0.1423
 9247SOL    HW139203   2.712   0.521  11.051  0.5564  0.4551 -0.0288
 9247SOL    HW239204   2.748   0.657  11.006 -1.8105  0.3124  1.4292
 9248SOL     OW39205   1.408   0.378  17.193  0.2504  0.1740 -0.0614
 9248SOL    HW139206   1.417   0.377  17.288 -2.6303  0.8661  0.1980
 9248SOL    HW239207   1.365   0.463  17.186 -1.3860 -0.6653  0.0620
 9249SOL     OW39208   3.534   2.694  15.715 -0.4883  0.9763 -0.1370
 9249SOL    HW139209   3.571   2.674  15.801 -0.7562  1.6250  0.1306
 9249SOL    HW239210   3.472   2.623  15.698 -0.7788  1.4458 -1.0198
 9250SOL     OW39211   3.086   2.567   3.311  0.1610  0.0774 -0.2193
 9250SOL    HW139212   3.047   2.655   3.315  1.1289  0.4868  0.0892
 9250SOL    HW239213   3.036   2.530   3.384  1.1948 -1.8596 -0.5099
 9251SOL     OW39214   0.658   4.502   6.500 -0.5946 -0.2744  0.1415
 9251SOL    HW139215   0.654   4.582   6.551 -1.0349  0.2188 -0.6576
 9251SOL    HW239216   0.736   4.459   6.533 -0.9038 -0.7583  0.2467
 9252SOL     OW39217   2.634   0.721   7.083 -0.1189  0.2935  0.1838
 9252SOL    HW139218   2.676   0.658   7.142  2.4941  1.9123  0.0441
 9252SOL    HW239219   2.627   0.792   7.146 -0.7478  1.0850 -0.7939
 9253SOL     OW39220   0.025   0.406  15.331  0.0264  0.2004 -0.5543
 9253SOL    HW139221   0.091   0.356  15.282  1.0980  0.1279  0.9885
 9253SOL    HW239222   4.670   0.413  15.278  0.6404  0.0528 -1.4995
 9254SOL     OW39223   3.556   1.123   7.275 -0.0626  0.2074 -0.6995
 9254SOL    HW139224   3.472   1.104   7.317  0.2579  2.5206  0.9394
 9254SOL    HW239225   3.607   1.052   7.315 -2.9483 -0.2361  2.1920
 9255SOL     OW39226   3.422   3.842   5.518 -0.1769  0.0794 -0.4696
 9255SOL    HW139227   3.497   3.885   5.559 -2.3741  3.7022 -0.2495
 9255SOL    HW239228   3.356   3.911   5.511 -1.4456 -0.8104  2.5143
 9256SOL     OW39229   0.382   3.040   5.533 -0.2077  0.1949 -0.4166
 9256SOL    HW139230   0.313   3.065   5.471 -0.4894 -0.3934 -0.3423
 9256SOL    HW239231   0.338   2.987   5.599 -0.8114 -0.5620 -1.4199
 9257SOL     OW39232   1.386   0.332  13.044 -0.0441 -0.5341 -0.1719
 9257SOL    HW139233   1.453   0.368  13.103 -1.8655 -0.8174  2.0615
 9257SOL    HW239234   1.423   0.384  12.972 -0.2701  1.1447  0.9165
 9258SOL     OW39235   2.078   1.789   1.062  0.9503  0.0477  0.6320
 9258SOL    HW139236   2.085   1.694   1.072 -0.0806 -0.0489  0.4579
 9258SOL    HW239237   2.140   1.790   0.989 -0.1229  0.3359 -0.2805
 9259SOL     OW39238   1.831   4.202  11.108  0.4004 -0.4223  0.3968
 9259SOL    HW139239   1.777   4.123  11.117 -0.3041 -0.1379 -1.1432
 9259SOL    HW239240   1.773   4.264  11.063  1.8323  0.3881 -0.3173
 9260SOL     OW39241   3.586   0.696   4.233  0.0698 -0.3307  0.0914
 9260SOL    HW139242   3.511   0.754   4.227  0.6947  0.5361  0.7241
 9260SOL    HW239243   3.646   0.750   4.283  0.4470 -0.9010  0.2554
 9261SOL     OW39244   1.012   0.957  14.662 -0.3922 -0.0445 -0.0024
 9261SOL    HW139245   1.068   0.904  14.605  0.4073  0.5661  0.2129
 9261SOL    HW239246   1.039   0.918  14.745  0.0802 -1.8745 -1.0227
 9262SOL     OW39247   0.137   2.628  17.222 -0.2497 -0.3231  0.8268
 9262SOL    HW139248   0.086   2.552  17.197 -2.3423  0.9937  1.0865
 9262SOL    HW239249   0.190   2.619  17.143 -1.1485 -1.0402  0.3086
 9263SOL     OW39250   1.198   0.175  12.930 -0.5462  0.0395 -0.1488
 9263SOL    HW139251   1.270   0.220  12.975 -0.5634 -0.3801  0.3012
 9263SOL    HW239252   1.204   0.201  12.838 -0.7647 -4.0295 -1.3147
 9264SOL     OW39253   4.353   1.167   5.548 -0.1226 -0.4464 -0.2927
 9264SOL    HW139254   4.279   1.121   5.509 -0.7717  0.6414 -0.3402
 9264SOL    HW239255   4.396   1.093   5.591 -0.5902 -1.0565 -0.8761
 9265SOL     OW39256   4.176   0.714  11.251  0.2058  0.1429 -0.1170
 9265SOL    HW139257   4.107   0.762  11.206  0.1698 -2.6892 -3.0806
 9265SOL    HW239258   4.124   0.649  11.298 -0.4127  0.6775 -0.0620
 9266SOL     OW39259   1.382   0.768   4.605 -0.1027  0.1863 -0.5353
 9266SOL    HW139260   1.336   0.705   4.659 -1.7060  1.2300 -0.6895
 9266SOL    HW239261   1.344   0.762   4.517  0.5776  1.0731 -0.8916
 9267SOL     OW39262   3.823   2.031   0.176 -0.0429 -0.6160  0.0576
 9267SOL    HW139263   3.749   2.006   0.230 -1.4348  1.9180 -0.6667
 9267SOL    HW239264   3.856   1.947   0.144  0.4866 -0.7121  0.8610
 9268SOL     OW39265   1.784   2.243   6.146 -0.4657  0.0259  0.2109
 9268SOL    HW139266   1.837   2.321   6.131  2.4178 -1.5808  1.8250
 9268SOL    HW239267   1.700   2.280   6.172 -0.9457  0.0060 -1.3255
 9269SOL     OW39268   3.882   3.176   5.406 -0.0015  0.0442  0.7213
 9269SOL    HW139269   3.868   3.270   5.395  0.0655  0.3217  3.0379
 9269SOL    HW239270   3.967   3.165   5.363 -1.0975  1.1256 -1.7095
 9270SOL     OW39271   4.448   3.116   3.251 -0.6053 -0.0229 -0.0239
 9270SOL    HW139272   4.531   3.142   3.211 -0.7481  2.5830  1.3490
 9270SOL    HW239273   4.417   3.061   3.179 -2.6023 -0.4686  1.1777
 9271SOL     OW39274   1.314   1.846   3.715  0.6607  0.8187 -0.2754
 9271SOL    HW139275   1.263   1.817   3.639 -0.4108  0.7787  0.4715
 9271SOL    HW239276   1.263   1.796   3.778  0.9006 -0.2042 -0.8814
 9272SOL     OW39277   1.936   1.141   4.178  0.0953  0.0001  0.7263
 9272SOL    HW139278   1.957   1.230   4.204  0.2431 -0.2429  1.4202
 9272SOL    HW239279   1.847   1.134   4.212  0.0245  3.4079  1.2108
 9273SOL     OW39280   2.024   1.062   8.112  0.4865  0.1904  0.0184
 9273SOL    HW139281   1.995   0.971   8.101 -0.5898  0.8878 -2.8727
 9273SOL    HW239282   1.947   1.110   8.144  1.2400  1.6834 -0.4474
 9274SOL     OW39283   2.749   0.738  17.015 -0.2622 -0.8579 -0.7212
 9274SOL    HW139284   2.769   0.779  16.931  1.5531 -2.1938 -0.9370
 9274SOL    HW239285   2.656   0.717  17.017 -0.0966 -1.4396  0.9857
 9275SOL     OW39286   3.769   4.255  14.499 -0.7584  0.0989 -0.0228
 9275SOL    HW139287   3.786   4.311  14.575  1.3268 -0.3909 -0.1277
 9275SOL    HW239288   3.715   4.184  14.531 -0.5758 -0.3954 -0.7940
 9276SOL     OW39289   4.067   0.616   9.675  0.0359  0.0503  0.0816
 9276SOL    HW139290   4.072   0.589   9.767  1.3624 -4.4109 -1.2590
 9276SOL    HW239291   4.010   0.554   9.630  1.0494 -1.1596  0.4468
 9277SOL     OW39292   3.466   2.361  13.863  0.5423  0.0571  0.2651
 9277SOL    HW139293   3.392   2.415  13.834  1.0942  1.1708  0.9371
 9277SOL    HW239294   3.480   2.320  13.777 -3.1795  0.1357 -0.4064
 9278SOL     OW39295   1.098   0.535   4.627 -0.4365  0.4637 -0.1636
 9278SOL    HW139296   1.113   0.448   4.589 -2.7061 -1.3240  3.0145
 9278SOL    HW239297   1.181   0.541   4.675 -0.7630  0.1963  0.4460
 9279SOL     OW39298   3.594   1.091   1.140  0.0241  0.1033 -0.4095
 9279SOL    HW139299   3.585   1.185   1.123 -0.3508 -0.1041 -1.3486
 9279SOL    HW239300   3.688   1.095   1.159 -0.3824  1.1712  1.3714
 9280SOL     OW39301   3.000   1.487  10.101  0.0721 -0.0379 -0.2415
 9280SOL    HW139302   2.971   1.574  10.073 -2.3838 -1.0454 -0.8895
 9280SOL    HW239303   2.917   1.440  10.088 -0.7400  1.2926  0.1702
 9281SOL     OW39304   3.577   1.642   6.738  0.5988  0.1001 -0.1651
 9281SOL    HW139305   3.655   1.690   6.708  1.6684 -2.0917 -0.8495
 9281SOL    HW239306   3.542   1.708   6.799  3.1196  1.3669 -0.0713
 9282SOL     OW39307   4.683   2.724   0.962  0.1085 -0.1710  0.4498
 9282SOL    HW139308   4.632   2.806   0.967 -0.9430 -0.6879 -1.7936
 9282SOL    HW239309   0.020   2.728   0.889 -0.2902 -0.9345  0.0700
 9283SOL     OW39310   0.372   1.507   2.434 -0.4008  0.0492 -0.1034
 9283SOL    HW139311   0.390   1.468   2.349  0.8138  1.8931 -0.7012
 9283SOL    HW239312   0.303   1.569   2.410  0.4642  0.9496 -0.2731
 9284SOL     OW39313   3.210   0.638  12.728 -0.0506 -0.2541  0.1688
 9284SOL    HW139314   3.274   0.703  12.698 -0.4903 -0.0042 -0.2214
 9284SOL    HW239315   3.128   0.666  12.687  0.4580 -1.5622 -1.7340
 9285SOL     OW39316   2.430   1.441   0.991 -0.1201  0.1000 -0.1137
 9285SOL    HW139317   2.415   1.420   1.084 -1.5657 -1.2655 -0.6633
 9285SOL    HW239318   2.519   1.475   0.996 -0.6536  1.4729 -0.0388
 9286SOL     OW39319   2.722   3.887   1.991  0.0764  0.1183  0.3993
 9286SOL    HW139320   2.703   3.805   2.037 -0.7325 -0.2256 -0.5310
 9286SOL    HW239321   2.732   3.868   1.897  0.5304 -0.2513  0.5254
 9287SOL     OW39322   2.043   2.227   5.923 -0.2617 -0.1338 -0.0333
 9287SOL    HW139323   1.956   2.190   5.938  0.1491 -0.5862  1.2195
 9287SOL    HW239324   2.023   2.291   5.854  0.7139 -1.2645 -1.3757
 9288SOL     OW39325   2.546   1.767   4.221 -0.2498  1.2527 -0.5420
 9288SOL    HW139326   2.557   1.807   4.135  2.7508  0.0243 -0.7623
 9288SOL    HW239327   2.493   1.690   4.203 -0.6599  1.1416  1.0840
 9289SOL     OW39328   1.825   4.171   8.689 -0.4153  0.6155  0.0603
 9289SOL    HW139329   1.752   4.183   8.750 -2.2922 -0.3204 -1.9972
 9289SOL    HW239330   1.888   4.129   8.748 -1.2428 -0.1454  0.3935
 9290SOL     OW39331   0.826   1.974   3.348 -0.1606 -0.2240 -0.1297
 9290SOL    HW139332   0.771   2.046   3.378 -0.5408 -1.2127  1.5654
 9290SOL    HW239333   0.773   1.905   3.388 -1.3068  0.6020 -0.2353
 9291SOL     OW39334   2.236   0.314   7.300 -0.0622 -0.4196  0.8645
 9291SOL    HW139335   2.187   0.380   7.348  0.1435  1.0776 -1.0102
 9291SOL    HW239336   2.287   0.289   7.378 -0.2922  0.4655  1.2937
 9292SOL     OW39337   4.332   3.623   3.919  0.1473  0.5596 -0.8813
 9292SOL    HW139338   4.363   3.706   3.955 -1.8385  0.7093  0.4729
 9292SOL    HW239339   4.402   3.565   3.951 -0.6240  0.6703  1.0251
 9293SOL     OW39340   2.074   1.055  17.517 -0.0028  0.1441 -0.5239
 9293SOL    HW139341   2.134   1.111  17.467 -1.4523  2.3361  0.2004
 9293SOL    HW239342   2.098   0.967  17.491 -1.0156 -0.4920  0.7183
 9294SOL     OW39343   0.800   2.530   3.760  0.7610  0.0498  0.1545
 9294SOL    HW139344   0.741   2.605   3.759  0.5937 -0.0840 -0.2483
 9294SOL    HW239345   0.839   2.524   3.673  0.5008 -0.0110  0.0401
 9295SOL     OW39346   3.920   2.568  15.808  0.3631  0.2148 -0.4615
 9295SOL    HW139347   3.956   2.515  15.737  0.6608  0.1820 -0.2827
 9295SOL    HW239348   3.932   2.502  15.876 -0.9050  1.0109  0.5457
 9296SOL     OW39349   0.848   2.871   4.579 -0.0851 -0.2066  0.6900
 9296SOL    HW139350   0.929   2.907   4.615  0.8697  0.2385 -1.8771
 9296SOL    HW239351   0.819   2.944   4.525 -0.9779 -1.6206 -0.7533
 9297SOL     OW39352   3.287   3.839  13.036 -0.2328  0.6765  0.0347
 9297SOL    HW139353   3.349   3.822  12.966  0.3182  2.0067  0.2110
 9297SOL    HW239354   3.309   3.929  13.059 -0.6537  0.5409  0.9482
 9298SOL     OW39355   2.310   4.324   2.363  0.4756  0.6904  0.0637
 9298SOL    HW139356   2.396   4.361   2.342  1.9396 -1.6112  1.9175
 9298SOL    HW239357   2.298   4.388   2.434 -1.7622  0.9738 -0.5961
 9299SOL     OW39358   3.642   3.795   6.188  0.3726  0.2494 -0.0840
 9299SOL    HW139359   3.568   3.840   6.228  0.1147  0.7328 -1.0915
 9299SOL    HW239360   3.622   3.796   6.094 -3.5038 -0.0301  0.7184
 9300SOL     OW39361   2.987   2.126   1.155  0.6428  0.3374  0.1625
 9300SOL    HW139362   3.041   2.204   1.170  0.2057  0.8910 -1.0868
 9300SOL    HW239363   2.904   2.169   1.178  1.6077  2.3807 -0.1008
 9301SOL     OW39364   1.894   4.410   7.401  0.2003 -0.0831 -0.0357
 9301SOL    HW139365   1.827   4.396   7.469 -1.0467 -0.1383 -1.2813
 9301SOL    HW239366   1.850   4.482   7.357  2.4563 -0.0980 -2.2358
 9302SOL     OW39367   0.714   2.140   4.357 -0.7136 -0.5255  0.1555
 9302SOL    HW139368   0.686   2.048   4.352 -2.3426 -0.0394  0.2096
 9302SOL    HW239369   0.771   2.141   4.434 -1.3429 -2.0629  0.6631
 9303SOL     OW39370   3.439   0.534   8.874 -0.1895  0.2019  0.3208
 9303SOL    HW139371   3.531   0.512   8.888 -0.6526 -1.6454  0.4504
 9303SOL    HW239372   3.405   0.514   8.961 -0.5403 -2.5692 -0.4455
 9304SOL     OW39373   3.270   1.125   3.813  0.0551  0.1529  0.0253
 9304SOL    HW139374   3.266   1.033   3.837  2.3209  0.8614  3.1674
 9304SOL    HW239375   3.355   1.132   3.769 -0.4211  2.2846 -0.5706
 9305SOL     OW39376   4.035   1.589   6.551  0.4460  0.1902  0.3262
 9305SOL    HW139377   4.060   1.518   6.610 -0.6309 -1.6014 -1.3998
 9305SOL    HW239378   4.050   1.668   6.603 -1.4297  1.1134 -0.5399
 9306SOL     OW39379   2.358   2.567   2.539 -0.5755 -0.0007  0.2511
 9306SOL    HW139380   2.438   2.525   2.507 -0.5025 -2.9542  4.3716
 9306SOL    HW239381   2.399   2.627   2.602 -0.2934  0.1639 -0.0903
 9307SOL     OW39382   2.611   1.786   1.885 -0.9817 -0.4475  0.7939
 9307SOL    HW139383   2.549   1.776   1.813 -1.5653  1.1166  1.0730
 9307SOL    HW239384   2.588   1.875   1.914 -1.8890  0.2786 -2.2025
 9308SOL     OW39385   4.476   2.308   2.762 -0.7694 -0.0349  0.4394
 9308SOL    HW139386   4.507   2.362   2.690  0.4007  1.9459  2.4307
 9308SOL    HW239387   4.400   2.351   2.801 -0.7990  1.7466 -1.6043
 9309SOL     OW39388   3.715   4.464   5.719 -0.4492  0.4023 -0.4143
 9309SOL    HW139389   3.675   4.530   5.663  0.4584  0.8464 -0.5281
 9309SOL    HW239390   3.784   4.431   5.662 -0.3002 -1.3449  0.7817
 9310SOL     OW39391   2.398   3.450   4.382  0.0686 -0.1526 -0.2319
 9310SOL    HW139392   2.432   3.379   4.328  0.6898 -2.5049  3.2924
 9310SOL    HW239393   2.465   3.443   4.450  0.6742 -1.6552 -0.9968
 9311SOL     OW39394   2.495   2.570   4.753 -0.3814  0.1639 -0.1037
 9311SOL    HW139395   2.532   2.493   4.796  0.9686 -0.6356 -2.6678
 9311SOL    HW239396   2.429   2.534   4.694 -0.3409  0.4396 -0.3190
 9312SOL     OW39397   2.190   3.379   2.449  0.0371  0.3341 -0.2834
 9312SOL    HW139398   2.117   3.337   2.495 -0.6518  0.9670 -0.7888
 9312SOL    HW239399   2.187   3.334   2.364 -3.9198 -1.7450  0.9786
 9313SOL     OW39400   1.555   2.918   5.682  0.4968  0.5655 -0.7618
 9313SOL    HW139401   1.515   2.850   5.628  1.1188 -0.2428 -0.1957
 9313SOL    HW239402   1.645   2.893   5.704  0.0892 -0.2555 -0.0368
 9314SOL     OW39403   1.665   2.949   2.833  0.1299  0.0504 -0.1397
 9314SOL    HW139404   1.711   2.882   2.883 -2.4845 -1.9782 -0.4455
 9314SOL    HW239405   1.608   2.887   2.787  0.8926  0.9115 -2.2147
 9315SOL     OW39406   0.878   1.474   1.802 -0.1970 -0.0799 -0.4038
 9315SOL    HW139407   0.957   1.520   1.830  1.2835 -3.5639  1.0737
 9315SOL    HW239408   0.902   1.386   1.830  1.8511  1.5468  2.9715
 9316SOL     OW39409   1.664   0.623   1.685 -0.1488 -0.5547 -0.3535
 9316SOL    HW139410   1.644   0.707   1.726 -0.1449 -1.0054  0.5798
 9316SOL    HW239411   1.715   0.578   1.753 -0.8477  0.0259  0.5531
 9317SOL     OW39412   0.572   3.347   4.146  0.1164 -0.0169  0.0313
 9317SOL    HW139413   0.504   3.344   4.079  1.0520  1.8351 -1.0318
 9317SOL    HW239414   0.579   3.257   4.176  0.4758  0.1239  0.3749
 9318SOL     OW39415   3.066   4.373   2.253 -0.4507  0.7776 -0.1813
 9318SOL    HW139416   3.059   4.436   2.324  1.2240 -0.3798  1.0126
 9318SOL    HW239417   3.027   4.296   2.295  0.8116 -0.5718 -1.4498
 9319SOL     OW39418   2.231   2.181   7.004 -0.4083 -0.2400 -0.0613
 9319SOL    HW139419   2.136   2.183   7.016 -0.2531  1.1176  0.8890
 9319SOL    HW239420   2.253   2.267   6.970  0.1768  0.1346  1.2820
 9320SOL     OW39421   4.167   3.044   5.562 -0.2060  0.6862 -0.1125
 9320SOL    HW139422   4.145   3.068   5.473  0.9598  1.3364 -0.2236
 9320SOL    HW239423   4.229   2.971   5.553 -0.1543  0.7454 -0.2307
 9321SOL     OW39424   0.549   0.736   5.329 -0.5004  0.2004 -0.1165
 9321SOL    HW139425   0.594   0.679   5.268 -3.0121 -1.9159  0.0312
 9321SOL    HW239426   0.519   0.804   5.269 -0.4788  0.9212  0.6874
 9322SOL     OW39427   2.140   3.229  16.809  0.1123  0.1562  0.2286
 9322SOL    HW139428   2.101   3.258  16.726 -0.5382 -0.6787  0.2415
 9322SOL    HW239429   2.057   3.207  16.851  0.1555 -0.9156 -0.2402
 9323SOL     OW39430   2.060   1.913   2.071 -0.1473 -0.7259  0.0398
 9323SOL    HW139431   2.126   1.860   2.116  0.2827  0.1579  0.4429
 9323SOL    HW239432   2.069   1.879   1.982  0.7223 -2.2766  0.7232
 9324SOL     OW39433   0.501   0.574  12.678 -0.1090 -0.7445  0.0374
 9324SOL    HW139434   0.554   0.607  12.750 -2.7786  0.3121  1.5097
 9324SOL    HW239435   0.473   0.659  12.645  1.9083 -0.0420  0.1320
 9325SOL     OW39436   2.769   4.179   6.750  0.5906  0.0960  0.0463
 9325SOL    HW139437   2.713   4.105   6.771  1.9364  0.1381  3.7228
 9325SOL    HW239438   2.850   4.144   6.788  0.4960  1.5619  1.6155
 9326SOL     OW39439   1.044   2.747   0.511 -0.1259  0.1507  0.2947
 9326SOL    HW139440   1.039   2.805   0.435 -0.3236  0.5748  0.6307
 9326SOL    HW239441   0.959   2.705   0.495 -0.9891  1.6292  0.9445
 9327SOL     OW39442   1.225   0.547   5.273  0.4558 -0.0052  0.1546
 9327SOL    HW139443   1.294   0.495   5.232 -0.5425 -1.3727  0.1988
 9327SOL    HW239444   1.275   0.616   5.316  0.6277  1.0738 -1.7847
 9328SOL     OW39445   2.762   1.666   2.708 -0.5894  0.1443 -0.0359
 9328SOL    HW139446   2.830   1.599   2.701 -0.0641  0.5458  1.2294
 9328SOL    HW239447   2.791   1.716   2.785  0.0600 -0.3236  0.0174
 9329SOL     OW39448   3.031   1.835   8.173 -0.1212  0.0767 -0.2065
 9329SOL    HW139449   3.053   1.898   8.242  1.9688 -1.8513  0.8909
 9329SOL    HW239450   3.063   1.755   8.215  3.8017  0.9677 -1.4839
 9330SOL     OW39451   4.021   2.201  16.015 -0.7143  0.0636 -0.2099
 9330SOL    HW139452   4.112   2.228  16.023 -1.1740  1.1416  1.3485
 9330SOL    HW239453   4.036   2.113  16.051  0.8762 -0.8161 -3.0543
 9331SOL     OW39454   0.759   4.625   3.000  0.3479  0.2728  0.5126
 9331SOL    HW139455   0.667   4.651   2.997  1.0495  2.4067 -2.3652
 9331SOL    HW239456   0.784   4.688   3.068 -0.1304 -0.6457  1.5306
 9332SOL     OW39457   0.500   4.458   7.134  0.2475  0.2065  0.1063
 9332SOL    HW139458   0.571   4.518   7.156  1.3036 -0.6112 -1.0638
 9332SOL    HW239459   0.441   4.457   7.209 -0.9062 -1.0576 -0.8400
 9333SOL     OW39460   2.903   1.857   6.253 -0.6194  0.1156 -0.2059
 9333SOL    HW139461   2.906   1.841   6.347  1.9314 -0.5961 -0.4273
 9333SOL    HW239462   2.977   1.810   6.214 -1.2011 -1.9992  1.2540
 9334SOL     OW39463   3.833   4.115   5.451 -0.0080 -0.5726 -0.0869
 9334SOL    HW139464   3.912   4.065   5.468 -1.3413 -1.8088  2.5078
 9334SOL    HW239465   3.820   4.094   5.358 -0.6729 -2.0859  0.3410
 9335SOL     OW39466   2.369   0.084   5.991 -0.5084  1.0453 -0.3093
 9335SOL    HW139467   2.452   0.099   5.945 -0.0313 -2.7853 -0.6814
 9335SOL    HW239468   2.310   0.085   5.916 -0.1074 -3.3544 -0.7082
 9336SOL     OW39469   2.367   2.452   5.783 -0.1128  0.2018  0.0711
 9336SOL    HW139470   2.387   2.504   5.861  0.6071  0.6923 -0.4314
 9336SOL    HW239471   2.398   2.367   5.813 -0.8166 -0.1516 -0.2011
 9337SOL     OW39472   0.806   3.747  11.465 -0.1681 -0.0153 -0.3736
 9337SOL    HW139473   0.740   3.680  11.451  1.3880 -2.0810  1.9425
 9337SOL    HW239474   0.751   3.811  11.509  1.7643  0.7852  0.8845
 9338SOL     OW39475   1.614   2.559  10.869  0.6938  0.4072 -0.1048
 9338SOL    HW139476   1.595   2.523  10.956  0.5926  0.6381 -0.0300
 9338SOL    HW239477   1.662   2.489  10.825  0.3152  0.1489 -0.1055
 9339SOL     OW39478   0.492   3.686   5.114 -0.5188 -0.3399  0.5936
 9339SOL    HW139479   0.460   3.628   5.183 -1.8695 -0.9873 -0.5784
 9339SOL    HW239480   0.555   3.628   5.071 -0.6363 -1.0487  1.3606
 9340SOL     OW39481   3.645   4.312   2.165 -0.1793  0.0187  0.5418
 9340SOL    HW139482   3.562   4.278   2.197 -0.1766  1.0101  1.5934
 9340SOL    HW239483   3.617   4.332   2.076  0.2019 -2.6675 -0.1899
 9341SOL     OW39484   2.214   3.992  15.575  0.6392  0.0643  0.0188
 9341SOL    HW139485   2.119   3.990  15.575  0.6425  0.4656 -3.0101
 9341SOL    HW239486   2.235   3.981  15.668 -1.9991  1.0128  0.7202
 9342SOL     OW39487   0.136   0.448   4.039  0.3710 -0.1206 -0.3102
 9342SOL    HW139488   0.070   0.505   3.999 -0.8801  0.5841  2.8150
 9342SOL    HW239489   0.193   0.516   4.075 -1.7001  0.8491  1.1057
 9343SOL     OW39490   4.080   1.998   4.850  0.7957  0.2412 -0.3078
 9343SOL    HW139491   4.170   2.019   4.874  0.7148  0.7681 -0.4678
 9343SOL    HW239492   4.084   2.033   4.761  1.4868  1.5863  0.2446
 9344SOL     OW39493   4.258   1.428   9.091  0.0105 -0.8231 -0.2271
 9344SOL    HW139494   4.198   1.356   9.073 -1.5555  0.9934 -2.2289
 9344SOL    HW239495   4.349   1.401   9.075  0.5755  1.4539 -0.9281
 9345SOL     OW39496   4.667   3.008   3.983  0.3294 -0.1130  0.5300
 9345SOL    HW139497   4.656   2.919   4.016 -0.6887  0.8702  2.8212
 9345SOL    HW239498   4.643   2.994   3.891  1.5173  2.4194 -0.1621
 9346SOL     OW39499   4.513   4.561   5.868  0.5411  0.1067  0.4983
 9346SOL    HW139500   4.447   4.593   5.929  0.4784 -1.4207  1.2188
 9346SOL    HW239501   4.483   4.471   5.863  0.0538  0.2063  1.7717
 9347SOL     OW39502   0.479   2.121   1.908  0.6982 -0.3780  0.5520
 9347SOL    HW139503   0.554   2.125   1.967  0.2605 -2.1213  1.2413
 9347SOL    HW239504   0.473   2.027   1.890 -0.0361 -0.4027  0.9132
 9348SOL     OW39505   4.528   2.274   3.054 -0.1758  0.1550 -0.7806
 9348SOL    HW139506   4.477   2.322   2.989  3.5427  1.5870 -2.6453
 9348SOL    HW239507   4.611   2.321   3.054 -1.2662  2.0990  0.1391
 9349SOL     OW39508   2.571   0.970   4.532 -0.0867 -0.6114  0.5621
 9349SOL    HW139509   2.486   0.962   4.576 -0.9448 -1.9684 -1.3200
 9349SOL    HW239510   2.617   0.986   4.614 -1.8254 -1.2339  1.6639
 9350SOL     OW39511   1.504   0.717   2.898 -0.0199 -0.2382  0.1139
 9350SOL    HW139512   1.549   0.636   2.875  0.6171 -0.0241  0.5844
 9350SOL    HW239513   1.455   0.686   2.974  0.8709 -2.0878 -0.0641
 9351SOL     OW39514   1.500   3.826   3.610  0.5526  0.5819  0.4210
 9351SOL    HW139515   1.476   3.807   3.701 -0.3002  0.1806  0.1080
 9351SOL    HW239516   1.580   3.879   3.615 -0.3627  2.0424 -0.5497
 9352SOL     OW39517   0.340   1.080   4.071  0.3722  0.4974 -0.4455
 9352SOL    HW139518   0.315   0.993   4.040 -0.8046  0.7295 -0.1476
 9352SOL    HW239519   0.414   1.099   4.013  0.2198 -1.9734 -1.4599
 9353SOL     OW39520   3.655   2.854   8.010  0.0875  0.2510  0.0577
 9353SOL    HW139521   3.626   2.914   8.079  0.4910 -0.2561  0.6716
 9353SOL    HW239522   3.746   2.874   8.034  0.3057 -1.9472  1.0593
 9354SOL     OW39523   2.964   2.670  16.856  0.6704  0.2513  0.0770
 9354SOL    HW139524   2.938   2.592  16.808  2.6284 -0.1828 -0.2784
 9354SOL    HW239525   2.914   2.730  16.801 -0.2685 -1.2739 -0.7159
 9355SOL     OW39526   4.661   3.790   5.718  0.4377  0.7910 -0.2202
 9355SOL    HW139527   4.573   3.797   5.756  0.2119 -0.1769 -0.5662
 9355SOL    HW239528   4.687   3.709   5.761 -2.1270 -0.0501 -0.2235
 9356SOL     OW39529   0.083   1.195  13.532 -0.3946 -0.4435 -0.3121
 9356SOL    HW139530   0.094   1.219  13.624 -0.4374 -0.1496 -0.3819
 9356SOL    HW239531   4.713   1.197  13.529 -0.4615 -1.2762  1.6318
 9357SOL     OW39532   3.366   0.150  15.953 -0.4227 -0.0982 -0.4061
 9357SOL    HW139533   3.457   0.138  15.926 -0.5264 -0.7138 -0.4719
 9357SOL    HW239534   3.338   0.060  15.971  0.3337  0.2542  2.6713
 9358SOL     OW39535   1.010   0.790   6.590 -0.5838  0.3741 -0.2711
 9358SOL    HW139536   1.084   0.779   6.649  0.0921  1.6248 -0.8782
 9358SOL    HW239537   0.956   0.711   6.594 -1.6797  1.3234  3.2677
 9359SOL     OW39538   3.530   1.957  17.692 -0.5821 -0.4812 -0.2088
 9359SOL    HW139539   3.600   1.909  17.648 -0.3249  0.0649 -0.4065
 9359SOL    HW239540   3.454   1.901  17.678 -1.4849  0.9731 -1.1005
 9360SOL     OW39541   4.720   0.931   4.022 -0.1543 -0.5925  0.4401
 9360SOL    HW139542   0.047   0.960   3.947 -1.5050  0.9806  0.1123
 9360SOL    HW239543   4.637   0.978   4.013  0.5781  0.9703  1.8016
 9361SOL     OW39544   3.539   4.502  16.361 -0.1636 -0.2102  0.0450
 9361SOL    HW139545   3.581   4.466  16.439  0.3447 -1.2775 -0.7294
 9361SOL    HW239546   3.447   4.485  16.382  0.9308 -0.4050  4.6339
 9362SOL     OW39547   2.213   4.297   8.764 -0.3107 -0.1326  0.2880
 9362SOL    HW139548   2.306   4.295   8.785 -0.6344 -1.4038  1.6000
 9362SOL    HW239549   2.217   4.314   8.670 -2.5543 -1.3069 -0.0238
 9363SOL     OW39550   2.893   3.281  15.036 -0.4028  0.0581 -0.7188
 9363SOL    HW139551   2.824   3.340  15.008  0.3119  1.7165  1.0104
 9363SOL    HW239552   2.864   3.266  15.126 -0.3178  2.4179 -0.3134
 9364SOL     OW39553   0.847   1.500   8.649  0.2522  0.4857 -0.0626
 9364SOL    HW139554   0.938   1.507   8.675  0.4182 -1.4254 -0.0917
 9364SOL    HW239555   0.850   1.530   8.558 -0.1185  0.5869 -0.0445
 9365SOL     OW39556   2.383   3.099   0.554  0.0176  0.8649  1.0105
 9365SOL    HW139557   2.322   3.172   0.540 -0.0190  0.8503  1.0931
 9365SOL    HW239558   2.469   3.139   0.540  0.6644 -1.2585 -0.8984
 9366SOL     OW39559   1.072   3.447   0.551 -1.1203 -0.2538 -0.3697
 9366SOL    HW139560   1.035   3.467   0.465 -0.6553 -0.9271 -0.7267
 9366SOL    HW239561   1.004   3.486   0.605 -0.4921 -0.7382  0.7748
 9367SOL     OW39562   2.498   3.468   4.101  0.2792 -0.0575  0.2152
 9367SOL    HW139563   2.476   3.516   4.181 -0.2549  1.8293 -1.0634
 9367SOL    HW239564   2.558   3.537   4.072 -2.0876  1.0445 -2.0349
 9368SOL     OW39565   1.682   3.577   3.952  0.6333  0.2363 -0.4787
 9368SOL    HW139566   1.673   3.569   4.047 -0.0312  1.9654 -0.4020
 9368SOL    HW239567   1.692   3.485   3.929  1.2199  0.5017 -1.2652
 9369SOL     OW39568   2.729   1.680   8.813 -0.2354 -0.0130  0.1274
 9369SOL    HW139569   2.679   1.610   8.772  2.7279 -1.3893 -1.1605
 9369SOL    HW239570   2.665   1.705   8.879 -0.5822 -0.6439  0.0180
 9370SOL     OW39571   4.250   1.425   3.132 -0.1036 -0.2667 -0.1684
 9370SOL    HW139572   4.295   1.345   3.106 -0.2897 -1.2590  2.5995
 9370SOL    HW239573   4.227   1.399   3.221  3.4520  1.3705  1.2352
 9371SOL     OW39574   3.065   1.509   5.315  0.4997 -0.0149  0.5365
 9371SOL    HW139575   3.112   1.425   5.319  1.5556  0.5690  0.2608
 9371SOL    HW239576   3.033   1.531   5.403 -1.7948  0.0837 -0.3192
 9372SOL     OW39577   3.890   0.427   0.022 -0.1904 -0.2014 -0.0783
 9372SOL    HW139578   3.801   0.400   0.000 -0.0246  0.5374 -1.7036
 9372SOL    HW239579   3.943   0.349   0.009  1.6331  1.0840 -0.4417
 9373SOL     OW39580   0.589   2.821  13.436  0.3312  0.2769  0.0620
 9373SOL    HW139581   0.616   2.730  13.449 -0.0597  0.2394  0.6153
 9373SOL    HW239582   0.605   2.857  13.523  0.7854 -0.9993  0.5026
 9374SOL     OW39583   2.641   3.629   2.935  0.7136  0.3487 -0.3326
 9374SOL    HW139584   2.644   3.651   2.842 -2.0567  0.9852 -0.2556
 9374SOL    HW239585   2.549   3.648   2.949  0.5880 -0.3783 -0.1393
 9375SOL     OW39586   0.955   1.477   8.091 -0.0945  0.8025 -0.3168
 9375SOL    HW139587   0.945   1.382   8.095  3.7343  0.3806  0.0226
 9375SOL    HW239588   1.050   1.494   8.092  0.1859 -0.8398  0.2922
 9376SOL     OW39589   1.556   1.875   3.544  0.0373  0.2334 -0.1555
 9376SOL    HW139590   1.620   1.902   3.611  1.3768 -0.7388 -1.0571
 9376SOL    HW239591   1.478   1.877   3.600 -1.7361  1.2621 -2.6829
 9377SOL     OW39592   4.430   2.516   7.185 -0.1126 -0.0489 -0.7332
 9377SOL    HW139593   4.432   2.483   7.275 -1.7839  0.5321 -0.4819
 9377SOL    HW239594   4.451   2.437   7.136  2.0842  1.1171 -1.6504
 9378SOL     OW39595   3.439   2.612  11.660 -0.5777  0.3598  0.3082
 9378SOL    HW139596   3.415   2.520  11.656 -0.3122  0.1260  3.7003
 9378SOL    HW239597   3.383   2.651  11.593  1.0218  0.0183 -1.2367
 9379SOL     OW39598   0.378   3.213   7.471  0.4722  0.1585 -0.5322
 9379SOL    HW139599   0.313   3.156   7.429  1.5077 -1.0508 -0.5167
 9379SOL    HW239600   0.364   3.280   7.405  1.7429  0.0270 -0.9464
 9380SOL     OW39601   1.767   1.049   8.581 -0.4772 -0.1391  0.5594
 9380SOL    HW139602   1.827   1.118   8.608  1.5378 -0.5595 -2.9484
 9380SOL    HW239603   1.731   1.085   8.500 -1.5350 -2.7644 -0.1252
 9381SOL     OW39604   3.112   2.240   8.482 -0.5282  0.1729 -0.8757
 9381SOL    HW139605   3.189   2.218   8.533 -1.3118 -1.8374 -0.5403
 9381SOL    HW239606   3.081   2.328   8.501 -0.9118 -0.4339  1.3028
 9382SOL     OW39607   3.571   2.779   5.307  0.5315  0.1170  0.7418
 9382SOL    HW139608   3.599   2.870   5.301 -0.9128  0.6422  2.0956
 9382SOL    HW239609   3.491   2.782   5.254  1.4369 -1.8485 -0.7299
 9383SOL     OW39610   3.875   1.327   5.157  0.2700 -0.0276  0.5602
 9383SOL    HW139611   3.969   1.325   5.177  0.1947 -0.4633  0.8640
 9383SOL    HW239612   3.833   1.340   5.242 -0.8860 -0.1684  0.0133
 9384SOL     OW39613   0.306   1.950   2.203 -0.0603 -0.1111  0.2323
 9384SOL    HW139614   0.365   2.025   2.193 -1.3207  0.9625  0.8520
 9384SOL    HW239615   0.327   1.920   2.291 -0.6799 -0.4292  0.2739
 9385SOL     OW39616   2.129   2.887   7.071 -0.4489 -0.1953 -0.1996
 9385SOL    HW139617   2.106   2.978   7.049  1.7066 -0.0933 -2.1126
 9385SOL    HW239618   2.041   2.857   7.092 -1.0832  0.3391 -2.0515
 9386SOL     OW39619   1.553   4.682   9.090  0.4709  0.1518 -0.0233
 9386SOL    HW139620   1.522   4.619   9.025  0.4274 -0.0534  0.1987
 9386SOL    HW239621   1.608   0.009   9.031  0.0158  0.2694 -0.3407
 9387SOL     OW39622   1.134   2.079   4.096  0.0417 -0.0531 -0.0746
 9387SOL    HW139623   1.110   2.129   4.174  2.5919 -0.5568  1.0362
 9387SOL    HW239624   1.048   2.082   4.054 -0.3753  1.3804  0.8799
 9388SOL     OW39625   2.427   0.680  17.013 -0.5575 -0.4269  0.4015
 9388SOL    HW139626   2.475   0.632  17.081  1.2584  0.1551 -0.4770
 9388SOL    HW239627   2.335   0.653  17.025 -0.7562  1.2770  2.6975
 9389SOL     OW39628   3.257   4.382   4.828 -0.2439  0.0100  0.0810
 9389SOL    HW139629   3.293   4.391   4.916  4.1101  1.2549 -1.8539
 9389SOL    HW239630   3.205   4.461   4.816 -0.9019 -0.4923 -0.3857
 9390SOL     OW39631   2.949   3.624   0.955  0.5428 -0.3826 -0.5676
 9390SOL    HW139632   2.997   3.640   1.036  1.8002  0.7701 -1.5418
 9390SOL    HW239633   2.868   3.590   0.993  1.1768 -0.5745  0.6189
 9391SOL     OW39634   3.652   4.438   5.021  0.2048 -0.4504  0.0625
 9391SOL    HW139635   3.688   4.481   4.943  0.8866 -0.0142  0.6108
 9391SOL    HW239636   3.684   4.349   5.014 -0.5555 -0.7234  0.1056
 9392SOL     OW39637   3.480   0.548   3.549 -0.5951  0.1743  0.5428
 9392SOL    HW139638   3.478   0.643   3.547 -0.1988  0.1208 -2.9000
 9392SOL    HW239639   3.526   0.519   3.628  0.7538  0.7012 -0.0619
 9393SOL     OW39640   1.790   4.100   5.147  0.4482  0.1239  0.2261
 9393SOL    HW139641   1.809   4.193   5.133 -1.6958  0.2826 -1.5888
 9393SOL    HW239642   1.746   4.074   5.066  0.6108  0.6788 -0.0461
 9394SOL     OW39643   3.145   1.042   6.530 -0.6972 -0.1852  0.9015
 9394SOL    HW139644   3.049   1.048   6.529 -0.5558  1.1666 -1.9473
 9394SOL    HW239645   3.165   0.960   6.576  1.5536  0.0811  0.3455
 9395SOL     OW39646   0.809   1.092   5.706  0.3461 -0.2953  0.4764
 9395SOL    HW139647   0.757   1.013   5.695 -0.9704  0.5665  0.4025
 9395SOL    HW239648   0.822   1.085   5.800 -1.7648  0.0116  0.8074
 9396SOL     OW39649   1.874   2.321   0.937  0.7661  0.0377 -0.3171
 9396SOL    HW139650   1.961   2.357   0.948  0.1047  1.6923 -0.4889
 9396SOL    HW239651   1.884   2.231   0.967  0.9299  0.0866 -0.2272
 9397SOL     OW39652   1.753   3.944   2.801  0.1181  0.0418  0.0184
 9397SOL    HW139653   1.747   3.870   2.741  2.0535  0.0450 -0.1868
 9397SOL    HW239654   1.769   4.013   2.738 -1.2423  1.5279  1.2901
 9398SOL     OW39655   3.912   0.920   1.290 -0.8306  0.0422 -0.6138
 9398SOL    HW139656   3.991   0.917   1.342 -1.8323 -2.2408  0.7554
 9398SOL    HW239657   3.850   0.925   1.363  0.2888  2.0757  0.1887
 9399SOL     OW39658   2.803   2.012  14.845 -0.0456  0.0623 -0.1876
 9399SOL    HW139659   2.790   2.091  14.897  1.0700  0.2774 -0.2461
 9399SOL    HW239660   2.721   1.963  14.853  0.4013 -0.4145  1.4002
 9400SOL     OW39661   2.754   2.428  10.197  0.9624  0.8087  0.1469
 9400SOL    HW139662   2.828   2.455  10.143  0.7336  2.2792  0.5940
 9400SOL    HW239663   2.713   2.514  10.198 -0.9043 -0.0862  0.2472
 9401SOL     OW39664   3.226   3.338  17.014 -0.6525 -0.3132  0.1708
 9401SOL    HW139665   3.242   3.327  16.920 -1.7684  0.7920 -0.1553
 9401SOL    HW239666   3.238   3.432  17.023  0.1797 -0.3693 -0.3452
 9402SOL     OW39667   3.230   2.004   2.469  0.1568  0.5282 -0.2339
 9402SOL    HW139668   3.322   1.993   2.494 -0.3328 -1.6595  0.5428
 9402SOL    HW239669   3.196   2.061   2.538  0.4700 -1.6143  1.6834
 9403SOL     OW39670   1.510   3.799   8.139  0.1818  0.8802  0.3759
 9403SOL    HW139671   1.453   3.799   8.063  1.1471 -1.4209 -0.3561
 9403SOL    HW239672   1.582   3.749   8.101  1.3522 -0.0211  3.7773
 9404SOL     OW39673   3.230   2.458   0.581  0.1660 -0.3562 -0.1723
 9404SOL    HW139674   3.161   2.450   0.516  0.4486 -0.0051 -0.5152
 9404SOL    HW239675   3.289   2.523   0.543  0.7990 -1.1838 -0.5996
 9405SOL     OW39676   4.509   0.955  17.463  0.1453 -0.1907  0.0358
 9405SOL    HW139677   4.559   0.980  17.541  0.4858  0.2837 -0.3380
 9405SOL    HW239678   4.422   0.965  17.501  0.8560 -1.8626  2.1102
 9406SOL     OW39679   3.041   2.979   1.486 -0.2995 -0.2839  0.3897
 9406SOL    HW139680   2.985   3.048   1.449 -1.4758 -1.6330 -0.3418
 9406SOL    HW239681   3.115   2.991   1.427  0.6671  1.0256  1.8828
 9407SOL     OW39682   0.461   1.809  12.801  0.5611  0.5492 -0.1383
 9407SOL    HW139683   0.522   1.872  12.762  0.7877 -0.4410 -1.3627
 9407SOL    HW239684   0.517   1.761  12.862 -0.0753  0.7032  0.5681
 9408SOL     OW39685   3.430   1.828  17.275  0.2110 -0.1110  0.4567
 9408SOL    HW139686   3.423   1.760  17.208  0.9713 -0.1199  0.3879
 9408SOL    HW239687   3.420   1.905  17.219  2.8189  0.4489  0.7334
 9409SOL     OW39688   1.930   1.454   1.290 -0.0891  0.0052  0.4921
 9409SOL    HW139689   1.949   1.537   1.335  1.3789  0.1912 -0.4832
 9409SOL    HW239690   1.872   1.475   1.217 -0.8530  0.6668  1.2809
 9410SOL     OW39691   0.357   1.873   9.118  0.2761  0.0739  1.0487
 9410SOL    HW139692   0.333   1.781   9.106 -0.7036  0.4103  0.4496
 9410SOL    HW239693   0.268   1.908   9.110  1.5124  2.6749 -1.1629
 9411SOL     OW39694   0.176   1.825   2.890  0.0768  0.8191  0.2877
 9411SOL    HW139695   0.201   1.771   2.965  0.1991 -1.0881 -1.0982
 9411SOL    HW239696   0.092   1.859   2.920 -0.6803 -2.6757  2.0524
 9412SOL     OW39697   3.690   1.638   3.564  0.4745 -0.0523 -0.0787
 9412SOL    HW139698   3.615   1.600   3.518  0.6946 -1.5434  0.7897
 9412SOL    HW239699   3.656   1.679   3.643 -1.5048 -0.7139 -0.6034
 9413SOL     OW39700   2.717   0.931   1.941 -0.5353  0.6549 -0.0657
 9413SOL    HW139701   2.784   0.896   1.882 -1.4659 -0.0910 -0.6760
 9413SOL    HW239702   2.772   0.961   2.014 -1.8795 -1.2803  1.7448
 9414SOL     OW39703   2.499   1.839   4.691 -0.3243 -0.1910  0.3260
 9414SOL    HW139704   2.432   1.778   4.724 -0.3673  0.2645  1.0827
 9414SOL    HW239705   2.556   1.780   4.641 -1.6254 -1.1853  0.0189
 9415SOL     OW39706   2.620   4.079   8.410  0.1158 -0.2329 -0.1083
 9415SOL    HW139707   2.681   4.111   8.476  0.5042 -1.0251 -0.0824
 9415SOL    HW239708   2.685   4.055   8.344  1.8172  0.1558  1.4246
 9416SOL     OW39709   1.205   3.497   8.104 -0.5703 -0.5381 -0.1250
 9416SOL    HW139710   1.142   3.535   8.043  0.0093 -0.6524 -0.7885
 9416SOL    HW239711   1.233   3.426   8.045  0.7838 -2.3853  2.7403
 9417SOL     OW39712   0.179   4.199   6.201  0.5876 -0.3283 -0.4255
 9417SOL    HW139713   0.182   4.265   6.270  0.4335 -1.2474  0.4505
 9417SOL    HW239714   0.173   4.125   6.261  1.9138  1.0787  1.3999
 9418SOL     OW39715   0.269   3.245   7.738 -0.0941 -0.3363 -0.7046
 9418SOL    HW139716   0.215   3.324   7.745 -0.2548 -0.6607  1.8450
 9418SOL    HW239717   0.292   3.225   7.648 -1.1388 -1.7811 -0.6549
 9419SOL     OW39718   0.356   1.110   6.724 -0.6313 -0.8989 -0.6022
 9419SOL    HW139719   0.337   1.042   6.788  0.5250 -1.0460 -0.4112
 9419SOL    HW239720   0.321   1.186   6.770 -1.1488 -1.0088 -0.8109
 9420SOL     OW39721   3.262   4.553   7.116  0.0111 -0.0646 -0.2990
 9420SOL    HW139722   3.313   4.474   7.102 -0.1137 -0.0418 -0.8856
 9420SOL    HW239723   3.253   4.564   7.211 -0.6824 -0.5994 -0.3062
 9421SOL     OW39724   0.903   0.355  13.723 -0.3756  0.1238 -0.3307
 9421SOL    HW139725   0.904   0.299  13.801 -4.4362  2.6135  1.5245
 9421SOL    HW239726   0.810   0.373  13.707 -1.1643 -2.6262  1.0734
 9422SOL     OW39727   2.890   1.643   9.720  0.2886 -0.0369 -0.2689
 9422SOL    HW139728   2.975   1.675   9.689  0.1628  1.6542  1.1662
 9422SOL    HW239729   2.908   1.607   9.807 -1.6914 -2.3648 -0.7953
 9423SOL     OW39730   2.039   0.984   0.063 -0.1647 -0.4840 -0.0726
 9423SOL    HW139731   2.092   1.018  17.692  0.4883 -0.6663  0.3211
 9423SOL    HW239732   2.090   0.979   0.144 -1.3826 -1.1510  0.6418
 9424SOL     OW39733   3.812   2.058  12.907  0.2180 -0.1781 -0.9549
 9424SOL    HW139734   3.743   2.055  12.841 -0.1277 -0.4031 -0.5796
 9424SOL    HW239735   3.798   2.143  12.950  0.9035  0.1568 -1.3988
 9425SOL     OW39736   0.290   4.645  17.122  0.2062 -0.5099 -0.0761
 9425SOL    HW139737   0.323   4.682  17.204 -1.6587  0.3486  0.2906
 9425SOL    HW239738   0.375   4.644  17.077  0.2292 -1.0661 -0.0210
 9426SOL     OW39739   3.911   0.310   6.407  0.6993 -0.0012  0.2818
 9426SOL    HW139740   3.889   0.359   6.328 -3.0557  0.1310  1.4007
 9426SOL    HW239741   3.845   0.240   6.400 -0.0452  0.8491 -1.2876
 9427SOL     OW39742   3.511   1.922   5.955  0.0775  0.0477  0.0317
 9427SOL    HW139743   3.484   1.890   5.869 -0.5269 -1.0230  0.6204
 9427SOL    HW239744   3.511   1.836   5.998  0.4979 -1.0299 -2.1257
 9428SOL     OW39745   4.716   0.471   2.257  0.0654  0.7351 -0.0195
 9428SOL    HW139746   4.624   0.489   2.272 -0.0694 -1.0954  1.3229
 9428SOL    HW239747   0.022   0.550   2.301  1.8348  0.6623 -1.1364
 9429SOL     OW39748   2.178   2.129   2.732  0.1806 -0.0439 -0.3170
 9429SOL    HW139749   2.267   2.096   2.723 -0.5003 -1.6389 -1.2120
 9429SOL    HW239750   2.191   2.223   2.740 -0.8317  0.2017 -1.5979
 9430SOL     OW39751   2.370   0.437   6.134  0.2749  0.0723 -0.1912
 9430SOL    HW139752   2.448   0.478   6.171  1.0892 -1.9615  0.3355
 9430SOL    HW239753   2.304   0.439   6.203  1.9661  1.1947  1.3834
 9431SOL     OW39754   2.797   0.692   2.548 -0.3651  0.2021 -1.1572
 9431SOL    HW139755   2.756   0.641   2.618  2.9931  0.5594  1.0715
 9431SOL    HW239756   2.866   0.735   2.598 -1.2213  0.8703 -0.5417
 9432SOL     OW39757   3.829   2.641   8.216  0.1788  0.8340 -0.3655
 9432SOL    HW139758   3.792   2.620   8.302 -0.6606 -1.4968 -1.3142
 9432SOL    HW239759   3.775   2.587   8.158 -0.0370 -1.8798  2.3661
 9433SOL     OW39760   4.473   3.179   8.197 -0.2299  0.5049 -0.0826
 9433SOL    HW139761   4.533   3.218   8.133 -0.4356 -1.5659 -1.5429
 9433SOL    HW239762   4.520   3.100   8.226 -0.1010  1.3662  2.0013
 9434SOL     OW39763   0.660   2.876   6.836 -0.0357 -0.5091 -0.2018
 9434SOL    HW139764   0.718   2.805   6.812 -0.0022 -0.6143  0.1945
 9434SOL    HW239765   0.660   2.860   6.930  1.0462 -1.2709 -0.3368
 9435SOL     OW39766   0.163   0.427   6.941  0.2037 -0.0952  0.3895
 9435SOL    HW139767   0.161   0.484   6.864  0.8920 -0.6403 -0.0276
 9435SOL    HW239768   0.180   0.342   6.900 -1.8970 -0.2289 -0.2058
 9436SOL     OW39769   3.745   1.840  17.570  0.0639 -0.5207  0.2116
 9436SOL    HW139770   3.733   1.799  17.484  1.0494  1.0144 -0.6639
 9436SOL    HW239771   3.777   1.766  17.622  0.8411 -0.1818  0.2224
 9437SOL     OW39772   4.233   1.338  12.941 -0.3945  0.1851  0.1646
 9437SOL    HW139773   4.150   1.337  12.893  0.8424  1.8763 -2.0127
 9437SOL    HW239774   4.201   1.308  13.026 -2.0077  0.6456 -0.2740
 9438SOL     OW39775   0.895   3.711  11.189  0.0693  0.2260  0.4695
 9438SOL    HW139776   0.847   3.740  11.267  0.4064  2.6131 -0.1888
 9438SOL    HW239777   0.979   3.702  11.234  1.2114 -0.4997 -1.8367
 9439SOL     OW39778   3.925   3.161  15.580 -0.2658 -0.0676 -0.4904
 9439SOL    HW139779   3.848   3.165  15.637 -0.0671 -0.6484 -0.1782
 9439SOL    HW239780   3.879   3.206  15.509  0.1270 -0.2898 -0.8835
 9440SOL     OW39781   3.801   2.988   5.836 -0.2331 -0.3529 -0.9131
 9440SOL    HW139782   3.852   2.976   5.756  0.1751 -0.1052 -0.6870
 9440SOL    HW239783   3.716   2.983   5.792 -0.1199  1.2796 -1.3323
 9441SOL     OW39784   1.785   4.371   4.878  0.1959 -0.1864 -0.4037
 9441SOL    HW139785   1.799   4.310   4.950  0.5766  0.0669 -0.2662
 9441SOL    HW239786   1.775   4.458   4.915  0.6085 -0.8546  1.2731
 9442SOL     OW39787   2.907   0.125  10.678  0.0168  0.0692  0.1644
 9442SOL    HW139788   3.002   0.137  10.681  0.2079 -0.7809 -2.7725
 9442SOL    HW239789   2.874   0.187  10.744 -2.0804  1.3608 -2.1063
 9443SOL     OW39790   1.736   4.092   8.016 -0.8416 -0.1042 -0.4139
 9443SOL    HW139791   1.793   4.164   7.987 -1.2331  0.3683 -0.0189
 9443SOL    HW239792   1.776   4.070   8.100 -1.1629 -0.9584 -0.4810
 9444SOL     OW39793   2.996   3.711   5.587  0.1622  0.7494  0.5572
 9444SOL    HW139794   2.940   3.636   5.607 -0.7319  0.7208 -2.0361
 9444SOL    HW239795   3.086   3.685   5.609  0.1828  1.3543  1.2050
 9445SOL     OW39796   1.702   0.927   0.370 -0.1032  0.1120 -0.3302
 9445SOL    HW139797   1.711   0.916   0.275  0.9445  2.1256 -0.4589
 9445SOL    HW239798   1.754   1.007   0.378  0.3074 -0.1064 -0.8016
 9446SOL     OW39799   2.238   1.208   6.179 -0.0170  0.1125  0.4844
 9446SOL    HW139800   2.308   1.174   6.234 -0.1269  0.0256  0.5708
 9446SOL    HW239801   2.237   1.142   6.110  3.8231  1.4434 -0.8654
 9447SOL     OW39802   2.842   1.437  12.477 -0.3143  0.2353 -0.2791
 9447SOL    HW139803   2.871   1.358  12.521  0.0199 -0.2249 -1.3257
 9447SOL    HW239804   2.837   1.500  12.549 -0.3331 -0.4214  0.2917
 9448SOL     OW39805   3.196   3.024   2.742 -0.1330  0.0223  0.0740
 9448SOL    HW139806   3.105   2.999   2.729 -0.0927  0.2627 -0.6896
 9448SOL    HW239807   3.219   3.039   2.650  2.4205 -2.2144  0.3559
 9449SOL     OW39808   3.871   0.929  17.293  0.1594 -0.1771  0.3765
 9449SOL    HW139809   3.817   0.921  17.214  1.8307  2.0291 -0.9552
 9449SOL    HW239810   3.877   1.024  17.296  0.7702 -0.1916 -0.5077
 9450SOL     OW39811   3.709   2.000   3.851 -0.4587  0.3785 -0.0632
 9450SOL    HW139812   3.783   2.061   3.848  0.7732 -1.1266  0.0383
 9450SOL    HW239813   3.681   1.995   3.760 -0.5873  2.0207 -0.1140
 9451SOL     OW39814   0.510   3.846   6.355 -0.3788 -0.0095  0.1699
 9451SOL    HW139815   0.526   3.788   6.429 -0.7221 -0.1154  0.1630
 9451SOL    HW239816   0.529   3.928   6.401 -1.7936 -0.3503  1.3663
 9452SOL     OW39817   0.895   0.441   8.216 -0.1684 -0.3933  0.1333
 9452SOL    HW139818   0.980   0.422   8.255 -0.2069  0.6398  0.6978
 9452SOL    HW239819   0.853   0.499   8.279 -0.1771 -0.9050  0.5971
 9453SOL     OW39820   2.788   4.446   4.914  0.0428 -0.2816 -0.4550
 9453SOL    HW139821   2.815   4.535   4.892 -4.8537  0.9496 -1.5162
 9453SOL    HW239822   2.770   4.448   5.008  0.3664 -0.0701 -0.3985
 9454SOL     OW39823   2.005   2.510  15.639 -0.1466  0.0463 -0.6521
 9454SOL    HW139824   2.047   2.496  15.554  1.7809  1.1178  0.1362
 9454SOL    HW239825   1.963   2.424  15.629  0.8441 -0.3756 -1.2432
 9455SOL     OW39826   3.885   1.746  11.967 -0.1350 -0.3293 -0.2672
 9455SOL    HW139827   3.916   1.834  11.986 -2.3875  0.1740  1.0307
 9455SOL    HW239828   3.870   1.751  11.873 -0.8789  1.3948 -0.0392
 9456SOL     OW39829   1.389   2.235  11.160 -0.0031  0.1185 -0.1008
 9456SOL    HW139830   1.299   2.210  11.140 -0.4153  1.6462 -0.1492
 9456SOL    HW239831   1.375   2.260  11.251  1.5638  1.4585 -0.2099
 9457SOL     OW39832   1.109   2.397   0.625 -0.6824  0.0998  0.3514
 9457SOL    HW139833   1.057   2.388   0.545 -0.6685  2.0741  0.1328
 9457SOL    HW239834   1.065   2.339   0.688 -2.5346  0.9364 -0.1661
 9458SOL     OW39835   0.932   2.120   4.974 -0.6117 -0.2747  0.3390
 9458SOL    HW139836   0.944   2.076   4.890 -1.3034  1.0357 -0.4498
 9458SOL    HW239837   0.842   2.153   4.968 -1.0534 -1.1612  1.9869
 9459SOL     OW39838   3.189   1.936   1.830  0.4109  0.8415  0.4551
 9459SOL    HW139839   3.249   2.005   1.803 -0.0333  1.3950  0.8944
 9459SOL    HW239840   3.244   1.871   1.872  0.5352  0.3224 -0.5049
 9460SOL     OW39841   0.532   4.661  16.959  0.1943  0.0656 -0.0872
 9460SOL    HW139842   0.617   4.666  16.915  0.1611  0.6734 -0.0919
 9460SOL    HW239843   0.497   0.020  16.927  0.7730  2.0345  4.3911
 9461SOL     OW39844   0.058   3.394   5.079 -0.2976  0.0221 -0.0163
 9461SOL    HW139845   0.107   3.354   5.151 -0.6952 -0.5662 -0.0814
 9461SOL    HW239846   0.120   3.382   5.007  0.2658  0.8266  0.3326
 9462SOL     OW39847   0.182   0.431   4.341  0.1537 -0.3124  0.4882
 9462SOL    HW139848   0.121   0.500   4.315  2.9083  2.1621  0.6810
 9462SOL    HW239849   0.221   0.412   4.256  0.9393 -2.8122  1.4071
 9463SOL     OW39850   4.379   1.447   9.369  0.1357  0.0799 -0.0619
 9463SOL    HW139851   4.311   1.445   9.302  0.5902 -1.5246 -0.4752
 9463SOL    HW239852   4.365   1.362   9.412 -1.0410 -0.2448 -1.0872
 9464SOL     OW39853   2.753   4.270  12.619 -0.0694 -0.1115  0.0055
 9464SOL    HW139854   2.776   4.290  12.528  0.7347 -0.3189  0.1712
 9464SOL    HW239855   2.835   4.293  12.661  0.5383  1.3907 -2.0528
 9465SOL     OW39856   3.605   0.726   2.515  0.0260 -0.2212 -0.6753
 9465SOL    HW139857   3.604   0.637   2.482 -1.3928 -0.9413  1.2974
 9465SOL    HW239858   3.604   0.722   2.611  0.5777  0.5306 -0.6338
 9466SOL     OW39859   0.052   3.468   7.127  0.7728  0.1766 -0.5132
 9466SOL    HW139860   0.071   3.374   7.136  2.2782  0.5197 -0.0741
 9466SOL    HW239861   4.695   3.466   7.078  0.6059 -4.3485 -0.1146
 9467SOL     OW39862   1.889   1.527   4.427 -0.6510 -0.8041 -0.0138
 9467SOL    HW139863   1.814   1.483   4.386  0.1054 -0.4260 -1.8190
 9467SOL    HW239864   1.862   1.571   4.507  0.6935  2.1389 -1.1595
 9468SOL     OW39865   0.167   1.609  10.611 -0.4719  0.1891  0.2117
 9468SOL    HW139866   0.082   1.574  10.638 -0.1174 -0.6867  0.1960
 9468SOL    HW239867   0.205   1.655  10.687 -0.8685  1.4743 -0.3601
 9469SOL     OW39868   0.580   0.376   6.091 -0.2630  0.5597 -0.2296
 9469SOL    HW139869   0.524   0.319   6.038 -1.0641 -1.0500  2.3348
 9469SOL    HW239870   0.539   0.462   6.078 -1.7776 -0.1162 -0.0221
 9470SOL     OW39871   4.433   3.358   8.442 -0.0005  0.1592 -0.5797
 9470SOL    HW139872   4.340   3.384   8.446 -0.0138  0.1433 -0.8415
 9470SOL    HW239873   4.437   3.301   8.365  2.7608 -1.7373  0.9852
 9471SOL     OW39874   4.199   2.284   5.042  0.6575  0.2958 -0.6546
 9471SOL    HW139875   4.150   2.313   4.965 -1.6448  0.6737  0.9678
 9471SOL    HW239876   4.267   2.352   5.047  1.2282 -0.4786  2.0140
 9472SOL     OW39877   0.801   1.023   6.368  0.0806 -0.3373  0.3433
 9472SOL    HW139878   0.853   0.943   6.359  2.0404  0.7310  1.9842
 9472SOL    HW239879   0.828   1.046   6.458 -0.5074  0.8365  0.2219
 9473SOL     OW39880   3.344   1.706   3.010 -0.9517 -0.2480  0.2206
 9473SOL    HW139881   3.354   1.725   3.103  1.1303 -2.8470  0.5471
 9473SOL    HW239882   3.349   1.797   2.980 -1.0014  0.2914  1.8284
 9474SOL     OW39883   0.407   4.517   9.081 -0.1070 -0.8798  0.2203
 9474SOL    HW139884   0.491   4.472   9.083 -0.0498 -0.8479 -2.1659
 9474SOL    HW239885   0.409   4.541   8.988 -0.6065  1.8451  0.8966
 9475SOL     OW39886   4.329   4.516   2.027  0.4034 -0.2636  0.1833
 9475SOL    HW139887   4.421   4.540   2.015  0.3024 -0.7898 -1.5346
 9475SOL    HW239888   4.324   4.484   2.117  0.3087  0.8180  0.5682
 9476SOL     OW39889   3.091   3.252   2.245 -0.4745  0.1946 -0.2313
 9476SOL    HW139890   3.126   3.302   2.319  0.8274  0.2387 -0.8726
 9476SOL    HW239891   3.142   3.276   2.168 -0.9012  0.3015 -0.4766
 9477SOL     OW39892   2.994   0.090   5.132  0.4933 -0.4969 -0.4595
 9477SOL    HW139893   3.028   0.141   5.205 -1.8993 -0.7861  0.8521
 9477SOL    HW239894   3.055   0.018   5.149  0.5253  0.5731  4.0147
 9478SOL     OW39895   0.968   2.616   5.699 -0.1912  0.0004 -0.1320
 9478SOL    HW139896   1.043   2.670   5.675 -0.1249  0.8374  2.0146
 9478SOL    HW239897   0.935   2.675   5.766  0.9007  0.4895 -0.0320
 9479SOL     OW39898   0.781   1.673   2.753  0.4719  0.1932  0.5048
 9479SOL    HW139899   0.736   1.636   2.677  0.3738  1.9082 -0.2777
 9479SOL    HW239900   0.811   1.756   2.715 -1.6535  0.0663 -1.4194
 9480SOL     OW39901   4.168   0.263  14.503 -0.3831  0.3031  0.0589
 9480SOL    HW139902   4.238   0.287  14.441 -0.8306 -0.1272 -0.6134
 9480SOL    HW239903   4.120   0.195  14.456  1.8809 -0.9610 -0.4216
 9481SOL     OW39904   2.600   3.610   4.986 -0.2985  0.4740 -0.3735
 9481SOL    HW139905   2.523   3.557   4.967  1.1360 -1.8177  0.2617
 9481SOL    HW239906   2.665   3.541   5.001  0.5506  1.4919  0.6645
 9482SOL     OW39907   4.236   1.786   5.784  0.4320  0.2569  0.7339
 9482SOL    HW139908   4.302   1.853   5.802  0.4835  0.8004 -1.4756
 9482SOL    HW239909   4.288   1.729   5.728  0.8658  2.0908 -0.7490
 9483SOL     OW39910   4.368   0.257   4.079  0.1845  0.1005 -0.1867
 9483SOL    HW139911   4.412   0.341   4.064 -0.3450 -0.2311 -3.6138
 9483SOL    HW239912   4.450   0.208   4.080  0.6579  0.9006  0.2736
 9484SOL     OW39913   2.187   4.597   0.575  0.0314 -0.7170 -0.1445
 9484SOL    HW139914   2.137   4.638   0.504 -1.2828  0.6334  1.5915
 9484SOL    HW239915   2.264   4.653   0.568  0.5081 -1.4852 -1.1486
 9485SOL     OW39916   1.711   1.423   6.406  0.5622  0.0661  0.3533
 9485SOL    HW139917   1.743   1.511   6.386 -1.3763  0.1094 -2.6811
 9485SOL    HW239918   1.688   1.385   6.321 -1.2176 -0.9587  1.2916
 9486SOL     OW39919   4.598   1.991  16.244 -0.2082  0.6681  0.3666
 9486SOL    HW139920   4.575   1.980  16.336 -2.4459 -0.6316 -0.3624
 9486SOL    HW239921   4.619   2.085  16.242  0.3985  0.4830 -2.2342
 9487SOL     OW39922   0.561   4.606   1.401 -0.1468  0.6197  0.0124
 9487SOL    HW139923   0.561   4.702   1.410 -2.2003  0.5145  1.2081
 9487SOL    HW239924   0.623   4.601   1.329 -2.5188  0.7622 -2.0339
 9488SOL     OW39925   2.923   3.015  16.903 -0.0399  0.5275  0.7270
 9488SOL    HW139926   2.831   3.024  16.926 -0.7635  0.8308 -2.3154
 9488SOL    HW239927   2.963   2.971  16.978  1.4728  1.5414  0.5299
 9489SOL     OW39928   4.101   3.575   6.488  0.2855 -0.4266 -0.3280
 9489SOL    HW139929   4.168   3.539   6.431  1.4395  0.6525  0.3564
 9489SOL    HW239930   4.054   3.495   6.510 -1.0697  0.2518 -0.7108
 9490SOL     OW39931   3.062   3.746   6.428  0.2111 -0.5850 -0.6082
 9490SOL    HW139932   3.134   3.693   6.393 -1.4205 -2.2493 -1.4034
 9490SOL    HW239933   3.059   3.817   6.364  0.1175 -0.2033 -0.1776
 9491SOL     OW39934   4.408   3.826   3.051 -0.2642  0.0000  0.6058
 9491SOL    HW139935   4.329   3.861   3.010  1.6438  3.4523 -0.0660
 9491SOL    HW239936   4.428   3.894   3.116  1.5269  0.8654 -0.8640
 9492SOL     OW39937   1.056   1.969   4.740  0.0130  0.3577  0.0404
 9492SOL    HW139938   1.114   1.903   4.703 -2.7366 -1.4817 -0.9961
 9492SOL    HW239939   0.976   1.917   4.745  0.1605  0.1723  0.3832
 9493SOL     OW39940   1.308   2.541   0.431 -0.2654 -0.1074  0.8297
 9493SOL    HW139941   1.282   2.592   0.355 -0.5730 -0.5557  0.6355
 9493SOL    HW239942   1.227   2.502   0.463  1.0980 -2.3578  1.5260
 9494SOL     OW39943   4.219   0.065  16.682  0.5476  0.5229 -0.3177
 9494SOL    HW139944   4.163   0.007  16.733  2.4980 -1.6867 -0.6769
 9494SOL    HW239945   4.251   0.126  16.748  2.9300 -1.1215  0.0312
 9495SOL     OW39946   0.168   3.869   8.143 -0.7463 -0.4762  0.4677
 9495SOL    HW139947   0.091   3.880   8.198 -0.6455 -1.6640  0.8605
 9495SOL    HW239948   0.183   3.961   8.124 -0.5125 -0.4194  0.9197
 9496SOL     OW39949   4.354   0.190   0.884 -0.4608 -0.2862 -0.0790
 9496SOL    HW139950   4.354   0.227   0.796  2.2464  0.0570  0.0544
 9496SOL    HW239951   4.388   0.101   0.870  0.5140  0.1616 -0.6023
 9497SOL     OW39952   4.362   4.282   4.130  0.3995 -0.2714  0.5731
 9497SOL    HW139953   4.445   4.330   4.128 -0.0187  0.3918 -1.2720
 9497SOL    HW239954   4.391   4.216   4.067  1.3766  0.7014 -0.0060
 9498SOL     OW39955   2.601   4.086  11.258  0.1491  0.7281 -0.7293
 9498SOL    HW139956   2.548   4.138  11.317  0.3780  0.4948 -0.3181
 9498SOL    HW239957   2.688   4.095  11.296  1.2669  2.2849 -3.5972
 9499SOL     OW39958   3.050   1.734   7.732 -0.2604  0.3561 -0.7657
 9499SOL    HW139959   3.085   1.806   7.678 -0.2901  0.3667 -0.7704
 9499SOL    HW239960   3.133   1.686   7.741 -1.2847 -0.8188  2.3812
 9500SOL     OW39961   1.865   1.325   5.966 -0.0285 -0.8272  0.3880
 9500SOL    HW139962   1.876   1.414   6.001  1.4548 -0.6033 -0.6320
 9500SOL    HW239963   1.913   1.284   6.038  2.2171 -2.3378 -1.9739
 9501SOL     OW39964   0.348   2.000   5.955  0.2572 -0.5663  0.6544
 9501SOL    HW139965   0.344   1.985   5.861 -0.6865 -0.1663  0.6260
 9501SOL    HW239966   0.261   2.019   5.991 -0.8577 -0.1451 -2.2708
 9502SOL     OW39967   2.565   1.208  16.652 -0.5735  0.5160  0.2496
 9502SOL    HW139968   2.601   1.121  16.671 -1.0187  0.0725 -0.9515
 9502SOL    HW239969   2.496   1.192  16.587 -0.2998 -0.0492  0.0885
 9503SOL     OW39970   4.572   2.908   4.634  0.1323  0.7938  0.7010
 9503SOL    HW139971   4.560   2.813   4.640  1.5321  0.6526  1.1610
 9503SOL    HW239972   4.538   2.934   4.548  1.7885  0.3876 -0.0751
 9504SOL     OW39973   4.590   0.477   8.486 -0.2009  0.3076  0.0383
 9504SOL    HW139974   4.655   0.542   8.459 -0.1038 -0.2895 -1.1780
 9504SOL    HW239975   4.643   0.415   8.536  1.2760  1.6645  0.1356
 9505SOL     OW39976   4.343   2.841   3.333  0.2437  0.4576  0.8874
 9505SOL    HW139977   4.314   2.916   3.281 -0.9608  0.8849  2.1869
 9505SOL    HW239978   4.264   2.791   3.356 -0.5877  1.1221 -0.5188
 9506SOL     OW39979   3.006   2.455   0.423  0.0282  0.4046 -0.1936
 9506SOL    HW139980   2.916   2.485   0.410 -0.1822 -0.2597 -0.2828
 9506SOL    HW239981   2.980   2.380   0.476  0.4138 -0.6171 -1.4641
 9507SOL     OW39982   0.646   1.990   5.598 -0.7942  0.2479 -0.4088
 9507SOL    HW139983   0.735   1.964   5.574  0.0865  2.9058 -0.0377
 9507SOL    HW239984   0.651   1.977   5.693  1.1329  0.4282 -0.4966
 9508SOL     OW39985   2.322   2.927   7.793  0.6680  0.0306  0.0344
 9508SOL    HW139986   2.367   2.843   7.801  1.4375  0.2517 -1.9640
 9508SOL    HW239987   2.388   2.996   7.807  0.4411  0.1203  0.6613
 9509SOL     OW39988   2.901   3.591   8.033  0.5324 -0.8237 -0.5435
 9509SOL    HW139989   2.971   3.611   7.971 -0.2954  0.5033 -1.0463
 9509SOL    HW239990   2.903   3.497   8.014  0.1158 -1.1642  1.0765
 9510SOL     OW39991   1.692   0.091   6.349 -0.0238  0.3673  0.5000
 9510SOL    HW139992   1.676   0.085   6.255  2.0532 -2.5432  0.3551
 9510SOL    HW239993   1.671   0.184   6.356 -0.4084  0.2106  1.4633
 9511SOL     OW39994   3.049   4.656   4.644 -0.1824  0.5787 -0.0340
 9511SOL    HW139995   3.036   4.707   4.564 -0.6013 -0.5113 -0.6722
 9511SOL    HW239996   3.059   4.569   4.603 -0.7684  0.7939 -0.6407
 9512SOL     OW39997   0.505   2.318  10.470  0.6876 -0.0243  0.4612
 9512SOL    HW139998   0.498   2.409  10.440 -1.0133 -0.3078  0.0413
 9512SOL    HW239999   0.528   2.332  10.562  0.9712  1.8067  0.1160
 9513SOL     OW40000   1.880   3.762   5.190  0.3131  0.0816 -0.0714
 9513SOL    HW140001   1.887   3.778   5.284 -2.0553  2.9575 -0.3828
 9513SOL    HW240002   1.850   3.672   5.181 -1.1233  0.8822 -3.2155
 9514SOL     OW40003   2.872   4.473   8.032 -0.9827  0.0757  0.0401
 9514SOL    HW140004   2.954   4.522   8.033 -2.5884  2.7477  2.2166
 9514SOL    HW240005   2.850   4.502   8.121 -1.1095  0.1894 -0.0282
 9515SOL     OW40006   2.331   2.808   9.248  0.5172 -0.3062 -0.1418
 9515SOL    HW140007   2.383   2.875   9.293 -3.4322  2.1388  0.8295
 9515SOL    HW240008   2.364   2.727   9.286  1.1796 -0.3269 -0.7596
 9516SOL     OW40009   4.385   2.421   3.238  0.1520  0.5897 -0.2257
 9516SOL    HW140010   4.421   2.372   3.164  1.5729  1.8399 -0.3630
 9516SOL    HW240011   4.440   2.385   3.308 -2.7076  0.7179  2.0993
 9517SOL     OW40012   3.861   4.122   6.478  0.6238  0.5102 -0.1411
 9517SOL    HW140013   3.885   4.103   6.569 -2.2850 -0.9025  0.3325
 9517SOL    HW240014   3.932   4.079   6.430  0.5312 -0.9535  1.0289
 9518SOL     OW40015   0.225   1.594   0.545 -0.8211  0.4840  0.2201
 9518SOL    HW140016   0.173   1.669   0.517 -1.2974  0.0191 -0.1446
 9518SOL    HW240017   0.313   1.628   0.558 -1.8728  2.5051  1.9909
 9519SOL     OW40018   4.178   4.335   5.345 -0.6421  0.2161 -0.3752
 9519SOL    HW140019   4.224   4.373   5.419 -3.3847  3.3030 -0.2523
 9519SOL    HW240020   4.239   4.282   5.294 -1.7047 -1.7441  0.3708
 9520SOL     OW40021   1.069   1.029   9.360  0.7012 -0.0510  0.1080
 9520SOL    HW140022   0.993   1.089   9.362  1.3953  0.8750 -1.1046
 9520SOL    HW240023   1.108   1.035   9.447 -1.4039  0.2013  1.0387
 9521SOL     OW40024   1.777   2.782   0.534  0.2200 -0.1038  0.5845
 9521SOL    HW140025   1.758   2.721   0.605 -0.9644  0.9941  1.2054
 9521SOL    HW240026   1.693   2.780   0.488  0.5717  0.1752 -0.0681
 9522SOL     OW40027   1.277   2.785   5.860 -0.0326 -0.3428 -0.3657
 9522SOL    HW140028   1.273   2.691   5.840 -3.6698  0.1224 -1.8444
 9522SOL    HW240029   1.212   2.817   5.797  0.5568  3.3215  0.9202
 9523SOL     OW40030   3.837   4.581   9.036  0.5797  0.0334 -0.1211
 9523SOL    HW140031   3.879   4.549   8.956  1.5582 -0.9677  0.7794
 9523SOL    HW240032   3.880   4.526   9.102  2.4236 -0.0787 -1.4176
 9524SOL     OW40033   4.332   3.567   0.245 -0.7876 -0.2198  0.1427
 9524SOL    HW140034   4.252   3.540   0.289 -1.2145 -0.2390 -0.6405
 9524SOL    HW240035   4.323   3.663   0.242  2.2792 -0.0160 -2.1009
 9525SOL     OW40036   0.160   0.087  13.528  0.0880  0.0717 -0.2757
 9525SOL    HW140037   0.198   0.005  13.498 -0.6391  0.1067 -1.2795
 9525SOL    HW240038   0.204   0.083  13.613 -1.7336  1.3128  0.7418
 9526SOL     OW40039   3.629   2.427   2.735  0.6560  0.2398 -0.4720
 9526SOL    HW140040   3.617   2.416   2.830  1.3209 -0.0014 -0.4161
 9526SOL    HW240041   3.720   2.457   2.739  0.7958 -0.0264 -1.9277
 9527SOL     OW40042   1.557   1.032   4.142 -0.1823  0.6436 -0.1665
 9527SOL    HW140043   1.467   1.003   4.157  0.2245 -0.4981  0.1082
 9527SOL    HW240044   1.595   1.002   4.225  0.3267  0.8507 -0.3260
 9528SOL     OW40045   0.063   1.646  10.372 -0.1097 -0.5508 -0.8128
 9528SOL    HW140046   0.070   1.735  10.338 -0.5600  0.5699  2.0382
 9528SOL    HW240047   0.130   1.639  10.440 -0.7753 -0.0195 -0.0964
 9529SOL     OW40048   0.578   0.823   7.495 -0.4303  0.1880 -0.0188
 9529SOL    HW140049   0.626   0.867   7.565 -1.5646 -0.4898  1.1754
 9529SOL    HW240050   0.639   0.837   7.422 -0.5198  0.2525 -0.0822
 9530SOL     OW40051   4.077   1.161   5.484  0.5040  0.0566  0.2182
 9530SOL    HW140052   4.015   1.221   5.524  2.7908  1.1814  2.1202
 9530SOL    HW240053   4.032   1.076   5.479  0.3948  0.1237  0.0746
 9531SOL     OW40054   2.344   1.797   6.918  0.6420 -0.0848 -0.3419
 9531SOL    HW140055   2.270   1.818   6.861 -0.8806 -0.7048  1.4033
 9531SOL    HW240056   2.298   1.745   6.984 -0.1207  2.6325  1.2626
 9532SOL     OW40057   4.716   4.170   3.239 -0.4493  0.4143 -0.6884
 9532SOL    HW140058   0.053   4.129   3.178 -0.1341  0.9591 -0.7363
 9532SOL    HW240059   0.038   4.152   3.320 -1.5237  0.8784  0.0450
 9533SOL     OW40060   1.376   1.482   4.363  0.3824  0.2161 -0.0964
 9533SOL    HW140061   1.399   1.480   4.270 -2.3078  1.6404 -0.8106
 9533SOL    HW240062   1.335   1.397   4.378 -1.2356  0.8449 -0.8960
 9534SOL     OW40063   4.010   3.746   3.014  0.7263 -0.4091 -0.0840
 9534SOL    HW140064   3.980   3.795   2.938 -1.0132  0.3583  1.1025
 9534SOL    HW240065   4.086   3.697   2.983  1.3704 -1.1409  2.6775
 9535SOL     OW40066   1.312   4.553   9.271 -0.8168  0.5606  0.5151
 9535SOL    HW140067   1.370   4.483   9.302 -1.6339  0.4872  1.9184
 9535SOL    HW240068   1.374   4.624   9.256 -1.0155  0.8562  1.0915
 9536SOL     OW40069   1.519   1.367   2.065  0.5031  0.3694  0.3237
 9536SOL    HW140070   1.436   1.319   2.061 -0.3390  2.0104 -1.5703
 9536SOL    HW240071   1.509   1.446   2.012 -1.6449 -0.1328 -0.0290
 9537SOL     OW40072   1.201   0.740   3.580  0.3046  0.0600  0.1992
 9537SOL    HW140073   1.253   0.663   3.604  0.3708  0.0894  0.1503
 9537SOL    HW240074   1.239   0.804   3.641 -2.3096  0.6151  1.2146
 9538SOL     OW40075   4.457   0.670  15.747  0.4937 -0.3689  0.6107
 9538SOL    HW140076   4.393   0.663  15.817  2.0354  0.6380  2.1268
 9538SOL    HW240077   4.397   0.685  15.674  0.1346  0.1543  1.0185
 9539SOL     OW40078   1.734   0.957   6.664 -0.4849  0.2618 -0.1119
 9539SOL    HW140079   1.642   0.984   6.672 -0.2682  1.3806 -1.2519
 9539SOL    HW240080   1.737   0.974   6.569  1.5355  1.1146  0.1049
 9540SOL     OW40081   2.994   4.083  15.288 -0.1841 -0.7762  0.2815
 9540SOL    HW140082   3.016   4.039  15.369  0.0781 -1.2347 -0.0405
 9540SOL    HW240083   2.993   4.006  15.232 -1.3792 -1.6411  1.4990
 9541SOL     OW40084   3.249   3.388  13.035  0.1433 -0.6021 -0.4211
 9541SOL    HW140085   3.234   3.397  12.941 -1.4328  1.1670 -0.0127
 9541SOL    HW240086   3.340   3.359  13.043  0.1922 -0.6775 -1.2591
 9542SOL     OW40087   1.301   4.611   3.525  0.6221 -0.0649 -0.0613
 9542SOL    HW140088   1.299   4.671   3.601 -0.8307  0.7377 -0.7240
 9542SOL    HW240089   1.266   4.669   3.457 -2.6969 -0.5070  1.2913
 9543SOL     OW40090   3.992   2.076   0.428 -0.4462  0.4806  0.1439
 9543SOL    HW140091   3.920   2.026   0.390  1.8323  0.0627 -3.5985
 9543SOL    HW240092   4.069   2.032   0.392 -1.9888 -0.0354 -2.5598
 9544SOL     OW40093   0.505   1.624   7.562  0.0096  0.0068  0.3616
 9544SOL    HW140094   0.419   1.613   7.521 -0.6282 -1.0245  1.9903
 9544SOL    HW240095   0.488   1.563   7.633  1.9653 -1.0039 -0.0698
 9545SOL     OW40096   2.820   3.052   8.030 -0.2168  0.5037  0.3664
 9545SOL    HW140097   2.900   3.009   8.059  0.6685  1.9246  0.0571
 9545SOL    HW240098   2.756   3.009   8.086  0.4220  0.7036  1.2564
 9546SOL     OW40099   0.227   1.726   2.048 -0.1923 -0.0354  0.8603
 9546SOL    HW140100   0.265   1.799   2.096 -1.4624  1.5414 -0.5794
 9546SOL    HW240101   0.160   1.701   2.112 -0.7690 -1.0089 -0.1138
 9547SOL     OW40102   2.221   2.288   7.649  0.3967 -0.2346  0.5309
 9547SOL    HW140103   2.150   2.274   7.712  0.4930 -0.9579  0.4741
 9547SOL    HW240104   2.242   2.380   7.664  1.5412 -0.4888  0.4847
 9548SOL     OW40105   2.034   4.578   4.198 -0.2533 -0.4533  0.1424
 9548SOL    HW140106   1.985   4.507   4.239  0.4807 -0.8880  0.2659
 9548SOL    HW240107   2.119   4.558   4.237  0.7601  2.7932 -0.4400
 9549SOL     OW40108   1.147   0.772   8.461 -0.2875 -0.3157  0.2129
 9549SOL    HW140109   1.232   0.760   8.419 -1.1802 -2.2192 -1.0827
 9549SOL    HW240110   1.123   0.680   8.446  0.1866 -0.2293 -1.0729
 9550SOL     OW40111   3.064   2.049   5.372 -0.2446 -0.5103  0.0033
 9550SOL    HW140112   2.982   2.076   5.330  0.3571 -1.5579 -1.8693
 9550SOL    HW240113   3.037   1.990   5.441 -2.3846  1.7138  1.0531
 9551SOL     OW40114   1.485   0.135   4.642  0.3645 -0.2822  0.2025
 9551SOL    HW140115   1.404   0.115   4.595 -0.1031  0.8940  0.4966
 9551SOL    HW240116   1.537   0.163   4.567  1.0857 -1.0792  0.4103
 9552SOL     OW40117   3.059   0.135  13.456  0.5963 -0.2092 -0.4819
 9552SOL    HW140118   3.135   0.102  13.504  0.2259 -0.9568 -0.4075
 9552SOL    HW240119   3.047   0.053  13.407 -2.8650 -0.8652  1.5254
 9553SOL     OW40120   0.177   1.572   5.520  0.0170 -0.1385 -0.1804
 9553SOL    HW140121   0.121   1.522   5.580  0.6057  1.8384  2.0463
 9553SOL    HW240122   0.227   1.620   5.586  1.5228 -1.0883 -0.6138
 9554SOL     OW40123   4.618   2.615  11.733 -0.0957 -0.1342  0.6092
 9554SOL    HW140124   4.531   2.654  11.740  2.1375  4.9424 -0.1251
 9554SOL    HW240125   4.675   2.679  11.775 -0.7449  0.2743  0.8731
 9555SOL     OW40126   1.174   2.775   1.970  1.2582  0.0641 -0.0699
 9555SOL    HW140127   1.225   2.838   1.920  1.4442  1.6511  2.0965
 9555SOL    HW240128   1.128   2.722   1.905 -0.8407  0.8752  0.7198
 9556SOL     OW40129   4.357   3.004   8.922  0.2220  0.4447  0.0289
 9556SOL    HW140130   4.381   2.915   8.899  1.7994  1.3556 -1.9178
 9556SOL    HW240131   4.402   3.053   8.853  1.4104  0.4281  0.7949
 9557SOL     OW40132   2.643   3.901   6.824  0.0011 -0.2891 -0.1693
 9557SOL    HW140133   2.625   3.815   6.787  0.3677  0.5558 -2.3017
 9557SOL    HW240134   2.563   3.931   6.866 -0.1490 -0.9079 -0.0143
 9558SOL     OW40135   0.127   3.535   5.460 -0.4155 -0.6006  0.4995
 9558SOL    HW140136   0.040   3.533   5.420 -0.1721 -3.7464  0.1311
 9558SOL    HW240137   0.123   3.460   5.519  0.2289 -1.3627 -0.4294
 9559SOL     OW40138   3.283   3.464   6.861  0.2008 -0.1085 -0.1502
 9559SOL    HW140139   3.219   3.457   6.790  0.8741  1.8884 -0.9715
 9559SOL    HW240140   3.279   3.379   6.904  1.2634  0.2513  0.6648
 9560SOL     OW40141   4.126   4.472   5.816 -0.1860  0.3217  0.0510
 9560SOL    HW140142   4.171   4.388   5.820  1.9905  1.5313  0.8912
 9560SOL    HW240143   4.097   4.471   5.907 -0.8131 -2.5080 -0.1745
 9561SOL     OW40144   1.093   2.052   2.713 -0.0269  0.0385  0.4168
 9561SOL    HW140145   1.063   2.058   2.804 -0.2959  1.5796  0.2174
 9561SOL    HW240146   1.087   2.132   2.661 -1.7266 -0.8718 -0.8319
 9562SOL     OW40147   2.660   2.961   5.271  0.1514 -0.9169  0.0878
 9562SOL    HW140148   2.737   2.937   5.218  1.0464  0.4197  0.8085
 9562SOL    HW240149   2.595   2.973   5.201 -1.6972 -0.0398  1.9594
 9563SOL     OW40150   4.358   4.081   5.664 -0.3086  0.2842 -0.2953
 9563SOL    HW140151   4.406   4.055   5.586  1.8730  0.6591  0.9327
 9563SOL    HW240152   4.430   4.084   5.727 -0.1870 -0.6188 -0.3949
 9564SOL     OW40153   0.307   0.012   7.407 -0.1854 -0.3284  0.0104
 9564SOL    HW140154   0.271   0.087   7.454  0.0621 -0.4759  0.4401
 9564SOL    HW240155   0.350   0.061   7.337  0.8822 -0.7510  0.3513
 9565SOL     OW40156   3.791   1.756   4.678  0.4428  0.1045 -0.5917
 9565SOL    HW140157   3.808   1.729   4.587  0.1308 -1.0031 -0.3167
 9565SOL    HW240158   3.696   1.742   4.677  0.3821  0.4288  1.2187
 9566SOL     OW40159   0.349   1.347  16.828  0.4923  0.3209  0.1937
 9566SOL    HW140160   0.372   1.411  16.761 -2.1300 -0.8556 -1.8478
 9566SOL    HW240161   0.320   1.403  16.900 -2.2454  1.2112 -1.6060
 9567SOL     OW40162   3.691   4.356   4.354  0.0225  0.2589 -0.0927
 9567SOL    HW140163   3.765   4.308   4.318  0.0772  0.0358  0.3176
 9567SOL    HW240164   3.628   4.311   4.298  0.4828 -0.3790 -0.0954
 9568SOL     OW40165   2.527   3.365   9.815  0.3786 -0.0345  0.0182
 9568SOL    HW140166   2.595   3.413   9.863  0.2869 -2.5791  2.7271
 9568SOL    HW240167   2.567   3.337   9.733 -0.2041  1.5026 -0.8068
   4.72511   4.72511  17.70180
